Membrane in water
40344
    1TMC1    C1    1   1.738   1.333  11.490  0.4259  0.1107 -0.0506
    1TMC1    C2    2   1.774   1.468  11.504  0.0434  0.1050  0.8286
    1TMC1    C3    3   1.821   1.538  11.400  1.0379  0.6007 -0.3332
    1TMC1    C4    4   1.739   1.280  11.369  0.4096 -0.5021  0.8998
    1TMC1    C5    5   1.761   1.365  11.262  0.3470  0.4879 -0.1746
    1TMC1    C6    6   1.808   1.493  11.269 -0.0313 -0.1961  0.0329
    1TMC1     C    7   1.646   1.295  11.594  0.5950 -0.0600 -0.3406
    1TMC1     O    8   1.584   1.383  11.647  0.3485  0.7656  0.3275
    1TMC1     H    9   1.789   1.507  11.604 -1.8568 -0.3909  1.3061
    1TMC1    H1   10   1.702   1.179  11.352  0.6245 -0.1131 -2.0258
    1TMC1    H2   11   1.829   1.557  11.184  3.1951 -1.7811 -0.3439
    1TMC1    C7   12   1.746   1.294  11.136 -0.2559 -0.8332  0.4755
    1TMC1    C8   13   1.878   1.672  11.431  0.5558 -0.0920  0.5009
    1TMC1    O1   14   1.780   1.175  11.127  0.3238  0.0018  0.1313
    1TMC1    O2   15   1.847   1.743  11.528  0.2049 -0.9926  0.4494
    1TMC1    O3   16   1.749   1.380  11.032  0.3417  0.4536  0.3102
    1TMC1    H3   17   1.694   1.457  11.058 -0.7918  0.0083 -0.7314
    1TMC1    O5   18   1.958   1.703  11.335 -0.4078  0.0836 -0.3888
    1TMC1    H5   19   1.957   1.639  11.260 -0.6064 -1.0374  0.5806
    2MPD2     C   20   1.364   0.926  11.829 -0.7506 -0.6685 -0.5589
    2MPD2    C1   21   1.376   1.062  11.854 -0.3527 -0.4548 -0.4628
    2MPD2    C2   22   1.455   1.137  11.773  0.3535 -0.4731  0.1442
    2MPD2    C3   23   1.540   1.083  11.674  0.0502 -0.8961 -0.3488
    2MPD2    C4   24   1.536   0.945  11.655 -0.6052  0.0577 -0.1018
    2MPD2    C5   25   1.439   0.872  11.723 -0.1123 -0.0153  0.2461
    2MPD2     H   26   1.448   1.245  11.781  0.3462 -0.5694  1.5906
    2MPD2    H1   27   1.585   0.894  11.572 -0.3404 -0.7554  0.5456
    2MPD2    H2   28   1.301   0.861  11.888  1.0156 -0.4508  1.5446
    2MPD2    H3   29   1.416   0.771  11.692 -1.7570  0.1802  0.8110
    2MPD2     N   30   1.627   1.159  11.594 -0.0728 -0.5321 -0.2360
    2MPD2    H5   31   1.689   1.106  11.534  0.0182 -1.6551  0.8570
    2MPD2    N1   32   1.299   1.132  11.958 -0.2123 -0.3895 -0.1204
    2MPD2    H7   33   1.322   1.231  11.970  0.8632 -0.3422 -2.8069
    3TMC1    C1   34   0.797   2.476  10.801  0.1552  1.0986  0.2521
    3TMC1    C2   35   0.881   2.554  10.726 -0.0767 -0.2673 -0.1291
    3TMC1    C3   36   1.004   2.508  10.692  0.0146 -0.7500  0.1142
    3TMC1    C4   37   0.843   2.361  10.864 -0.2140 -0.0268  0.0111
    3TMC1    C5   38   0.965   2.320  10.827 -0.4942  0.1074  0.1275
    3TMC1    C6   39   1.046   2.390  10.743  0.1457  0.5437  1.0001
    3TMC1     C   40   0.664   2.519  10.844 -0.2713 -0.0077 -0.2596
    3TMC1     O   41   0.590   2.442  10.901 -0.0054 -0.3292  0.4412
    3TMC1     H   42   0.842   2.648  10.689 -0.0299 -0.6546 -1.1513
    3TMC1    H1   43   0.777   2.323  10.941  1.2862 -0.0205  1.2959
    3TMC1    H2   44   1.137   2.341  10.710 -2.2113 -2.1574 -1.3950
    3TMC1    C7   45   1.010   2.198  10.886  0.4870 -0.1197 -0.3464
    3TMC1    C8   46   1.091   2.604  10.629 -0.0575 -0.0359 -0.2122
    3TMC1    O1   47   0.924   2.115  10.919 -0.4003  0.2179  0.7602
    3TMC1    O2   48   1.056   2.702  10.566 -0.3530 -0.4310  0.1322
    3TMC1    O3   49   1.127   2.221  10.940  0.2746  0.5049  0.5440
    3TMC1    H3   50   1.189   2.284  10.896  0.5905  1.4968  2.3845
    3TMC1    O5   51   1.215   2.553  10.622  0.1296 -0.0584 -0.0116
    3TMC1    H5   52   1.236   2.490  10.695  1.7622  0.8341  0.2895
    4MPD2     C   53   0.382   2.918  11.023 -0.1636 -0.3512 -0.3429
    4MPD2    C1   54   0.482   2.965  10.945 -0.1622  0.3204  0.4185
    4MPD2    C2   55   0.572   2.880  10.880  0.2921 -0.5991  0.2796
    4MPD2    C3   56   0.550   2.741  10.890  0.8000 -0.1831 -0.0467
    4MPD2    C4   57   0.443   2.696  10.965  0.0953 -0.5892 -0.4080
    4MPD2    C5   58   0.370   2.783  11.039  0.3666 -0.2141  0.0661
    4MPD2     H   59   0.656   2.922  10.827 -0.2450  1.7637  1.2843
    4MPD2    H1   60   0.417   2.592  10.985  1.6889 -1.2173 -1.6902
    4MPD2    H2   61   0.303   2.973  11.074  0.3981 -0.9544  1.1666
    4MPD2    H3   62   0.305   2.740  11.114  1.4232  0.2177  1.2422
    4MPD2     N   63   0.653   2.656  10.834  1.0100 -0.0091 -0.1021
    4MPD2    H5   64   0.733   2.705  10.794 -0.6308  1.6219 -1.3543
    4MPD2    N1   65   0.497   3.104  10.923  0.0325 -0.0424  0.1310
    4MPD2    H7   66   0.567   3.130  10.854  0.0016  0.7011  0.3682
    5TCq1    O1   67   2.029   4.094  11.981  0.3818  0.2277 -0.1416
    5TCq1    C1   68   2.029   4.117  11.850 -0.2255  0.1742 -0.3879
    5TCq1    O2   69   2.097   4.049  11.772 -0.0734  1.0732 -0.5723
    5TCq1    C2   70   1.892   4.164  11.819  0.7236 -0.7237  0.5554
    5TCq1    C3   71   1.856   4.275  11.892 -0.2198  0.2142 -0.4179
    5TCq1    C4   72   1.743   4.346  11.844 -0.7114 -0.0653 -0.6070
    5TCq1    C5   73   1.669   4.315  11.733 -1.0184 -0.5712  0.5314
    5TCq1    C6   74   1.715   4.195  11.672 -0.3708 -0.1696  0.4806
    5TCq1    C7   75   1.830   4.122  11.708 -0.2193  0.0117  0.3148
    5TCq1    C8   76   1.623   4.133  11.576 -0.4820  0.0163 -0.7900
    5TCq1    O4   77   1.657   4.030  11.517 -0.2108  0.0538 -0.0731
    5TCq1    C9   78   1.688   4.459  11.914 -0.0170 -0.4150 -0.4093
    5TCq1    O5   79   1.755   4.503  12.011  0.7207 -0.1877 -0.0342
    5TCq1    O6   80   1.576   4.505  11.878  0.1031 -1.1851  0.4298
    5TCq1    H1   81   1.941   4.105  12.023  0.0995 -1.0963 -0.3711
    5TCq1    H2   82   1.916   4.307  11.976 -0.0507  1.9645 -1.1958
    5TCq1    H3   83   1.577   4.366  11.708  0.2719  1.8447  0.7195
    5TCq1    H4   84   1.859   4.030  11.657 -1.2719 -0.7261  1.0374
    6MPD2     C   85   1.275   4.206  11.526  0.0196  0.0966 -0.7643
    6MPD2    C1   86   1.394   4.159  11.482 -0.1257  0.1851 -0.1275
    6MPD2    C2   87   1.415   4.092  11.365 -0.2989 -0.3778  0.1802
    6MPD2    C3   88   1.301   4.063  11.290 -0.1588  0.4920  0.4734
    6MPD2    C4   89   1.175   4.103  11.328  0.0229  0.5364  0.4020
    6MPD2    C5   90   1.161   4.173  11.449  0.0862  0.0685  0.6705
    6MPD2     H   91   1.511   4.059  11.326 -1.9309 -3.0954 -1.5462
    6MPD2    H1   92   1.086   4.081  11.270  0.6594  2.5074 -1.2895
    6MPD2    H2   93   1.270   4.270  11.613 -2.1779 -0.5945 -0.3958
    6MPD2    H3   94   1.065   4.217  11.476 -0.1799  0.3082 -0.6849
    6MPD2     N   95   1.329   3.981  11.182  0.2706 -1.2035  0.5802
    6MPD2    H5   96   1.424   3.947  11.176  1.6513  2.8599 -0.9942
    6MPD2    N1   97   1.499   4.190  11.569 -0.0695  0.1060  0.0593
    6MPD2    H7   98   1.475   4.257  11.641 -2.8178 -1.4741  0.6044
    7TCq1    O1   99   4.335   3.850  13.609 -0.0780 -0.2287 -0.1360
    7TCq1    C1  100   4.332   3.892  13.481 -0.3303 -0.4850  0.7859
    7TCq1    O2  101   4.403   3.839  13.393  0.0378  0.0682 -0.1623
    7TCq1    C2  102   4.190   3.902  13.445  0.0542  0.2906  0.0462
    7TCq1    C3  103   4.121   4.005  13.509  0.0018  0.3671 -0.3711
    7TCq1    C4  104   3.987   3.990  13.511  0.0711 -0.2770  0.5220
    7TCq1    C5  105   3.922   3.883  13.452 -0.3851 -0.2500  0.5030
    7TCq1    C6  106   4.003   3.781  13.404  0.2540 -0.3752  0.0418
    7TCq1    C7  107   4.137   3.791  13.403 -0.0937  0.4261  0.4783
    7TCq1    C8  108   3.947   3.670  13.331  0.2051  0.1203 -0.0170
    7TCq1    O4  109   4.022   3.579  13.307 -0.1395 -0.2300 -0.4035
    7TCq1    C9  110   3.907   4.101  13.558  0.1682  0.4918  1.2216
    7TCq1    O5  111   3.784   4.100  13.526 -0.1820 -0.2147 -0.0691
    7TCq1    O6  112   3.957   4.191  13.629 -0.1382  0.0765  0.1754
    7TCq1    H1  113   4.242   3.854  13.640  0.3162 -1.3569  1.1586
    7TCq1    H2  114   4.167   4.096  13.547  0.7997  0.1745 -0.8772
    7TCq1    H3  115   3.817   3.873  13.478 -0.5115 -3.1286 -1.1737
    7TCq1    H4  116   4.193   3.703  13.372  1.4432  0.6428  2.6409
    8MPD2     C  117   3.540   3.417  13.160  0.1599 -0.1842  0.7049
    8MPD2    C1  118   3.663   3.374  13.208 -0.1299  0.1968  0.2480
    8MPD2    C2  119   3.753   3.474  13.240 -0.5458  0.2548  0.6621
    8MPD2    C3  120   3.725   3.604  13.236 -0.2863 -0.7306 -0.3866
    8MPD2    C4  121   3.606   3.647  13.189  0.2527 -0.1621  0.2555
    8MPD2    C5  122   3.514   3.555  13.156 -0.9315 -0.0875 -0.3489
    8MPD2     H  123   3.855   3.441  13.256 -1.1254 -0.8704  2.0831
    8MPD2    H1  124   3.581   3.752  13.193  1.8270  0.1974  0.7567
    8MPD2    H2  125   3.458   3.351  13.133 -0.0322 -0.0964  1.0703
    8MPD2    H3  126   3.425   3.588  13.104 -1.2214 -0.2240  0.0572
    8MPD2     N  127   3.818   3.698  13.285  0.3260 -0.1496 -0.4679
    8MPD2    H5  128   3.789   3.793  13.303 -2.4666 -0.6851 -2.1533
    8MPD2    N1  129   3.701   3.238  13.229  0.4659 -0.1647  0.8302
    8MPD2    H7  130   3.791   3.222  13.273  0.2237 -1.3020  0.9020
    9TMC1    C1  131   0.627   3.101  11.436 -0.2717  0.5915 -0.0832
    9TMC1    C2  132   0.610   3.212  11.367 -0.8019 -0.0465  0.5393
    9TMC1    C3  133   0.544   3.320  11.415 -0.2648  0.7536 -0.5730
    9TMC1    C4  134   0.583   3.098  11.564  0.2278  0.4333  0.2687
    9TMC1    C5  135   0.529   3.211  11.615  0.4110  0.4792  0.5825
    9TMC1    C6  136   0.489   3.318  11.540 -0.1306 -0.1280 -0.2292
    9TMC1     C  137   0.745   3.026  11.399 -0.2441  0.1627  0.3398
    9TMC1     O  138   0.803   3.073  11.301 -0.0423  0.0421  0.5243
    9TMC1     H  139   0.642   3.222  11.264 -0.6750  0.1591  0.5979
    9TMC1    H1  140   0.612   3.012  11.624  1.7683 -0.7104 -2.1044
    9TMC1    H2  141   0.438   3.398  11.592  2.7176  1.3142  0.3626
    9TMC1    C7  142   0.475   3.204  11.750 -0.1712  0.1703  0.4090
    9TMC1    C8  143   0.512   3.437  11.339  0.1609 -0.2293  0.4286
    9TMC1    O1  144   0.361   3.242  11.788  0.3337 -0.0282  0.2161
    9TMC1    O2  145   0.578   3.485  11.248  0.8881  0.1419  0.0343
    9TMC1    O3  146   0.558   3.130  11.831 -0.2256 -0.0525  0.1524
    9TMC1    H3  147   0.649   3.117  11.797 -0.3029 -0.9719  0.3064
    9TMC1    O5  148   0.376   3.452  11.349 -0.0065 -0.1365 -0.3907
    9TMC1    H5  149   0.326   3.405  11.419 -0.6088  4.0619  2.0168
   10MPD2     C  150   1.017   2.894  11.390  0.5774  0.0949  0.0597
   10MPD2    C1  151   0.907   2.847  11.465 -0.1851  1.2615  0.4055
   10MPD2    C2  152   0.920   2.718  11.511  0.5485  0.5669 -0.0214
   10MPD2    C3  153   1.032   2.637  11.504  0.0804  0.1360 -0.5335
   10MPD2    C4  154   1.141   2.690  11.430 -0.5640 -0.7874 -0.0384
   10MPD2    C5  155   1.130   2.817  11.376  0.0894 -0.3253  0.2868
   10MPD2     H  156   0.833   2.685  11.565  1.4565 -1.1712  0.3595
   10MPD2    H1  157   1.236   2.644  11.404  0.4127  0.5681  1.0818
   10MPD2    H2  158   1.016   2.993  11.348  0.4452  0.2927  0.5310
   10MPD2    H3  159   1.214   2.868  11.330 -1.2738  0.5440 -1.2402
   10MPD2     N  160   1.051   2.507  11.561  0.1411  0.1351 -0.3695
   10MPD2    H5  161   1.144   2.468  11.559 -0.2561 -0.8470  0.1429
   10MPD2    N1  162   0.784   2.923  11.482  0.7627  0.5272 -0.3477
   10MPD2    H7  163   0.712   2.878  11.539 -0.3165  0.0086 -2.1337
   11TCq1    O1  164   1.942   2.557  13.794  0.5923 -0.0100  0.5956
   11TCq1    C1  165   1.998   2.482  13.694 -0.4447 -1.0966  1.5002
   11TCq1    O2  166   1.929   2.422  13.611 -0.7296 -0.1876 -0.1375
   11TCq1    C2  167   2.134   2.453  13.728 -0.0725 -0.8614 -0.0856
   11TCq1    C3  168   2.220   2.526  13.809  0.4579 -0.0545 -0.7169
   11TCq1    C4  169   2.348   2.485  13.833 -0.2318 -0.1575  0.8810
   11TCq1    C5  170   2.389   2.372  13.781 -0.4494  0.1677  0.2726
   11TCq1    C6  171   2.296   2.294  13.707 -0.2349  0.5907  0.0024
   11TCq1    C7  172   2.174   2.342  13.673  0.0890 -0.2970  0.2869
   11TCq1    C8  173   2.367   2.185  13.634  0.6634 -0.3003 -0.2631
   11TCq1    O4  174   2.493   2.169  13.645  0.5029  0.0136 -0.0461
   11TCq1    C9  175   2.433   2.568  13.909  0.1531 -0.3054 -0.6881
   11TCq1    O5  176   2.404   2.691  13.928 -0.5203 -0.7459 -0.1499
   11TCq1    O6  177   2.532   2.508  13.959  0.0956 -0.0802  0.1435
   11TCq1    H1  178   2.013   2.571  13.861  1.0618 -2.2411  0.5546
   11TCq1    H2  179   2.192   2.626  13.840  0.4457 -1.0677  2.4779
   11TCq1    H3  180   2.489   2.337  13.803 -0.3578  0.3482  0.1433
   11TCq1    H4  181   2.123   2.295  13.590 -2.7336  0.4688  1.5907
   12MPD2     C  182   2.438   1.985  13.419 -0.8517 -0.5644 -0.0880
   12MPD2    C1  183   2.311   1.993  13.476  0.4671  0.5232 -0.1204
   12MPD2    C2  184   2.209   1.919  13.426 -0.3688  1.0562  0.5044
   12MPD2    C3  185   2.242   1.811  13.340 -0.9607 -0.0173  0.3048
   12MPD2    C4  186   2.368   1.801  13.284 -0.2519 -0.0173  0.1118
   12MPD2    C5  187   2.459   1.898  13.316  0.1367 -0.0853  0.3806
   12MPD2     H  188   2.109   1.933  13.467 -1.0308 -0.6285 -0.5361
   12MPD2    H1  189   2.382   1.728  13.205 -0.7354  1.8529 -1.7141
   12MPD2    H2  190   2.524   2.046  13.444 -0.2742 -0.2538 -2.8298
   12MPD2    H3  191   2.552   1.892  13.260  1.1210 -1.2840  2.1270
   12MPD2     N  192   2.146   1.714  13.302 -0.1316  0.3728  0.4667
   12MPD2    H5  193   2.171   1.641  13.237 -0.6561  0.0958  0.5724
   12MPD2    N1  194   2.282   2.096  13.573  0.1345 -0.0839 -0.3070
   12MPD2    H7  195   2.186   2.120  13.595  0.1310  1.3168 -1.9111
   13TCq1    O1  196   1.697   2.882  11.277 -0.1757 -0.2218 -0.1817
   13TCq1    C1  197   1.587   2.810  11.292 -0.3554 -0.5546  0.2653
   13TCq1    O2  198   1.478   2.860  11.306 -0.1324  0.2612 -0.2187
   13TCq1    C2  199   1.623   2.671  11.329  0.1129 -0.6676 -0.5929
   13TCq1    C3  200   1.731   2.606  11.270 -0.6844  0.7143  0.1755
   13TCq1    C4  201   1.747   2.475  11.291  0.6791 -0.3260 -0.2007
   13TCq1    C5  202   1.646   2.401  11.354 -0.2223 -0.4235 -0.4940
   13TCq1    C6  203   1.532   2.463  11.387  0.4573 -0.7677  0.2159
   13TCq1    C7  204   1.520   2.597  11.387 -0.1058  0.3732  0.3939
   13TCq1    C8  205   1.426   2.389  11.458 -0.9576  0.4090 -0.0941
   13TCq1    O4  206   1.317   2.443  11.465 -0.0973  0.2747  0.3062
   13TCq1    C9  207   1.856   2.396  11.231  0.2097  0.4985 -0.4880
   13TCq1    O5  208   1.844   2.272  11.230  0.5353  0.4279 -0.3453
   13TCq1    O6  209   1.947   2.450  11.167  0.6284  0.3863  0.0695
   13TCq1    H1  210   1.785   2.838  11.279  1.2335  2.4966 -2.2081
   13TCq1    H2  211   1.811   2.659  11.219  1.4766 -2.3348  0.3932
   13TCq1    H3  212   1.663   2.294  11.359  1.6082 -0.1623 -1.3114
   13TCq1    H4  213   1.427   2.640  11.420 -1.0310 -1.4626  0.1638
   14MPD2     C  214   1.437   2.030  11.528  0.3168 -0.2979  0.4526
   14MPD2    C1  215   1.373   2.151  11.500  0.4870  0.6382 -0.2402
   14MPD2    C2  216   1.238   2.150  11.496 -0.6868  0.1873 -0.7334
   14MPD2    C3  217   1.164   2.041  11.520  0.4918  0.1116  0.0584
   14MPD2    C4  218   1.231   1.920  11.541  0.5543  0.3578 -0.2028
   14MPD2    C5  219   1.368   1.918  11.546  0.1629 -0.5464  0.0452
   14MPD2     H  220   1.184   2.243  11.480  1.6543  1.7497  0.3951
   14MPD2    H1  221   1.180   1.827  11.559 -0.2121  0.9384  0.6345
   14MPD2    H2  222   1.545   2.034  11.529  0.2658  1.3378 -1.4546
   14MPD2    H3  223   1.422   1.826  11.559  0.6629 -0.4446 -1.3185
   14MPD2     N  224   1.023   2.052  11.520 -0.2348 -0.4102  0.1991
   14MPD2    H5  225   0.979   2.130  11.472 -1.9407 -0.5124  1.5914
   14MPD2    N1  226   1.464   2.258  11.483  0.1477  0.5612 -0.7197
   14MPD2    H7  227   1.563   2.236  11.481  0.4234  1.7592  0.0468
   15TCq1    O1  228   2.888   1.456   1.413 -0.4681  0.1972  0.2401
   15TCq1    C1  229   2.792   1.521   1.344 -0.3348  0.7373 -0.4380
   15TCq1    O2  230   2.769   1.640   1.348 -0.0864 -0.0449  0.5280
   15TCq1    C2  231   2.718   1.438   1.252  0.9425 -0.2394  0.0311
   15TCq1    C3  232   2.600   1.479   1.200 -0.3307  0.0338 -0.2751
   15TCq1    C4  233   2.540   1.410   1.103 -0.3513  0.5762 -0.3610
   15TCq1    C5  234   2.607   1.308   1.041  0.0437  0.6296  0.0759
   15TCq1    C6  235   2.733   1.265   1.081 -0.4418  0.5489  0.3265
   15TCq1    C7  236   2.785   1.330   1.191  0.1070  0.0062 -0.4029
   15TCq1    C8  237   2.778   1.132   1.045  0.5887 -1.0701 -0.1942
   15TCq1    O4  238   2.899   1.099   1.065  0.2567  0.3514 -0.3923
   15TCq1    C9  239   2.415   1.452   1.051  0.2310 -0.3791  0.6005
   15TCq1    O5  240   2.366   1.383   0.958 -0.6106 -0.0718 -0.2155
   15TCq1    O6  241   2.379   1.568   1.076 -0.1555  0.2652 -0.5315
   15TCq1    H1  242   2.903   1.367   1.375  0.3343  0.2123  0.5228
   15TCq1    H2  243   2.549   1.568   1.236 -0.9285 -0.7677  0.8672
   15TCq1    H3  244   2.562   1.264   0.952  1.5305 -0.9870  0.1330
   15TCq1    H4  245   2.876   1.287   1.232 -1.9570 -2.8459  1.1111
   16MPD2     C  246   2.578   0.863   0.893  0.0508 -0.5366 -0.3329
   16MPD2    C1  247   2.693   0.928   0.930  0.8033 -0.5137  0.1842
   16MPD2    C2  248   2.816   0.866   0.909  0.3903  0.1993  0.1735
   16MPD2    C3  249   2.828   0.747   0.835 -0.1191 -0.1197  0.4836
   16MPD2    C4  250   2.709   0.690   0.785  0.2451  0.4390 -0.6608
   16MPD2    C5  251   2.587   0.739   0.832 -0.7906 -0.3552 -0.4429
   16MPD2     H  252   2.911   0.907   0.942 -0.4701  1.8548  0.5634
   16MPD2    H1  253   2.705   0.602   0.723 -0.5601 -0.7219  1.0359
   16MPD2    H2  254   2.482   0.903   0.922  0.4537 -0.7170  1.3019
   16MPD2    H3  255   2.496   0.691   0.797 -0.9560 -0.0441 -0.4339
   16MPD2     N  256   2.956   0.692   0.807  0.1097 -0.3746  0.1763
   16MPD2    H5  257   3.041   0.733   0.844  1.4804  1.0170 -4.5663
   16MPD2    N1  258   2.674   1.054   0.997 -0.5220  0.1705  0.2912
   16MPD2    H7  259   2.578   1.081   1.016 -0.2553  0.0810  1.7816
   17TMC1    C1  260   2.294   1.617  11.732 -0.6163  0.3309 -0.1512
   17TMC1    C2  261   2.278   1.624  11.871 -0.4860 -0.9919  0.0204
   17TMC1    C3  262   2.352   1.719  11.953  0.0964 -0.2655 -0.0115
   17TMC1    C4  263   2.391   1.696  11.676 -0.3155 -0.8240  0.8731
   17TMC1    C5  264   2.448   1.782  11.752 -0.4941  0.1515  0.2928
   17TMC1    C6  265   2.430   1.809  11.887 -0.2807  0.7855  0.0822
   17TMC1     C  266   2.228   1.511  11.663  0.0712 -0.4828 -0.4495
   17TMC1     O  267   2.175   1.422  11.724  0.1145 -0.0363  0.1519
   17TMC1     H  268   2.214   1.553  11.922 -0.3977 -1.3533 -0.3780
   17TMC1    H1  269   2.422   1.678  11.574 -1.1150 -0.0684  0.4973
   17TMC1    H2  270   2.494   1.884  11.931  1.0608 -1.0272  1.2127
   17TMC1    C7  271   2.565   1.832  11.688 -0.2482 -0.6830 -0.0629
   17TMC1    C8  272   2.300   1.760  12.087 -0.3505  0.4651 -0.0437
   17TMC1    O1  273   2.581   1.840  11.568 -0.7732  0.5148 -0.1986
   17TMC1    O2  274   2.186   1.738  12.131  0.2170 -0.1255 -0.1641
   17TMC1    O3  275   2.661   1.800  11.775  0.5805  0.1950  0.0971
   17TMC1    H3  276   2.619   1.769  11.859  1.2577  0.0775  0.3878
   17TMC1    O5  277   2.393   1.816  12.158 -0.3495  0.3839  0.0652
   17TMC1    H5  278   2.482   1.810  12.116  0.8150  1.8112  2.3236
   18MPD2     C  279   2.149   1.317  11.450 -0.4081 -0.2116 -0.1498
   18MPD2    C1  280   2.185   1.450  11.425 -0.4583  0.6086 -0.3460
   18MPD2    C2  281   2.178   1.493  11.295  0.3617  0.3370  0.4806
   18MPD2    C3  282   2.133   1.411  11.192 -0.0352  0.9149 -0.4822
   18MPD2    C4  283   2.092   1.279  11.213  0.1806 -0.9041 -0.0705
   18MPD2    C5  284   2.108   1.231  11.346 -0.1626  0.2317 -0.1560
   18MPD2     H  285   2.212   1.593  11.270 -0.2971  0.6550  0.8679
   18MPD2    H1  286   2.050   1.212  11.139  0.1692 -1.9100  0.8437
   18MPD2    H2  287   2.160   1.274  11.548 -0.6801  3.0132  1.2894
   18MPD2    H3  288   2.063   1.137  11.376 -1.5811  1.4473  1.4887
   18MPD2     N  289   2.119   1.465  11.063  0.2091  0.2606 -0.0664
   18MPD2    H5  290   2.098   1.400  10.987 -0.6472 -2.0555  2.1541
   18MPD2    N1  291   2.229   1.538  11.530 -0.1485 -0.0879  0.1339
   18MPD2    H7  292   2.248   1.633  11.500 -1.9244  0.4878  0.8737
   19TMC2    C1  293   3.123   2.259  14.301 -0.0985 -0.6489  0.3408
   19TMC2    C2  294   3.052   2.353  14.365  0.2913  0.2162  0.0086
   19TMC2    C3  295   2.917   2.360  14.344 -0.5309  0.8612 -0.3529
   19TMC2    C4  296   3.055   2.156  14.235  1.1200  0.4398 -0.4620
   19TMC2    C5  297   2.922   2.167  14.217  0.4723  0.0417  0.2687
   19TMC2    C6  298   2.852   2.270  14.260  1.0868  0.1788  1.3212
   19TMC2     C  299   3.261   2.244  14.339 -0.0240  0.1010 -0.3429
   19TMC2     O  300   3.313   2.351  14.377 -0.5728  0.9985 -0.0750
   19TMC2     H  301   3.100   2.423  14.433  0.0220 -0.6072  1.0442
   19TMC2    H1  302   3.101   2.071  14.187  2.0960  1.9077 -2.1285
   19TMC2    H2  303   2.748   2.271  14.231  2.0642  0.1326 -2.1754
   19TMC2    C7  304   2.853   2.052  14.164  0.0866 -0.7458 -0.1003
   19TMC2    C8  305   2.836   2.466  14.389 -0.2257  0.0716 -0.1143
   19TMC2    O1  306   2.908   1.948  14.174  0.3504  0.3155  0.2274
   19TMC2    O2  307   2.741   2.504  14.322  0.1616 -0.0290  0.2547
   19TMC2    O5  308   2.910   2.538  14.479  0.2255 -0.7648  0.5740
   19TMC2    H5  309   2.974   2.482  14.528 -0.9042 -1.7441  0.8979
   20MPD2     C  310   3.536   2.150  14.388  0.1533 -0.5128  0.1945
   20MPD2    C1  311   3.428   2.068  14.391  0.2224 -1.1628 -0.6658
   20MPD2    C2  312   3.446   1.936  14.420 -0.0708  0.1197 -0.6115
   20MPD2    C3  313   3.577   1.885  14.434  0.1871 -0.7445 -0.1853
   20MPD2    C4  314   3.675   1.975  14.449 -0.2237  0.3746  0.1318
   20MPD2    C5  315   3.650   2.107  14.436  0.4086  0.1868 -0.3232
   20MPD2     H  316   3.364   1.864  14.421  0.3015 -0.2954  0.3090
   20MPD2    H1  317   3.774   1.943  14.481 -0.9986 -0.2289  1.9503
   20MPD2    H2  318   3.524   2.258  14.383  1.9558 -0.2965  0.7012
   20MPD2    H3  319   3.731   2.180  14.440  1.4090 -0.8109 -2.5712
   20MPD2     N  320   3.603   1.747  14.459  0.7653  0.3898 -0.4140
   20MPD2    H5  321   3.701   1.723  14.464  0.5530 -0.6781 -1.4204
   20MPD2    N1  322   3.299   2.116  14.351  0.2081  0.8986 -0.0524
   20MPD2    H7  323   3.223   2.050  14.359  1.9710 -1.4830 -2.6839
   21TMC2    C1  324   0.602   2.288  14.161 -0.1117 -0.4367 -0.5368
   21TMC2    C2  325   0.657   2.164  14.187  0.2025 -0.4449  1.1866
   21TMC2    C3  326   0.622   2.105  14.305  0.0566 -0.3096 -0.5052
   21TMC2    C4  327   0.496   2.332  14.240 -0.3501  0.0178 -0.3117
   21TMC2    C5  328   0.449   2.257  14.341 -0.4332  0.4410  0.3896
   21TMC2    C6  329   0.517   2.144  14.384 -0.6880  0.6259 -0.3666
   21TMC2     C  330   0.686   2.369  14.075  0.2183  0.7384 -0.8677
   21TMC2     O  331   0.788   2.322  14.024  0.3326  0.2759 -0.0021
   21TMC2     H  332   0.752   2.135  14.144 -0.1795 -2.1527  1.4931
   21TMC2    H1  333   0.468   2.437  14.230 -0.8657 -0.0850  0.0454
   21TMC2    H2  334   0.491   2.076  14.464  0.9864  2.0379  1.3877
   21TMC2    C7  335   0.345   2.298  14.437 -0.4014  0.1159  0.0629
   21TMC2    C8  336   0.708   2.003  14.352  0.1110 -0.1461  0.3550
   21TMC2    O1  337   0.347   2.258  14.553  0.4102 -0.3450 -0.7886
   21TMC2    O2  338   0.714   1.960  14.468 -0.0503 -1.0062 -0.4346
   21TMC2    O5  339   0.756   1.936  14.241  0.6674 -0.0452  0.0217
   21TMC2    H5  340   0.711   1.950  14.155  0.5391 -1.9895 -0.2336
   22MPD2     C  341   0.821   2.794  13.831  0.0652  1.0882  0.4972
   22MPD2    C1  342   0.894   2.691  13.884 -0.2977  0.6839  0.1270
   22MPD2    C2  343   0.833   2.584  13.948  0.3152  0.1181 -0.1695
   22MPD2    C3  344   0.699   2.593  13.974  0.4744 -0.0053 -0.3924
   22MPD2    C4  345   0.626   2.696  13.921 -0.1503 -0.1107  0.4717
   22MPD2    C5  346   0.685   2.795  13.848 -1.2907  0.1071  0.9830
   22MPD2     H  347   0.897   2.503  13.982 -1.0670 -1.3875 -1.1589
   22MPD2    H1  348   0.518   2.692  13.924 -0.2427  1.6141 -0.3655
   22MPD2    H2  349   0.860   2.880  13.778  0.8373 -0.7935 -1.9284
   22MPD2    H3  350   0.625   2.871  13.800 -0.8356  0.3558  0.8025
   22MPD2     N  351   0.629   2.490  14.049  0.0005  0.2501 -0.5585
   22MPD2    H5  352   0.535   2.511  14.081  1.1495  0.4665  2.6257
   22MPD2    N1  353   1.035   2.679  13.872  0.5380  0.3491 -0.2655
   22MPD2    H7  354   1.079   2.605  13.925  0.4652  0.9561  0.6490
   23TMC2    C1  355   1.996   3.271  14.142  0.1636  0.3830 -0.3220
   23TMC2    C2  356   2.122   3.231  14.103  0.7847 -0.2133 -0.1329
   23TMC2    C3  357   2.137   3.185  13.973  0.6188 -0.4460  0.7456
   23TMC2    C4  358   1.895   3.237  14.063  0.5929  0.1069  0.0240
   23TMC2    C5  359   1.920   3.200  13.929  0.1519  0.0870  0.3428
   23TMC2    C6  360   2.039   3.175  13.882 -0.2952 -0.1775  1.3786
   23TMC2     C  361   1.982   3.299  14.275  0.4730 -0.2849 -0.9898
   23TMC2     O  362   2.066   3.252  14.353 -0.1083  0.2027  0.1958
   23TMC2     H  363   2.204   3.240  14.174 -0.2828 -0.8043  1.1918
   23TMC2    H1  364   1.793   3.258  14.095  1.0594 -0.0311  1.5793
   23TMC2    H2  365   2.048   3.148  13.778 -0.8050  2.2171  0.7070
   23TMC2    C7  366   1.806   3.186  13.843 -0.0995 -0.2047 -0.3304
   23TMC2    C8  367   2.277   3.179  13.934  0.5022  0.4059 -0.5823
   23TMC2    O1  368   1.826   3.198  13.725  0.6896  0.8503  0.0178
   23TMC2    O2  369   2.357   3.237  14.004  0.4539 -0.2115  0.0001
   23TMC2    O5  370   2.289   3.159  13.800 -0.0251  0.2163  0.0138
   23TMC2    H5  371   2.225   3.091  13.769 -0.3079 -0.2041  1.5640
   24MPD2     C  372   1.668   3.451  14.661  0.3988  0.2257 -0.0337
   24MPD2    C1  373   1.788   3.385  14.665 -0.0637 -0.3895  0.2954
   24MPD2    C2  374   1.864   3.351  14.551 -0.0240 -0.4996  0.8013
   24MPD2    C3  375   1.815   3.399  14.430 -0.0524 -0.4134 -0.3763
   24MPD2    C4  376   1.699   3.475  14.425 -0.5914 -0.5636 -0.1198
   24MPD2    C5  377   1.626   3.497  14.542  0.1415 -0.2912  0.1368
   24MPD2     H  378   1.956   3.295  14.564 -0.3068 -1.2733 -0.5188
   24MPD2    H1  379   1.664   3.511  14.329  0.8799 -0.0457 -0.4582
   24MPD2    H2  380   1.620   3.466  14.757  1.1925  0.0010  0.3967
   24MPD2    H3  381   1.533   3.553  14.533  0.1914 -0.1830  0.2834
   24MPD2     N  382   1.861   3.360  14.307  0.7474  0.5378  0.8904
   24MPD2    H5  383   1.812   3.409  14.232  1.8023 -0.6737 -0.6003
   24MPD2    N1  384   1.838   3.350  14.798 -0.1753 -0.8472 -0.8730
   24MPD2    H7  385   1.912   3.282  14.801 -1.3153 -1.8987  3.0925
   25TMC2    C1  386   1.218   0.918  11.468 -0.1855  0.4127  0.1092
   25TMC2    C2  387   1.290   0.996  11.396 -0.8613  0.5032 -0.2483
   25TMC2    C3  388   1.282   1.127  11.417 -0.4850  0.3480  0.0056
   25TMC2    C4  389   1.140   0.971  11.570 -0.2712  0.2945 -0.4187
   25TMC2    C5  390   1.141   1.104  11.595 -0.4114  0.0975 -1.0751
   25TMC2    C6  391   1.197   1.185  11.512  0.1118  0.6819  0.1432
   25TMC2     C  392   1.183   0.782  11.413  0.4062  0.0833  1.4170
   25TMC2     O  393   1.272   0.736  11.346 -0.5362 -0.0191 -0.3428
   25TMC2     H  394   1.340   0.946  11.314 -0.7487 -0.8444  0.6338
   25TMC2    H1  395   1.102   0.903  11.646  2.2876 -0.6372  0.0256
   25TMC2    H2  396   1.215   1.286  11.545  1.5713  0.8766 -1.2409
   25TMC2    C7  397   1.055   1.152  11.702  0.4566  0.5166  0.3075
   25TMC2    C8  398   1.363   1.211  11.336  0.3409 -0.1921  0.6320
   25TMC2    O1  399   1.023   1.075  11.791  0.8730 -0.0049 -0.6735
   25TMC2    O2  400   1.464   1.169  11.273 -0.2997  0.3157 -0.0140
   25TMC2    O5  401   1.325   1.340  11.338 -0.1305 -0.6228 -0.2543
   25TMC2    H5  402   1.238   1.363  11.378  1.1685 -0.1204  2.3057
   26MPD2     C  403   0.837   0.459  11.226  0.9484  0.5967 -0.4626
   26MPD2    C1  404   0.774   0.578  11.249 -0.2023 -0.3671  0.6327
   26MPD2    C2  405   0.852   0.675  11.306 -0.2520  0.3397  0.1845
   26MPD2    C3  406   0.985   0.656  11.333 -0.0753  0.7311  0.6661
   26MPD2    C4  407   1.046   0.536  11.300 -0.2439 -0.2446 -0.4398
   26MPD2    C5  408   0.962   0.433  11.259  0.7290 -0.5963  0.2180
   26MPD2     H  409   0.810   0.765  11.349 -3.2789 -1.1666  0.4050
   26MPD2    H1  410   1.147   0.510  11.330 -0.4776  0.9127  1.3929
   26MPD2    H2  411   0.778   0.380  11.180 -0.7848  1.1252  0.8559
   26MPD2    H3  412   0.999   0.331  11.257  2.2538 -0.0314 -0.3154
   26MPD2     N  413   1.047   0.766  11.401  0.8551 -0.7470 -0.4713
   26MPD2    H5  414   0.988   0.832  11.452  1.7013  0.1502 -0.6656
   26MPD2    N1  415   0.637   0.597  11.225 -0.0066  0.1903 -0.3118
   26MPD2    H7  416   0.588   0.509  11.212 -1.7818  1.2665 -0.9334
   27TMC2    C1  417   4.597   3.513  12.150  0.5391  0.4647 -0.1359
   27TMC2    C2  418   4.497   3.563  12.067  0.1788 -1.0563  0.5218
   27TMC2    C3  419   4.511   3.691  12.016 -0.1216  0.5206 -0.0818
   27TMC2    C4  420   4.715   3.580  12.179  0.5216  0.7018 -0.3689
   27TMC2    C5  421   4.722   3.707  12.131 -0.3216  0.4852  0.4920
   27TMC2    C6  422   4.625   3.760  12.051 -0.7519 -0.3494  0.3984
   27TMC2     C  423   4.590   3.374  12.194  0.0324 -0.5984 -0.1464
   27TMC2     O  424   4.697   3.331  12.227  0.1898 -0.2043 -0.5226
   27TMC2     H  425   4.405   3.504  12.063 -0.0715 -0.6548  0.4063
   27TMC2    H1  426   0.057   3.558  12.248 -0.6207 -1.0824  0.3739
   27TMC2    H2  427   4.635   3.866  12.028 -0.2661 -0.1505  1.4940
   27TMC2    C7  428   0.090   3.790  12.182  0.5511  0.2286 -0.3753
   27TMC2    C8  429   4.413   3.762  11.930  0.1023  0.0530  0.2867
   27TMC2    O1  430   0.118   3.872  12.100  0.1096  0.3696  0.0806
   27TMC2    O2  431   4.417   3.886  11.923  0.6271  0.3817 -0.0164
   27TMC2    O5  432   4.306   3.674  11.904  0.4297  0.0030 -0.1255
   27TMC2    H5  433   4.342   3.583  11.910 -1.4314 -0.7160  0.1116
   28MPD2     C  434   4.368   3.017  12.491 -0.6024  0.2007 -0.2993
   28MPD2    C1  435   4.280   3.117  12.455 -0.0787 -0.3396 -0.4524
   28MPD2    C2  436   4.307   3.210  12.356  0.1358  0.5143  0.3638
   28MPD2    C3  437   4.433   3.213  12.303  0.4423  0.2217 -0.0295
   28MPD2    C4  438   4.530   3.118  12.339  0.0089  0.2686 -0.2148
   28MPD2    C5  439   4.493   3.014  12.430  0.0128  0.2827  0.4317
   28MPD2     H  440   4.230   3.280  12.326 -1.4657 -1.5996 -0.4873
   28MPD2    H1  441   4.631   3.114  12.301  0.0489  0.7676 -0.1653
   28MPD2    H2  442   4.340   2.935  12.556  1.2764  0.0687  0.3318
   28MPD2    H3  443   4.568   2.942  12.460 -2.3684 -2.0694  0.7080
   28MPD2     N  444   4.462   3.332  12.226  0.2261 -0.0564 -0.6568
   28MPD2    H5  445   4.384   3.397  12.215  0.2452 -0.0501 -0.7624
   28MPD2    N1  446   4.151   3.116  12.523 -0.5533 -0.0853  0.4214
   28MPD2    H7  447   4.145   3.056  12.605  0.2525 -0.5529  0.1327
   29TMC2    C1  448   3.547   0.741  14.078 -1.1443 -0.1484 -0.6248
   29TMC2    C2  449   3.509   0.730  14.206  0.0313  0.1219 -0.4918
   29TMC2    C3  450   3.581   0.802  14.301  0.6688 -0.8938  0.1152
   29TMC2    C4  451   3.661   0.814  14.048  0.0810  0.3886  0.4615
   29TMC2    C5  452   3.727   0.886  14.141 -0.2773 -0.1131  0.2575
   29TMC2    C6  453   3.688   0.885  14.271  0.5757  0.5426  0.3541
   29TMC2     C  454   3.521   0.625  13.998  0.1868  0.1391 -0.3515
   29TMC2     O  455   3.620   0.562  13.971  0.5337  0.4909  0.1040
   29TMC2     H  456   3.421   0.671  14.227 -0.6367  0.4291 -2.4772
   29TMC2    H1  457   3.683   0.820  13.942 -0.5564  0.1611  0.3142
   29TMC2    H2  458   3.721   0.958  14.344 -1.7054 -0.7685  2.6827
   29TMC2    C7  459   3.798   1.002  14.091 -0.0383 -0.7828 -0.0093
   29TMC2    C8  460   3.532   0.781  14.431 -0.6055  0.4571  0.6698
   29TMC2    O1  461   3.787   1.025  13.968  0.1573  0.7158 -0.3124
   29TMC2    O2  462   3.457   0.692  14.463  0.0968 -0.4580 -0.5024
   29TMC2    O5  463   3.585   0.874  14.513 -0.1048 -0.4797 -0.0366
   29TMC2    H5  464   3.541   0.870  14.601 -1.3202  0.7247 -0.5972
   30MPD2     C  465   3.252   0.231  13.841  0.1000  0.1945 -0.0727
   30MPD2    C1  466   3.377   0.241  13.881 -0.2115 -0.2617  0.1192
   30MPD2    C2  467   3.428   0.363  13.915 -0.4263  0.6571 -0.1413
   30MPD2    C3  468   3.347   0.475  13.923  0.4074  0.6910  1.0357
   30MPD2    C4  469   3.218   0.463  13.896 -0.7049 -0.6233 -0.3445
   30MPD2    C5  470   3.172   0.338  13.843 -0.5005 -0.1613 -0.0440
   30MPD2     H  471   3.534   0.359  13.933 -0.3517  0.4371 -0.6265
   30MPD2    H1  472   3.155   0.550  13.903  0.1199 -0.2008  1.7396
   30MPD2    H2  473   3.218   0.148  13.779  0.7157 -0.1867  0.1037
   30MPD2    H3  474   3.077   0.336  13.791 -0.7674 -0.6808  0.4592
   30MPD2     N  475   3.390   0.597  13.975  0.4145 -0.1373  0.2145
   30MPD2    H5  476   3.324   0.668  14.006  0.5316 -0.1619  0.5237
   30MPD2    N1  477   3.463   0.130  13.892  0.0992 -0.3426 -0.6049
   30MPD2    H7  478   3.553   0.147  13.936  0.4342  1.5628 -2.0323
   31TMC2    C1  479   1.280   4.158  15.172 -0.0731  0.4943  0.7458
   31TMC2    C2  480   1.157   4.223  15.180 -0.4541 -0.2132  0.8445
   31TMC2    C3  481   1.123   4.263  15.314 -0.2095  0.0110 -0.4640
   31TMC2    C4  482   1.361   4.127  15.280 -0.4058  0.4873 -0.2200
   31TMC2    C5  483   1.321   4.181  15.403  0.3938 -0.2237 -0.9537
   31TMC2    C6  484   1.199   4.243  15.424  1.3539 -0.8739  0.1530
   31TMC2     C  485   1.314   4.108  15.039  0.4524  1.0319  0.0237
   31TMC2     O  486   1.234   4.131  14.949  0.3124 -0.2485 -0.1219
   31TMC2     H  487   1.092   4.221  15.094 -0.5251 -1.4273  0.9152
   31TMC2    H1  488   1.460   4.084  15.266 -0.1737  0.8872  0.1820
   31TMC2    H2  489   1.182   4.298  15.516 -0.9491  0.4828 -1.0783
   31TMC2    C7  490   1.405   4.138  15.513  0.0334  0.5652 -0.2606
   31TMC2    C8  491   0.998   4.326  15.335  0.3750  0.3162 -0.2438
   31TMC2    O1  492   1.453   4.027  15.520 -0.1201 -0.5067 -0.1056
   31TMC2    O2  493   0.942   4.293  15.442  1.0218  0.2876  0.2854
   31TMC2    O5  494   0.937   4.367  15.222  0.0552  0.3552 -0.1903
   31TMC2    H5  495   1.001   4.395  15.152 -1.5941  3.2418 -0.5529
   32MPD2     C  496   1.621   3.916  14.674  0.0712  0.0511  0.0122
   32MPD2    C1  497   1.560   4.043  14.680 -0.2491 -0.2292 -0.4976
   32MPD2    C2  498   1.478   4.075  14.790 -0.1657 -0.4574  0.4207
   32MPD2    C3  499   1.473   3.988  14.901  0.4214 -0.1492 -0.0070
   32MPD2    C4  500   1.543   3.873  14.895  0.7367 -0.0196 -0.0700
   32MPD2    C5  501   1.605   3.828  14.779  0.3803 -0.1690 -0.3385
   32MPD2     H  502   1.430   4.172  14.792 -0.5272 -0.6487  1.1741
   32MPD2    H1  503   1.536   3.799  14.974 -2.9758  1.2122  0.7898
   32MPD2    H2  504   1.687   3.898  14.589 -1.1857  0.1656 -0.9849
   32MPD2    H3  505   1.648   3.728  14.781  3.1233  1.0042 -0.8452
   32MPD2     N  506   1.419   4.024  15.028 -0.2057  0.6544  0.6595
   32MPD2    H5  507   1.452   3.979  15.113  0.3982 -0.9343 -0.4158
   32MPD2    N1  508   1.574   4.124  14.562  0.4780 -0.5636 -0.2714
   32MPD2    H7  509   1.648   4.100  14.497  1.1115 -0.3555  0.3663
   33TMC2    C1  510   1.935   2.476  10.551 -0.0413 -0.6569 -0.3950
   33TMC2    C2  511   1.832   2.447  10.631  0.2334  0.1821  0.6034
   33TMC2    C3  512   1.739   2.548  10.652  0.1097 -0.6505  0.0906
   33TMC2    C4  513   1.960   2.601  10.498  0.0412  0.2305  0.6463
   33TMC2    C5  514   1.869   2.702  10.525 -0.9036  0.4196 -0.1351
   33TMC2    C6  515   1.760   2.676  10.607 -0.9070  0.6011  0.2444
   33TMC2     C  516   2.017   2.357  10.534  0.4585  0.1232  0.2924
   33TMC2     O  517   1.964   2.247  10.539 -0.3528  0.1830  0.6880
   33TMC2     H  518   1.818   2.350  10.679 -0.1044  0.3542  0.8531
   33TMC2    H1  519   2.041   2.618  10.427 -0.5396  0.4022  0.0319
   33TMC2    H2  520   1.689   2.755  10.628 -0.7600  0.9795 -0.6522
   33TMC2    C7  521   1.890   2.832  10.460 -0.0533 -0.4527  0.6228
   33TMC2    C8  522   1.609   2.513  10.696  0.5129 -0.1789 -0.6664
   33TMC2    O1  523   1.996   2.839  10.398  0.0925  0.1474  0.5175
   33TMC2    O2  524   1.519   2.593  10.670 -0.7532  0.0030  0.0721
   33TMC2    O5  525   1.628   2.425  10.792 -0.6349  0.1968  0.1702
   33TMC2    H5  526   1.721   2.399  10.810 -0.2500  0.0525 -1.9944
   34MPD2     C  527   2.486   2.154  10.607  0.6966  0.2644  0.9390
   34MPD2    C1  528   2.361   2.099  10.618 -0.0166 -0.3939 -0.4330
   34MPD2    C2  529   2.255   2.173  10.577 -0.2256  0.2139  0.2601
   34MPD2    C3  530   2.262   2.313  10.549  0.2364 -0.2671 -0.2783
   34MPD2    C4  531   2.393   2.371  10.543 -0.3122 -0.4646 -0.2936
   34MPD2    C5  532   2.499   2.288  10.568 -0.4765  0.6157  0.3918
   34MPD2     H  533   2.156   2.128  10.580 -0.2725  0.3152  0.2160
   34MPD2    H1  534   2.405   2.477  10.524 -0.8417 -0.3128  0.2350
   34MPD2    H2  535   2.577   2.098  10.625  0.4385 -0.2327  0.7042
   34MPD2    H3  536   2.602   2.320  10.560  0.3762 -1.9685  1.0089
   34MPD2     N  537   2.148   2.396  10.535 -0.5616 -0.3818  0.1596
   34MPD2    H5  538   2.169   2.495  10.531 -1.3633 -0.1885  0.8735
   34MPD2    N1  539   2.350   1.967  10.663 -0.2029 -0.4295 -0.0567
   34MPD2    H7  540   2.434   1.916  10.688 -1.3009 -0.8799  2.7481
   35TMC2    C1  541   3.378   3.598  11.423  0.2270  0.8476  0.0279
   35TMC2    C2  542   3.360   3.633  11.290  0.5540 -0.2367  0.1066
   35TMC2    C3  543   3.264   3.572  11.220  0.0463  0.1767 -0.5219
   35TMC2    C4  544   3.323   3.482  11.466  0.3600  0.2456 -0.4600
   35TMC2    C5  545   3.234   3.415  11.389 -1.1906  0.6691  0.7293
   35TMC2    C6  546   3.204   3.461  11.266  0.3028 -0.1993  0.0878
   35TMC2     C  547   3.481   3.662  11.491 -0.2714 -0.3266 -0.2024
   35TMC2     O  548   3.545   3.744  11.425 -0.3057 -0.3292 -0.0023
   35TMC2     H  549   3.402   3.726  11.253  0.8702  0.5751  2.5645
   35TMC2    H1  550   3.343   3.452  11.568  2.1626  0.5807 -0.7188
   35TMC2    H2  551   3.120   3.414  11.214 -0.8328  2.1702 -0.2120
   35TMC2    C7  552   3.202   3.274  11.417  0.4192 -0.9535  0.2957
   35TMC2    C8  553   3.205   3.632  11.107  0.0301  0.0838  0.0513
   35TMC2    O1  554   3.123   3.218  11.347  0.1964 -0.2579 -0.4138
   35TMC2    O2  555   3.174   3.555  11.017 -0.1368  0.0229  0.1245
   35TMC2    O5  556   3.162   3.761  11.118 -0.3601 -0.0969  0.3687
   35TMC2    H5  557   3.182   3.799  11.206 -1.6722 -0.6191  0.8749
   36MPD2     C  558   3.639   3.889  11.911  0.7709  0.1789 -0.1646
   36MPD2    C1  559   3.616   3.756  11.943  0.1193 -0.8066  0.7406
   36MPD2    C2  560   3.562   3.671  11.849  0.1691 -0.3920  0.8007
   36MPD2    C3  561   3.545   3.722  11.718 -0.6284 -0.3810 -0.0398
   36MPD2    C4  562   3.598   3.847  11.681 -0.1834 -0.1218 -0.4824
   36MPD2    C5  563   3.637   3.936  11.783 -0.9950 -0.4992  0.0958
   36MPD2     H  564   3.525   3.573  11.877 -0.0097 -0.1474  1.4334
   36MPD2    H1  565   3.598   3.885  11.580  0.0273  1.3300  0.0522
   36MPD2    H2  566   3.681   3.956  11.985  1.6923  1.0511 -1.4764
   36MPD2    H3  567   3.669   4.038  11.763  1.9023 -1.3653  0.2952
   36MPD2     N  568   3.488   3.635  11.631 -0.1166  0.2721 -0.6645
   36MPD2    H5  569   3.443   3.548  11.658  1.3544 -0.0115  0.8810
   36MPD2    N1  570   3.620   3.723  12.080  0.7377 -0.0658  0.0498
   36MPD2    H7  571   3.630   3.798  12.148  1.4523 -0.8379  0.8087
   37TMC2    C1  572   1.422   3.138  11.360  0.3396  0.1602 -0.3139
   37TMC2    C2  573   1.478   3.159  11.236  0.5217  0.0098  0.7657
   37TMC2    C3  574   1.600   3.212  11.229 -0.0537  0.6145  0.0607
   37TMC2    C4  575   1.484   3.167  11.482 -0.1257 -0.2226 -0.4540
   37TMC2    C5  576   1.611   3.226  11.461  0.1922 -0.5141  0.6643
   37TMC2    C6  577   1.671   3.249  11.338  0.8740  0.4199 -0.0622
   37TMC2     C  578   1.280   3.143  11.359 -0.3840  0.5332 -0.2787
   37TMC2     O  579   1.224   3.125  11.250  0.5134  0.9159  0.1468
   37TMC2     H  580   1.426   3.137  11.144 -1.1609  1.7499  1.3122
   37TMC2    H1  581   1.447   3.142  11.581 -1.3074  0.6924 -0.6503
   37TMC2    H2  582   1.768   3.296  11.333  0.5840  1.0804  0.4574
   37TMC2    C7  583   1.691   3.252  11.581  0.6288 -0.3651 -0.2744
   37TMC2    C8  584   1.651   3.242  11.093 -0.4612 -0.2239 -0.3816
   37TMC2    O1  585   1.641   3.283  11.683  0.0706 -0.6343  0.6135
   37TMC2    O2  586   1.579   3.273  10.997  0.1908  0.1069 -0.1804
   37TMC2    O5  587   1.779   3.195  11.088 -0.5521 -0.1372 -0.4265
   37TMC2    H5  588   1.807   3.174  11.180 -2.1375  2.6247  0.6811
   38MPD2     C  589   0.869   3.399  11.555 -0.0955 -0.1776  0.3784
   38MPD2    C1  590   0.958   3.362  11.662 -0.4263  0.0996  0.0600
   38MPD2    C2  591   1.070   3.291  11.625  0.3505 -0.0688  0.2142
   38MPD2    C3  592   1.098   3.253  11.496  0.6866 -0.0116 -0.5971
   38MPD2    C4  593   1.007   3.279  11.399 -1.1952 -0.2927 -0.3294
   38MPD2    C5  594   0.900   3.361  11.425  0.0523  0.5206  0.4615
   38MPD2     H  595   1.143   3.265  11.701 -0.8389 -0.4900  1.2127
   38MPD2    H1  596   1.022   3.243  11.298  0.1587 -0.2496 -0.1472
   38MPD2    H2  597   0.774   3.447  11.577  0.9620  1.2785  1.7822
   38MPD2    H3  598   0.834   3.379  11.340 -0.4674  2.6039  1.2999
   38MPD2     N  599   1.226   3.189  11.475 -0.3419 -0.3830  0.0161
   38MPD2    H5  600   1.287   3.182  11.556 -1.1182 -1.3783  0.5142
   38MPD2    N1  601   0.945   3.395  11.803 -0.9653 -0.8258  0.1074
   38MPD2    H7  602   1.020   3.364  11.864 -0.4900  0.8372  0.3722
   39TMC2    C1  603   3.755   0.434   1.248  0.1298  0.1138  0.3916
   39TMC2    C2  604   3.714   0.541   1.317 -0.3534 -0.8459 -0.0120
   39TMC2    C3  605   3.808   0.613   1.389 -0.0320 -0.1978 -0.3779
   39TMC2    C4  606   3.885   0.384   1.243 -0.7836  0.2271 -0.3421
   39TMC2    C5  607   3.977   0.469   1.300  0.5003 -0.2041  0.2969
   39TMC2    C6  608   3.943   0.575   1.383  0.1991  0.0104  0.1872
   39TMC2     C  609   3.651   0.367   1.160 -0.2501 -0.1339  0.0991
   39TMC2     O  610   3.539   0.379   1.201 -0.1220  0.3990 -0.1300
   39TMC2     H  611   3.613   0.580   1.316 -0.7273 -1.7500  2.1780
   39TMC2    H1  612   3.921   0.298   1.186 -0.4856 -0.1642  0.4314
   39TMC2    H2  613   4.016   0.643   1.425  3.0868 -1.2207 -2.8397
   39TMC2    C7  614   4.113   0.458   1.253 -0.0008  0.1921  0.2686
   39TMC2    C8  615   3.782   0.740   1.449  0.6086  0.2366 -0.8297
   39TMC2    O1  616   4.152   0.341   1.237 -0.0003  0.4446  0.2128
   39TMC2    O2  617   3.857   0.839   1.431 -0.0167  0.1244  0.0660
   39TMC2    O5  618   3.666   0.739   1.516  0.1894  0.8258 -0.2433
   39TMC2    H5  619   3.618   0.655   1.524 -0.8342  1.3957 -0.4436
   40MPD2     C  620   3.703   0.121   0.883 -0.2292  0.3886  0.0888
   40MPD2    C1  621   3.626   0.194   0.978 -0.3296  0.5360 -0.7688
   40MPD2    C2  622   3.487   0.192   0.981  0.1280  0.0128 -0.5369
   40MPD2    C3  623   3.422   0.114   0.881  0.1964  0.1228  0.5175
   40MPD2    C4  624   3.500   0.032   0.797  0.0407 -0.1200  0.3706
   40MPD2    C5  625   3.641   0.037   0.793  0.2403  0.0113 -0.6803
   40MPD2     H  626   3.434   0.256   1.050 -0.6317  0.0063 -1.1214
   40MPD2    H1  627   3.448   4.725   0.713  0.7703  0.9970 -0.6594
   40MPD2    H2  628   3.810   0.133   0.880 -0.2470  0.7311  0.6996
   40MPD2    H3  629   3.705   4.725   0.722 -1.7860  1.1367 -3.2817
   40MPD2     N  630   3.284   0.106   0.864  0.1163 -0.4849 -0.5006
   40MPD2    H5  631   3.263   0.035   0.794 -0.6211 -1.1296  0.3872
   40MPD2    N1  632   3.702   0.282   1.063 -0.0667 -0.2627  0.1782
   40MPD2    H7  633   3.802   0.262   1.067 -0.1561 -0.7764 -0.1577
   41TMC2    C1  634   2.895   3.462  13.213 -0.1759 -0.3383 -0.1176
   41TMC2    C2  635   2.798   3.459  13.304  0.0964  0.7831  0.2050
   41TMC2    C3  636   2.692   3.538  13.278 -0.0831  0.2188  0.2937
   41TMC2    C4  637   2.889   3.523  13.093  0.4776 -0.0641 -0.0346
   41TMC2    C5  638   2.782   3.598  13.072  0.8929  0.2908 -0.2416
   41TMC2    C6  639   2.679   3.615  13.166 -0.5810 -0.4806 -0.1845
   41TMC2     C  640   3.023   3.414  13.249 -0.6035  0.6325  0.1546
   41TMC2     O  641   3.106   3.382  13.164 -0.3456 -0.6783  0.0637
   41TMC2     H  642   2.790   3.394  13.390  0.1205 -0.3357 -0.6326
   41TMC2    H1  643   2.976   3.509  13.030 -0.6823  0.5657 -1.7709
   41TMC2    H2  644   2.603   3.692  13.160 -2.6046 -2.5577 -1.3254
   41TMC2    C7  645   2.756   3.645  12.939  0.2876  0.4206  0.2320
   41TMC2    C8  646   2.595   3.559  13.381  0.3652  0.1304 -0.3642
   41TMC2    O1  647   2.675   3.731  12.928 -0.2040 -0.2756  0.0100
   41TMC2    O2  648   2.618   3.550  13.500  0.0190 -0.0690  0.5904
   41TMC2    O5  649   2.473   3.535  13.328  0.5758 -0.1920 -0.5289
   41TMC2    H5  650   2.484   3.486  13.244  1.4225 -2.0529  0.6570
   42MPD2     C  651   3.292   3.376  13.377  0.1090  0.1302 -0.2377
   42MPD2    C1  652   3.174   3.396  13.446 -0.4323 -0.0446  0.2629
   42MPD2    C2  653   3.179   3.413  13.581  0.4257 -0.4051  1.2245
   42MPD2    C3  654   3.297   3.389  13.651 -0.0856 -0.5476  0.4323
   42MPD2    C4  655   3.404   3.342  13.586 -0.5125 -0.2698 -0.8844
   42MPD2    C5  656   3.405   3.339  13.451  0.2760  0.6787  0.0637
   42MPD2     H  657   3.084   3.446  13.621  1.0952  1.2905  1.4312
   42MPD2    H1  658   3.490   3.305  13.642 -0.7369  0.6094  0.0439
   42MPD2    H2  659   3.297   3.395  13.271 -3.4933 -1.4601 -0.7061
   42MPD2    H3  660   3.496   3.317  13.397  0.1295  0.3507 -0.0493
   42MPD2     N  661   3.303   3.391  13.793 -0.4303  0.1627  0.4838
   42MPD2    H5  662   3.385   3.345  13.831  0.3858  1.1398 -0.0790
   42MPD2    N1  663   3.047   3.423  13.386  0.1225  0.0732  0.8492
   42MPD2    H7  664   2.966   3.440  13.445  0.4943  2.0378  0.8105
   43TMC2    C1  665   3.694   1.526   0.683  0.5259 -0.5808  0.4304
   43TMC2    C2  666   3.604   1.444   0.745  0.3184  0.3353 -0.7432
   43TMC2    C3  667   3.617   1.448   0.884  0.1695  0.2838  0.2301
   43TMC2    C4  668   3.782   1.612   0.752  0.2247  0.6780 -0.1783
   43TMC2    C5  669   3.789   1.607   0.890 -0.4635 -0.1264  0.8905
   43TMC2    C6  670   3.704   1.521   0.961  1.0621 -0.3996  0.8580
   43TMC2     C  671   3.729   1.482   0.552  0.1528  0.4935  0.3635
   43TMC2     O  672   3.852   1.470   0.546 -0.2073  0.6003 -0.1268
   43TMC2     H  673   3.531   1.386   0.691  0.9333 -2.7903  1.8512
   43TMC2    H1  674   3.855   1.667   0.694 -1.0745 -0.3052 -2.7457
   43TMC2    H2  675   3.711   1.515   1.069 -0.7458 -1.1171  0.9422
   43TMC2    C7  676   3.928   1.610   0.939 -0.1833 -0.1607 -0.1769
   43TMC2    C8  677   3.505   1.388   0.952  0.0931  0.8778  0.0748
   43TMC2    O1  678   4.011   1.578   0.854  0.4007 -0.5340 -0.3601
   43TMC2    O2  679   3.438   1.291   0.907 -0.3923  0.7123  0.4121
   43TMC2    O5  680   3.476   1.458   1.060 -0.3986 -0.5789  0.1273
   43TMC2    H5  681   3.503   1.553   1.058  1.3132 -1.0752 -0.2516
   44MPD2     C  682   3.669   1.323   0.061 -0.8634 -0.1270  0.1010
   44MPD2    C1  683   3.785   1.342   0.141 -0.3328 -0.1731  0.0682
   44MPD2    C2  684   3.776   1.380   0.277 -0.0462 -0.0501  1.1150
   44MPD2    C3  685   3.649   1.429   0.324  0.3942  0.2375  0.2038
   44MPD2    C4  686   3.539   1.422   0.240 -0.6266 -0.5890 -0.2058
   44MPD2    C5  687   3.557   1.376   0.109 -0.2995 -0.0863 -0.0499
   44MPD2     H  688   3.871   1.389   0.328  0.5034  0.8545 -0.0966
   44MPD2    H1  689   3.444   1.472   0.261  0.2064  0.8291  0.1723
   44MPD2    H2  690   3.677   1.303  17.703 -2.3044  0.3839 -0.1128
   44MPD2    H3  691   3.477   1.378   0.036  0.2478 -0.9072 -0.6743
   44MPD2     N  692   3.630   1.465   0.459 -0.3723  0.0058  0.1273
   44MPD2    H5  693   3.535   1.476   0.492  0.5986  1.4468  2.4793
   44MPD2    N1  694   3.914   1.325   0.094  0.0386 -0.6909  0.2916
   44MPD2    H7  695   3.993   1.329   0.158  1.2256  0.1992 -1.2595
   45TMC2    C1  696   4.397   4.191   9.534 -0.1238  0.8862 -0.4097
   45TMC2    C2  697   4.291   4.213   9.451 -0.2283 -0.0042 -0.2726
   45TMC2    C3  698   4.277   4.343   9.404  0.3167 -0.8155 -0.0357
   45TMC2    C4  699   4.483   4.294   9.567 -0.0489  0.0044 -0.6620
   45TMC2    C5  700   4.461   4.420   9.524  0.6428  0.7949 -0.2294
   45TMC2    C6  701   4.350   4.450   9.447 -0.1087  0.1056  0.0701
   45TMC2     C  702   4.442   4.063   9.574 -0.6285  0.0581  1.1648
   45TMC2     O  703   4.514   4.054   9.674  0.1682 -0.0593  0.0585
   45TMC2     H  704   4.207   4.146   9.441  1.5029 -2.1100 -0.5877
   45TMC2    H1  705   4.573   4.275   9.625 -1.5689 -2.6100  0.8712
   45TMC2    H2  706   4.322   4.550   9.416 -2.4376 -0.5847 -0.0307
   45TMC2    C7  707   4.533   4.534   9.584  0.1052 -0.6166 -0.2973
   45TMC2    C8  708   4.186   4.376   9.300 -0.4181  0.4923 -0.2978
   45TMC2    O1  709   4.569   4.520   9.701 -0.3030 -0.1221  0.6032
   45TMC2    O2  710   4.115   4.474   9.311  0.4049 -0.2810 -0.6627
   45TMC2    O5  711   4.158   4.269   9.229 -0.1576  0.3826 -0.2787
   45TMC2    H5  712   4.232   4.204   9.232  0.6381  1.3919  2.3680
   46MPD2     C  713   4.573   3.808   9.543  0.3527  0.7427 -0.0645
   46MPD2    C1  714   4.453   3.830   9.487  0.5760 -0.4935  0.1813
   46MPD2    C2  715   4.380   3.722   9.440  0.8678 -0.6293  0.3910
   46MPD2    C3  716   4.433   3.592   9.452 -0.0902 -0.3554  0.4034
   46MPD2    C4  717   4.549   3.572   9.516  0.5711 -0.6007 -0.7445
   46MPD2    C5  718   4.619   3.682   9.558  0.2290  0.4860  0.0162
   46MPD2     H  719   4.286   3.732   9.387 -0.3529  2.0425  3.0475
   46MPD2    H1  720   4.606   3.483   9.538  1.1201  0.3980  1.9454
   46MPD2    H2  721   4.648   3.883   9.564  0.4702  0.3660  0.8362
   46MPD2    H3  722   4.722   3.670   9.588  0.2115  0.1859 -0.0430
   46MPD2     N  723   4.362   3.490   9.390  0.2654 -0.1574  0.2324
   46MPD2    H5  724   4.272   3.508   9.346  0.5665 -0.3716 -0.4706
   46MPD2    N1  725   4.402   3.960   9.486  0.7894  0.2051  0.7161
   46MPD2    H7  726   4.342   3.990   9.409 -2.3944  1.2708  3.5952
   47TMC2    C1  727   1.899   0.047   8.840  0.5345  0.2412 -0.2463
   47TMC2    C2  728   1.801   0.098   8.766  0.0794 -0.4039 -0.1377
   47TMC2    C3  729   1.690   0.148   8.833  0.5168  0.7092  0.3119
   47TMC2    C4  730   1.884   0.030   8.972 -0.1016  0.6098 -0.0938
   47TMC2    C5  731   1.767   0.064   9.028 -0.4402 -0.0931 -0.9668
   47TMC2    C6  732   1.666   0.127   8.962  0.3450 -0.0959 -0.2173
   47TMC2     C  733   2.009   4.724   8.764  0.1667  0.4908 -0.9590
   47TMC2     O  734   1.988   4.702   8.644 -0.3967  0.1567 -0.1516
   47TMC2     H  735   1.822   0.125   8.662 -0.9755  1.7221  0.2062
   47TMC2    H1  736   1.962   4.728   9.035 -0.6001  1.6064  1.1558
   47TMC2    H2  737   1.574   0.160   9.009  0.0609  0.5175 -1.2089
   47TMC2    C7  738   1.745   0.020   9.168  0.7367  0.0669  0.7143
   47TMC2    C8  739   1.579   0.198   8.764  0.4508 -0.0653 -0.1461
   47TMC2    O1  740   1.804   4.661   9.217  0.5347 -0.1488 -0.0445
   47TMC2    O2  741   1.496   0.270   8.813 -0.1677  0.5308 -0.4432
   47TMC2    O5  742   1.583   0.176   8.631  0.6243  0.7131  0.2207
   47TMC2    H5  743   1.645   0.104   8.607 -0.9482 -0.2449 -0.9957
   48MPD2     C  744   2.210   4.531   8.664  0.1313  0.2620  0.2586
   48MPD2    C1  745   2.198   4.558   8.797  0.2910 -0.0916  0.4143
   48MPD2    C2  746   2.273   4.491   8.887 -0.3027 -0.1728  0.1150
   48MPD2    C3  747   2.358   4.393   8.856 -0.6032  0.0339 -1.1612
   48MPD2    C4  748   2.374   4.360   8.722 -0.3704  0.3558  0.6140
   48MPD2    C5  749   2.289   4.423   8.628  0.1037 -0.5563  0.2112
   48MPD2     H  750   2.259   4.501   8.994  1.4580  0.8071  0.2593
   48MPD2    H1  751   2.438   4.285   8.677  1.6812  2.0756  0.6784
   48MPD2    H2  752   2.175   4.586   8.578  0.1266 -1.9013 -1.1366
   48MPD2    H3  753   2.303   4.396   8.524  1.2215 -0.8149  0.4370
   48MPD2     N  754   2.422   4.320   8.960 -0.0281 -0.0305  0.0562
   48MPD2    H5  755   2.409   4.338   9.059 -1.7377 -0.6979 -0.0489
   48MPD2    N1  756   2.104   4.667   8.843 -0.4260  0.1700 -0.3373
   48MPD2    H7  757   2.095   4.680   8.943  0.7207 -0.4862 -0.1474
   49TMC2    C1  758   1.276   2.364  10.062  0.3346  0.5484  1.1960
   49TMC2    C2  759   1.394   2.402  10.006  0.2903 -0.1551 -0.2684
   49TMC2    C3  760   1.416   2.386   9.874  0.1732 -0.2505 -0.2245
   49TMC2    C4  761   1.193   2.287   9.985  0.2589 -0.9054 -0.2725
   49TMC2    C5  762   1.222   2.267   9.854 -0.7502  0.1850 -0.3273
   49TMC2    C6  763   1.329   2.326   9.792 -0.7031 -0.6621  0.0635
   49TMC2     C  764   1.286   2.319  10.195 -0.8363  0.1990  0.4566
   49TMC2     O  765   1.395   2.278  10.228 -0.5412 -0.2087 -0.1584
   49TMC2     H  766   1.466   2.448  10.072  0.5786  1.8072 -1.9398
   49TMC2    H1  767   1.095   2.263  10.025  0.4462  0.5232  1.0302
   49TMC2    H2  768   1.349   2.306   9.687  0.2236 -0.5383  0.2235
   49TMC2    C7  769   1.117   2.204   9.768 -0.2736 -0.5306  0.2001
   49TMC2    C8  770   1.550   2.426   9.820  0.0932 -0.2776  0.1568
   49TMC2    O1  771   1.130   2.209   9.650 -0.3231 -0.3092 -0.1283
   49TMC2    O2  772   1.601   2.533   9.847 -0.1958 -0.3271 -0.3621
   49TMC2    O5  773   1.570   2.365   9.699 -0.8191 -0.3996  0.6273
   49TMC2    H5  774   1.561   2.268   9.713  2.4715 -0.8070 -0.1548
   50MPD2     C  775   1.262   2.207  10.471 -0.1725 -0.7327  0.0630
   50MPD2    C1  776   1.155   2.257  10.395 -0.1736  0.5583  0.0385
   50MPD2    C2  777   1.029   2.242  10.441 -0.0322  0.1969 -0.1005
   50MPD2    C3  778   1.011   2.150  10.548  0.4435  0.0025  0.0250
   50MPD2    C4  779   1.116   2.084  10.603 -0.1150 -0.4264 -0.5977
   50MPD2    C5  780   1.242   2.117  10.572  0.7515 -0.3304 -0.3852
   50MPD2     H  781   0.945   2.282  10.385 -0.6862 -0.2543  0.5656
   50MPD2    H1  782   1.091   2.013  10.681  1.9959  0.0327  0.5161
   50MPD2    H2  783   1.366   2.235  10.457 -0.1337  0.0431  1.8729
   50MPD2    H3  784   1.323   2.071  10.627  0.8399  1.4417  0.9503
   50MPD2     N  785   0.886   2.117  10.595  0.2325 -0.1037 -0.0259
   50MPD2    H5  786   0.879   2.039  10.660 -1.6191  1.0368  1.1381
   50MPD2    N1  787   1.175   2.325  10.276 -0.3908 -0.0486 -0.3485
   50MPD2    H7  788   1.091   2.359  10.229 -1.1317  0.8901  1.6898
   51TMC2    C1  789   0.539   0.941   1.231 -0.2350  0.0053 -0.1441
   51TMC2    C2  790   0.483   0.991   1.115 -0.1432 -0.2823 -0.3171
   51TMC2    C3  791   0.513   1.122   1.083 -0.6016  0.2994  0.0394
   51TMC2    C4  792   0.622   1.016   1.309 -0.4772  0.3501 -0.0095
   51TMC2    C5  793   0.647   1.146   1.272  0.6949  0.1267 -0.8988
   51TMC2    C6  794   0.588   1.205   1.160  0.1588 -0.3106 -0.3826
   51TMC2     C  795   0.549   0.801   1.259 -0.0094 -0.8738  0.2844
   51TMC2     O  796   0.662   0.759   1.287  0.1511  0.2512 -0.1598
   51TMC2     H  797   0.434   0.922   1.046  1.3094 -0.6185 -1.0123
   51TMC2    H1  798   0.666   0.969   1.396  0.8053 -1.4254 -1.6009
   51TMC2    H2  799   0.601   1.306   1.122  0.4957 -1.2540 -2.7892
   51TMC2    C7  800   0.750   1.214   1.354 -0.2101  0.5578  0.3088
   51TMC2    C8  801   0.446   1.174   0.961  0.7174  0.4556  0.0591
   51TMC2    O1  802   0.827   1.146   1.421  0.4335  0.8422  0.4454
   51TMC2    O2  803   0.431   1.295   0.938  0.2561 -0.1994 -0.2923
   51TMC2    O5  804   0.439   1.081   0.866 -0.2978  0.1449  0.2309
   51TMC2    H5  805   0.459   0.987   0.886  0.0339  0.6037  2.0370
   52MPD2     C  806   0.393   0.316   1.233  0.0829  0.6696 -0.6725
   52MPD2    C1  807   0.516   0.371   1.208 -0.3077  0.1619  1.0156
   52MPD2    C2  808   0.532   0.506   1.210  0.2886 -0.6636  0.0372
   52MPD2    C3  809   0.427   0.591   1.248  0.7184  0.8646 -0.3918
   52MPD2    C4  810   0.300   0.531   1.259 -0.2152 -0.1239  0.4618
   52MPD2    C5  811   0.287   0.396   1.245 -0.1323  0.0283  0.2676
   52MPD2     H  812   0.626   0.552   1.182 -1.2411  1.5822 -1.3334
   52MPD2    H1  813   0.220   0.602   1.281  0.5887  0.6795  0.8127
   52MPD2    H2  814   0.376   0.209   1.227  0.1011  0.6403 -0.1921
   52MPD2    H3  815   0.190   0.348   1.247  0.0182 -0.2039  1.6046
   52MPD2     N  816   0.439   0.732   1.244 -0.9403  0.3895 -0.9037
   52MPD2    H5  817   0.357   0.791   1.237 -0.1375  1.2993 -2.9313
   52MPD2    N1  818   0.622   0.280   1.171 -0.0717 -0.5225 -0.1089
   52MPD2    H7  819   0.715   0.315   1.149  0.3425  0.4495  3.2568
   53TMC2    C1  820   2.068   3.487  12.169 -0.0880 -0.2387  0.1599
   53TMC2    C2  821   2.106   3.465  12.302 -0.7709 -0.0068 -0.0347
   53TMC2    C3  822   2.049   3.526  12.409 -0.6343 -0.1948 -0.0747
   53TMC2    C4  823   1.971   3.586  12.150 -0.4645  0.1854  0.7060
   53TMC2    C5  824   1.917   3.652  12.259 -0.0998  0.2664 -0.1717
   53TMC2    C6  825   1.954   3.623  12.385  0.1579 -0.4055 -0.7434
   53TMC2     C  826   2.107   3.393  12.062  0.2001  1.0347  0.0460
   53TMC2     O  827   2.199   3.320  12.092 -0.0591 -0.1016  0.8938
   53TMC2     H  828   2.171   3.382  12.325  0.1782  0.8069  0.2113
   53TMC2    H1  829   1.928   3.610  12.054  2.4816  2.3375 -0.0877
   53TMC2    H2  830   1.913   3.669  12.475  3.0694  0.4834  0.1126
   53TMC2    C7  831   1.788   3.723  12.238 -0.2293 -0.6415  0.0092
   53TMC2    C8  832   2.071   3.484  12.544 -0.2355  0.0500 -0.0923
   53TMC2    O1  833   1.708   3.690  12.149 -0.4320  0.0192 -0.2851
   53TMC2    O2  834   2.039   3.551  12.643 -0.0004  0.3613  0.2690
   53TMC2    O5  835   2.032   3.357  12.527  0.0861  0.4604 -0.1926
   53TMC2    H5  836   2.054   3.322  12.438  0.4527  0.1959  0.0013
   54MPD2     C  837   2.156   3.259  11.800 -0.6993  0.2897  0.9138
   54MPD2    C1  838   2.031   3.312  11.839 -0.0457  0.2699  0.0299
   54MPD2    C2  839   1.925   3.317  11.756 -0.0798  0.4920 -0.1672
   54MPD2    C3  840   1.931   3.232  11.641 -0.4316 -0.4695 -0.4239
   54MPD2    C4  841   2.049   3.167  11.607  0.0860  0.5513 -0.5235
   54MPD2    C5  842   2.160   3.178  11.688  0.5568 -0.6623  0.0266
   54MPD2     H  843   1.832   3.369  11.773 -0.9737 -0.5884 -1.7760
   54MPD2    H1  844   2.065   3.094  11.528 -0.8507 -0.1881 -0.0272
   54MPD2    H2  845   2.244   3.278  11.860  0.3636 -0.2249 -0.4755
   54MPD2    H3  846   2.257   3.135  11.665  0.4625  0.0240 -1.6245
   54MPD2     N  847   1.825   3.219  11.550 -0.5690 -0.2226  0.4802
   54MPD2    H5  848   1.834   3.163  11.466  1.0767  0.7600  0.0052
   54MPD2    N1  849   2.020   3.392  11.957 -1.0161 -0.1705  0.2717
   54MPD2    H7  850   1.934   3.445  11.966 -0.9404 -0.1873  1.0962
   55TMC2    C1  851   2.181   1.267   0.205  0.1427 -0.3677  0.0341
   55TMC2    C2  852   2.175   1.264   0.068 -0.6840  0.1584 -0.3176
   55TMC2    C3  853   2.107   1.161   0.009  0.0817 -0.5990  0.1702
   55TMC2    C4  854   2.121   1.168   0.280  0.2741  0.9653 -0.6509
   55TMC2    C5  855   2.069   1.062   0.220  0.0791  0.0117  0.4798
   55TMC2    C6  856   2.053   1.067   0.087  0.7295  0.3487 -0.2175
   55TMC2     C  857   2.196   1.394   0.277 -0.2553  0.9540 -0.5414
   55TMC2     O  858   2.149   1.395   0.385 -0.3846  0.5676  0.2713
   55TMC2     H  859   2.215   1.341   0.003 -1.5469 -0.1638 -1.2329
   55TMC2    H1  860   2.145   1.174   0.385  1.4782  2.3779 -1.0017
   55TMC2    H2  861   2.015   0.977   0.041  2.1807  0.2570 -1.2272
   55TMC2    C7  862   2.022   0.955   0.301 -0.1702  0.4535 -0.4631
   55TMC2    C8  863   2.084   1.152  17.612 -0.3670 -0.4428 -0.0857
   55TMC2    O1  864   2.010   0.848   0.240 -0.2410  0.4086 -0.2771
   55TMC2    O2  865   2.057   1.043  17.555 -0.1602  0.4134  0.8076
   55TMC2    O5  866   2.078   1.279  17.550 -0.2845 -0.0100 -0.1708
   55TMC2    H5  867   2.079   1.356  17.610  1.3288 -0.2198  0.0648
   56MPD2     C  868   2.346   1.705   0.140  0.0813  0.6644  0.3417
   56MPD2    C1  869   2.290   1.622   0.231 -0.2892  0.3600 -0.4786
   56MPD2    C2  870   2.207   1.688   0.327  0.3563 -0.3650 -0.3266
   56MPD2    C3  871   2.175   1.822   0.325 -0.3259  0.0890 -0.2736
   56MPD2    C4  872   2.240   1.905   0.237  0.5414 -0.5783 -0.1208
   56MPD2    C5  873   2.319   1.839   0.141 -0.4111 -0.4930 -0.4804
   56MPD2     H  874   2.145   1.625   0.389  3.4518 -0.5041  2.5748
   56MPD2    H1  875   2.216   2.009   0.219 -0.6644 -1.1122 -1.5515
   56MPD2    H2  876   2.405   1.664   0.060 -0.0739 -0.3077  0.7209
   56MPD2    H3  877   2.367   1.888   0.058  0.6700 -0.9535 -0.1353
   56MPD2     N  878   2.068   1.859   0.414  0.2741 -0.0006  0.1864
   56MPD2    H5  879   2.009   1.787   0.454  0.3587 -1.0116 -1.5233
   56MPD2    N1  880   2.286   1.477   0.210  0.1101  0.0143  0.0129
   56MPD2    H7  881   2.343   1.443   0.133 -0.0889 -1.5657  0.5535
   57TMC2    C1  882   1.468   1.869  13.626  0.8339 -0.5248  0.6654
   57TMC2    C2  883   1.546   1.757  13.650 -0.1498 -0.8091  0.7348
   57TMC2    C3  884   1.683   1.770  13.638 -0.0969  0.3823 -0.2142
   57TMC2    C4  885   1.517   1.981  13.556  0.2685  0.3528  0.7180
   57TMC2    C5  886   1.653   1.990  13.551  0.7198 -0.2417  0.4753
   57TMC2    C6  887   1.731   1.884  13.593  0.8317  0.2567  0.2925
   57TMC2     C  888   1.336   1.859  13.669 -0.0553  0.2628 -0.2369
   57TMC2     O  889   1.268   1.942  13.608  0.1668 -0.0039 -0.0662
   57TMC2     H  890   1.499   1.666  13.686 -2.8149  0.4486  0.4044
   57TMC2    H1  891   1.448   2.053  13.514  0.4805  0.6187  0.8197
   57TMC2    H2  892   1.837   1.896  13.606  1.4287 -2.5703 -1.8807
   57TMC2    C7  893   1.713   2.098  13.469  0.0115  0.4785 -0.5049
   57TMC2    C8  894   1.765   1.681  13.713  0.3816  0.0397 -0.2447
   57TMC2    O1  895   1.675   2.214  13.477  0.0698 -0.0235 -0.1109
   57TMC2    O2  896   1.717   1.597  13.788  0.0230  0.5678  0.5023
   57TMC2    O5  897   1.886   1.662  13.658 -0.0128  0.7104 -0.0148
   57TMC2    H5  898   1.903   1.722  13.582 -2.4358  3.4661  1.6075
   58MPD2     C  899   0.943   1.776  13.988 -0.2317 -0.2770  0.1035
   58MPD2    C1  900   0.954   1.847  13.867 -0.2281 -0.5526 -0.6544
   58MPD2    C2  901   1.066   1.839  13.790 -0.4499  0.3235 -0.7640
   58MPD2    C3  902   1.179   1.768  13.840 -0.7625  0.0633 -0.8849
   58MPD2    C4  903   1.169   1.690  13.958 -0.5750  0.4922 -0.1997
   58MPD2    C5  904   1.045   1.686  14.025 -0.1556  1.1813  0.0018
   58MPD2     H  905   1.083   1.916  13.716 -0.5120  0.9638 -0.1182
   58MPD2    H1  906   1.258   1.648  14.003 -2.1410 -1.6207  0.9849
   58MPD2    H2  907   0.851   1.785  14.045  0.5302  0.6366  1.2086
   58MPD2    H3  908   1.032   1.623  14.112  0.2681  1.5124  0.3009
   58MPD2     N  909   1.308   1.784  13.787 -0.0461  0.0442 -0.0059
   58MPD2    H5  910   1.379   1.724  13.828  0.1375  1.2248  1.4414
   58MPD2    N1  911   0.846   1.921  13.811  0.0299 -0.3765  0.3036
   58MPD2    H7  912   0.867   1.964  13.722  0.9678 -0.4882  0.4637
   59TMC2    C1  913   3.791   2.540  12.621  0.0341  0.0871  0.4824
   59TMC2    C2  914   3.777   2.406  12.668 -0.0351  0.7130 -0.1524
   59TMC2    C3  915   3.652   2.357  12.652 -0.4580 -0.0536 -0.4062
   59TMC2    C4  916   3.684   2.611  12.561  0.1157 -0.0210  0.0657
   59TMC2    C5  917   3.556   2.554  12.558 -0.3659 -0.7461 -0.2096
   59TMC2    C6  918   3.544   2.426  12.605 -0.0124 -0.2672 -0.3684
   59TMC2     C  919   3.915   2.570  12.566 -0.3251 -0.2984  0.6051
   59TMC2     O  920   3.912   2.626  12.455 -0.0391  0.7131  0.5317
   59TMC2     H  921   3.863   2.347  12.697  0.1616  0.4102 -1.3446
   59TMC2    H1  922   3.705   2.716  12.543 -0.4811  0.0838 -0.0321
   59TMC2    H2  923   3.444   2.385  12.609 -0.2625  0.5480  1.7267
   59TMC2    C7  924   3.437   2.644  12.562 -0.4666 -0.2008  0.3691
   59TMC2    C8  925   3.620   2.238  12.724 -0.8570  0.0999  0.2539
   59TMC2    O1  926   3.333   2.581  12.580 -0.1533  0.2947 -0.4675
   59TMC2    O2  927   3.557   2.225  12.831  0.0242 -0.1933 -0.5133
   59TMC2    O5  928   3.715   2.146  12.681 -0.1481  0.6469  0.0307
   59TMC2    H5  929   3.765   2.178  12.604  0.8933 -1.9371 -0.3779
   60MPD2     C  930   4.206   2.610  12.492  0.0140 -0.5963 -0.3626
   60MPD2    C1  931   4.158   2.585  12.617 -0.0123  0.7217 -0.7060
   60MPD2    C2  932   4.253   2.587  12.717  0.4498  0.5942 -0.2779
   60MPD2    C3  933   4.387   2.619  12.689 -0.0842  0.2050  0.5996
   60MPD2    C4  934   4.435   2.623  12.559  0.2174 -0.1176 -0.0655
   60MPD2    C5  935   4.338   2.615  12.461 -0.2863 -0.9259 -0.4628
   60MPD2     H  936   4.219   2.583  12.820 -1.2359 -3.0801 -0.9888
   60MPD2    H1  937   4.542   2.620  12.542  0.0940 -1.0015 -0.6805
   60MPD2    H2  938   4.151   2.625  12.400 -2.9343 -0.9786  1.3485
   60MPD2    H3  939   4.374   2.621  12.359 -1.7549 -1.1403 -0.9852
   60MPD2     N  940   4.477   2.624  12.800 -0.3972  0.1580 -0.0162
   60MPD2    H5  941   4.577   2.627  12.781 -0.3544 -0.2006  0.1502
   60MPD2    N1  942   4.023   2.566  12.650  0.0442  0.6170  0.3171
   60MPD2    H7  943   4.017   2.541  12.748  2.4561 -0.9970  0.0393
   61TMC2    C1  944   2.892   3.587  15.884  0.2950 -0.4824  0.2301
   61TMC2    C2  945   2.848   3.495  15.976 -1.6339 -0.1584  0.2346
   61TMC2    C3  946   2.760   3.535  16.066  0.1681 -0.9214  0.0555
   61TMC2    C4  947   2.860   3.722  15.895 -0.4656  0.1817 -0.9519
   61TMC2    C5  948   2.761   3.752  15.983 -0.2619  0.7926 -0.1932
   61TMC2    C6  949   2.700   3.657  16.062 -0.1452 -0.6041 -0.1730
   61TMC2     C  950   2.855   3.525  15.754  0.7610  0.1655 -0.2238
   61TMC2     O  951   2.819   3.411  15.758  0.5678 -0.5586  0.5532
   61TMC2     H  952   2.896   3.398  15.978 -0.2445  0.5335  0.9402
   61TMC2    H1  953   2.891   3.793  15.818  0.6812 -0.9256 -1.5248
   61TMC2    H2  954   2.642   3.682  16.150  0.9808 -0.7201  0.6051
   61TMC2    C7  955   2.692   3.873  15.955  0.6193  0.2743  0.1831
   61TMC2    C8  956   2.688   3.426  16.122  0.3144 -0.7541 -0.8666
   61TMC2    O1  957   2.753   3.959  15.895  0.2243  0.2347  0.2308
   61TMC2    O2  958   2.583   3.457  16.178  0.1723 -0.3794 -0.9286
   61TMC2    O5  959   2.780   3.346  16.171 -0.7231  0.7689  0.4554
   61TMC2    H5  960   2.870   3.365  16.138  0.1710 -0.6685  2.0498
   62MPD2     C  961   2.748   3.486  15.486 -0.3082 -0.3869 -0.4170
   62MPD2    C1  962   2.804   3.604  15.519  0.4897 -0.2550 -0.4358
   62MPD2    C2  963   2.814   3.709  15.427 -0.5859  0.4725 -0.0080
   62MPD2    C3  964   2.744   3.698  15.306  0.1027  0.0304 -0.4702
   62MPD2    C4  965   2.672   3.579  15.278 -0.4245 -0.2370 -0.3694
   62MPD2    C5  966   2.683   3.484  15.371  0.6394 -0.4349  0.7395
   62MPD2     H  967   2.858   3.800  15.467 -0.9792  1.5453 -2.0018
   62MPD2    H1  968   2.615   3.565  15.187 -1.4063  1.2656  0.0105
   62MPD2    H2  969   2.741   3.396  15.547 -0.5411 -0.0895 -0.0067
   62MPD2    H3  970   2.638   3.388  15.350 -0.4628  0.0522  0.8749
   62MPD2     N  971   2.751   3.797  15.208 -0.2882  0.1472  1.0752
   62MPD2    H5  972   2.698   3.771  15.125  1.0902 -2.5731  1.0678
   62MPD2    N1  973   2.854   3.618  15.650 -0.0864 -0.4390 -0.7708
   62MPD2    H7  974   2.899   3.706  15.673  0.7033 -0.8440 -0.7582
   63TMC2    C1  975   2.438   4.141  10.180  0.5851  0.5895  0.5918
   63TMC2    C2  976   2.554   4.066  10.176 -0.0156  0.2633 -0.1915
   63TMC2    C3  977   2.671   4.122  10.133 -0.3316 -0.3569 -0.1217
   63TMC2    C4  978   2.433   4.262  10.134 -0.0003  0.2120  0.3400
   63TMC2    C5  979   2.549   4.311  10.077  0.4276  0.0147 -0.4271
   63TMC2    C6  980   2.671   4.239  10.074 -0.0604  0.6480  0.0010
   63TMC2     C  981   2.310   4.087  10.233 -0.2990  0.4062  0.4617
   63TMC2     O  982   2.235   4.175  10.278  0.2983 -0.3745 -0.0797
   63TMC2     H  983   2.566   3.976  10.235  0.9725  1.2486  1.1299
   63TMC2    H1  984   2.341   4.319  10.125 -0.7044 -0.7392  1.4448
   63TMC2    H2  985   2.767   4.281  10.046  0.9093 -1.2697  0.4596
   63TMC2    C7  986   2.542   4.427  10.000  0.4059 -0.0622 -0.1293
   63TMC2    C8  987   2.794   4.068  10.194  0.1038 -0.4479  0.0684
   63TMC2    O1  988   2.450   4.506  10.023  0.1169 -0.4880  0.5436
   63TMC2    O2  989   2.801   4.027  10.308 -0.1188  0.4179  0.3130
   63TMC2    O5  990   2.893   4.076  10.102 -0.4451 -0.7124  0.0111
   63TMC2    H5  991   2.875   4.099  10.008 -3.7572  1.6576  1.2438
   64MPD2     C  992   2.000   3.731  10.434 -0.0253 -0.9996 -0.0660
   64MPD2    C1  993   2.129   3.688  10.444  0.2120  0.5389 -0.3914
   64MPD2    C2  994   2.235   3.760  10.382 -0.0123 -0.3533 -0.4643
   64MPD2    C3  995   2.213   3.882  10.316 -0.0231 -0.4266 -0.3161
   64MPD2    C4  996   2.083   3.925  10.303  0.1620 -0.8664  0.3117
   64MPD2    C5  997   1.984   3.850  10.366 -0.0777  0.8598 -0.3283
   64MPD2     H  998   2.337   3.736  10.406 -0.0116 -1.5077 -1.6472
   64MPD2    H1  999   2.058   4.016  10.249 -1.1798 -1.4198  0.0114
   64MPD2    H2 1000   1.912   3.681  10.474 -1.2031  0.0344 -1.3478
   64MPD2    H3 1001   1.883   3.889  10.362 -0.5875 -0.2414  1.5143
   64MPD2     N 1002   2.317   3.954  10.261  0.1362  0.1653  0.1342
   64MPD2    H5 1003   2.396   3.892  10.244  0.2177 -0.1195  1.5136
   64MPD2    N1 1004   2.166   3.564  10.502  0.2360  0.4367  0.3284
   64MPD2    H7 1005   2.262   3.540  10.482 -0.2916 -1.5216  0.1833
   65TMC2    C1 1006   3.672   3.633  15.621 -0.4824 -0.6938 -0.4633
   65TMC2    C2 1007   3.718   3.577  15.505 -0.6913  0.4494  1.1066
   65TMC2    C3 1008   3.709   3.648  15.393  0.4645  0.4813 -0.1514
   65TMC2    C4 1009   3.599   3.743  15.628  0.2437  0.0676  0.3647
   65TMC2    C5 1010   3.573   3.803  15.504  0.2057 -0.1230 -0.9125
   65TMC2    C6 1011   3.631   3.763  15.387 -0.3870 -0.0667 -0.9247
   65TMC2     C 1012   3.711   3.569  15.747 -0.2536  0.9344  0.3934
   65TMC2     O 1013   3.713   3.640  15.842  0.1992  0.4223  0.4965
   65TMC2     H 1014   3.783   3.490  15.506 -2.2454 -0.7249 -0.1370
   65TMC2    H1 1015   3.574   3.787  15.724  0.6979  0.7052  0.1870
   65TMC2    H2 1016   3.596   3.813  15.298  1.8765  1.3216 -1.0286
   65TMC2    C7 1017   3.514   3.939  15.500 -0.2136 -0.1694 -0.2988
   65TMC2    C8 1018   3.751   3.584  15.268 -0.2543  0.0902 -0.5597
   65TMC2    O1 1019   3.544   4.019  15.410  0.7939  0.2303 -0.4842
   65TMC2    O2 1020   3.774   3.467  15.248  0.3857  0.6228 -0.5639
   65TMC2    O5 1021   3.788   3.692  15.189  0.1807  0.1473 -0.4129
   65TMC2    H5 1022   3.776   3.778  15.233  0.2227 -1.5849  2.9968
   66MPD2     C 1023   3.791   3.405  15.978  0.2193 -0.5299 -0.4477
   66MPD2    C1 1024   3.790   3.360  15.849 -0.1584 -0.3288  0.3585
   66MPD2    C2 1025   3.813   3.228  15.819 -0.4518  0.3317  0.2461
   66MPD2    C3 1026   3.844   3.143  15.923  0.1597 -0.5593 -0.2504
   66MPD2    C4 1027   3.841   3.183  16.053  0.6170 -0.3198  0.2284
   66MPD2    C5 1028   3.814   3.315  16.081  0.2427  0.2644  0.2962
   66MPD2     H 1029   3.795   3.186  15.721 -0.3748  0.3116  0.2407
   66MPD2    H1 1030   3.873   3.122  16.137 -0.4658 -1.4565 -0.1925
   66MPD2    H2 1031   3.777   3.510  16.001 -2.6510 -0.8256 -0.8697
   66MPD2    H3 1032   3.819   3.346  16.185  1.3192  3.6547 -0.7583
   66MPD2     N 1033   3.856   3.004  15.907  0.6783 -0.0689 -0.1695
   66MPD2    H5 1034   3.864   2.946  15.990  0.6138  1.8385  1.1539
   66MPD2    N1 1035   3.754   3.440  15.739 -0.5058  0.1028 -0.3123
   66MPD2    H7 1036   3.758   3.393  15.649 -0.3651  1.5202 -1.0514
   67TMC2    C1 1037   3.894   3.119  14.431  0.5498  0.4119  0.3768
   67TMC2    C2 1038   3.818   3.227  14.467 -0.0044  0.5604  0.3149
   67TMC2    C3 1039   3.841   3.290  14.587  0.4183 -0.1224 -0.4638
   67TMC2    C4 1040   3.984   3.064  14.511  0.7912  0.7031 -0.6357
   67TMC2    C5 1041   3.999   3.123  14.633 -0.1083  0.2758  0.6865
   67TMC2    C6 1042   3.937   3.238  14.674 -0.3564  0.0484  0.4420
   67TMC2     C 1043   3.874   3.053  14.304 -0.1350 -0.0970 -0.3359
   67TMC2     O 1044   3.974   3.004  14.252  0.0699  0.9184 -0.4898
   67TMC2     H 1045   3.736   3.275  14.415 -0.4917 -1.1855 -0.5468
   67TMC2    H1 1046   4.047   2.981  14.482 -1.8354 -0.6684 -2.3751
   67TMC2    H2 1047   3.951   3.271  14.777 -0.6125  1.1278  0.1362
   67TMC2    C7 1048   4.100   3.064  14.719  0.0862 -0.3260  0.2584
   67TMC2    C8 1049   3.770   3.423  14.608 -0.1681  0.1694  0.1450
   67TMC2    O1 1050   4.135   2.949  14.696  0.0122  0.4816  0.4514
   67TMC2    O2 1051   3.731   3.498  14.519 -0.2526  0.3243  0.3148
   67TMC2    O5 1052   3.739   3.440  14.736  0.0937  0.1513  0.4387
   67TMC2    H5 1053   3.785   3.385  14.803  0.2268 -0.3852 -0.0910
   68MPD2     C 1054   3.789   2.924  14.053 -0.0385 -0.1600 -0.6289
   68MPD2    C1 1055   3.701   2.977  14.145 -0.7470 -0.0598  0.4619
   68MPD2    C2 1056   3.565   2.988  14.109  0.6661 -0.1063 -0.1611
   68MPD2    C3 1057   3.513   2.952  13.984 -0.0901 -0.2322  0.0863
   68MPD2    C4 1058   3.603   2.892  13.896  0.5772  0.1009  0.1440
   68MPD2    C5 1059   3.739   2.880  13.931  0.2294 -0.3206  0.4495
   68MPD2     H 1060   3.503   3.035  14.185 -0.6225 -0.0250 -1.2817
   68MPD2    H1 1061   3.580   2.868  13.793  0.8796  1.0210 -0.1374
   68MPD2    H2 1062   3.897   2.918  14.065  0.0718  4.1863  0.6775
   68MPD2    H3 1063   3.808   2.838  13.858  0.8509 -1.2768  1.5896
   68MPD2     N 1064   3.384   2.983  13.933 -0.4182 -0.1490  0.6759
   68MPD2    H5 1065   3.372   2.957  13.836  1.7944 -0.4838  0.4778
   68MPD2    N1 1066   3.739   3.035  14.270 -0.8387  0.2366  0.2028
   68MPD2    H7 1067   3.675   3.079  14.335 -0.3216 -0.9894  1.5352
   69TMC2    C1 1068   1.544   4.407  12.434 -1.0253 -0.2309 -0.4851
   69TMC2    C2 1069   1.649   4.499  12.444 -0.1590 -0.2569  0.3327
   69TMC2    C3 1070   1.761   4.479  12.371  0.6154 -0.6611 -0.2887
   69TMC2    C4 1071   1.556   4.304  12.351  0.4093 -0.3748 -0.1131
   69TMC2    C5 1072   1.675   4.281  12.285  0.5477 -0.6595 -0.0471
   69TMC2    C6 1073   1.783   4.369  12.287 -0.0361 -0.1136  0.7943
   69TMC2     C 1074   1.475   4.367  12.557  0.1479 -0.4686 -0.4289
   69TMC2     O 1075   1.376   4.305  12.539  0.1845 -0.3876  0.0459
   69TMC2     H 1076   1.638   4.594  12.494 -0.5135 -1.2943  2.2291
   69TMC2    H1 1077   1.475   4.232  12.348  1.4232 -1.4926 -0.6881
   69TMC2    H2 1078   1.882   4.354  12.246 -0.1704  2.4352 -0.4168
   69TMC2    C7 1079   1.683   4.174  12.186 -0.2883  0.2839  0.3405
   69TMC2    C8 1080   1.821   4.604  12.336 -0.4323  0.6213 -0.2900
   69TMC2    O1 1081   1.795   4.135  12.148 -0.3195 -0.3693 -0.2379
   69TMC2    O2 1082   1.861   4.683  12.418 -0.2797 -0.3744 -0.1208
   69TMC2    O5 1083   1.873   4.588  12.209 -0.3110  0.0567 -0.3397
   69TMC2    H5 1084   1.815   4.551  12.139 -0.0834  1.8029 -1.4595
   70MPD2     C 1085   1.576   4.406  12.906  0.6577 -0.1603 -0.2146
   70MPD2    C1 1086   1.514   4.351  12.799  0.6424 -0.1380  0.3407
   70MPD2    C2 1087   1.437   4.244  12.823  0.5820 -0.1343 -0.0540
   70MPD2    C3 1088   1.425   4.177  12.947  0.2208 -0.3491 -0.1690
   70MPD2    C4 1089   1.480   4.241  13.055 -0.1541  0.2025 -0.1734
   70MPD2    C5 1090   1.557   4.351  13.032  0.5038 -0.4935  0.6368
   70MPD2     H 1091   1.405   4.194  12.732  0.3824 -1.2041  0.6011
   70MPD2    H1 1092   1.473   4.195  13.153 -0.4846 -0.3020 -0.4382
   70MPD2    H2 1093   1.652   4.482  12.905 -1.0555  1.5444 -1.1191
   70MPD2    H3 1094   1.604   4.411  13.110 -2.3454 -0.5604  2.4036
   70MPD2     N 1095   1.370   4.046  12.968  0.9017  0.1880 -0.1475
   70MPD2    H5 1096   1.398   3.992  13.049 -3.1962 -0.1191  1.0555
   70MPD2    N1 1097   1.541   4.402  12.667  0.4309 -0.1413  0.5036
   70MPD2    H7 1098   1.625   4.457  12.653 -0.5887  1.2687 -0.0481
   71TMC2    C1 1099   2.661   4.682   1.104  0.0108 -0.6515  0.3263
   71TMC2    C2 1100   2.761   4.730   1.173  0.4592  0.1000 -0.3637
   71TMC2    C3 1101   2.728   0.049   1.290 -0.1873  0.7151 -0.1259
   71TMC2    C4 1102   2.529   4.684   1.141  0.3976  0.3233  0.7824
   71TMC2    C5 1103   2.503   0.014   1.257  0.0788 -0.3060 -0.8783
   71TMC2    C6 1104   2.601   0.069   1.337 -0.4412  0.3620 -0.1632
   71TMC2     C 1105   2.695   4.619   0.980  0.4499 -0.0771  0.3928
   71TMC2     O 1106   2.815   4.598   0.969  0.2645  0.2448  0.3037
   71TMC2     H 1107   2.866   4.726   1.148  0.6620  0.0324  0.4803
   71TMC2    H1 1108   2.456   4.619   1.093  0.5260  0.5595  0.2758
   71TMC2    H2 1109   2.578   0.120   1.430 -4.1119  1.0380 -1.4106
   71TMC2    C7 1110   2.367   0.002   1.316  0.6743  0.2994  0.5410
   71TMC2    C8 1111   2.836   0.123   1.355  0.4085  0.3294 -0.0657
   71TMC2    O1 1112   2.364   0.038   1.429  0.6821 -0.0018  0.3586
   71TMC2    O2 1113   2.916   0.184   1.289 -0.6300  0.0786  0.4067
   71TMC2    O5 1114   2.816   0.119   1.489  0.6021 -0.5057 -0.7313
   71TMC2    H5 1115   2.741   0.062   1.517  2.9229 -2.5728  1.2692
   72MPD2     C 1116   2.589   4.390   0.536  0.4297 -0.7338  0.3616
   72MPD2    C1 1117   2.706   4.412   0.602  0.7363 -0.0359  0.2035
   72MPD2    C2 1118   2.708   4.492   0.719  0.1813  0.1867  0.4508
   72MPD2    C3 1119   2.592   4.539   0.774 -1.3675 -0.3104 -0.0960
   72MPD2    C4 1120   2.475   4.508   0.707 -0.1967 -0.1748  0.0987
   72MPD2    C5 1121   2.472   4.444   0.585 -0.0056  0.5029 -0.0128
   72MPD2     H 1122   2.805   4.500   0.767 -0.2755  0.0079  1.4214
   72MPD2    H1 1123   2.381   4.548   0.744  0.3861  0.8304  0.5060
   72MPD2    H2 1124   2.579   4.335   0.443 -3.0706 -1.7830  1.3537
   72MPD2    H3 1125   2.382   4.429   0.527  1.5629  0.9898 -2.6081
   72MPD2     N 1126   2.587   4.601   0.894  0.0284  0.1316 -0.2964
   72MPD2    H5 1127   2.498   4.636   0.928 -0.1101 -0.2406 -0.2849
   72MPD2    N1 1128   2.831   4.379   0.543 -0.0753  0.2042  0.4189
   72MPD2    H7 1129   2.908   4.403   0.605  0.8524  1.1010 -1.0862
   73TMC2    C1 1130   3.138   1.058  13.906 -0.5648  0.0100 -0.0792
   73TMC2    C2 1131   3.065   0.962  13.975 -0.2351 -0.3946 -0.1395
   73TMC2    C3 1132   3.128   0.897  14.077 -0.4486 -0.3378 -0.1719
   73TMC2    C4 1133   3.264   1.090  13.934  0.3428 -0.2292  0.6768
   73TMC2    C5 1134   3.320   1.035  14.050 -0.4293 -0.3518 -0.3623
   73TMC2    C6 1135   3.250   0.942  14.123 -0.2552  0.8604 -0.5644
   73TMC2     C 1136   3.079   1.192  13.877  0.3667 -0.3922  0.5478
   73TMC2     O 1137   3.156   1.287  13.882 -0.1161  0.5013 -0.0215
   73TMC2     H 1138   2.966   0.941  13.934 -0.1603  1.4360 -1.2330
   73TMC2    H1 1139   3.338   1.120  13.861 -0.1140 -1.2736 -0.2189
   73TMC2    H2 1140   3.271   0.910  14.224 -0.6114 -0.2807 -0.8508
   73TMC2    C7 1141   3.387   1.135  14.127  0.2770  0.3018 -0.0839
   73TMC2    C8 1142   3.085   0.770  14.136  0.2738  0.0803 -0.3781
   73TMC2    O1 1143   3.447   1.103  14.234  0.5461  0.4623  0.3033
   73TMC2    O2 1144   3.167   0.703  14.200 -0.2034  0.3074  0.1519
   73TMC2    O5 1145   2.958   0.777  14.159  0.5820 -0.0581  0.3066
   73TMC2    H5 1146   2.918   0.855  14.115 -3.5770 -2.4399 -0.1140
   74MPD2     C 1147   2.731   1.519  13.708  0.0786 -0.1600 -1.2962
   74MPD2    C1 1148   2.851   1.544  13.785 -0.8956  0.1923 -0.4270
   74MPD2    C2 1149   2.919   1.437  13.827 -0.1171 -0.0961  0.1240
   74MPD2    C3 1150   2.876   1.305  13.798 -0.8667 -0.1092 -0.2886
   74MPD2    C4 1151   2.762   1.284  13.729  0.0144  0.3862  0.4822
   74MPD2    C5 1152   2.689   1.389  13.689  0.4770 -0.1116 -0.1310
   74MPD2     H 1153   2.997   1.443  13.903  0.0717 -1.0048  0.0031
   74MPD2    H1 1154   2.721   1.185  13.712 -2.2565  1.3947  0.2058
   74MPD2    H2 1155   2.669   1.596  13.663 -2.0460 -1.2877 -0.2367
   74MPD2    H3 1156   2.598   1.376  13.633  0.8259  1.6339 -1.0916
   74MPD2     N 1157   2.950   1.193  13.837  0.8000 -0.0331 -0.1989
   74MPD2    H5 1158   2.913   1.101  13.815 -1.2290  0.8943 -0.6943
   74MPD2    N1 1159   2.879   1.674  13.826  0.0020 -0.3521 -0.1137
   74MPD2    H7 1160   2.819   1.748  13.792  1.1196  1.4328  1.7947
   75TMC2    C1 1161   3.162   3.075  13.925 -0.6401  0.1665  0.0646
   75TMC2    C2 1162   3.071   3.130  14.009  0.4839  0.2076  0.0221
   75TMC2    C3 1163   2.961   3.195  13.957 -0.8582 -0.8841 -1.2819
   75TMC2    C4 1164   3.140   3.070  13.794  0.7397 -0.2844  0.0179
   75TMC2    C5 1165   3.026   3.128  13.745  1.0298 -0.0744 -0.3346
   75TMC2    C6 1166   2.934   3.195  13.826  0.3850  0.2079 -0.0536
   75TMC2     C 1167   3.291   3.042  14.004 -0.4110 -0.5236 -0.0248
   75TMC2     O 1168   3.296   3.068  14.121 -0.4078  0.5480 -0.7598
   75TMC2     H 1169   3.088   3.143  14.115 -2.2609  0.9997  0.3797
   75TMC2    H1 1170   3.212   3.035  13.721 -0.9792 -3.2943 -0.2062
   75TMC2    H2 1171   2.858   3.264  13.791  0.7481  0.1118 -1.0122
   75TMC2    C7 1172   2.987   3.099  13.605 -0.4872  0.0379  0.6997
   75TMC2    C8 1173   2.857   3.237  14.044 -0.0630  0.1385  0.0824
   75TMC2    O1 1174   3.079   3.040  13.541  0.3744  0.0315  0.6544
   75TMC2    O2 1175   2.892   3.280  14.152 -0.1420  0.3590  0.2873
   75TMC2    O5 1176   2.759   3.150  14.009 -0.1346  0.4968  0.1283
   75TMC2    H5 1177   2.772   3.112  13.920  0.5681 -1.7898  1.2066
   76TMC2    C1 1178   2.546   2.911  11.556  0.0756  0.1577 -0.5686
   76TMC2    C2 1179   2.460   2.823  11.496 -0.4455 -0.4686  0.5774
   76TMC2    C3 1180   2.472   2.691  11.536  0.0845 -0.1409 -0.0006
   76TMC2    C4 1181   2.645   2.865  11.638  0.7293  0.0402  0.3532
   76TMC2    C5 1182   2.638   2.737  11.683  0.3435  0.4491  0.0881
   76TMC2    C6 1183   2.555   2.648  11.630  0.3545 -0.0920 -0.0426
   76TMC2     C 1184   2.512   3.049  11.548  0.5572  0.5199  0.8033
   76TMC2     O 1185   2.406   3.075  11.496 -0.1272 -0.0526  0.5577
   76TMC2     H 1186   2.380   2.856  11.431  0.6123  0.0883 -0.4387
   76TMC2    H1 1187   2.705   2.930  11.701 -0.7241  0.5209  1.2453
   76TMC2    H2 1188   2.535   2.554  11.682  1.1065  0.1926  0.7575
   76TMC2    C7 1189   2.759   2.687  11.738 -0.5614 -0.5501  0.2389
   76TMC2    C8 1190   2.384   2.587  11.475 -0.3022 -0.3391  0.0786
   76TMC2    O1 1191   2.772   2.566  11.724 -0.3258  0.3901  0.3768
   76TMC2    O2 1192   2.329   2.498  11.534 -0.0545 -0.6449 -0.6617
   76TMC2    O5 1193   2.362   2.619  11.342  0.1640 -0.3939  0.1806
   76TMC2    H5 1194   2.428   2.680  11.303 -0.6475  0.5841  0.3366
   77MPD2     C 1195   2.544   3.509  11.767  0.4537 -0.1809  0.4316
   77MPD2    C1 1196   2.445   3.454  11.684  0.3348  0.4272  0.1264
   77MPD2    C2 1197   2.470   3.338  11.619  0.2560  0.8581 -0.4713
   77MPD2    C3 1198   2.588   3.271  11.634  0.2144  0.0529 -0.0466
   77MPD2    C4 1199   2.686   3.326  11.711 -0.3604 -0.5109  0.5419
   77MPD2    C5 1200   2.665   3.445  11.775  0.4000  0.5085 -0.4672
   77MPD2     H 1201   2.386   3.286  11.574  1.5628 -2.1922  0.6168
   77MPD2    H1 1202   2.777   3.269  11.731 -0.7428 -1.5241 -0.5936
   77MPD2    H2 1203   2.530   3.605  11.816 -1.1598 -0.5572  0.7119
   77MPD2    H3 1204   2.751   3.476  11.832  0.1825  0.8198 -0.3041
   77MPD2     N 1205   2.613   3.138  11.599  0.0249  0.2418 -0.1780
   77MPD2    H5 1206   2.702   3.097  11.624 -0.0063  1.6366  2.1408
   77MPD2    N1 1207   2.320   3.509  11.661 -0.1968 -0.0662 -0.2411
   77MPD2    H7 1208   2.260   3.460  11.595  0.4171  1.2962 -1.7957
   78TMC2    C1 1209   2.817   3.456   0.858  0.5832  0.0406  0.0318
   78TMC2    C2 1210   2.708   3.534   0.882  0.9557 -0.3075  0.2158
   78TMC2    C3 1211   2.727   3.671   0.867  0.3041 -0.2259 -0.4391
   78TMC2    C4 1212   2.940   3.503   0.827 -0.3364  0.0730 -0.4951
   78TMC2    C5 1213   2.952   3.634   0.816  0.9768 -0.2309 -0.2724
   78TMC2    C6 1214   2.845   3.721   0.831 -0.0482  0.1751 -1.0597
   78TMC2     C 1215   2.831   3.319   0.912  0.7626 -0.3440 -0.3307
   78TMC2     O 1216   2.946   3.272   0.929 -0.1598  0.0525 -0.2371
   78TMC2     H 1217   2.614   3.499   0.925  0.7068  0.0791 -0.0093
   78TMC2    H1 1218   3.021   3.434   0.809  1.8578  2.4609  0.3293
   78TMC2    H2 1219   2.861   3.828   0.818 -0.2483  0.3487  0.0889
   78TMC2    C7 1220   3.083   3.690   0.799  0.2044  0.3701 -0.7242
   78TMC2    C8 1221   2.615   3.761   0.877 -0.6408  0.7739 -0.1187
   78TMC2    O1 1222   3.159   3.614   0.744  0.9106  0.0448 -0.2338
   78TMC2    O2 1223   2.495   3.725   0.871 -0.0648  0.6148 -0.5221
   78TMC2    O5 1224   2.651   3.893   0.892  0.3436  0.0282  0.1237
   78TMC2    H5 1225   2.733   3.914   0.942  0.0031 -1.7539  1.4796
   79MPD1     C 1226   2.656   2.916   1.182  0.3341 -0.4826 -0.0501
   79MPD1    C1 1227   2.787   2.962   1.184 -0.6095  1.0303 -0.5087
   79MPD1    C2 1228   2.811   3.073   1.094 -0.9408  1.2475 -0.5531
   79MPD1    C3 1229   2.701   3.141   1.036 -0.9923 -0.1951 -0.1395
   79MPD1    C4 1230   2.573   3.095   1.059  0.3014 -0.1865  0.1596
   79MPD1    C5 1231   2.555   2.980   1.123 -0.1885  0.8415  0.0228
   79MPD1     H 1232   2.913   3.101   1.072 -0.8535  1.2567 -0.1282
   79MPD1    H1 1233   2.488   3.142   1.011  1.8136  1.8117 -0.5479
   79MPD1    H2 1234   2.631   2.823   1.233 -0.9920 -0.8124 -1.2959
   79MPD1    H3 1235   2.455   2.942   1.141  0.1147  0.2428  0.4685
   79MPD1     N 1236   2.714   3.258   0.951 -0.1459  0.7699  0.3454
   79MPD1    H5 1237   2.627   3.308   0.937 -0.4862 -0.6871 -2.7240
   79MPD1    N1 1238   2.888   2.884   1.247  0.0890 -0.2460 -0.2460
   79MPD1    H6 1239   2.966   2.945   1.269  0.2322 -0.6650  0.4182
   79MPD1    H7 1240   2.852   2.836   1.330  0.4612  0.1913  0.1742
   80TMC2    C1 1241   1.837   3.113  12.120  0.5370 -0.0771 -0.4994
   80TMC2    C2 1242   1.971   3.083  12.114 -0.5760 -0.8680 -0.0184
   80TMC2    C3 1243   2.009   3.011  12.003 -0.1580  0.2302  0.0609
   80TMC2    C4 1244   1.741   3.065  12.034 -0.0549  0.1043  0.9663
   80TMC2    C5 1245   1.783   2.994  11.926  0.6219  0.4325 -0.3754
   80TMC2    C6 1246   1.920   2.970  11.903  0.2366  0.0173  0.3383
   80TMC2     C 1247   1.794   3.193  12.230  0.1197  0.0573  0.3414
   80TMC2     O 1248   1.870   3.202  12.322 -0.5462  0.2050  0.0676
   80TMC2     H 1249   2.032   3.136  12.187 -0.1055  0.6227 -1.4928
   80TMC2    H1 1250   1.635   3.087  12.046  0.1539  0.4363  2.2056
   80TMC2    H2 1251   1.953   2.907  11.821  3.1078  0.4369  1.1788
   80TMC2    C7 1252   1.686   2.937  11.837  0.1718  0.3898 -0.0118
   80TMC2    C8 1253   2.139   2.959  11.995  0.1143 -0.0852  0.8622
   80TMC2    O1 1254   1.713   2.930  11.717  0.1569 -0.0242 -0.1176
   80TMC2    O2 1255   2.178   2.890  11.904  0.6155 -0.2999  0.3623
   80TMC2    O5 1256   2.218   3.020  12.090  0.0609  0.1776  0.1729
   80TMC2    H5 1257   2.171   3.064  12.164 -0.7829 -1.5149  0.6657
   81MPD2     C 1258   1.645   3.378  12.435  0.2590 -0.6698 -0.7469
   81MPD2    C1 1259   1.603   3.329  12.306  0.0445  0.1820  1.0752
   81MPD2    C2 1260   1.478   3.366  12.269 -0.0610 -0.3548  0.6286
   81MPD2    C3 1261   1.382   3.436  12.341  0.0682 -0.4511 -0.6410
   81MPD2    C4 1262   1.423   3.480  12.466  0.3260 -0.8024  0.5078
   81MPD2    C5 1263   1.548   3.441  12.508 -0.1520 -0.6560  0.7932
   81MPD2     H 1264   1.442   3.330  12.173  0.8089  2.2874 -0.6864
   81MPD2    H1 1265   1.352   3.527  12.533  0.9273  0.2959  0.3825
   81MPD2    H2 1266   1.744   3.364  12.475  0.4144  1.2641 -0.4429
   81MPD2    H3 1267   1.591   3.475  12.602 -1.9390  3.0848  0.2484
   81MPD2     N 1268   1.251   3.473  12.299  0.7034  0.3446  0.2632
   81MPD2    H5 1269   1.189   3.512  12.369  0.8861 -0.3605  0.8136
   81MPD2    N1 1270   1.673   3.254  12.209  0.3728  0.0100 -0.5574
   81MPD2    H7 1271   1.638   3.231  12.116  1.7743  0.2874 -1.1592
   82TMC2    C1 1272   4.324   2.075  10.758 -0.1886  0.0120 -0.2921
   82TMC2    C2 1273   4.392   2.147  10.855  0.1801 -0.2034 -0.2701
   82TMC2    C3 1274   4.377   2.101  10.979 -0.1054  0.0319  0.2534
   82TMC2    C4 1275   4.252   1.959  10.792 -0.1385  0.0369  0.0950
   82TMC2    C5 1276   4.245   1.921  10.920  0.5338  0.0842 -0.6300
   82TMC2    C6 1277   4.319   1.984  11.011 -0.2039  0.0785  0.0992
   82TMC2     C 1278   4.284   2.157  10.645 -0.1903 -0.1495 -0.0062
   82TMC2     O 1279   4.196   2.128  10.568 -0.0338  0.0851 -0.7372
   82TMC2     H 1280   4.406   2.254  10.859 -1.0097 -0.0534 -0.1309
   82TMC2    H1 1281   4.184   1.926  10.715 -0.8616  0.9543  0.3416
   82TMC2    H2 1282   4.309   1.952  11.114  1.5483  0.3461  0.3565
   82TMC2    C7 1283   4.162   1.806  10.965 -0.0211  0.1970 -0.5770
   82TMC2    C8 1284   4.449   2.184  11.087 -0.4883  0.2067  0.0203
   82TMC2    O1 1285   4.170   1.794  11.089  0.0205 -0.5242 -0.0182
   82TMC2    O2 1286   4.520   2.279  11.059 -0.6631  0.4936  0.3785
   82TMC2    O5 1287   4.382   2.177  11.204  0.0437  0.3916 -0.1670
   82TMC2    H5 1288   4.316   2.108  11.225 -0.9143  2.1028  2.5512
   83MPD2     C 1289   4.326   2.603  10.408 -0.0010  0.3440  0.5669
   83MPD2    C1 1290   4.215   2.537  10.451  0.0129  0.8685  0.2954
   83MPD2    C2 1291   4.234   2.412  10.509  0.7273  0.0078  0.6461
   83MPD2    C3 1292   4.361   2.365  10.550  0.2045  0.4295 -0.8057
   83MPD2    C4 1293   4.466   2.451  10.532  0.2393  0.3948  0.0904
   83MPD2    C5 1294   4.452   2.565  10.454  0.2307  0.0590  0.0833
   83MPD2     H 1295   4.149   2.346  10.523  0.0127  0.8399  0.2167
   83MPD2    H1 1296   4.560   2.431  10.580 -0.2730 -2.2096 -0.0241
   83MPD2    H2 1297   4.313   2.683  10.336  0.9069  1.0359  1.1692
   83MPD2    H3 1298   4.536   2.630  10.433  0.6748 -0.8172 -0.8898
   83MPD2     N 1299   4.377   2.251  10.626  0.4755 -0.1068 -0.1567
   83MPD2    H5 1300   4.471   2.238  10.663  0.4522  0.2387  0.0208
   83MPD2    N1 1301   4.086   2.579  10.406 -0.2771  0.2894 -0.0025
   83MPD2    H7 1302   4.077   2.666  10.354 -0.9985 -0.5153 -1.2471
   84TMC2    C1 1303   0.437   2.202  10.689 -0.3431 -0.6506 -0.2820
   84TMC2    C2 1304   0.419   2.087  10.764  0.2504 -0.7303  0.1308
   84TMC2    C3 1305   0.524   2.003  10.762 -0.6235 -0.1241 -0.1367
   84TMC2    C4 1306   0.555   2.238  10.624 -0.5431 -0.2273  0.0413
   84TMC2    C5 1307   0.656   2.151  10.628 -0.2029  0.1198  0.3034
   84TMC2    C6 1308   0.642   2.031  10.698 -0.2678  0.2707  0.0321
   84TMC2     C 1309   0.335   2.304  10.699  0.5454 -0.1686  0.1159
   84TMC2     O 1310   0.329   2.383  10.607 -0.3409 -0.5657 -0.3784
   84TMC2     H 1311   0.327   2.051  10.807  0.0850  0.0754  0.4610
   84TMC2    H1 1312   0.569   2.328  10.566 -2.8797 -1.6729 -2.7707
   84TMC2    H2 1313   0.710   1.947  10.692 -0.4422  0.1555 -0.3150
   84TMC2    C7 1314   0.773   2.199  10.572  0.0539 -0.4037 -0.3000
   84TMC2    C8 1315   0.497   1.868  10.787 -0.3072 -0.6218 -0.1291
   84TMC2    O1 1316   0.770   2.316  10.531  0.2442  0.2064  0.1859
   84TMC2    O2 1317   0.555   1.779  10.729  0.1779 -0.4272 -0.0514
   84TMC2    O5 1318   0.444   1.862  10.910  0.7345 -0.1330 -0.2387
   84TMC2    H5 1319   0.431   1.949  10.954  1.5414  0.8154 -1.8938
   85TMC2    C1 1320   1.194   4.700  15.460 -0.1745  0.4048  0.1938
   85TMC2    C2 1321   1.099   0.060  15.479  0.1610  0.2179 -0.0734
   85TMC2    C3 1322   1.091   0.153  15.393 -0.5279 -0.4862  0.9799
   85TMC2    C4 1323   1.274   4.704  15.350  0.2112 -0.1515  0.8552
   85TMC2    C5 1324   1.266   0.070  15.264  0.0623 -0.1873  0.2374
   85TMC2    C6 1325   1.161   0.163  15.274 -0.1546 -0.2069 -0.1790
   85TMC2     C 1326   1.217   4.610  15.570  0.2942 -0.4410 -0.4834
   85TMC2     O 1327   1.332   4.565  15.572  0.0068  0.4110 -0.3282
   85TMC2     H 1328   1.037   0.064  15.568 -0.6545  0.8865 -0.6668
   85TMC2    H1 1329   1.351   4.629  15.335 -0.0101 -0.3607  0.7783
   85TMC2    H2 1330   1.117   0.214  15.188  0.1513 -1.4306 -1.0628
   85TMC2    C7 1331   1.349   0.053  15.145  0.1184  0.1561  0.0061
   85TMC2    C8 1332   0.986   0.252  15.424 -0.3191  0.0943  0.2002
   85TMC2    O1 1333   1.401   4.686  15.121  0.3216 -0.2854  0.0099
   85TMC2    O2 1334   0.866   0.225  15.442  0.2335  0.2686  0.1771
   85TMC2    O5 1335   1.022   0.356  15.355  0.2453 -0.1650  0.7182
   85TMC2    H5 1336   1.117   0.359  15.332  0.3746 -1.7780  1.0383
   86MPD2     C 1337   1.076   4.299  15.931  0.0758 -0.0996  0.2260
   86MPD2    C1 1338   0.968   4.318  15.857  0.2280  0.1781  0.2566
   86MPD2    C2 1339   0.977   4.412  15.753 -0.0622  0.5993 -0.1520
   86MPD2    C3 1340   1.097   4.473  15.729 -0.4128  0.0941  0.3065
   86MPD2    C4 1341   1.204   4.452  15.812  0.4269 -0.1855  0.6863
   86MPD2    C5 1342   1.192   4.366  15.912  0.1371 -0.1702 -0.1371
   86MPD2     H 1343   0.898   4.437  15.682  0.2514  0.6469 -0.4823
   86MPD2    H1 1344   1.296   4.509  15.814 -1.3028  2.6399  0.0553
   86MPD2    H2 1345   1.069   4.231  16.015 -1.5263 -0.0358  0.1520
   86MPD2    H3 1346   1.274   4.347  15.981  0.0626 -0.2859 -0.0806
   86MPD2     N 1347   1.103   4.570  15.626  0.1208  0.3491 -0.2958
   86MPD2    H5 1348   1.018   4.619  15.600 -0.3730  0.8978  2.3132
   86MPD2    N1 1349   0.854   4.244  15.874 -0.5925 -0.1075 -0.4844
   86MPD2    H7 1350   0.786   4.249  15.800 -0.3403 -2.2162 -0.8632
   87TMC2    C1 1351   3.494   2.267   1.101 -0.5862 -0.1833  0.3895
   87TMC2    C2 1352   3.581   2.299   1.208  0.3505  0.4440 -0.0670
   87TMC2    C3 1353   3.558   2.406   1.277 -0.2702  0.4889  0.5695
   87TMC2    C4 1354   3.389   2.348   1.067 -0.0208 -0.2531  0.4378
   87TMC2    C5 1355   3.369   2.458   1.149 -0.3420 -0.0206 -0.1775
   87TMC2    C6 1356   3.455   2.491   1.252 -0.6694 -0.6692  0.1325
   87TMC2     C 1357   3.528   2.172   1.002 -0.1989 -0.6444 -0.4583
   87TMC2     O 1358   3.460   2.177   0.901 -0.5610  0.2200 -0.0262
   87TMC2     H 1359   3.652   2.222   1.236 -1.0091 -0.9611 -0.4781
   87TMC2    H1 1360   3.351   2.355   0.966 -0.8328  1.3507  0.8518
   87TMC2    H2 1361   3.426   2.566   1.325  1.6224  0.0424  0.3151
   87TMC2    C7 1362   3.271   2.556   1.102 -0.2231 -0.0506 -0.1460
   87TMC2    C8 1363   3.645   2.456   1.385 -0.3608 -0.6433 -0.5573
   87TMC2    O1 1364   3.168   2.531   1.039 -0.6870 -0.1587  0.5997
   87TMC2    O2 1365   3.712   2.381   1.454 -0.0402 -0.2062  0.3156
   87TMC2    O5 1366   3.683   2.584   1.339  0.4806 -0.0446  0.0484
   87TMC2    H5 1367   3.620   2.623   1.275 -1.8168 -1.1574  1.6449
   88MPD2     C 1368   3.378   2.918   1.088  0.7529 -0.3861 -0.5940
   88MPD2    C1 1369   3.301   2.808   1.058  0.0491 -0.0758  0.6034
   88MPD2    C2 1370   3.190   2.823   0.973 -0.0116  0.2123 -0.3435
   88MPD2    C3 1371   3.158   2.947   0.918 -0.5143 -0.2961 -0.4427
   88MPD2    C4 1372   3.245   3.046   0.935 -0.1423 -0.1603  0.2120
   88MPD2    C5 1373   3.345   3.036   1.026  0.4350 -0.1461  0.2099
   88MPD2     H 1374   3.123   2.739   0.960 -1.4957  1.0680  1.7851
   88MPD2    H1 1375   3.233   3.142   0.886  1.0341 -0.9954 -1.6744
   88MPD2    H2 1376   3.457   2.925   1.162 -1.5607  0.8696  1.7663
   88MPD2    H3 1377   3.409   3.118   1.054 -0.6956  1.0517 -0.7491
   88MPD2     N 1378   3.044   2.976   0.840 -0.1959  0.2202  0.2290
   88MPD2    H5 1379   3.037   3.070   0.803  0.5475 -1.5421 -4.3617
   88MPD2    N1 1380   3.336   2.681   1.110 -0.3128  0.3034  0.0295
   88MPD2    H7 1381   3.431   2.670   1.145  0.2238  1.9162 -0.9055
   89TMC2    C1 1382   4.681   1.061   1.058 -0.8587  0.4306 -0.0187
   89TMC2    C2 1383   0.051   1.126   1.112  0.4805 -0.6608 -0.2505
   89TMC2    C3 1384   0.041   1.264   1.113 -0.6966  0.5416  0.6553
   89TMC2    C4 1385   4.572   1.121   1.004 -0.4519 -0.1946  0.0566
   89TMC2    C5 1386   4.577   1.257   0.997 -0.6325 -0.0921 -0.6340
   89TMC2    C6 1387   4.668   1.330   1.060  0.4235  0.2048 -0.1172
   89TMC2     C 1388   4.666   0.924   1.103  0.4120 -0.5087  1.2481
   89TMC2     O 1389   0.023   0.861   1.140  0.4096  0.2944  0.0893
   89TMC2     H 1390   0.135   1.076   1.159 -0.2909 -0.3762  1.4458
   89TMC2    H1 1391   4.504   1.067   0.939  0.9054 -3.7327  1.5995
   89TMC2    H2 1392   4.658   1.438   1.059 -0.7378  0.1272  1.7889
   89TMC2    C7 1393   4.467   1.319   0.918 -0.1485  0.3438  0.5591
   89TMC2    C8 1394   0.152   1.343   1.164  0.0247  0.4858 -0.2532
   89TMC2    O1 1395   4.363   1.254   0.905  0.2565 -0.0481 -0.9813
   89TMC2    O2 1396   0.253   1.288   1.193  0.4783  0.2217 -0.1245
   89TMC2    O5 1397   0.102   1.448   1.236 -0.1174 -0.0068 -0.6702
   89TMC2    H5 1398   0.006   1.467   1.234 -0.0070  0.6374  0.3830
   90MPD2     C 1399   4.405   0.490   1.152 -0.2038 -0.6650  0.1275
   90MPD2    C1 1400   4.327   0.591   1.198 -0.3846  0.0048  0.1890
   90MPD2    C2 1401   4.381   0.723   1.192  0.6225 -0.4187 -0.7441
   90MPD2    C3 1402   4.503   0.751   1.131 -0.3302 -0.0846 -0.1055
   90MPD2    C4 1403   4.586   0.648   1.104 -0.2569  0.2054  0.0141
   90MPD2    C5 1404   4.533   0.522   1.115 -0.1777 -0.2585 -0.9513
   90MPD2     H 1405   4.318   0.805   1.225  1.3085 -0.2257  0.0866
   90MPD2    H1 1406   4.686   0.656   1.062 -0.8971 -3.4091 -2.1805
   90MPD2    H2 1407   4.369   0.388   1.139 -0.7550 -0.7165  2.1356
   90MPD2    H3 1408   4.598   0.440   1.086  0.1883 -0.1298 -0.5083
   90MPD2     N 1409   4.535   0.886   1.112 -0.2719 -0.6864  0.0704
   90MPD2    H5 1410   4.455   0.949   1.115  2.1927  2.5352 -2.2470
   90MPD2    N1 1411   4.193   0.579   1.247 -0.0935 -0.2305  0.8936
   90MPD2    H7 1412   4.157   0.664   1.289 -0.1900  0.7365 -1.1181
   91TMC2    C1 1413   1.026   0.759  16.106 -0.3485  0.0128 -0.2974
   91TMC2    C2 1414   1.062   0.769  16.233 -0.2610 -0.6296  0.2636
   91TMC2    C3 1415   0.977   0.763  16.342  0.0918 -0.3838  0.5368
   91TMC2    C4 1416   0.898   0.722  16.078 -0.2194 -0.3156 -0.3953
   91TMC2    C5 1417   0.810   0.707  16.187 -0.4336  0.1794  0.4698
   91TMC2    C6 1418   0.845   0.736  16.312  0.1814  0.0436  0.2448
   91TMC2     C 1419   1.126   0.720  16.006  0.1451  0.2832  0.4069
   91TMC2     O 1420   1.099   0.741  15.889 -0.5308  0.2026 -0.4593
   91TMC2     H 1421   1.164   0.797  16.257 -0.5679 -0.1019  0.9706
   91TMC2    H1 1422   0.873   0.692  15.977 -0.8872  0.3103 -0.4130
   91TMC2    H2 1423   0.772   0.720  16.391 -0.2552 -1.2071 -0.4066
   91TMC2    C7 1424   0.691   0.626  16.166 -0.0515  0.3775 -0.0697
   91TMC2    C8 1425   1.022   0.825  16.464  0.3040  0.3930  0.5865
   91TMC2    O1 1426   0.630   0.585  16.266 -0.4378 -0.0764  0.1154
   91TMC2    O2 1427   1.084   0.931  16.464 -0.5940 -0.0498  0.0754
   91TMC2    O5 1428   0.934   0.791  16.553  0.1088  0.1849  0.2601
   91TMC2    H5 1429   0.921   0.696  16.531 -1.9587  1.0814 -2.3290
   92MPD2     C 1430   1.354   0.606  15.845 -0.0190 -0.0875  0.4102
   92MPD2    C1 1431   1.354   0.623  15.984 -0.1451 -0.3925 -0.5882
   92MPD2    C2 1432   1.469   0.600  16.062 -1.0662 -0.6073 -0.6874
   92MPD2    C3 1433   1.587   0.586  15.993 -0.8916  0.0607 -0.1558
   92MPD2    C4 1434   1.583   0.555  15.856  0.0724 -0.3610  0.5392
   92MPD2    C5 1435   1.466   0.564  15.789  0.7405 -0.9148 -0.6964
   92MPD2     H 1436   1.469   0.608  16.171  1.2010 -0.7321 -0.6604
   92MPD2    H1 1437   1.673   0.534  15.799 -3.3058 -0.6844 -4.6621
   92MPD2    H2 1438   1.263   0.612  15.786  1.4241  1.2881 -1.6443
   92MPD2    H3 1439   1.453   0.535  15.685  0.2186  0.4602 -1.0239
   92MPD2     N 1440   1.703   0.583  16.074  0.7837  0.1375  0.5764
   92MPD2    H5 1441   1.697   0.623  16.168  1.5892  0.9227  0.2925
   92MPD2    N1 1442   1.244   0.668  16.055  0.4501 -0.9416  0.0605
   92MPD2    H7 1443   1.250   0.661  16.156  0.0545 -1.4924  0.0461
   93TMC2    C1 1444   2.994   0.928  13.509  0.0913 -0.7547 -0.2508
   93TMC2    C2 1445   2.993   0.831  13.409  0.2552 -0.6772  0.1390
   93TMC2    C3 1446   3.114   0.806  13.343  1.0035  0.4593  0.2395
   93TMC2    C4 1447   3.099   1.008  13.534  0.4083 -0.6250  0.1110
   93TMC2    C5 1448   3.211   0.989  13.458  0.6188  0.3090  0.2432
   93TMC2    C6 1449   3.227   0.880  13.372  0.0469 -0.0689  0.0176
   93TMC2     C 1450   2.886   0.938  13.596  0.1423 -0.3614 -0.0409
   93TMC2     O 1451   2.911   0.948  13.716 -0.0607  0.4898 -0.2784
   93TMC2     H 1452   2.913   0.761  13.388 -1.7034  1.3309  0.9582
   93TMC2    H1 1453   3.093   1.088  13.607  2.1386  0.1097 -0.5444
   93TMC2    H2 1454   3.328   0.856  13.343 -0.1968 -2.0574  0.8025
   93TMC2    C7 1455   3.333   1.055  13.498 -0.3609 -0.0733  0.1718
   93TMC2    C8 1456   3.113   0.714  13.231 -0.5549 -0.3894  0.4255
   93TMC2    O1 1457   3.440   1.009  13.459  0.4536 -0.2381 -0.1494
   93TMC2    O2 1458   3.045   0.614  13.231 -0.3701 -0.1338  0.4738
   93TMC2    O5 1459   3.205   0.754  13.140  0.0934 -0.1357 -0.0617
   93TMC2    H5 1460   3.243   0.842  13.163  0.5766 -0.8840  1.9546
   94MPD2     C 1461   2.624   0.918  13.716  0.7584  0.3879  0.5936
   94MPD2    C1 1462   2.647   0.964  13.588 -0.4895 -0.3238  0.1635
   94MPD2    C2 1463   2.544   1.009  13.518  0.5167 -0.5667 -0.0602
   94MPD2    C3 1464   2.426   1.038  13.572  0.5891 -0.0053 -0.3798
   94MPD2    C4 1465   2.400   1.001  13.702 -0.4255  0.2155 -0.6884
   94MPD2    C5 1466   2.500   0.953  13.775  0.8118 -0.2265 -0.2563
   94MPD2     H 1467   2.568   1.034  13.415  1.7594  0.3269  0.4431
   94MPD2    H1 1468   2.303   1.009  13.750  0.0716  2.5898 -0.0679
   94MPD2    H2 1469   2.703   0.882  13.781  0.4106  0.4075  1.0249
   94MPD2    H3 1470   2.486   0.913  13.875 -0.3549  0.5622 -0.1115
   94MPD2     N 1471   2.336   1.115  13.490 -0.9717  0.2054  0.0151
   94MPD2    H5 1472   2.386   1.163  13.416  0.7692  1.6158  2.1202
   94MPD2    N1 1473   2.772   0.943  13.526  0.0319 -0.3607 -0.0249
   94MPD2    H7 1474   2.772   0.965  13.427  1.6189  1.6678  0.4091
   95TMC2    C1 1475   3.092   2.216  16.281 -0.2669 -0.0158 -0.5371
   95TMC2    C2 1476   3.094   2.083  16.228  0.2831 -0.2897 -0.3748
   95TMC2    C3 1477   3.055   1.986  16.319  0.1590  0.1715  0.2076
   95TMC2    C4 1478   3.050   2.247  16.409  0.8060  0.1891  0.4453
   95TMC2    C5 1479   3.005   2.145  16.491  0.3352 -0.4930  0.3299
   95TMC2    C6 1480   2.998   2.015  16.441  0.3315  0.0102  0.5681
   95TMC2     C 1481   3.169   2.306  16.202 -0.3669  0.0614 -0.3642
   95TMC2     O 1482   3.267   2.262  16.139 -0.0044 -0.4583 -0.2758
   95TMC2     H 1483   3.137   2.058  16.132 -1.4565  1.7752 -1.6857
   95TMC2    H1 1484   3.077   2.343  16.452  0.6043  0.8980 -0.9804
   95TMC2    H2 1485   2.948   1.936  16.495  1.6931 -0.9142  0.4920
   95TMC2    C7 1486   3.010   2.164  16.638 -0.4050 -0.0192 -0.0278
   95TMC2    C8 1487   3.051   1.853  16.271 -0.6231  0.7735 -0.1296
   95TMC2    O1 1488   3.059   2.270  16.670 -1.1786  0.0198  0.2181
   95TMC2    O2 1489   3.063   1.824  16.153 -0.8730  0.5550 -0.4216
   95TMC2    O5 1490   3.082   1.769  16.373 -0.5864  0.5816  0.8868
   95TMC2    H5 1491   3.102   1.815  16.457 -1.1116 -0.3332  1.5215
   96MPD2     C 1492   3.282   2.797  16.103  0.4225 -0.0935 -0.0333
   96MPD2    C1 1493   3.348   2.684  16.058  0.2887  0.0450 -0.0192
   96MPD2    C2 1494   3.287   2.559  16.087  1.0799 -0.3000 -0.0050
   96MPD2    C3 1495   3.174   2.558  16.166 -0.0850  0.2538 -0.4949
   96MPD2    C4 1496   3.106   2.673  16.198  0.0744 -0.3150 -0.0177
   96MPD2    C5 1497   3.165   2.794  16.172  0.3711 -0.3804 -0.0625
   96MPD2     H 1498   3.324   2.463  16.054 -2.3075 -0.2942 -3.8183
   96MPD2    H1 1499   3.014   2.673  16.255  1.1358  0.3389  1.6763
   96MPD2    H2 1500   3.318   2.898  16.085  0.8132 -0.2958 -0.4162
   96MPD2    H3 1501   3.134   2.878  16.233 -1.8578 -0.9930 -0.3596
   96MPD2     N 1502   3.108   2.432  16.202  0.4914 -0.2333  0.4488
   96MPD2    H5 1503   3.023   2.426  16.256  1.0783 -1.9074  1.2028
   96MPD2    N1 1504   3.468   2.704  15.981 -0.0977 -0.0066  0.1358
   96MPD2    H7 1505   3.503   2.798  15.965  0.1298 -0.0903  0.1379
   97TMC2    C1 1506   0.438   0.562  17.342 -0.9633  0.1572  0.4202
   97TMC2    C2 1507   0.358   0.594  17.230  0.4840 -1.1739  0.0359
   97TMC2    C3 1508   0.357   0.725  17.184  0.3206  0.2017  0.7020
   97TMC2    C4 1509   0.496   0.661  17.415  0.5127  0.4327  0.0258
   97TMC2    C5 1510   0.496   0.790  17.362  0.1174  0.2002 -0.4054
   97TMC2    C6 1511   0.421   0.830  17.254 -0.2396 -0.0538  0.8100
   97TMC2     C 1512   0.415   0.436  17.404  0.5456 -0.0857  0.0530
   97TMC2     O 1513   0.481   0.416  17.509 -0.0288 -0.4854 -0.2789
   97TMC2     H 1514   0.303   0.523  17.168 -1.2426 -1.6274  2.1081
   97TMC2    H1 1515   0.547   0.638  17.508 -3.8325 -0.3864  2.2072
   97TMC2    H2 1516   0.405   0.933  17.225  0.2911  0.4290  2.2302
   97TMC2    C7 1517   0.517   0.882  17.474 -0.1317 -0.5027 -0.2790
   97TMC2    C8 1518   0.295   0.751  17.054  0.8440  0.6304 -0.2843
   97TMC2    O1 1519   0.605   0.850  17.544  0.0504  0.0528  0.2342
   97TMC2    O2 1520   0.308   0.669  16.965  0.3576 -0.1876  0.3935
   97TMC2    O5 1521   0.193   0.837  17.063  0.0696 -0.2154 -0.4360
   97TMC2    H5 1522   0.192   0.873  17.154  0.6872 -1.4222  0.0458
   98MPD2     C 1523   0.259   4.674  17.408 -0.4727 -0.4663 -0.6701
   98MPD2    C1 1524   0.318   0.019  17.503 -0.2263 -0.0118  0.3907
   98MPD2    C2 1525   0.350   0.155  17.473 -0.1110  0.1879  0.6542
   98MPD2    C3 1526   0.316   0.212  17.351  0.1311 -0.0894 -0.8037
   98MPD2    C4 1527   0.247   0.136  17.263 -0.4108  0.2994  0.1803
   98MPD2    C5 1528   0.221   0.004  17.294 -0.2514 -0.1832  0.5294
   98MPD2     H 1529   0.399   0.218  17.547  2.0934 -0.7051 -0.0492
   98MPD2    H1 1530   0.208   0.177  17.170 -0.4225  1.1841  0.5736
   98MPD2    H2 1531   0.228   4.571  17.427  0.4945 -0.6501 -0.0891
   98MPD2    H3 1532   0.160   4.682  17.227 -0.2129 -0.6500  0.9184
   98MPD2     N 1533   0.343   0.350  17.324  0.2479 -0.3795 -0.5916
   98MPD2    H5 1534   0.293   0.391  17.245  1.9177  1.1662 -0.8355
   98MPD2    N1 1535   0.352   4.700  17.623 -0.0646  0.9039 -0.5684
   98MPD2    H7 1536   0.314   4.607  17.636  1.3135  0.1712 -1.8144
   99TMC2    C1 1537   4.273   1.971   1.620 -0.1121  0.1257  0.3495
   99TMC2    C2 1538   4.334   2.089   1.637 -0.3736 -0.2065 -0.3823
   99TMC2    C3 1539   4.329   2.127   1.767  0.5666 -0.0999 -0.0319
   99TMC2    C4 1540   4.212   1.891   1.712  0.2370  0.1857  0.1037
   99TMC2    C5 1541   4.214   1.930   1.838  0.0183 -0.5207  0.2035
   99TMC2    C6 1542   4.273   2.047   1.870 -0.4196  0.6073  0.0047
   99TMC2     C 1543   4.297   1.919   1.491  0.1111 -0.1514  0.0119
   99TMC2     O 1544   4.407   1.940   1.448  0.0348 -0.2167 -0.0318
   99TMC2     H 1545   4.377   2.144   1.555 -2.1986  1.4602 -0.2223
   99TMC2    H1 1546   4.187   1.788   1.689  0.1804  0.4562 -1.0652
   99TMC2    H2 1547   4.275   2.091   1.970 -2.8648  0.6004  0.0533
   99TMC2    C7 1548   4.158   1.844   1.939 -0.1334 -0.6560  0.6694
   99TMC2    C8 1549   4.335   2.267   1.793 -0.5347  0.1030 -0.4211
   99TMC2    O1 1550   4.190   1.863   2.058  0.2242 -0.2007 -0.0316
   99TMC2    O2 1551   4.248   2.322   1.860  1.1433 -0.0844  0.3713
   99TMC2    O5 1552   4.469   2.297   1.777 -0.1172 -0.1178 -0.2501
   99TMC2    H5 1553   4.521   2.228   1.730  1.2381  0.9220 -0.2776
  100MPD2     C 1554   4.322   1.774   1.239 -0.8033 -0.0501  0.2495
  100MPD2    C1 1555   4.200   1.797   1.307 -0.1771  0.6051 -0.4720
  100MPD2    C2 1556   4.080   1.760   1.253 -0.1275 -0.2772  0.2494
  100MPD2    C3 1557   4.073   1.702   1.126 -0.5248  0.5311  0.9346
  100MPD2    C4 1558   4.195   1.671   1.067 -0.6334  0.4771 -0.1294
  100MPD2    C5 1559   4.314   1.710   1.119 -0.4186 -0.1202  0.0861
  100MPD2     H 1560   3.990   1.778   1.311  0.2415  0.4831  0.5875
  100MPD2    H1 1561   4.197   1.621   0.971  0.7187 -1.6925  1.0309
  100MPD2    H2 1562   4.421   1.795   1.279 -0.3527  0.3895 -1.0921
  100MPD2    H3 1563   4.404   1.682   1.067 -1.0326 -2.4527  0.2814
  100MPD2     N 1564   3.943   1.672   1.062 -0.0466 -0.0304  0.0496
  100MPD2    H5 1565   3.857   1.705   1.104 -1.9650 -0.8405 -3.2601
  100MPD2    N1 1566   4.197   1.846   1.441  0.1767 -0.6480 -0.2608
  100MPD2    H7 1567   4.107   1.845   1.490  1.1019 -0.2140  1.4608
  101TMC2    C1 1568   0.478   3.002  12.418 -0.4125 -0.5724 -0.6688
  101TMC2    C2 1569   0.519   2.922  12.317  0.3059 -0.9355 -0.8011
  101TMC2    C3 1570   0.500   2.976  12.193  0.2761 -0.2608  0.1035
  101TMC2    C4 1571   0.455   3.134  12.412  0.9899 -0.4717  0.1747
  101TMC2    C5 1572   0.453   3.186  12.284 -0.1198 -0.4355  0.2897
  101TMC2    C6 1573   0.466   3.111  12.172  0.1107 -0.1208 -0.1550
  101TMC2     C 1574   0.435   2.935  12.536  0.9589  0.4872 -0.1308
  101TMC2     O 1575   0.355   2.992  12.608 -0.4201  0.0420 -0.3181
  101TMC2     H 1576   0.531   2.814  12.316  1.4354 -0.8107 -2.6339
  101TMC2    H1 1577   0.441   3.190  12.503 -0.5343 -3.1025  1.5588
  101TMC2    H2 1578   0.478   3.157  12.075 -1.9557 -2.5979 -1.5775
  101TMC2    C7 1579   0.467   3.334  12.274 -0.5805 -0.0799 -0.1792
  101TMC2    C8 1580   0.560   2.913  12.078 -0.2092 -0.3247  0.7534
  101TMC2    O1 1581   0.521   3.398  12.367  0.2754 -0.2250  0.4033
  101TMC2    O2 1582   0.525   2.798  12.053  0.7482 -0.1099 -0.4070
  101TMC2    O5 1583   0.690   2.940  12.096 -0.4132  0.5379  0.2452
  101TMC2    H5 1584   0.704   3.037  12.107 -0.4756  0.8435 -2.4818
  102MPD2     C 1585   0.475   2.579  12.612  0.7157  0.4627  0.2875
  102MPD2    C1 1586   0.427   2.707  12.627 -0.5400  0.3448 -0.1753
  102MPD2    C2 1587   0.333   2.725  12.726 -0.3528 -0.1032  0.0757
  102MPD2    C3 1588   0.286   2.612  12.803 -0.2376  0.1664  0.3145
  102MPD2    C4 1589   0.337   2.486  12.782 -0.4554 -0.3158 -0.5734
  102MPD2    C5 1590   0.428   2.474  12.682  0.3265  0.0477 -0.0789
  102MPD2     H 1591   0.295   2.824  12.750  4.6769  1.7865  0.2541
  102MPD2    H1 1592   0.306   2.403  12.845 -1.0644  0.8911  0.7070
  102MPD2    H2 1593   0.550   2.558  12.537 -0.2649  0.3485 -0.6789
  102MPD2    H3 1594   0.464   2.378  12.648  2.4553  1.2824 -1.2956
  102MPD2     N 1595   0.198   2.628  12.908 -0.5217 -0.0656 -0.1019
  102MPD2    H5 1596   0.142   2.547  12.935 -0.4680  0.5519  1.9155
  102MPD2    N1 1597   0.476   2.804  12.544  0.0676  0.0213 -0.6120
  102MPD2    H7 1598   0.557   2.775  12.489  0.9703 -1.7057  1.6258
  103TMC2    C1 1599   3.192   3.158  12.194  0.3885  0.0552 -0.3237
  103TMC2    C2 1600   3.224   3.227  12.079  0.2351 -0.3789  0.1987
  103TMC2    C3 1601   3.204   3.360  12.077 -0.2014  1.1472 -0.0697
  103TMC2    C4 1602   3.137   3.220  12.298  0.4910 -0.1784 -0.2400
  103TMC2    C5 1603   3.129   3.352  12.303 -0.0347  0.7939  0.3992
  103TMC2    C6 1604   3.168   3.426  12.198  0.2450 -0.0744  0.2065
  103TMC2     C 1605   3.112   3.044  12.163  0.2561  0.5824  0.1289
  103TMC2     O 1606   2.989   3.055  12.186  0.1819  0.1517 -0.4267
  103TMC2     H 1607   3.261   3.178  11.990 -0.9420 -0.8493 -0.0363
  103TMC2    H1 1608   3.104   3.151  12.374 -0.0988  0.9582  0.5325
  103TMC2    H2 1609   3.158   3.534  12.207  1.6444 -0.0167  0.9694
  103TMC2    C7 1610   3.060   3.403  12.420  0.0904  0.1065  0.0028
  103TMC2    C8 1611   3.291   3.440  11.992  0.1008 -0.8314  0.8128
  103TMC2    O1 1612   3.088   3.364  12.535  0.0963 -0.4506 -0.2146
  103TMC2    O2 1613   3.307   3.557  12.023 -0.1888  0.4592 -0.0162
  103TMC2    O5 1614   3.254   3.405  11.869 -0.6958  0.0570 -0.0506
  103TMC2    H5 1615   3.193   3.328  11.871  0.1907 -0.5694  2.5403
  104MPD2     C 1616   3.210   2.768  11.959  0.8252 -0.5189 -0.4360
  104MPD2    C1 1617   3.126   2.867  11.993 -0.3625 -0.2311  1.1883
  104MPD2    C2 1618   2.996   2.868  11.945 -0.3920  0.3865 -0.1799
  104MPD2    C3 1619   2.955   2.768  11.863  0.0358  0.2195 -0.0976
  104MPD2    C4 1620   3.044   2.669  11.821  0.4256 -0.4411 -1.1837
  104MPD2    C5 1621   3.171   2.664  11.880 -0.5033 -0.3325 -0.5706
  104MPD2     H 1622   2.931   2.952  11.969  0.8644  1.3395 -0.1348
  104MPD2    H1 1623   3.021   2.586  11.756  3.6457 -0.4361 -2.3299
  104MPD2    H2 1624   3.310   2.767  11.999 -0.0269 -2.8443  1.6591
  104MPD2    H3 1625   3.245   2.592  11.848 -0.8675 -1.7868  1.8685
  104MPD2     N 1626   2.827   2.778  11.815 -0.4794 -0.3522  1.0562
  104MPD2    H5 1627   2.781   2.863  11.845 -1.3753 -0.5456  0.2275
  104MPD2    N1 1628   3.186   2.962  12.079  0.4757  0.9939 -0.6840
  104MPD2    H7 1629   3.286   2.974  12.068  0.4924  0.6228 -0.9502
  105TMC2    C1 1630   3.757   1.986   0.097  0.3071  0.0028  0.2978
  105TMC2    C2 1631   3.674   2.092   0.084  0.2973  0.0058 -0.2419
  105TMC2    C3 1632   3.632   2.144   0.201  0.6102  0.2545  0.3454
  105TMC2    C4 1633   3.783   1.924   0.214  0.1405 -0.0892 -0.2290
  105TMC2    C5 1634   3.720   1.970   0.324 -0.1571  0.3794  0.3926
  105TMC2    C6 1635   3.655   2.089   0.323 -0.1991 -0.2051  0.2168
  105TMC2     C 1636   3.802   1.933  17.725 -0.3851  0.6406 -0.4526
  105TMC2     O 1637   3.803   1.812  17.713 -0.2512  0.2424  0.2540
  105TMC2     H 1638   3.625   2.106  17.736  0.7852  0.1130 -0.4737
  105TMC2    H1 1639   3.833   1.828   0.219 -1.7649 -0.9662  2.1038
  105TMC2    H2 1640   3.620   2.137   0.413 -2.0636 -1.4339  0.1287
  105TMC2    C7 1641   3.780   1.917   0.441 -0.2276  0.4494 -0.1805
  105TMC2    C8 1642   3.567   2.268   0.203 -0.0370 -0.3014 -0.1172
  105TMC2    O1 1643   3.889   1.858   0.437 -0.0262  0.4059 -0.2658
  105TMC2    O2 1644   3.496   2.310   0.297  0.7806 -0.4330  0.0318
  105TMC2    O5 1645   3.629   2.355   0.122 -0.0862  0.3811  0.2832
  105TMC2    H5 1646   3.690   2.310   0.060  1.2538  0.9374  1.1801
  106MPD2     C 1647   4.032   1.971  17.278  0.4874  0.5841 -0.5789
  106MPD2    C1 1648   4.042   2.089  17.341  0.2753  0.8107  0.2352
  106MPD2    C2 1649   3.976   2.108  17.465  0.1347  0.0077 -0.0987
  106MPD2    C3 1650   3.913   1.999  17.524  0.4182  0.3372 -0.6412
  106MPD2    C4 1651   3.904   1.882  17.456 -0.7830  0.3804  0.7816
  106MPD2    C5 1652   3.977   1.864  17.337  0.0816 -0.0590  0.1284
  106MPD2     H 1653   3.983   2.209  17.504  1.0019 -0.1092  0.0416
  106MPD2    H1 1654   3.855   1.795  17.496 -0.4335  0.3342  1.1161
  106MPD2    H2 1655   4.099   1.960  17.194 -1.6443  0.5943 -2.2718
  106MPD2    H3 1656   4.019   1.770  17.303  0.3110  0.0103  0.2228
  106MPD2     N 1657   3.865   2.026  17.649 -0.5480 -0.4951 -0.8549
  106MPD2    H5 1658   3.872   2.124  17.675  0.0838 -0.6274 -0.5326
  106MPD2    N1 1659   4.118   2.191  17.287  0.6346  0.1425  0.6981
  106MPD2    H7 1660   4.104   2.287  17.320  0.6883  0.1962  0.5628
  107TMC2    C1 1661   4.647   2.544  11.629  0.1912  0.4776 -0.4853
  107TMC2    C2 1662   0.018   2.551  11.700  0.1549 -0.0488 -0.8332
  107TMC2    C3 1663   0.137   2.555  11.629 -0.3694  0.0641 -0.5251
  107TMC2    C4 1664   4.637   2.536  11.493  0.7103  0.7410 -0.2508
  107TMC2    C5 1665   0.023   2.535  11.426  0.2777  0.2264  0.2715
  107TMC2    C6 1666   0.140   2.553  11.491  0.3213  0.6021  0.1652
  107TMC2     C 1667   4.526   2.525  11.706  0.0847  0.5579 -0.4932
  107TMC2     O 1668   4.537   2.458  11.805 -0.6937  0.3093 -0.1598
  107TMC2     H 1669   0.005   2.560  11.807 -0.3912 -0.5318 -0.8536
  107TMC2    H1 1670   4.552   2.506  11.433  0.7347 -0.2991  0.2240
  107TMC2    H2 1671   0.236   2.555  11.441 -0.7093  0.9644 -1.8023
  107TMC2    C7 1672   0.020   2.567  11.288  0.3029 -0.2438  0.1199
  107TMC2    C8 1673   0.262   2.532  11.699 -0.1976 -0.0433 -0.4972
  107TMC2    O1 1674   4.649   2.603  11.250  0.1493  0.0189 -0.2378
  107TMC2    O2 1675   0.372   2.584  11.674  0.5438 -0.3438  0.2415
  107TMC2    O5 1676   0.241   2.440  11.792  0.0417  0.1101  0.2063
  107TMC2    H5 1677   0.166   2.382  11.765  1.0588 -2.0027  1.9063
  108MPD2     C 1678   4.204   2.668  11.606 -0.2119 -0.4026 -0.1212
  108MPD2    C1 1679   4.286   2.579  11.673  0.2927  0.0671  0.4474
  108MPD2    C2 1680   4.233   2.511  11.775 -0.7750  0.2774 -0.1253
  108MPD2    C3 1681   4.104   2.519  11.806 -0.7104 -0.5345  0.4503
  108MPD2    C4 1682   4.015   2.607  11.740 -0.2267 -0.9630 -0.6376
  108MPD2    C5 1683   4.071   2.681  11.640  0.0761 -0.3996 -0.1871
  108MPD2     H 1684   4.297   2.439  11.825 -0.9389  1.7152  2.1747
  108MPD2    H1 1685   3.913   2.628  11.769  0.0160  3.2321 -2.8317
  108MPD2    H2 1686   4.236   2.736  11.528 -0.6604 -0.0772 -0.0197
  108MPD2    H3 1687   4.017   2.756  11.584 -0.3884 -1.0256 -0.5765
  108MPD2     N 1688   4.054   2.419  11.895  0.6138 -0.0721  0.4932
  108MPD2    H5 1689   4.114   2.351  11.940 -1.6981 -0.9677  2.2056
  108MPD2    N1 1690   4.425   2.575  11.638  0.1768 -0.4906  0.3475
  108MPD2    H7 1691   4.456   2.627  11.556  0.9667 -0.3929  0.7103
  109TMC2    C1 1692   4.373   3.735  17.553  0.0125 -0.0473  0.7165
  109TMC2    C2 1693   4.442   3.688  17.446 -0.2951  0.0787  0.0737
  109TMC2    C3 1694   4.553   3.746  17.402  0.0644 -0.5434  1.0437
  109TMC2    C4 1695   4.426   3.832  17.631 -0.3032 -0.5374 -0.0153
  109TMC2    C5 1696   4.551   3.879  17.594  0.1151  0.9915 -0.1320
  109TMC2    C6 1697   4.618   3.841  17.476  0.5937 -0.4183  0.1212
  109TMC2     C 1698   4.244   3.679  17.581 -0.8857  0.5697  0.1955
  109TMC2     O 1699   4.192   3.618  17.488 -0.1523 -0.1682 -0.0157
  109TMC2     H 1700   4.407   3.606  17.384 -0.3284 -0.8445  1.3179
  109TMC2    H1 1701   4.376   3.885  17.711 -1.0903 -0.1307 -0.7743
  109TMC2    H2 1702   4.716   3.874  17.446 -0.1518 -0.4540 -2.3197
  109TMC2    C7 1703   4.626   3.969  17.677  0.8096 -0.2135  0.4055
  109TMC2    C8 1704   4.624   3.690  17.285  0.3862  0.4367 -0.3077
  109TMC2    O1 1705   4.723   4.023  17.622  0.4283 -0.4626  0.2791
  109TMC2    O2 1706   4.637   3.568  17.284  0.0354  0.4253 -0.0212
  109TMC2    O5 1707   4.709   3.783  17.237 -0.2978 -0.2286  0.2657
  109TMC2    H5 1708   4.675   3.874  17.253 -0.0291 -0.0364 -0.2243
  110MPD2     C 1709   3.846   3.588   0.138 -0.1697  0.0314 -0.2015
  110MPD2    C1 1710   3.944   3.639   0.213  0.7236 -0.2829 -0.1271
  110MPD2    C2 1711   4.069   3.658   0.156 -0.1908 -0.6324  0.0406
  110MPD2    C3 1712   4.090   3.628   0.025 -0.1923 -0.9229  0.1431
  110MPD2    C4 1713   3.987   3.569  17.699  0.2001 -0.1118  1.1890
  110MPD2    C5 1714   3.865   3.549   0.010  0.5385  0.3044 -0.0634
  110MPD2     H 1715   4.152   3.713   0.198 -1.6503 -0.3557  2.5795
  110MPD2    H1 1716   3.996   3.561  17.591  0.1184  1.2503  1.0818
  110MPD2    H2 1717   3.749   3.573   0.185  0.3352  0.5666  1.0143
  110MPD2    H3 1718   3.786   3.517  17.692  2.7654 -1.7579 -1.7158
  110MPD2     N 1719   4.211   3.683  17.715  0.3617  0.4073  0.8200
  110MPD2    H5 1720   4.281   3.732   0.022 -0.3693  1.3456  0.9253
  110MPD2    N1 1721   3.915   3.678   0.350 -0.5591 -0.3352  0.6255
  110MPD2    H7 1722   3.826   3.648   0.389 -0.8182 -1.3295 -0.7386
  111TMC2    C1 1723   0.698   3.740  11.117 -0.1098  0.3761 -0.2192
  111TMC2    C2 1724   0.735   3.648  11.034 -0.0613 -0.1722 -0.1102
  111TMC2    C3 1725   0.860   3.587  11.051  0.0680 -0.0388  0.5963
  111TMC2    C4 1726   0.775   3.780  11.221  0.3245  0.3830 -0.2163
  111TMC2    C5 1727   0.895   3.717  11.235  0.3247 -0.3253 -0.1783
  111TMC2    C6 1728   0.936   3.608  11.158 -0.2256  0.2959 -0.5586
  111TMC2     C 1729   0.561   3.799  11.105 -0.2795  0.1723 -0.1467
  111TMC2     O 1730   0.517   3.829  10.991  0.2135  0.3963  0.0153
  111TMC2     H 1731   0.663   3.621  10.958 -0.7615 -0.7258  0.7532
  111TMC2    H1 1732   0.761   3.872  11.275 -0.3299  0.3599 -0.3433
  111TMC2    H2 1733   1.021   3.543  11.176 -0.0805  0.7392  0.3198
  111TMC2    C7 1734   0.968   3.744  11.358  0.9424  0.0326  0.6369
  111TMC2    C8 1735   0.892   3.462  10.981  0.1769  0.1150  0.4699
  111TMC2    O1 1736   0.901   3.809  11.435 -0.0448  0.1801 -0.1320
  111TMC2    O2 1737   0.955   3.377  11.042 -0.9105 -0.0943 -0.1590
  111TMC2    O5 1738   0.822   3.443  10.864  0.7367  0.3361  0.9399
  111TMC2    H5 1739   0.785   3.526  10.827 -1.4865 -1.5979 -1.1918
  112MPD2     C 1740   0.149   3.998  11.352  0.1549  1.1798  0.2534
  112MPD2    C1 1741   0.176   3.994  11.215  0.4934 -0.6899  0.3289
  112MPD2    C2 1742   0.298   3.939  11.171  0.1783 -0.1199 -0.3391
  112MPD2    C3 1743   0.383   3.885  11.264 -0.0422 -0.1593  0.2338
  112MPD2    C4 1744   0.343   3.884  11.397  0.1792  0.2176  0.1268
  112MPD2    C5 1745   0.234   3.939  11.442  0.2921  0.4024  0.6798
  112MPD2     H 1746   0.319   3.914  11.068  1.4499 -1.4209  0.2289
  112MPD2    H1 1747   0.413   3.848  11.472  1.0200 -1.5070 -1.4937
  112MPD2    H2 1748   0.061   4.043  11.396  0.3435  2.4864 -0.7207
  112MPD2    H3 1749   0.221   3.952  11.549  0.3384 -0.1588  0.7537
  112MPD2     N 1750   0.509   3.825  11.233 -0.2928  0.0181  0.1311
  112MPD2    H5 1751   0.550   3.778  11.312 -0.5876  1.1298  0.9464
  112MPD2    N1 1752   0.107   4.057  11.110  0.1392 -0.1166  0.5972
  112MPD2    H7 1753   0.148   4.049  11.017  1.2789  1.4457  0.9559
  113TMC2    C1 1754   2.589   1.602   0.764 -0.1088  0.3368  0.0032
  113TMC2    C2 1755   2.475   1.670   0.799 -0.2361  0.2197  0.8020
  113TMC2    C3 1756   2.355   1.622   0.752 -0.2991  0.4802  0.6338
  113TMC2    C4 1757   2.577   1.504   0.667  0.0542  0.1520  0.4093
  113TMC2    C5 1758   2.454   1.458   0.625 -0.0950  0.0933 -0.2061
  113TMC2    C6 1759   2.334   1.513   0.670 -0.2757 -0.7130  0.7290
  113TMC2     C 1760   2.714   1.619   0.845  0.5466 -0.2441 -0.2131
  113TMC2     O 1761   2.712   1.712   0.926  0.0841 -0.7207  0.0859
  113TMC2     H 1762   2.485   1.751   0.870  1.9146  1.8191 -1.3256
  113TMC2    H1 1763   2.666   1.457   0.628  0.6689  0.2238  1.7124
  113TMC2    H2 1764   2.235   1.491   0.632 -0.0537  0.7658 -0.7243
  113TMC2    C7 1765   2.459   1.322   0.594  0.5817 -0.2698  0.3219
  113TMC2    C8 1766   2.228   1.677   0.801  0.5394  0.2040  0.2339
  113TMC2    O1 1767   2.547   1.280   0.513  0.1911  0.5924  0.1583
  113TMC2    O2 1768   2.128   1.686   0.731 -0.0156  0.0645 -0.0962
  113TMC2    O5 1769   2.246   1.742   0.914 -0.1065 -0.5674  0.3504
  113TMC2    H5 1770   2.323   1.699   0.958  0.7551 -1.5413 -2.1161
  114MPD2     C 1771   3.138   1.426   1.057 -0.9618 -0.1486  0.3471
  114MPD2    C1 1772   3.074   1.542   1.086 -0.3780  0.0286  0.1831
  114MPD2    C2 1773   2.961   1.573   1.019 -0.0447 -0.0487 -0.2954
  114MPD2    C3 1774   2.917   1.489   0.914 -0.5577 -0.0312 -0.8070
  114MPD2    C4 1775   2.991   1.382   0.875  0.5020 -0.0911 -0.5383
  114MPD2    C5 1776   3.098   1.350   0.956 -0.0231  0.7973  0.8968
  114MPD2     H 1777   2.915   1.664   1.058 -0.8853  0.1409 -1.7050
  114MPD2    H1 1778   2.954   1.327   0.790  0.5409 -2.1698  0.7841
  114MPD2    H2 1779   3.230   1.399   1.108 -0.0083  1.3237 -0.5949
  114MPD2    H3 1780   3.154   1.258   0.944  1.4492  1.7874  0.2504
  114MPD2     N 1781   2.806   1.516   0.831 -0.4666  0.3455 -0.2270
  114MPD2    H5 1782   2.789   1.445   0.761 -2.4496 -0.2520  0.8344
  114MPD2    N1 1783   3.102   1.630   1.189 -0.4859  0.1493  0.1384
  114MPD2    H7 1784   3.048   1.716   1.198 -1.8680 -0.8732  1.7172
  115TMC2    C1 1785   3.622   0.348  17.167 -0.5184 -0.2209 -0.2237
  115TMC2    C2 1786   3.545   0.355  17.054  1.1010  0.0563 -0.0500
  115TMC2    C3 1787   3.567   0.463  16.972 -0.0548  0.0280 -0.2783
  115TMC2    C4 1788   3.718   0.440  17.201 -0.1782  0.6328 -0.2204
  115TMC2    C5 1789   3.735   0.546  17.114  0.2338 -0.1031 -0.1314
  115TMC2    C6 1790   3.665   0.559  16.999 -0.8511  0.2230  0.4066
  115TMC2     C 1791   3.642   0.206  17.211  0.1270  0.3731 -0.2610
  115TMC2     O 1792   3.609   0.121  17.133 -0.5247  0.4818  0.0352
  115TMC2     H 1793   3.485   0.273  17.018  0.8388  0.9304 -1.5690
  115TMC2    H1 1794   3.782   0.433  17.288  0.8612 -1.1417 -1.1358
  115TMC2    H2 1795   3.670   0.646  16.934 -0.5246  1.0916  1.6113
  115TMC2    C7 1796   3.855   0.620  17.116 -0.1414  0.4616 -0.3239
  115TMC2    C8 1797   3.521   0.455  16.838  0.6346  0.0571  0.4043
  115TMC2    O1 1798   3.927   0.592  17.213 -0.1085 -0.9443 -0.0794
  115TMC2    O2 1799   3.579   0.507  16.743  0.4165 -0.0609 -0.1339
  115TMC2    O5 1800   3.400   0.394  16.834 -0.4435 -0.1698 -0.3318
  115TMC2    H5 1801   3.347   0.388  16.916 -2.8017 -2.2714 -2.0108
  116MPD2     C 1802   3.792   4.594  17.562  0.5852 -0.3346 -0.1971
  116MPD2    C1 1803   3.763   4.580  17.425 -0.0354  0.0967 -0.4622
  116MPD2    C2 1804   3.730   4.692  17.349 -0.3353 -0.4068 -0.4583
  116MPD2    C3 1805   3.713   0.080  17.413 -0.5948 -0.7744 -0.2999
  116MPD2    C4 1806   3.728   0.090  17.550  0.6561 -1.0047 -0.0882
  116MPD2    C5 1807   3.770   4.719  17.618 -0.1031  0.1320  0.2207
  116MPD2     H 1808   3.706   4.674  17.245  1.2936 -0.2639 -0.8520
  116MPD2    H1 1809   3.725   0.187  17.598  0.0467 -0.5049 -1.1251
  116MPD2    H2 1810   3.828   4.518  17.631  1.7547 -0.2852 -0.7478
  116MPD2    H3 1811   3.778   4.722  17.727 -1.3940  1.5158  0.2631
  116MPD2     N 1812   3.678   0.192  17.338  0.4420  0.5105  0.1623
  116MPD2    H5 1813   3.688   0.283  17.381 -0.7455  0.9875 -0.5687
  116MPD2    N1 1814   3.793   4.458  17.353 -0.8503  0.1267  0.1964
  116MPD2    H7 1815   3.783   4.458  17.251 -2.0010 -2.4855  0.3220
  117TMC2    C1 1816   2.484   1.236  14.053 -0.8019  0.0583 -0.4266
  117TMC2    C2 1817   2.582   1.150  14.091 -0.5464  0.6765  0.0169
  117TMC2    C3 1818   2.705   1.206  14.110  0.4547  0.4833 -0.5004
  117TMC2    C4 1819   2.503   1.370  14.034  0.1804  0.4056  0.2896
  117TMC2    C5 1820   2.629   1.424  14.048 -0.0111 -0.2587 -0.0043
  117TMC2    C6 1821   2.728   1.342  14.094  0.2455  0.4622  0.5885
  117TMC2     C 1822   2.352   1.181  14.024  0.2486  0.3853 -0.0965
  117TMC2     O 1823   2.320   1.075  14.072 -0.0248  0.5471  0.6549
  117TMC2     H 1824   2.567   1.043  14.102 -0.9704  1.0416  3.0448
  117TMC2    H1 1825   2.412   1.428  14.021  0.1619  0.2988 -0.0739
  117TMC2    H2 1826   2.820   1.395  14.114  0.6650  0.3914 -1.1551
  117TMC2    C7 1827   2.651   1.568  14.058  0.5701 -0.9308  0.3923
  117TMC2    C8 1828   2.814   1.115  14.132 -0.1229  0.5040  0.6613
  117TMC2    O1 1829   2.741   1.605  14.131  0.0665  0.1046  0.0822
  117TMC2    O2 1830   2.807   0.994  14.133 -0.3237 -0.2317  0.5705
  117TMC2    O5 1831   2.938   1.174  14.150 -0.6062  0.0701  0.0798
  117TMC2    H5 1832   2.945   1.271  14.141 -1.6857  0.1034 -0.4822
  118MPD2     C 1833   2.427   1.851  13.950 -0.5200  0.2224  0.7893
  118MPD2    C1 1834   2.533   1.786  14.005  0.0807  0.2647 -0.0777
  118MPD2    C2 1835   2.638   1.863  14.054 -0.6029  0.5759  0.9323
  118MPD2    C3 1836   2.637   1.995  14.049  0.5096  0.3070 -0.8312
  118MPD2    C4 1837   2.525   2.058  13.990  0.1630 -0.0637 -0.1864
  118MPD2    C5 1838   2.423   1.988  13.937  0.4781  0.6868  0.2778
  118MPD2     H 1839   2.721   1.814  14.103 -0.4176 -0.6634 -0.6294
  118MPD2    H1 1840   2.514   2.166  13.994  1.8807  0.1856 -1.8249
  118MPD2    H2 1841   2.339   1.789  13.931 -0.6417  0.7423 -0.3754
  118MPD2    H3 1842   2.335   2.036  13.895  0.0065 -1.5638 -1.2961
  118MPD2     N 1843   2.736   2.078  14.102  0.2788  0.4134  0.1806
  118MPD2    H5 1844   2.707   2.175  14.104  0.1666  0.3901 -0.7100
  118MPD2    N1 1845   2.539   1.643  14.009 -0.1437  0.3852 -0.2640
  118MPD2    H7 1846   2.465   1.596  13.959 -0.3120 -0.3747  0.7064
  119TMC2    C1 1847   0.478   2.220  13.011 -0.1993 -0.1058  0.0934
  119TMC2    C2 1848   0.586   2.294  12.997 -0.2868  0.0217 -0.2776
  119TMC2    C3 1849   0.600   2.403  13.078 -0.2844 -0.4337 -0.2963
  119TMC2    C4 1850   0.368   2.258  13.086  0.2439 -0.5414 -0.0966
  119TMC2    C5 1851   0.385   2.378  13.154  0.4716  0.0687  0.6175
  119TMC2    C6 1852   0.497   2.448  13.151 -0.1665  0.1650  0.7357
  119TMC2     C 1853   0.473   2.100  12.917 -0.2570 -0.8311 -0.2655
  119TMC2     O 1854   0.370   2.091  12.850  0.3186  0.2946  0.4389
  119TMC2     H 1855   0.667   2.260  12.933 -0.8151  1.9229 -1.9500
  119TMC2    H1 1856   0.278   2.198  13.084  1.3216 -2.1290 -0.6061
  119TMC2    H2 1857   0.519   2.535  13.213 -2.3086  0.8844  0.4874
  119TMC2    C7 1858   0.282   2.422  13.243 -0.2703 -0.2047  1.1536
  119TMC2    C8 1859   0.732   2.451  13.113  0.3203  0.0360 -0.5054
  119TMC2    O1 1860   0.212   2.519  13.211  0.3487  0.1796 -0.4640
  119TMC2    O2 1861   0.753   2.453  13.234 -0.0920  0.1727 -0.3502
  119TMC2    O5 1862   0.828   2.421  13.020 -0.1316 -0.0935 -0.3061
  119TMC2    H5 1863   0.797   2.414  12.927 -1.0884 -1.4597  0.1166
  120MPD2     C 1864   0.894   2.022  13.192 -0.2914 -0.0570 -0.3780
  120MPD2    C1 1865   0.763   2.042  13.235  0.3781  0.4001 -0.5217
  120MPD2    C2 1866   0.662   2.036  13.134  0.0308 -0.1787  0.7946
  120MPD2    C3 1867   0.693   2.019  12.994  0.2147 -0.2231  0.0972
  120MPD2    C4 1868   0.823   1.988  12.960  0.3472 -0.3546 -0.8861
  120MPD2    C5 1869   0.920   1.982  13.058 -1.0603 -0.2169  0.3581
  120MPD2     H 1870   0.558   2.055  13.159 -0.2223  1.1494 -1.2706
  120MPD2    H1 1871   0.849   1.969  12.856 -0.1215 -2.0804 -0.6897
  120MPD2    H2 1872   0.971   2.013  13.268 -0.8061 -0.0462  0.1502
  120MPD2    H3 1873   1.020   1.942  13.045 -1.1141  0.4969 -2.2216
  120MPD2     N 1874   0.592   2.028  12.898 -0.3308  0.0393 -0.2532
  120MPD2    H5 1875   0.613   1.974  12.815 -2.4803 -0.1691 -0.6776
  120MPD2    N1 1876   0.738   2.069  13.372  0.1116  0.0253  0.0719
  120MPD2    H7 1877   0.816   2.052  13.435  0.6940  0.7933 -0.4386
  121TMC2    C1 1878   1.786   4.146  14.011 -0.5097 -0.0252  0.4091
  121TMC2    C2 1879   1.742   4.034  14.079 -0.2126  0.5557  1.2908
  121TMC2    C3 1880   1.612   4.001  14.077  0.1936 -0.0023 -0.0428
  121TMC2    C4 1881   1.696   4.236  13.968 -0.4072 -0.3071  0.3205
  121TMC2    C5 1882   1.565   4.197  13.966 -0.3582  0.4996  0.2469
  121TMC2    C6 1883   1.525   4.076  14.009  0.1473  0.3185  0.3789
  121TMC2     C 1884   1.928   4.174  14.014 -0.0358  0.0203  0.1929
  121TMC2     O 1885   1.994   4.101  14.088 -0.3674 -0.0221  0.0797
  121TMC2     H 1886   1.814   3.960  14.112  0.0952  1.7671  3.3647
  121TMC2    H1 1887   1.726   4.335  13.937  3.0912 -1.2212  0.6941
  121TMC2    H2 1888   1.420   4.046  14.012  0.3434 -0.3371  0.7844
  121TMC2    C7 1889   1.472   4.299  13.914  0.4387  0.3105  0.1204
  121TMC2    C8 1890   1.564   3.875  14.116  0.4933 -0.1439  0.2399
  121TMC2    O1 1891   1.521   4.405  13.866 -0.5295  0.1853 -0.1104
  121TMC2    O2 1892   1.458   3.834  14.074 -0.2263  0.3575 -0.7929
  121TMC2    O5 1893   1.618   3.852  14.244  0.0441  0.4395  0.8193
  121TMC2    H5 1894   1.704   3.895  14.262  0.1464  0.2913  0.6839
  122MPD2     C 1895   2.212   4.277  14.004 -0.1335  0.5573 -0.8484
  122MPD2    C1 1896   2.114   4.293  13.901  0.4213 -0.5438 -0.1751
  122MPD2    C2 1897   2.154   4.348  13.781  0.0463 -0.7366 -0.2935
  122MPD2    C3 1898   2.285   4.364  13.753 -0.2489  0.2569  0.3131
  122MPD2    C4 1899   2.376   4.355  13.860  0.5372  1.1736  0.5095
  122MPD2    C5 1900   2.343   4.308  13.983 -0.3154  0.5538 -0.2667
  122MPD2     H 1901   2.080   4.368  13.704  1.5451  0.5028 -1.4088
  122MPD2    H1 1902   2.482   4.371  13.843  0.8546  0.0717  1.4754
  122MPD2    H2 1903   2.187   4.263  14.109 -2.7902 -1.0175 -1.6895
  122MPD2    H3 1904   2.412   4.313  14.066 -1.9294  2.2541  0.9620
  122MPD2     N 1905   2.333   4.393  13.627 -0.2404  0.6858  0.2189
  122MPD2    H5 1906   2.434   4.393  13.620 -0.3508  1.3179 -1.4328
  122MPD2    N1 1907   1.972   4.266  13.922  0.6357 -0.2392 -0.4061
  122MPD2    H7 1908   1.913   4.301  13.846  0.0833 -1.0552 -0.3582
  123TMC2    C1 1909   1.228   3.575  10.320 -0.2729  0.0361 -0.1752
  123TMC2    C2 1910   1.336   3.640  10.272 -1.0133 -0.6085 -0.7299
  123TMC2    C3 1911   1.310   3.752  10.203 -0.5052  0.3612  0.0261
  123TMC2    C4 1912   1.097   3.606  10.289 -0.4198 -0.0529 -0.1259
  123TMC2    C5 1913   1.080   3.727  10.233  0.5144 -0.2287  0.0548
  123TMC2    C6 1914   1.187   3.801  10.185 -0.6795  0.2180 -0.8466
  123TMC2     C 1915   1.255   3.433  10.339  0.3707 -0.5011 -0.4989
  123TMC2     O 1916   1.356   3.402  10.403  0.2644 -0.6484  0.4684
  123TMC2     H 1917   1.434   3.595  10.282 -0.3166  0.8068 -1.2387
  123TMC2    H1 1918   1.011   3.559  10.336 -0.8589  0.1569 -0.7159
  123TMC2    H2 1919   1.179   3.894  10.131 -0.6238  0.8650  0.2669
  123TMC2    C7 1920   0.950   3.746  10.172 -0.4505 -0.1456 -0.6709
  123TMC2    C8 1921   1.412   3.822  10.125  0.0597 -1.4355  0.3789
  123TMC2    O1 1922   0.872   3.649  10.182  0.1774  0.0684 -0.1817
  123TMC2    O2 1923   1.377   3.899  10.035  0.4241 -0.4169 -0.6574
  123TMC2    O5 1924   1.528   3.747  10.121 -0.3264 -0.1841 -0.0945
  123TMC2    H5 1925   1.543   3.696  10.204 -0.6604 -0.2830 -0.0962
  124MPD2     C 1926   1.073   2.959  10.346 -0.6514 -0.2315 -0.6532
  124MPD2    C1 1927   0.983   3.033  10.281  0.0444  0.0980 -0.1345
  124MPD2    C2 1928   1.021   3.167  10.261  0.2785  0.9540  0.4573
  124MPD2    C3 1929   1.141   3.217  10.298 -0.4643  0.0839 -0.4363
  124MPD2    C4 1930   1.231   3.136  10.366  0.3374 -0.4016 -0.2723
  124MPD2    C5 1931   1.197   3.010  10.387 -0.5236  1.2680 -0.2908
  124MPD2     H 1932   0.941   3.232  10.226 -1.8783 -1.1631  1.4079
  124MPD2    H1 1933   1.326   3.167  10.408 -1.5660  0.7383  3.2600
  124MPD2    H2 1934   1.040   2.870  10.398  2.5654 -0.7139  0.6086
  124MPD2    H3 1935   1.257   2.952  10.457 -1.2149  1.6526  0.6129
  124MPD2     N 1936   1.160   3.353  10.279 -0.4592 -0.0919 -0.1502
  124MPD2    H5 1937   1.079   3.397  10.238  0.2975  1.4174 -0.0001
  124MPD2    N1 1938   0.861   2.970  10.239 -0.8106  0.1138 -0.2028
  124MPD2    H7 1939   0.832   2.883  10.284 -0.4007 -0.3605 -0.8481
  125TMC2    C1 1940   1.613   4.305   9.996  0.4967 -0.1907 -0.3538
  125TMC2    C2 1941   1.675   4.221   9.916 -0.3947 -0.8644  0.7178
  125TMC2    C3 1942   1.740   4.275   9.804 -0.2466  0.2516 -0.8595
  125TMC2    C4 1943   1.605   4.440   9.966 -0.5200  0.0969  0.5196
  125TMC2    C5 1944   1.661   4.492   9.856 -0.0274 -0.4049  0.6224
  125TMC2    C6 1945   1.730   4.409   9.768 -0.1997  0.8172  0.6774
  125TMC2     C 1946   1.530   4.259  10.103 -0.1368 -0.5944 -0.5965
  125TMC2     O 1947   1.424   4.319  10.122  0.0301 -0.4678  0.3178
  125TMC2     H 1948   1.683   4.115   9.941  1.3691 -1.0686 -0.6998
  125TMC2    H1 1949   1.550   4.499  10.038 -2.6301 -0.3872 -0.6949
  125TMC2    H2 1950   1.764   4.435   9.668  1.4000  2.0012  1.5367
  125TMC2    C7 1951   1.608   4.618   9.800  0.0195  0.5225  0.7548
  125TMC2    C8 1952   1.815   4.194   9.718 -0.0053  0.9200 -0.1909
  125TMC2    O1 1953   1.528   4.677   9.869 -0.6300 -0.1325  0.2086
  125TMC2    O2 1954   1.880   4.247   9.627  0.4142  0.0344  0.2026
  125TMC2    O5 1955   1.729   4.097   9.680  0.3223  0.2253  0.4388
  125TMC2    H5 1956   1.683   4.040   9.746  0.3198 -0.4318 -0.1285
  126MPD1     C 1957   1.416   3.974  10.510  0.4415 -0.0046  0.6444
  126MPD1    C1 1958   1.534   3.928  10.456 -0.3168  0.1123 -0.3732
  126MPD1    C2 1959   1.587   3.991  10.343  0.8997  0.3790 -0.0647
  126MPD1    C3 1960   1.520   4.093  10.280 -0.2553  0.6670  0.6757
  126MPD1    C4 1961   1.400   4.129  10.333 -0.1633  0.5441 -0.7558
  126MPD1    C5 1962   1.351   4.069  10.446  0.0785 -0.1562 -0.2944
  126MPD1     H 1963   1.680   3.953  10.304  1.1785 -0.5321  1.4923
  126MPD1    H1 1964   1.340   4.211  10.295  0.2008  0.8681 -0.6309
  126MPD1    H2 1965   1.390   3.938  10.609 -1.7869  0.9815  0.4135
  126MPD1    H3 1966   1.260   4.106  10.492 -0.7023 -2.3576 -0.0665
  126MPD1     N 1967   1.584   4.153  10.169  0.5080  0.3965  0.3134
  126MPD1    H5 1968   1.674   4.115  10.142 -0.7186 -1.1519 -1.6217
  126MPD1    N1 1969   1.612   3.832  10.524 -0.3251  0.0040 -1.1100
  126MPD1    H6 1970   1.554   3.760  10.566  0.9014  0.4713  1.3508
  126MPD1    H7 1971   1.677   3.783  10.462 -1.5431  0.6068 -2.8588
  127TMC2    C1 1972   2.243   3.629  10.029  0.2786 -0.1325 -0.2565
  127TMC2    C2 1973   2.359   3.584  10.086  0.1142  0.2884  0.5195
  127TMC2    C3 1974   2.343   3.480  10.177 -0.3048  0.2056  0.5871
  127TMC2    C4 1975   2.119   3.574  10.059 -0.4078  0.6227 -0.8245
  127TMC2    C5 1976   2.112   3.484  10.161  0.6419 -0.6771  0.0017
  127TMC2    C6 1977   2.221   3.429  10.215 -0.5585 -0.0371 -1.0874
  127TMC2     C 1978   2.254   3.704   9.908  0.6216  0.2681 -0.3339
  127TMC2     O 1979   2.353   3.770   9.895  0.5742 -0.4457  0.3886
  127TMC2     H 1980   2.457   3.626  10.067  0.4099 -0.4000  0.5373
  127TMC2    H1 1981   2.028   3.604  10.008 -1.7171  1.5420  2.0747
  127TMC2    H2 1982   2.213   3.368  10.304  0.9535 -1.0024 -1.6154
  127TMC2    C7 1983   1.977   3.439  10.207  0.6325 -0.2290  0.2926
  127TMC2    C8 1984   2.446   3.461  10.276  0.3312  0.2209  0.8897
  127TMC2    O1 1985   1.880   3.509  10.177  0.4909  0.3545  0.1502
  127TMC2    O2 1986   2.427   3.432  10.395 -0.2259 -0.1587 -0.0825
  127TMC2    O5 1987   2.562   3.425  10.216  0.6688  0.5985 -0.6996
  127TMC2    H5 1988   2.572   3.426  10.118  1.1272  3.6969 -0.6248
  128MPD2     C 1989   1.995   3.819   9.691 -0.5727 -0.0121 -0.3086
  128MPD2    C1 1990   2.123   3.790   9.722  0.3410  0.2342  0.2943
  128MPD2    C2 1991   2.225   3.845   9.641 -0.4542 -0.3114  0.0247
  128MPD2    C3 1992   2.190   3.915   9.528 -0.0201 -0.4936 -0.8001
  128MPD2    C4 1993   2.062   3.948   9.506 -0.0059  0.4383  0.0301
  128MPD2    C5 1994   1.970   3.909   9.591  0.1179 -0.2645  0.0026
  128MPD2     H 1995   2.327   3.827   9.673 -0.4238 -0.6018 -0.2344
  128MPD2    H1 1996   2.033   3.994   9.413 -1.5109  2.5149  1.5214
  128MPD2    H2 1997   1.914   3.780   9.753  0.9680  1.6436  2.7832
  128MPD2    H3 1998   1.866   3.933   9.570 -0.5701 -2.7604  0.4854
  128MPD2     N 1999   2.288   3.959   9.441 -0.3625  0.2475 -0.1709
  128MPD2    H5 2000   2.380   3.916   9.442 -0.0392  0.9719  1.7034
  128MPD2    N1 2001   2.139   3.711   9.830  0.0256 -0.2339 -0.0762
  128MPD2    H7 2002   2.057   3.655   9.854  0.9840 -2.2452 -1.5070
  129TMC2    C1 2003   0.373   3.937   1.395  0.5434 -0.9563 -0.5478
  129TMC2    C2 2004   0.249   3.979   1.427 -0.2948 -0.3103 -0.6123
  129TMC2    C3 2005   0.172   3.884   1.495 -0.8533  0.3163  0.1774
  129TMC2    C4 2006   0.423   3.814   1.426  0.1503  0.2568  0.9546
  129TMC2    C5 2007   0.338   3.723   1.488  0.1760 -0.6416  0.1689
  129TMC2    C6 2008   0.216   3.765   1.527  0.5343  0.0989 -0.1562
  129TMC2     C 2009   0.448   4.039   1.328  0.0497 -0.0624  0.1295
  129TMC2     O 2010   0.426   4.154   1.362  0.0779  0.3258 -0.6543
  129TMC2     H 2011   0.216   4.076   1.391 -1.6614 -1.0147 -1.2237
  129TMC2    H1 2012   0.527   3.800   1.398  0.3757 -1.8357  2.9048
  129TMC2    H2 2013   0.158   3.693   1.584 -0.0883 -0.5383 -1.5788
  129TMC2    C7 2014   0.373   3.581   1.512  0.0572  0.5925  0.3339
  129TMC2    C8 2015   0.040   3.926   1.550 -0.4730 -0.1636 -0.0655
  129TMC2    O1 2016   0.300   3.519   1.588 -0.2673  0.1966 -0.3772
  129TMC2    O2 2017   0.000   3.887   1.658  0.0991  0.6758  0.4117
  129TMC2    O5 2018   4.736   4.037   1.484 -0.0934 -0.0213 -0.6639
  129TMC2    H5 2019   0.014   4.033   1.387 -0.6278 -1.0592 -0.7000
  130MPD2     C 2020   0.668   4.002   1.045 -0.2257  0.0774 -0.1746
  130MPD2    C1 2021   0.614   4.070   1.148  0.1604  0.6998  0.4172
  130MPD2    C2 2022   0.647   4.209   1.165 -0.0555  0.4544 -0.0540
  130MPD2    C3 2023   0.731   4.272   1.077  0.0270  0.2449 -0.5793
  130MPD2    C4 2024   0.782   4.196   0.972  0.1365  0.1227  0.2646
  130MPD2    C5 2025   0.750   4.069   0.957  0.4721 -0.9035  1.2994
  130MPD2     H 2026   0.610   4.268   1.248 -0.2128 -1.2011  1.0475
  130MPD2    H1 2027   0.854   4.237   0.901 -0.0697  1.6667  0.9473
  130MPD2    H2 2028   0.653   3.895   1.044  0.4488 -0.0022 -1.4283
  130MPD2    H3 2029   0.799   4.026   0.870 -0.5550  3.0757 -1.2607
  130MPD2     N 2030   0.770   4.407   1.097 -0.2582  0.0889  0.5878
  130MPD2    H5 2031   0.742   4.463   1.176 -1.3911 -0.2406  0.4234
  130MPD2    N1 2032   0.530   3.988   1.233 -0.2075  0.1698 -0.4272
  130MPD2    H7 2033   0.553   3.890   1.216 -2.6619 -0.4894  0.0751
  131TMC2    C1 2034   0.225   3.821   9.918 -0.1021  0.3743 -0.4646
  131TMC2    C2 2035   0.284   3.899  10.013  0.1493  0.1231  0.9426
  131TMC2    C3 2036   0.319   4.026   9.978 -0.1391 -0.6968  0.6124
  131TMC2    C4 2037   0.205   3.871   9.793 -0.8210 -0.0151  0.2293
  131TMC2    C5 2038   0.222   4.003   9.772  0.0040 -0.8028  0.5117
  131TMC2    C6 2039   0.270   4.089   9.869  0.4365 -0.1525  0.0721
  131TMC2     C 2040   0.240   3.679   9.940  0.0470  0.1482 -1.0652
  131TMC2     O 2041   0.289   3.639  10.047 -0.2307  0.6761  0.2561
  131TMC2     H 2042   0.323   3.859  10.106  0.8387  0.4216  0.7785
  131TMC2    H1 2043   0.189   3.800   9.713  2.3802  0.4471 -0.8243
  131TMC2    H2 2044   0.278   4.197   9.862  1.1517 -0.0941  1.7695
  131TMC2    C7 2045   0.166   4.060   9.656 -1.1904 -0.3475 -0.3609
  131TMC2    C8 2046   0.364   4.115  10.087  0.3032 -0.5045 -0.2833
  131TMC2    O1 2047   0.101   3.984   9.588  0.3413 -0.2524 -0.3148
  131TMC2    O2 2048   0.338   4.089  10.206  0.1353 -0.1756 -0.6678
  131TMC2    O5 2049   0.420   4.225  10.042  0.0973  0.6004  0.0459
  131TMC2    H5 2050   0.433   4.237   9.945  1.1967 -0.9338  0.0016
  132MPD2     C 2051   0.073   3.414   9.740  0.0673 -0.3572  0.0081
  132MPD2    C1 2052   0.156   3.467   9.835  0.1452  0.4647  0.1799
  132MPD2    C2 2053   0.245   3.376   9.901 -0.7625 -0.5102  0.0121
  132MPD2    C3 2054   0.233   3.240   9.874 -0.1543  0.1985  0.0614
  132MPD2    C4 2055   0.142   3.191   9.784  0.1980  0.3696 -0.2571
  132MPD2    C5 2056   0.059   3.279   9.719 -0.1998  0.9820  0.4628
  132MPD2     H 2057   0.321   3.402   9.974 -1.0428  0.3057  0.0111
  132MPD2    H1 2058   0.132   3.087   9.757 -2.1185  0.8247 -1.1902
  132MPD2    H2 2059   0.010   3.485   9.688 -1.8441 -2.1848 -0.1753
  132MPD2    H3 2060   4.717   3.256   9.648  0.6679 -2.6416  0.7019
  132MPD2     N 2061   0.317   3.156   9.956 -0.0873 -0.5212 -0.6027
  132MPD2    H5 2062   0.373   3.204  10.026  0.1035 -1.2763 -0.2419
  132MPD2    N1 2063   0.170   3.609   9.846 -0.0122  0.6236 -0.0173
  132MPD2    H7 2064   0.121   3.665   9.777 -0.3115  0.1346 -0.2068
  133TMC2    C1 2065   4.576   2.354   9.377 -0.7520 -0.9575 -0.2603
  133TMC2    C2 2066   4.647   2.386   9.487 -0.4465 -0.3296  0.1786
  133TMC2    C3 2067   4.688   2.282   9.567 -0.2853  0.0094 -0.8924
  133TMC2    C4 2068   4.558   2.223   9.335 -0.6281  0.6838  0.6300
  133TMC2    C5 2069   4.597   2.127   9.418  0.5496 -0.2832 -0.2637
  133TMC2    C6 2070   4.670   2.155   9.531  0.0686  0.1416 -0.1040
  133TMC2     C 2071   4.479   2.455   9.332  0.6425 -0.0053 -0.1502
  133TMC2     O 2072   4.524   2.570   9.322 -0.1336  0.3882  0.1909
  133TMC2     H 2073   4.639   2.489   9.522  0.3355 -0.3707  0.4718
  133TMC2    H1 2074   4.515   2.195   9.239 -2.0508 -0.5918  1.6366
  133TMC2    H2 2075   4.717   2.082   9.597 -1.9848 -1.6314 -0.5631
  133TMC2    C7 2076   4.565   1.994   9.374 -0.4293 -0.8169  0.1543
  133TMC2    C8 2077   4.722   2.303   9.708 -0.4252  0.2244  0.1769
  133TMC2    O1 2078   4.552   1.971   9.255 -0.0263 -0.4834  0.0160
  133TMC2    O2 2079   4.699   2.212   9.787  0.1256  0.0698 -0.2264
  133TMC2    O5 2080   0.015   2.432   9.722  0.5980 -0.4368  0.0246
  133TMC2    H5 2081   0.046   2.479   9.642  0.7048 -1.5172 -0.5605
  134MPD2     C 2082   4.128   2.424   9.235  0.0224  0.6046 -0.4465
  134MPD2    C1 2083   4.239   2.490   9.268 -0.2614 -0.6236 -0.1928
  134MPD2    C2 2084   4.239   2.631   9.269 -0.1180 -0.3493  0.0017
  134MPD2    C3 2085   4.117   2.701   9.241  0.8137 -0.2108 -0.2541
  134MPD2    C4 2086   3.999   2.628   9.217 -0.2394  0.3385 -0.4700
  134MPD2    C5 2087   4.008   2.491   9.207  0.1826  0.4724  0.3222
  134MPD2     H 2088   4.329   2.670   9.315 -1.3781  0.4689  1.7551
  134MPD2    H1 2089   3.906   2.679   9.195  0.1954  0.1993 -2.6514
  134MPD2    H2 2090   4.125   2.317   9.219 -0.4865  0.4124  0.9308
  134MPD2    H3 2091   3.918   2.433   9.197 -0.2311  1.7489 -3.3825
  134MPD2     N 2092   4.113   2.848   9.248  0.4039 -0.0997 -0.0999
  134MPD2    H5 2093   4.024   2.891   9.222  0.7304 -0.9712 -2.6198
  134MPD2    N1 2094   4.351   2.409   9.311 -0.2052 -0.0190  0.0863
  134MPD2    H7 2095   4.329   2.310   9.319  3.4155 -0.6237  2.4094
  135TMC2    C1 2096   1.705   1.041   9.774 -1.1877  0.4088  0.3509
  135TMC2    C2 2097   1.745   1.011   9.897 -0.2451  0.8984  0.4554
  135TMC2    C3 2098   1.666   1.024  10.004 -0.4072  0.1210  0.3124
  135TMC2    C4 2099   1.579   1.088   9.762  0.0541  0.2685  0.3089
  135TMC2    C5 2100   1.497   1.103   9.871  0.0046  0.2179  0.4841
  135TMC2    C6 2101   1.536   1.068   9.996 -0.0823  0.0617 -0.0650
  135TMC2     C 2102   1.794   1.012   9.661  0.4714  0.3398  0.2322
  135TMC2     O 2103   1.906   0.963   9.695  0.2344  0.0586 -0.1170
  135TMC2     H 2104   1.833   0.949   9.912  2.1667  3.5546 -2.6151
  135TMC2    H1 2105   1.538   1.126   9.670 -2.6071 -1.8856  0.6097
  135TMC2    H2 2106   1.470   1.075  10.081 -0.7295  2.2382 -0.7631
  135TMC2    C7 2107   1.364   1.167   9.861  0.3520 -1.5272 -0.3904
  135TMC2    C8 2108   1.716   0.988  10.138 -0.0734 -0.7370 -0.6069
  135TMC2    O1 2109   1.349   1.244   9.763  0.3549  0.4047 -0.0891
  135TMC2    O2 2110   1.639   0.967  10.229  0.1000 -0.7062 -0.8031
  135TMC2    O5 2111   1.852   0.984  10.149  0.4406 -0.2697  0.3882
  135TMC2    H5 2112   1.896   1.020  10.069  1.1568 -1.4053  0.2691
  136MPD2     C 2113   1.935   0.993   9.409  0.0907 -0.2622 -0.0410
  136MPD2    C1 2114   1.797   0.979   9.424 -0.0009 -0.2731 -0.1061
  136MPD2    C2 2115   1.730   0.933   9.314 -0.4450  0.1619 -0.4258
  136MPD2    C3 2116   1.783   0.923   9.189 -0.2796 -0.0196  0.1426
  136MPD2    C4 2117   1.924   0.949   9.175 -0.1213  0.4390  0.1298
  136MPD2    C5 2118   1.993   0.983   9.285  0.2024  0.5102  0.8953
  136MPD2     H 2119   1.628   0.898   9.329 -0.7802  0.9993 -0.7461
  136MPD2    H1 2120   1.976   0.939   9.080 -0.5426 -0.4111 -0.0087
  136MPD2    H2 2121   1.989   1.033   9.494 -0.8641  1.4808 -0.2360
  136MPD2    H3 2122   2.100   0.998   9.277  0.5337 -1.7207  1.1616
  136MPD2     N 2123   1.712   0.877   9.066  0.3837  0.1114 -0.1215
  136MPD2    H5 2124   1.770   0.865   8.983  0.9213  0.9573  0.1377
  136MPD2    N1 2125   1.726   1.012   9.542 -0.1780  0.5433 -0.5038
  136MPD2    H7 2126   1.625   1.015   9.536 -0.4933  1.2753  4.7568
  137TMC2    C1 2127   0.966   0.410   8.698  0.2897 -0.8157  0.6077
  137TMC2    C2 2128   1.044   0.320   8.628  0.5455 -0.2030  0.3202
  137TMC2    C3 2129   0.975   0.228   8.550  0.8081  0.0418 -0.4088
  137TMC2    C4 2130   0.829   0.417   8.691  0.5223 -0.6770 -0.4991
  137TMC2    C5 2131   0.772   0.327   8.605 -0.2090 -0.2045  0.7704
  137TMC2    C6 2132   0.841   0.235   8.533  0.7287 -0.2445 -0.2521
  137TMC2     C 2133   1.023   0.464   8.820  0.1698 -0.1163 -0.3345
  137TMC2     O 2134   1.123   0.411   8.867 -0.4746  0.2023 -0.5400
  137TMC2     H 2135   1.152   0.313   8.641  0.5497  0.8193  0.8485
  137TMC2    H1 2136   0.769   0.478   8.759  1.0045 -1.3616  0.5427
  137TMC2    H2 2137   0.787   0.164   8.471 -0.2829 -0.8673  1.3600
  137TMC2    C7 2138   0.626   0.304   8.616  0.3496  0.8694  0.4341
  137TMC2    C8 2139   1.042   0.133   8.461 -0.3621  0.2138  0.1367
  137TMC2    O1 2140   0.565   0.279   8.512 -0.2936 -0.3146  0.6433
  137TMC2    O2 2141   0.975   0.073   8.371  0.2686 -0.2504  0.3281
  137TMC2    O5 2142   1.141   0.071   8.531  0.5821 -0.2764  0.3870
  137TMC2    H5 2143   1.156   0.120   8.615 -1.1901  1.3773 -0.2621
  138MPD2     C 2144   0.979   0.802   8.953  0.0415 -0.3736 -0.7150
  138MPD2    C1 2145   1.014   0.665   8.956 -0.1854 -0.1201  0.7433
  138MPD2    C2 2146   1.100   0.620   9.063  0.7606  0.6298  0.3055
  138MPD2    C3 2147   1.143   0.715   9.156 -0.1038  0.5536 -0.8891
  138MPD2    C4 2148   1.104   0.844   9.139 -0.1055 -0.0112 -0.4080
  138MPD2    C5 2149   1.019   0.888   9.044  0.3424 -0.3911 -0.1936
  138MPD2     H 2150   1.126   0.515   9.077  0.6886  0.3099 -2.0019
  138MPD2    H1 2151   1.134   0.923   9.207  1.3038 -1.8243  1.0476
  138MPD2    H2 2152   0.910   0.832   8.875 -0.5223 -1.0300 -0.4800
  138MPD2    H3 2153   1.004   0.995   9.031  0.5110 -0.4812 -1.1492
  138MPD2     N 2154   1.220   0.671   9.268  0.4348 -0.1879  0.6109
  138MPD2    H5 2155   1.240   0.571   9.268  1.6676  0.0563 -0.1436
  138MPD2    N1 2156   0.977   0.587   8.850  0.4518 -0.0824  0.5155
  138MPD2    H7 2157   0.915   0.629   8.782  1.9025  2.2813  0.6712
  139TMC2    C1 2158   2.211   2.562  13.115  0.6492  0.2478 -0.0700
  139TMC2    C2 2159   2.202   2.686  13.176 -1.1438 -0.4606 -0.4967
  139TMC2    C3 2160   2.112   2.777  13.118 -0.1660 -1.0876  0.4850
  139TMC2    C4 2161   2.148   2.536  12.996 -0.6437 -0.2910 -0.0971
  139TMC2    C5 2162   2.063   2.631  12.941  0.3485 -0.2134 -0.0151
  139TMC2    C6 2163   2.046   2.756  12.996  0.4613  0.0932  0.2093
  139TMC2     C 2164   2.306   2.463  13.159  0.8465 -0.4365 -0.1815
  139TMC2     O 2165   2.353   2.388  13.079  0.0956 -0.4620  0.1056
  139TMC2     H 2166   2.264   2.711  13.261 -0.7931  0.7786 -1.1031
  139TMC2    H1 2167   2.161   2.441  12.947  4.3091  0.4136 -0.0959
  139TMC2    H2 2168   1.978   2.826  12.948  0.9155 -0.5186 -1.3282
  139TMC2    C7 2169   1.961   2.600  12.853 -0.4698 -0.6205 -0.0054
  139TMC2    C8 2170   2.118   2.912  13.167 -0.1742 -0.2301 -0.2184
  139TMC2    O1 2171   1.910   2.688  12.784 -0.1142  0.2502 -0.0102
  139TMC2    O2 2172   2.228   2.951  13.207  0.6620 -0.3721 -0.3166
  139TMC2    O5 2173   2.006   2.980  13.126  0.2488 -0.0854 -0.0875
  139TMC2    H5 2174   1.932   2.916  13.122 -2.1827  2.7829 -0.7141
  140MPD2     C 2175   2.490   2.468  13.478 -0.6777 -0.3283 -1.1777
  140MPD2    C1 2176   2.451   2.419  13.354  0.3817  0.0333 -0.8665
  140MPD2    C2 2177   2.532   2.331  13.284 -0.8028 -0.1448 -0.5542
  140MPD2    C3 2178   2.643   2.273  13.345 -0.8088  0.2550  0.2546
  140MPD2    C4 2179   2.684   2.319  13.468 -0.4262 -0.1247  0.1959
  140MPD2    C5 2180   2.612   2.420  13.531 -0.8351  0.1597 -0.3044
  140MPD2     H 2181   2.516   2.289  13.186 -0.4627  0.9469 -1.0825
  140MPD2    H1 2182   2.776   2.278  13.506 -0.0104  0.0302 -0.6361
  140MPD2    H2 2183   2.435   2.543  13.534 -0.8705 -0.9073 -0.5961
  140MPD2    H3 2184   2.643   2.455  13.628  0.2247 -0.2497 -0.4942
  140MPD2     N 2185   2.721   2.163  13.289  0.1961 -0.0572  0.0725
  140MPD2    H5 2186   2.716   2.148  13.189  2.2415 -1.0620  0.1219
  140MPD2    N1 2187   2.333   2.469  13.294  0.2159  0.2638  0.7908
  140MPD2    H7 2188   2.272   2.525  13.352  1.1755  0.4407  1.6357
  141TMC2    C1 2189   3.242   3.433  14.017  0.5320 -0.7261  0.0240
  141TMC2    C2 2190   3.368   3.406  14.057  0.4352 -0.2843  0.3058
  141TMC2    C3 2191   3.387   3.393  14.193  0.3121 -0.0601  0.0094
  141TMC2    C4 2192   3.139   3.456  14.104 -0.4312  0.9898 -0.6257
  141TMC2    C5 2193   3.168   3.449  14.240  0.1826  0.0382 -0.0002
  141TMC2    C6 2194   3.289   3.422  14.283 -0.7544 -0.5261 -0.2182
  141TMC2     C 2195   3.222   3.460  13.875  0.0988 -0.2000  0.0629
  141TMC2     O 2196   3.131   3.541  13.858 -0.2144  0.0275 -0.1350
  141TMC2     H 2197   3.450   3.390  13.988 -1.2048  0.1966 -1.7593
  141TMC2    H1 2198   3.041   3.484  14.067 -0.4307 -2.0214 -2.8960
  141TMC2    H2 2199   3.313   3.436  14.388  2.4703  0.4543 -1.1121
  141TMC2    C7 2200   3.063   3.494  14.333  0.4299 -0.3335  0.0790
  141TMC2    C8 2201   3.514   3.330  14.230 -0.3098 -0.2642 -0.2673
  141TMC2    O1 2202   3.095   3.489  14.448 -0.1891 -0.3814 -0.2013
  141TMC2    O2 2203   3.612   3.317  14.159 -0.4170 -0.2907 -0.2918
  141TMC2    O5 2204   3.496   3.276  14.353  0.1531  0.9280 -0.0680
  141TMC2    H5 2205   3.401   3.262  14.372  0.4944  1.6096  2.0711
  142TMC2    C1 2206   0.497   3.291   9.652  0.4575 -0.6910  0.4199
  142TMC2    C2 2207   0.406   3.341   9.562  0.0856 -0.4049  0.9102
  142TMC2    C3 2208   0.394   3.479   9.545 -0.6102 -0.0268 -0.4157
  142TMC2    C4 2209   0.563   3.381   9.726 -0.7015 -0.6494  0.1646
  142TMC2    C5 2210   0.541   3.513   9.724  0.0080 -0.4188 -0.1566
  142TMC2    C6 2211   0.465   3.571   9.626  0.0705 -0.5306  0.2767
  142TMC2     C 2212   0.536   3.158   9.642 -0.4431 -0.3627  0.0159
  142TMC2     O 2213   0.458   3.069   9.607  0.0237 -0.2078  0.4318
  142TMC2     H 2214   0.341   3.268   9.515  0.4422 -0.6915  0.8623
  142TMC2    H1 2215   0.608   3.333   9.812  0.2921 -2.5335 -1.4005
  142TMC2    H2 2216   0.421   3.670   9.621  0.6189 -0.1918  2.1945
  142TMC2    C7 2217   0.594   3.591   9.828 -0.4379 -0.3106  0.1638
  142TMC2    C8 2218   0.275   3.533   9.489  1.0468 -0.2170  0.8782
  142TMC2    O1 2219   0.628   3.526   9.926  0.6480  0.0917 -0.8131
  142TMC2    O2 2220   0.215   3.633   9.528  0.6149  0.0082  0.2574
  142TMC2    O5 2221   0.258   3.479   9.366 -0.8186  0.1136  0.0995
  142TMC2    H5 2222   0.331   3.414   9.355 -0.9554  0.0523 -0.4511
  143MPD2     C 2223   0.868   2.824   9.826 -0.0096 -0.9639  0.5956
  143MPD2    C1 2224   0.737   2.800   9.786  0.5268 -0.0391  0.2665
  143MPD2    C2 2225   0.670   2.908   9.727  0.5000 -0.3710  0.4596
  143MPD2    C3 2226   0.729   3.033   9.706  0.2437 -0.5208  0.2354
  143MPD2    C4 2227   0.864   3.051   9.744 -0.0231 -0.2281  0.0760
  143MPD2    C5 2228   0.925   2.947   9.805 -0.6276  0.4057 -0.3132
  143MPD2     H 2229   0.565   2.899   9.703  0.8885 -1.7325 -0.7258
  143MPD2    H1 2230   0.912   3.148   9.738 -0.5616 -0.0014 -0.5118
  143MPD2    H2 2231   0.928   2.750   9.877  1.1969 -0.1044  0.4127
  143MPD2    H3 2232   1.034   2.949   9.805 -0.5980 -1.1745 -1.2182
  143MPD2     N 2233   0.663   3.152   9.677  0.6889 -0.0581  0.5377
  143MPD2    H5 2234   0.717   3.237   9.683 -0.1241  0.5343 -0.5005
  143MPD2    N1 2235   0.681   2.667   9.791 -0.2223 -0.0247 -0.6521
  143MPD2    H7 2236   0.746   2.595   9.822 -0.9392  0.1992  1.3184
  144TMC2    C1 2237   3.685   0.840   0.680 -0.1858 -1.1351  0.2338
  144TMC2    C2 2238   3.781   0.770   0.609  0.1319 -0.4280  0.0023
  144TMC2    C3 2239   3.907   0.806   0.605  0.7156  0.3937  0.3719
  144TMC2    C4 2240   3.723   0.960   0.737  0.2909 -0.3751 -0.2903
  144TMC2    C5 2241   3.855   0.992   0.734 -0.0734  0.4700  0.0986
  144TMC2    C6 2242   3.947   0.920   0.667  0.7096  0.5029 -0.4786
  144TMC2     C 2243   3.550   0.808   0.649 -0.0118 -0.0365  0.1052
  144TMC2     O 2244   3.526   0.719   0.570 -0.0678 -0.2037  0.2076
  144TMC2     H 2245   3.753   0.677   0.562 -2.1445  0.2993 -0.0580
  144TMC2    H1 2246   3.660   1.041   0.772 -0.2218 -1.1921  0.6744
  144TMC2    H2 2247   4.051   0.945   0.679  2.1232 -4.8258 -1.8152
  144TMC2    C7 2248   3.903   1.098   0.825  0.2446 -0.0212 -0.4446
  144TMC2    C8 2249   3.997   0.701   0.585  0.5207  0.4243  0.8756
  144TMC2    O1 2250   3.997   1.156   0.780 -0.2333 -0.4425 -0.0660
  144TMC2    O2 2251   3.972   0.582   0.580  0.5239 -0.0007  0.2646
  144TMC2    O5 2252   4.103   0.758   0.522 -0.2771 -0.1605 -0.6812
  144TMC2    H5 2253   4.090   0.853   0.503 -1.3228 -0.4540 -1.4251
  145MPD2     C 2254   3.059   0.935   0.632  0.0692 -0.0145 -0.5231
  145MPD2    C1 2255   3.128   0.842   0.561 -0.1090 -0.4475  0.8730
  145MPD2    C2 2256   3.250   0.819   0.596 -0.1345 -0.1714  0.0194
  145MPD2    C3 2257   3.324   0.892   0.689  0.1964 -0.0339 -0.6409
  145MPD2    C4 2258   3.262   1.001   0.747 -0.1518 -0.2280  0.7654
  145MPD2    C5 2259   3.125   1.017   0.725  0.5860  0.4071 -0.5463
  145MPD2     H 2260   3.312   0.747   0.544  0.4844  0.2321  0.1923
  145MPD2    H1 2261   3.302   1.071   0.820  0.5763  2.1439 -1.8883
  145MPD2    H2 2262   2.955   0.962   0.622  0.3528  1.1788 -0.1875
  145MPD2    H3 2263   3.071   1.103   0.762  1.6912  0.7361  0.2935
  145MPD2     N 2264   3.458   0.876   0.722 -0.0191  0.9506  0.1420
  145MPD2    H5 2265   3.488   0.955   0.778  1.2078  1.0050 -0.6094
  145MPD2    N1 2266   3.068   0.765   0.463  0.1190 -0.2518 -0.0539
  145MPD2    H7 2267   3.136   0.720   0.402  0.4321 -1.3926  1.1385
  146TMC2    C1 2268   4.332   0.341  12.210  0.9921 -0.5868  0.0179
  146TMC2    C2 2269   4.357   0.467  12.156 -0.2219 -0.1603  0.2337
  146TMC2    C3 2270   4.408   0.471  12.028 -0.0311  0.3140  0.5516
  146TMC2    C4 2271   4.369   0.232  12.145 -0.6863 -0.0271 -0.0345
  146TMC2    C5 2272   4.401   0.239  12.018  0.7405  1.1228  0.5170
  146TMC2    C6 2273   4.428   0.357  11.954 -0.4854 -0.7307  0.2163
  146TMC2     C 2274   4.309   0.333  12.355 -0.0095 -0.0195 -0.4476
  146TMC2     O 2275   4.259   0.442  12.387  0.6488 -0.2099  0.5331
  146TMC2     H 2276   4.364   0.554  12.220  2.7945 -1.3924  1.6079
  146TMC2    H1 2277   4.347   0.135  12.190  2.0001 -0.0317  1.3091
  146TMC2    H2 2278   4.460   0.363  11.850 -0.1069  2.4476  0.4944
  146TMC2    C7 2279   4.437   0.121  11.951 -0.3244  0.2476  0.2392
  146TMC2    C8 2280   4.479   0.590  11.978  0.3940  0.0267 -0.3132
  146TMC2    O1 2281   4.452   0.135  11.829  0.2045 -0.1502  0.0434
  146TMC2    O2 2282   4.599   0.592  11.947  0.0649  0.6138 -0.3146
  146TMC2    O5 2283   4.408   0.682  12.048  0.0852  0.1057  0.0414
  146TMC2    H5 2284   4.313   0.661  12.061 -0.3331  1.6870 -0.4094
  147MPD2     C 2285   0.013   4.440  11.953  0.2457 -0.1320  0.2867
  147MPD2    C1 2286   0.008   4.495  12.079  0.4618 -0.2387  0.4940
  147MPD2    C2 2287   4.648   4.590  12.108  0.4147  0.2918  0.1799
  147MPD2    C3 2288   4.573   4.653  12.007  0.4753 -0.2223 -0.3760
  147MPD2    C4 2289   4.579   4.593  11.884  0.0700 -0.3887  0.1353
  147MPD2    C5 2290   4.664   4.490  11.855 -0.5816  0.1927  0.1043
  147MPD2     H 2291   4.634   4.633  12.206  1.2429 -0.9039  0.8284
  147MPD2    H1 2292   4.517   4.635  11.806 -0.3591 -2.7655 -0.8019
  147MPD2    H2 2293   0.094   4.374  11.922  0.5896  0.6965 -0.5524
  147MPD2    H3 2294   4.668   4.447  11.755 -0.5292  1.7333 -0.5425
  147MPD2     N 2295   4.490   0.027  12.040 -0.1689 -0.1317  0.1686
  147MPD2    H5 2296   4.478   0.049  12.138  0.5530 -2.6949  0.8428
  147MPD2    N1 2297   0.084   4.440  12.183 -0.3059  0.3986  0.9252
  147MPD2    H7 2298   0.148   4.365  12.159 -1.4049 -0.2020 -0.1490
  148TMC2    C1 2299   4.466   3.761  10.406  0.3892  0.4971 -0.1476
  148TMC2    C2 2300   4.506   3.883  10.462  1.1640  0.7345 -0.0657
  148TMC2    C3 2301   4.600   3.881  10.561 -0.7666 -0.3509  0.6152
  148TMC2    C4 2302   4.508   3.637  10.456 -0.6463 -0.2892  0.2664
  148TMC2    C5 2303   4.604   3.638  10.549  0.2182 -0.2117 -0.5885
  148TMC2    C6 2304   4.654   3.756  10.611 -0.0433 -0.2768  0.4773
  148TMC2     C 2305   4.391   3.772  10.289 -0.1764 -0.3848 -0.9492
  148TMC2     O 2306   4.333   3.877  10.276  0.5255  0.4347  0.2384
  148TMC2     H 2307   4.465   3.980  10.434  0.7946  0.3087 -0.9939
  148TMC2    H1 2308   4.482   3.544  10.406 -1.6395 -0.9250  1.9492
  148TMC2    H2 2309   0.003   3.763  10.676  0.2504 -2.3859  0.3213
  148TMC2    C7 2310   4.678   3.513  10.568  0.1176 -0.8992 -0.1192
  148TMC2    C8 2311   4.634   4.004  10.634  0.4222 -0.2449  0.3989
  148TMC2    O1 2312   4.665   3.437  10.472 -0.1745 -0.4853  0.0814
  148TMC2    O2 2313   4.610   4.113  10.583  0.9549 -0.5468 -0.5281
  148TMC2    O5 2314   4.602   3.973  10.762 -0.0179 -0.2185 -0.6427
  148TMC2    H5 2315   4.584   3.880  10.785 -1.0012  0.4128  1.1421
  149MPD2     C 2316   4.138   3.709  10.141  0.4610 -0.1294 -0.7793
  149MPD2    C1 2317   4.241   3.619  10.165 -0.3002  0.8302  0.2217
  149MPD2    C2 2318   4.231   3.487  10.125  0.0971 -0.4350  0.1158
  149MPD2    C3 2319   4.113   3.442  10.064 -0.0695 -0.7232  0.4999
  149MPD2    C4 2320   4.009   3.529  10.043 -0.8229  0.5584  0.0599
  149MPD2    C5 2321   4.023   3.660  10.082  0.2246  0.2921 -0.5305
  149MPD2     H 2322   4.315   3.425  10.155 -1.1713 -1.4006  1.6405
  149MPD2    H1 2323   3.920   3.488   9.997  0.7986  0.8001 -3.2820
  149MPD2    H2 2324   4.145   3.811  10.177  0.1004 -0.9230  1.5379
  149MPD2    H3 2325   3.941   3.724  10.050  0.1913  0.9659  0.9158
  149MPD2     N 2326   4.080   3.314  10.031 -0.9069 -0.7689  0.4209
  149MPD2    H5 2327   4.002   3.299   9.968 -1.2138 -2.7010  1.2432
  149MPD2    N1 2328   4.361   3.650  10.231 -0.2446 -0.0923 -0.0530
  149MPD2    H7 2329   4.428   3.575  10.248  1.1936  0.6563 -2.3452
  150TMC2    C1 2330   2.099   2.411  11.891  0.0141 -0.3467 -0.2092
  150TMC2    C2 2331   2.050   2.487  11.789 -0.3113 -0.3818  0.4362
  150TMC2    C3 2332   2.131   2.588  11.741 -0.1485 -0.4482 -0.1129
  150TMC2    C4 2333   2.217   2.431  11.950  0.2613  0.0290 -0.0997
  150TMC2    C5 2334   2.297   2.534  11.902 -0.5715  0.0434 -0.3641
  150TMC2    C6 2335   2.258   2.611  11.794 -0.3302 -0.1309 -0.4081
  150TMC2     C 2336   2.019   2.303  11.948  0.3202  0.0029 -0.3990
  150TMC2     O 2337   2.084   2.213  11.990 -0.0896  0.2874 -0.2057
  150TMC2     H 2338   1.967   2.458  11.726 -0.2558  1.6957 -0.6208
  150TMC2    H1 2339   2.242   2.376  12.040 -1.4635 -0.1455  0.2795
  150TMC2    H2 2340   2.323   2.694  11.768  0.8904 -1.4336 -1.5220
  150TMC2    C7 2341   2.420   2.562  11.964 -0.3042  0.2923 -0.4014
  150TMC2    C8 2342   2.086   2.676  11.643  0.0007 -0.9053 -0.1418
  150TMC2    O1 2343   2.482   2.658  11.927  0.3373 -0.3045  0.3216
  150TMC2    O2 2344   2.019   2.653  11.541  0.2241  0.1416 -0.3168
  150TMC2    O5 2345   2.155   2.797  11.655 -0.0429  0.4571  0.0943
  150TMC2    H5 2346   2.184   2.820  11.746 -1.9595  0.4149  0.7242
  151MPD2     C 2347   1.583   2.073  12.093 -0.1247  0.3148 -0.1843
  151MPD2    C1 2348   1.549   2.176  12.012 -0.1586  0.0528  0.1261
  151MPD2    C2 2349   1.656   2.254  11.966  0.3655 -0.2031 -0.2767
  151MPD2    C3 2350   1.789   2.233  11.995 -0.0872 -0.2132 -0.5361
  151MPD2    C4 2351   1.820   2.129  12.083  0.8545 -0.4272 -0.0169
  151MPD2    C5 2352   1.716   2.046  12.130 -0.3509  0.3323  0.7857
  151MPD2     H 2353   1.626   2.340  11.908  0.7427  0.2435  0.1880
  151MPD2    H1 2354   1.923   2.102  12.103  0.2634 -1.2097  1.9319
  151MPD2    H2 2355   1.506   2.018  12.146  1.3812 -2.9021 -1.3454
  151MPD2    H3 2356   1.738   1.978  12.211 -0.2272  2.0636  2.2148
  151MPD2     N 2357   1.888   2.323  11.942  0.0940  0.3135 -0.4759
  151MPD2    H5 2358   1.857   2.411  11.901 -1.4035  1.1363  2.3806
  151MPD2    N1 2359   1.411   2.186  11.963 -0.2560  0.3480 -0.0684
  151MPD2    H7 2360   1.341   2.123  12.001  0.8273  0.4246  2.0519
  152TMC2    C1 2361   1.906   2.302  12.467 -0.2402  0.2857 -0.1815
  152TMC2    C2 2362   1.950   2.252  12.586 -0.3781  0.2699 -0.7622
  152TMC2    C3 2363   2.082   2.221  12.588 -0.1936  0.4078  0.1773
  152TMC2    C4 2364   1.994   2.344  12.373  0.0437  0.4241  0.4347
  152TMC2    C5 2365   2.132   2.329  12.386  0.1671 -0.3907  0.1670
  152TMC2    C6 2366   2.181   2.261  12.496 -0.9104  0.5499  0.6240
  152TMC2     C 2367   1.762   2.306  12.435  0.4081 -0.0714  0.1688
  152TMC2     O 2368   1.710   2.390  12.363 -0.4025 -0.1067 -0.7356
  152TMC2     H 2369   1.880   2.209  12.658 -3.6692  3.7037 -1.8965
  152TMC2    H1 2370   1.949   2.390  12.285  1.0802  0.0973 -0.2746
  152TMC2    H2 2371   2.284   2.241  12.519 -0.7233 -1.1727 -1.7626
  152TMC2    C7 2372   2.205   2.430  12.330 -0.3988 -0.3874  0.9074
  152TMC2    C8 2373   2.124   2.182  12.715 -0.0990  0.5662 -0.1654
  152TMC2    O1 2374   2.138   2.499  12.250 -0.2912  0.1850 -0.3886
  152TMC2    O2 2375   2.087   2.233  12.821 -0.3018  0.1518 -0.0895
  152TMC2    O5 2376   2.238   2.111  12.708 -0.3028 -1.1476  0.0241
  152TMC2    H5 2377   2.230   2.056  12.626  0.6056  0.0494 -0.8638
  153MPD2     C 2378   1.522   2.094  12.611 -0.0373  0.6902  0.7457
  153MPD2    C1 2379   1.559   2.190  12.520 -0.4041  0.6919 -0.2488
  153MPD2    C2 2380   1.457   2.256  12.451  0.0218 -0.0068 -0.2648
  153MPD2    C3 2381   1.324   2.225  12.466 -0.1151  0.5678 -0.2299
  153MPD2    C4 2382   1.288   2.133  12.562 -0.4441  0.2672  0.3657
  153MPD2    C5 2383   1.387   2.062  12.623 -0.9930 -0.3768 -0.5671
  153MPD2     H 2384   1.490   2.332  12.381 -0.8917  1.7042  1.1647
  153MPD2    H1 2385   1.184   2.110  12.586 -1.1102  3.2868  0.3932
  153MPD2    H2 2386   1.598   2.049  12.673 -0.5540 -2.5343 -0.9773
  153MPD2    H3 2387   1.351   1.991  12.696  0.2359 -1.6310 -1.1839
  153MPD2     N 2388   1.230   2.304  12.399  0.1738 -0.0849 -0.0085
  153MPD2    H5 2389   1.271   2.388  12.359 -1.5788  0.4028 -0.7788
  153MPD2    N1 2390   1.698   2.202  12.498 -0.2836 -0.0657  0.1002
  153MPD2    H7 2391   1.764   2.136  12.539  1.3531  1.6062  0.1552
  154TMC2    C1 2392   3.077   1.836   0.730  0.1467 -0.4170 -0.3750
  154TMC2    C2 2393   3.142   1.841   0.850 -0.4896  0.6531 -0.0526
  154TMC2    C3 2394   3.272   1.803   0.854 -0.2821 -0.2085 -0.8679
  154TMC2    C4 2395   3.145   1.802   0.614 -0.3829  0.2197  0.2835
  154TMC2    C5 2396   3.271   1.758   0.624  0.0571 -0.2571  0.3318
  154TMC2    C6 2397   3.336   1.753   0.744 -0.6172  1.0039 -0.3872
  154TMC2     C 2398   2.942   1.891   0.735  0.4559  0.0292  0.9622
  154TMC2     O 2399   2.926   1.970   0.826 -0.3476  0.4873  0.8407
  154TMC2     H 2400   3.090   1.874   0.939 -1.7438 -1.1020 -0.1424
  154TMC2    H1 2401   3.082   1.789   0.528  1.6150  1.0749 -1.3136
  154TMC2    H2 2402   3.435   1.712   0.759 -1.5762 -2.0891 -2.5725
  154TMC2    C7 2403   3.336   1.727   0.495  0.1654 -0.5519 -0.2349
  154TMC2    C8 2404   3.341   1.785   0.983 -0.3540  0.6308  0.3227
  154TMC2    O1 2405   3.426   1.639   0.499  0.4634  0.6333  0.6931
  154TMC2    O2 2406   3.442   1.716   0.994  0.2337 -0.1852 -0.3048
  154TMC2    O5 2407   3.305   1.884   1.068  0.5774  0.3719 -0.5763
  154TMC2    H5 2408   3.222   1.932   1.047 -0.1481 -0.2298  0.9725
  155MPD2     C 2409   2.661   1.853   0.513  0.3175 -0.1666 -0.3166
  155MPD2    C1 2410   2.727   1.893   0.629 -0.0078  0.2742 -0.4026
  155MPD2    C2 2411   2.655   1.958   0.723 -0.9617  0.5887  0.8511
  155MPD2    C3 2412   2.515   1.972   0.712  0.1195  0.1421  0.4198
  155MPD2    C4 2413   2.458   1.941   0.587  0.3256  0.2039  0.5694
  155MPD2    C5 2414   2.532   1.880   0.485 -0.3702  0.0930 -0.1412
  155MPD2     H 2415   2.700   1.999   0.813  1.8638 -0.4037 -0.1110
  155MPD2    H1 2416   2.359   1.969   0.554  0.5737  0.9844  0.4957
  155MPD2    H2 2417   2.721   1.791   0.446 -1.2010 -1.3501 -0.5696
  155MPD2    H3 2418   2.481   1.848   0.395 -0.4824  1.0452 -0.4188
  155MPD2     N 2419   2.439   2.013   0.824  0.1738  0.8836 -0.4140
  155MPD2    H5 2420   2.493   2.033   0.908  0.3572 -0.4896 -0.2000
  155MPD2    N1 2421   2.865   1.852   0.641 -0.4939  0.2112 -0.2231
  155MPD2    H7 2422   2.891   1.786   0.568 -0.0511  0.4844 -0.3137
  156TMC2    C1 2423   2.084   4.314  11.525  0.2657 -0.6292 -0.1721
  156TMC2    C2 2424   2.111   4.181  11.510 -0.0162  0.3652  0.0100
  156TMC2    C3 2425   2.039   4.120  11.411 -0.5057 -0.5379 -0.2814
  156TMC2    C4 2426   1.988   4.380  11.448 -0.1259 -0.3195  0.4608
  156TMC2    C5 2427   1.914   4.310  11.355  0.7121  0.2918  0.1478
  156TMC2    C6 2428   1.939   4.175  11.339  0.5372 -0.8065  0.4361
  156TMC2     C 2429   2.098   4.372  11.659 -0.1294  0.2802  0.5900
  156TMC2     O 2430   2.010   4.453  11.694 -0.2323 -0.4320 -0.5912
  156TMC2     H 2431   2.176   4.122  11.573 -0.9968 -0.5317  0.1756
  156TMC2    H1 2432   1.959   4.482  11.471 -0.1611 -0.1907 -0.1511
  156TMC2    H2 2433   1.880   4.108  11.278 -0.1197  0.6414 -0.5370
  156TMC2    C7 2434   1.781   4.352  11.320 -0.2826 -0.1171  0.8133
  156TMC2    C8 2435   2.059   3.981  11.400 -0.1839 -0.7851 -0.3914
  156TMC2    O1 2436   1.733   4.294  11.220 -0.5837 -0.0250 -0.4711
  156TMC2    O2 2437   1.974   3.898  11.382 -0.3935 -0.3178 -0.2689
  156TMC2    O5 2438   2.189   3.965  11.369 -0.2286  0.0911 -0.2339
  156TMC2    H5 2439   2.238   4.050  11.367 -2.3747  1.3106 -1.5305
  157MPD2     C 2440   2.395   4.343  11.876  0.5049 -0.5147 -0.5028
  157MPD2    C1 2441   2.266   4.381  11.838  0.5764  0.2474  0.2479
  157MPD2    C2 2442   2.192   4.463  11.919 -0.0141  0.3579  0.1855
  157MPD2    C3 2443   2.256   4.522  12.029 -0.8114 -0.3748  0.5510
  157MPD2    C4 2444   2.392   4.495  12.057 -0.3225 -0.4442  0.1257
  157MPD2    C5 2445   2.458   4.400  11.984 -0.2272 -0.2302  0.8413
  157MPD2     H 2446   2.093   4.502  11.898  0.4410  0.0271 -2.6277
  157MPD2    H1 2447   2.445   4.542  12.139 -2.1849  0.5017  0.7784
  157MPD2    H2 2448   2.454   4.275  11.815 -0.1604 -0.2038 -1.4820
  157MPD2    H3 2449   2.554   4.364  12.019 -0.7254 -2.2619  0.1191
  157MPD2     N 2450   2.190   4.629  12.095 -0.4244 -0.0148  0.2447
  157MPD2    H5 2451   2.106   4.666  12.053  0.4382  0.4244 -1.0969
  157MPD2    N1 2452   2.219   4.343  11.710 -0.1403  0.0382  0.9433
  157MPD2    H7 2453   2.283   4.302  11.642 -0.6759  0.0370  0.4383
  158TMC2    C1 2454   1.832   3.733  13.215 -0.3440 -0.3359  0.7392
  158TMC2    C2 2455   1.860   3.854  13.269 -0.0420 -0.1391  0.4536
  158TMC2    C3 2456   1.758   3.940  13.287 -0.5122  0.0999 -0.1653
  158TMC2    C4 2457   1.708   3.689  13.185  0.0873  0.4776 -0.6119
  158TMC2    C5 2458   1.609   3.780  13.208  0.1723 -0.7407 -0.2374
  158TMC2    C6 2459   1.635   3.906  13.249  0.3116  0.2281 -1.0835
  158TMC2     C 2460   1.940   3.646  13.189 -0.3000 -0.3002  0.5109
  158TMC2     O 2461   2.049   3.701  13.168 -0.1454  0.1104  0.1620
  158TMC2     H 2462   1.960   3.882  13.298 -0.2237  0.3433  0.6119
  158TMC2    H1 2463   1.696   3.593  13.136  0.1294  0.3711 -0.4133
  158TMC2    H2 2464   1.555   3.979  13.257 -1.3821 -1.7105 -0.1353
  158TMC2    C7 2465   1.465   3.757  13.192  0.6183  0.3687  0.1223
  158TMC2    C8 2466   1.787   4.086  13.302  0.6056  0.5592 -0.0282
  158TMC2    O1 2467   1.401   3.858  13.166 -0.0325 -0.2549 -0.7069
  158TMC2    O2 2468   1.694   4.166  13.298 -0.0996 -0.2372 -0.9355
  158TMC2    O5 2469   1.911   4.125  13.262  0.0976  0.3374 -0.1103
  158TMC2    H5 2470   1.984   4.060  13.259 -1.1505 -1.1318  0.7862
  159MPD2     C 2471   2.159   3.221  13.401  0.1410 -0.0245  0.0375
  159MPD2    C1 2472   2.021   3.204  13.391 -0.4059 -0.2607 -0.6755
  159MPD2    C2 2473   1.946   3.313  13.341  0.4198  0.1203 -0.3550
  159MPD2    C3 2474   1.996   3.430  13.288 -0.6818  0.2156  0.1429
  159MPD2    C4 2475   2.130   3.441  13.295 -0.1497 -0.4359 -0.3472
  159MPD2    C5 2476   2.208   3.345  13.356  0.0815 -0.3358 -0.6092
  159MPD2     H 2477   1.840   3.303  13.323 -0.1047  2.4106  1.4313
  159MPD2    H1 2478   2.178   3.536  13.271 -1.6730  0.4328  0.0213
  159MPD2    H2 2479   2.224   3.146  13.445 -0.0943 -0.0777  0.2931
  159MPD2    H3 2480   2.313   3.364  13.375  0.1652 -0.7316 -0.6825
  159MPD2     N 2481   1.906   3.527  13.244 -0.1797 -0.6524  0.4953
  159MPD2    H5 2482   1.806   3.510  13.257 -0.2653  0.3228  1.0843
  159MPD2    N1 2483   1.959   3.090  13.430 -0.2378 -0.4264 -0.1316
  159MPD2    H7 2484   2.014   3.016  13.471 -1.3244 -0.8970  0.4793
  160TMC2    C1 2485   1.362   1.327   1.369 -0.1520  0.1870  0.4395
  160TMC2    C2 2486   1.354   1.441   1.442  0.2254  0.1612  0.2732
  160TMC2    C3 2487   1.472   1.489   1.484  0.1185  0.4644 -0.6799
  160TMC2    C4 2488   1.479   1.270   1.347 -0.6474 -0.5178  0.4479
  160TMC2    C5 2489   1.597   1.313   1.401 -0.2204  0.1555 -0.5503
  160TMC2    C6 2490   1.594   1.427   1.472  0.2127  0.0563  0.5774
  160TMC2     C 2491   1.258   1.297   1.272  0.3754  0.0010 -0.5994
  160TMC2     O 2492   1.246   1.183   1.238 -1.2726  0.2438  0.5814
  160TMC2     H 2493   1.266   1.504   1.448  0.3377  0.1606  2.0390
  160TMC2    H1 2494   1.476   1.183   1.283 -0.3826 -0.5264  0.4480
  160TMC2    H2 2495   1.685   1.483   1.491  0.7204 -0.3450 -0.7391
  160TMC2    C7 2496   1.719   1.257   1.345 -0.5141 -0.0409  0.5362
  160TMC2    C8 2497   1.458   1.605   1.574  0.9715  0.2013 -0.2111
  160TMC2    O1 2498   1.708   1.209   1.232 -0.1865  0.4648 -0.0496
  160TMC2    O2 2499   1.355   1.624   1.637  0.3640 -0.5081 -0.2807
  160TMC2    O5 2500   1.574   1.664   1.588  0.3934  0.1625 -0.0890
  160TMC2    H5 2501   1.641   1.639   1.520  1.2858  1.9618  0.1145
  161MPD2     C 2502   1.016   1.277   1.084  0.2510 -0.2509  0.9213
  161MPD2    C1 2503   1.070   1.395   1.131  0.1935 -0.0291  0.2108
  161MPD2    C2 2504   1.002   1.510   1.096  0.1992 -0.0725 -0.6366
  161MPD2    C3 2505   0.882   1.510   1.028  0.1558  0.0459 -0.2120
  161MPD2    C4 2506   0.824   1.395   0.987  0.1327  0.0226  0.2823
  161MPD2    C5 2507   0.900   1.281   1.018  0.3294 -0.1199 -0.2677
  161MPD2     H 2508   1.060   1.599   1.121 -2.6426  1.2463  1.2174
  161MPD2    H1 2509   0.732   1.389   0.931 -0.8163  3.3105  1.5034
  161MPD2    H2 2510   1.057   1.177   1.090 -0.1851 -0.4632  0.3142
  161MPD2    H3 2511   0.858   1.183   0.995  1.9685 -1.1141  1.0326
  161MPD2     N 2512   0.806   1.625   1.003  0.6875  0.0289 -0.2296
  161MPD2    H5 2513   0.720   1.611   0.950  1.0801 -0.2333 -0.8004
  161MPD2    N1 2514   1.179   1.403   1.223  0.0150  0.2169  0.1351
  161MPD2    H7 2515   1.208   1.499   1.240 -1.0476  0.4783  0.4464
  162TMC2    C1 2516   4.336   3.550   1.073  0.3540  0.0607  0.2147
  162TMC2    C2 2517   4.460   3.605   1.080  0.2930  0.0470  0.4138
  162TMC2    C3 2518   4.524   3.597   1.199 -0.0316  0.1947  1.1859
  162TMC2    C4 2519   4.282   3.479   1.176  0.8579 -0.2574  0.3401
  162TMC2    C5 2520   4.362   3.470   1.294 -0.0781 -0.1317  0.4139
  162TMC2    C6 2521   4.482   3.529   1.310 -0.0476 -0.7763  0.6074
  162TMC2     C 2522   4.277   3.563   0.945  0.4456 -0.0786 -0.2851
  162TMC2     O 2523   4.352   3.592   0.851 -0.3576 -0.1374 -0.4535
  162TMC2     H 2524   4.511   3.647   0.994 -0.0986 -1.1856 -0.4310
  162TMC2    H1 2525   4.179   3.445   1.178  1.1372 -1.0585  0.9025
  162TMC2    H2 2526   4.542   3.523   1.400  0.1367 -0.0279  0.5300
  162TMC2    C7 2527   4.317   3.359   1.382  0.3756  0.0238  0.0051
  162TMC2    C8 2528   4.666   3.625   1.201  0.0392  0.8275 -0.4700
  162TMC2    O1 2529   4.208   3.305   1.349  0.3782  0.3399  0.3998
  162TMC2    O2 2530   0.015   3.580   1.123 -0.2690 -0.1345  0.1195
  162TMC2    O5 2531   4.696   3.671   1.330 -0.1325 -0.6025  0.1680
  162TMC2    H5 2532   4.626   3.695   1.395  0.9713 -0.3617  1.2698
  163MPD2     C 2533   3.945   3.408   0.597  0.0292 -0.4982  0.4116
  163MPD2    C1 2534   4.084   3.429   0.588  0.5489  0.6437  0.1815
  163MPD2    C2 2535   4.149   3.463   0.706  0.4728 -0.6911  0.3107
  163MPD2    C3 2536   4.078   3.494   0.827 -1.1802 -0.8979  0.3544
  163MPD2    C4 2537   3.941   3.492   0.827 -0.3433 -1.0822 -0.4162
  163MPD2    C5 2538   3.873   3.453   0.712  0.6636  0.7112 -0.1147
  163MPD2     H 2539   4.256   3.447   0.700  0.6990  1.1342 -0.7200
  163MPD2    H1 2540   3.886   3.510   0.919 -0.5993 -0.5496 -0.6709
  163MPD2    H2 2541   3.900   3.369   0.506  1.4439  0.1955 -0.5924
  163MPD2    H3 2542   3.765   3.447   0.717  0.6967 -1.1060 -1.5550
  163MPD2     N 2543   4.148   3.530   0.946 -0.1875  0.5414  0.2199
  163MPD2    H5 2544   4.097   3.534   1.034 -2.4021  1.3299 -1.1047
  163MPD2    N1 2545   4.143   3.389   0.469 -0.3081  1.0413  0.4244
  163MPD2    H7 2546   4.085   3.341   0.401  2.6384  1.0157 -2.0594
  164TMC2    C1 2547   0.460   3.334  10.931  0.0001 -1.0020  0.4068
  164TMC2    C2 2548   0.485   3.343  10.796 -0.4197 -0.6599  0.2198
  164TMC2    C3 2549   0.429   3.443  10.719 -0.0370  0.7902  0.5552
  164TMC2    C4 2550   0.392   3.439  10.995  0.4116 -0.2734 -0.4337
  164TMC2    C5 2551   0.356   3.546  10.913 -0.6448  0.4896 -0.0533
  164TMC2    C6 2552   0.369   3.551  10.780  0.0511  0.4411 -1.0701
  164TMC2     C 2553   0.422   3.203  10.978  0.4474  0.1934 -0.1099
  164TMC2     O 2554   0.352   3.205  11.077 -0.0587  0.2538 -0.0967
  164TMC2     H 2555   0.548   3.274  10.742  0.5409  0.1264  0.3319
  164TMC2    H1 2556   0.359   3.428  11.097  0.0957  1.0271 -0.3968
  164TMC2    H2 2557   0.328   3.631  10.719 -1.7621  1.2579  1.2052
  164TMC2    C7 2558   0.234   3.614  10.952 -0.1739  0.3700  0.1342
  164TMC2    C8 2559   0.493   3.480  10.590  0.5028 -0.3971  0.1835
  164TMC2    O1 2560   0.173   3.679  10.863  0.2580 -0.2430 -0.0593
  164TMC2    O2 2561   0.508   3.595  10.552 -0.2151 -0.2526  0.1127
  164TMC2    O5 2562   0.511   3.374  10.516 -0.2629  0.2527  0.0308
  164TMC2    H5 2563   0.480   3.289  10.555  0.0384  0.0915 -0.0769
  165TMC2    C1 2564   1.248   1.313   1.810  0.2532  0.5239 -0.6870
  165TMC2    C2 2565   1.316   1.415   1.870 -0.2956 -0.5949  0.1043
  165TMC2    C3 2566   1.458   1.388   1.877  0.3228  0.0986  0.1089
  165TMC2    C4 2567   1.305   1.198   1.772 -0.1086  0.9681 -0.9930
  165TMC2    C5 2568   1.436   1.192   1.761 -0.8852  0.4256 -0.3704
  165TMC2    C6 2569   1.526   1.281   1.822  0.0115 -1.0762 -0.0577
  165TMC2     C 2570   1.120   1.334   1.741  0.3589 -0.1304 -0.4569
  165TMC2     O 2571   1.043   1.237   1.724  0.0659  0.1476 -0.1897
  165TMC2     H 2572   1.276   1.502   1.920  0.4392  0.5580 -1.3054
  165TMC2    H1 2573   1.240   1.113   1.758 -0.6402  0.2507  5.8574
  165TMC2    H2 2574   1.634   1.290   1.818  0.0044 -1.5026 -1.1492
  165TMC2    C7 2575   1.500   1.101   1.668 -0.0454 -0.9525 -0.4417
  165TMC2    C8 2576   1.541   1.496   1.927  0.7181 -0.6401 -0.2976
  165TMC2    O1 2577   1.620   1.098   1.668  0.2265  0.4243 -0.4737
  165TMC2    O2 2578   1.634   1.541   1.859  0.2203  0.2122  0.0508
  165TMC2    O5 2579   1.479   1.550   2.030 -0.0787 -0.4691  0.6802
  165TMC2    H5 2580   1.404   1.505   2.074  0.3692 -1.5672  0.3127
  166MPD2     C 2581   0.837   1.569   1.373  0.2916  0.1129 -0.6637
  166MPD2    C1 2582   0.836   1.435   1.404 -0.4264  0.2107 -0.3734
  166MPD2    C2 2583   0.932   1.391   1.500 -0.3187 -0.1244 -0.6052
  166MPD2    C3 2584   1.004   1.487   1.575 -0.5566 -0.2270 -0.2824
  166MPD2    C4 2585   0.993   1.619   1.546 -0.7776 -0.6486 -0.0686
  166MPD2    C5 2586   0.916   1.651   1.441 -0.9798  0.4990 -0.0324
  166MPD2     H 2587   0.945   1.286   1.524  1.6727  0.6316  1.7428
  166MPD2    H1 2588   1.046   1.689   1.610 -1.9268  1.3239 -1.2772
  166MPD2    H2 2589   0.766   1.609   1.301  1.2563 -0.7679 -2.1221
  166MPD2    H3 2590   0.902   1.758   1.428  0.5911  0.8925  1.5546
  166MPD2     N 2591   1.102   1.455   1.681 -0.6250  0.2659 -0.0052
  166MPD2    H5 2592   1.156   1.533   1.716 -0.9901  0.8784 -0.8034
  166MPD2    N1 2593   0.754   1.352   1.330  0.8118  0.6870  0.1878
  166MPD2    H7 2594   0.684   1.387   1.265 -0.6474  0.1451  1.4717
  167TMC2    C1 2595   0.304   3.688  12.985  0.3910  0.3595  0.4650
  167TMC2    C2 2596   0.406   3.659  13.068 -0.3148 -0.4811 -0.3038
  167TMC2    C3 2597   0.401   3.532  13.122 -0.1330 -0.4019 -0.2052
  167TMC2    C4 2598   0.195   3.616  12.961 -0.8452  0.6008 -0.7878
  167TMC2    C5 2599   0.195   3.496  13.018 -0.1898 -0.0174 -0.2796
  167TMC2    C6 2600   0.292   3.450  13.100 -0.7248 -0.4015  0.1256
  167TMC2     C 2601   0.338   3.780  12.878 -0.3380 -0.1059  0.4518
  167TMC2     O 2602   0.446   3.839  12.884 -0.1252 -0.2777  0.2428
  167TMC2     H 2603   0.490   3.727  13.074  0.2540 -1.0141 -2.4852
  167TMC2    H1 2604   0.114   3.633  12.892 -1.2301 -0.3982 -0.5840
  167TMC2    H2 2605   0.301   3.345  13.129 -0.0625 -0.4613 -0.3157
  167TMC2    C7 2606   0.079   3.404  12.997 -0.3186  0.5898 -0.3188
  167TMC2    C8 2607   0.518   3.479  13.188 -1.0226 -0.2855  0.4930
  167TMC2    O1 2608   4.701   3.448  13.017 -0.1587 -0.0010  0.0670
  167TMC2    O2 2609   0.518   3.358  13.208 -0.4239 -0.3051 -0.4216
  167TMC2    O5 2610   0.591   3.574  13.252 -0.0082  0.2077 -0.1535
  167TMC2    H5 2611   0.549   3.661  13.267  0.7733  1.2200 -3.8764
  168MPD2     C 2612   0.366   3.897  12.602 -0.4062 -0.1504 -0.0915
  168MPD2    C1 2613   0.253   3.834  12.646 -0.0174 -0.0265 -0.4499
  168MPD2    C2 2614   0.164   3.813  12.550  0.1809  0.0123 -0.5647
  168MPD2    C3 2615   0.186   3.829  12.411 -0.3393  0.2391  0.4945
  168MPD2    C4 2616   0.307   3.883  12.367 -0.7627  0.3804 -0.0021
  168MPD2    C5 2617   0.391   3.924  12.467  0.5514 -0.1448 -0.0079
  168MPD2     H 2618   0.075   3.757  12.575 -0.0706  0.4207 -0.5528
  168MPD2    H1 2619   0.326   3.884  12.261 -2.4240 -0.4712 -0.3052
  168MPD2    H2 2620   0.446   3.930  12.668 -0.3431 -1.3486  0.4239
  168MPD2    H3 2621   0.479   3.971  12.426  1.3889 -0.4289  1.4797
  168MPD2     N 2622   0.091   3.776  12.322 -0.1923  0.1146 -0.1249
  168MPD2    H5 2623   0.026   3.715  12.372 -0.4911  0.3386 -0.2361
  168MPD2    N1 2624   0.232   3.791  12.782 -0.9132  0.1028 -0.3584
  168MPD2    H7 2625   0.142   3.745  12.795 -0.0359 -1.5385 -0.0961
  169MPD1     C 2626   1.010   3.559   9.884  0.2199 -0.2713 -0.0348
  169MPD1    C1 2627   0.985   3.428   9.937  0.5801  0.0724 -0.5227
  169MPD1    C2 2628   1.097   3.349   9.965 -0.0640  0.1973  0.0934
  169MPD1    C3 2629   1.232   3.398   9.956 -0.2357  0.4739  0.3386
  169MPD1    C4 2630   1.247   3.539   9.937  0.1347  0.1330  0.2334
  169MPD1    C5 2631   1.140   3.612   9.894 -0.6987  0.6987  0.5345
  169MPD1     H 2632   1.074   3.244   9.982  1.6370 -0.4919 -1.8154
  169MPD1    H1 2633   1.345   3.586   9.936 -0.2172  0.8740  0.2532
  169MPD1    H2 2634   0.938   3.624   9.835  0.7486  0.7536  0.5287
  169MPD1    H3 2635   1.155   3.714   9.862 -2.8641  0.6830 -0.5303
  169MPD1     N 2636   1.335   3.304   9.969  0.4827 -0.1631  0.2093
  169MPD1    H5 2637   1.312   3.205   9.972 -2.7126  0.6410  3.1098
  169MPD1    N1 2638   0.865   3.362   9.915  0.2668 -0.0641 -0.8516
  169MPD1    H6 2639   0.841   3.295   9.988 -0.7195  2.9120  1.5545
  169MPD1    H7 2640   0.785   3.424   9.919  0.5888  0.3287 -0.4589
  170MPD1     C 2641   1.044   0.218  12.679 -0.2980 -0.2977 -0.0352
  170MPD1    C1 2642   0.916   0.174  12.658 -1.1855 -0.0970 -0.2872
  170MPD1    C2 2643   0.816   0.211  12.741  0.1644 -0.4992  0.7686
  170MPD1    C3 2644   0.844   0.309  12.836  0.0596 -0.3589 -0.2027
  170MPD1    C4 2645   0.967   0.361  12.847  0.2892  0.7182 -0.1186
  170MPD1    C5 2646   1.068   0.303  12.774 -0.5542 -0.4119 -0.1303
  170MPD1     H 2647   0.718   0.166  12.737  0.9239 -1.9992 -1.5798
  170MPD1    H1 2648   0.996   0.443  12.912  2.1709  1.3888 -1.7921
  170MPD1    H2 2649   1.121   0.180  12.613 -0.6973  2.4480 -2.0638
  170MPD1    H3 2650   1.167   0.347  12.787  0.8242 -3.7266  0.6358
  170MPD1     N 2651   0.730   0.354  12.909  0.2610 -0.0084  0.7645
  170MPD1    H5 2652   0.643   0.306  12.886 -0.9361  2.2335  0.6668
  170MPD1    N1 2653   0.898   0.081  12.559 -0.5725 -0.9057 -0.1966
  170MPD1    H6 2654   0.967   0.084  12.484 -1.1699 -2.8616 -0.8217
  170MPD1    H7 2655   0.812   0.081  12.505  0.9758  1.8384 -2.6631
  171MPD1     C 2656   3.807   1.686  15.068 -0.2883 -0.3898 -0.3897
  171MPD1    C1 2657   3.797   1.703  15.204  0.1980 -0.1187  0.1381
  171MPD1    C2 2658   3.864   1.619  15.290  0.1436 -0.0522 -0.1997
  171MPD1    C3 2659   3.943   1.518  15.235  0.0814  0.2021 -0.0041
  171MPD1    C4 2660   3.959   1.501  15.100  0.1372 -0.5726 -0.0261
  171MPD1    C5 2661   3.891   1.595  15.018  0.6517 -0.2298 -0.0780
  171MPD1     H 2662   3.835   1.614  15.395  0.4833  0.9524 -0.0575
  171MPD1    H1 2663   4.013   1.418  15.055 -1.4806 -1.3488 -0.5154
  171MPD1    H2 2664   3.752   1.750  15.000 -2.1305 -1.8878 -0.2695
  171MPD1    H3 2665   3.902   1.582  14.911 -0.8538  1.0975 -0.3821
  171MPD1     N 2666   4.003   1.421  15.320 -0.7575  0.1546 -0.3612
  171MPD1    H5 2667   4.043   1.338  15.277  1.3036  1.6299 -1.2918
  171MPD1    N1 2668   3.687   1.784  15.242  0.6182 -0.4659 -1.5158
  171MPD1    H6 2669   3.691   1.814  15.339  0.0683 -1.0828 -1.2989
  171MPD1    H7 2670   3.670   1.864  15.181 -1.9651  0.0947 -0.0264
  172MPD1     C 2671   3.272   0.206   0.061  0.2038  0.1463 -0.1137
  172MPD1    C1 2672   3.188   0.282   0.140 -0.6333  0.0298 -0.5239
  172MPD1    C2 2673   3.244   0.395   0.197  0.6084  0.6297 -0.2287
  172MPD1    C3 2674   3.370   0.437   0.161  0.6610 -0.4879 -0.0615
  172MPD1    C4 2675   3.450   0.368   0.076 -0.9988  0.9073  0.7546
  172MPD1    C5 2676   3.393   0.257   0.024 -0.1267 -0.0486  0.0702
  172MPD1     H 2677   3.179   0.443   0.269 -1.9584  1.5432 -3.1389
  172MPD1    H1 2678   3.534   0.418   0.028 -0.6259 -0.1451  0.3285
  172MPD1    H2 2679   3.226   0.117   0.021  1.7585 -0.1520 -1.2713
  172MPD1    H3 2680   3.443   0.208  17.690 -0.8526  0.2716 -0.5617
  172MPD1     N 2681   3.432   0.551   0.204 -0.8215 -0.0276  0.4297
  172MPD1    H5 2682   3.530   0.562   0.180 -1.0886 -0.5489 -0.8612
  172MPD1    N1 2683   3.052   0.245   0.164 -0.1820 -0.4018 -1.2266
  172MPD1    H6 2684   3.052   0.145   0.185 -0.9748 -0.0762  0.3519
  172MPD1    H7 2685   3.014   0.295   0.244 -0.5181  0.0419 -1.6606
  173MPD1     C 2686   0.142   0.480  14.513  0.1381 -0.0927 -0.2311
  173MPD1    C1 2687   0.078   0.370  14.554 -0.1924 -0.0774 -0.0719
  173MPD1    C2 2688   4.709   0.326  14.474  0.2350  0.1570 -0.2130
  173MPD1    C3 2689   4.682   0.390  14.349  0.1808 -0.3446 -0.2427
  173MPD1    C4 2690   0.034   0.486  14.310 -0.2190  0.0601  0.1793
  173MPD1    C5 2691   0.125   0.534  14.391 -0.0303 -0.5473  0.5436
  173MPD1     H 2692   4.649   0.248  14.519  0.9448 -1.0136 -1.2766
  173MPD1    H1 2693   0.014   0.542  14.219 -1.6908  1.0908  1.1455
  173MPD1    H2 2694   0.215   0.524  14.579  0.0708 -0.8975  0.3801
  173MPD1    H3 2695   0.182   0.623  14.369 -1.4382  0.1188 -0.3871
  173MPD1     N 2696   4.584   0.344  14.256 -0.7287 -0.0586  0.0894
  173MPD1    H5 2697   4.575   0.401  14.173  0.1047  0.5035  0.3839
  173MPD1    N1 2698   0.080   0.322  14.684 -0.3655 -0.3866  0.0427
  173MPD1    H6 2699   0.176   0.332  14.719 -0.1700  0.5614 -0.7527
  173MPD1    H7 2700   0.045   0.228  14.697  0.7596 -0.8630 -0.3462
  174MPD1     C 2701   4.211   4.214  14.414  0.0824 -0.4696  0.8022
  174MPD1    C1 2702   4.109   4.273  14.339 -0.7414  0.0099 -0.5300
  174MPD1    C2 2703   4.134   4.393  14.271  0.1919 -0.2645 -0.0351
  174MPD1    C3 2704   4.257   4.460  14.274  0.3004  0.2483  0.2536
  174MPD1    C4 2705   4.356   4.395  14.350 -0.2682 -0.2811  0.3839
  174MPD1    C5 2706   4.338   4.272  14.414  0.4556 -0.0976 -0.1834
  174MPD1     H 2707   4.050   4.434  14.216  0.9660 -1.3353 -1.9848
  174MPD1    H1 2708   4.453   4.443  14.361 -1.0200  1.2961  0.1552
  174MPD1    H2 2709   4.192   4.119  14.464 -1.9063 -1.3746 -1.6757
  174MPD1    H3 2710   4.420   4.219  14.461  1.8162  2.3831  0.2404
  174MPD1     N 2711   4.284   4.584  14.211 -0.2813 -0.1252 -0.2816
  174MPD1    H5 2712   4.378   4.621  14.209 -0.4765  0.4746  1.9972
  174MPD1    N1 2713   3.982   4.226  14.361 -0.6306  0.4064  0.2712
  174MPD1    H6 2714   3.978   4.125  14.373  2.0984  0.2463 -0.1270
  174MPD1    H7 2715   3.918   4.253  14.286 -2.4195 -1.7424  1.0514
  175MPD1     C 2716   2.754   1.592  15.464  0.4851  0.1180 -0.0080
  175MPD1    C1 2717   2.884   1.584  15.503  0.5938  0.2193  0.5591
  175MPD1    C2 2718   2.910   1.570  15.636  0.2824 -0.0952  0.1529
  175MPD1    C3 2719   2.810   1.556  15.734  0.6159  0.2505 -1.1563
  175MPD1    C4 2720   2.678   1.560  15.691  0.1374  0.6253 -0.2583
  175MPD1    C5 2721   2.653   1.577  15.554 -0.1426 -0.3250  0.3019
  175MPD1     H 2722   3.015   1.566  15.665  0.5057  1.6976 -0.4330
  175MPD1    H1 2723   2.594   1.551  15.759 -0.4857  1.1629 -0.9644
  175MPD1    H2 2724   2.723   1.599  15.361 -1.6280  3.5916  0.8724
  175MPD1    H3 2725   2.557   1.579  15.503  0.4220 -0.4534 -0.7732
  175MPD1     N 2726   2.837   1.554  15.871  0.2853  0.3913  0.0847
  175MPD1    H5 2727   2.752   1.560  15.926  0.6008  0.0050  0.6137
  175MPD1    N1 2728   2.982   1.625  15.411  0.8310  0.2494  0.0692
  175MPD1    H6 2729   3.070   1.583  15.441  1.4677  1.4389 -0.1094
  175MPD1    H7 2730   2.963   1.589  15.318  0.0068  1.5262 -0.2678
  176MPD1     C 2731   0.143   3.540  16.749  0.8649  0.3298 -0.1472
  176MPD1    C1 2732   0.093   3.551  16.877 -0.0349 -0.4822 -0.2444
  176MPD1    C2 2733   0.075   3.681  16.918  0.4825  0.5406 -0.1393
  176MPD1    C3 2734   0.117   3.788  16.844  0.4899 -0.2365 -0.0436
  176MPD1    C4 2735   0.178   3.772  16.721 -0.5234 -0.0594 -0.1545
  176MPD1    C5 2736   0.183   3.646  16.674 -0.3404  0.0713  0.4737
  176MPD1     H 2737   0.035   3.698  17.017  1.0355 -0.9318  0.3326
  176MPD1    H1 2738   0.211   3.853  16.658  0.5514 -0.9326 -0.7016
  176MPD1    H2 2739   0.140   3.443  16.700  3.9488  0.5923 -0.8901
  176MPD1    H3 2740   0.231   3.636  16.577 -1.6405  3.7735 -0.5492
  176MPD1     N 2741   0.089   3.921  16.899 -0.0676  0.7000  0.3701
  176MPD1    H5 2742   0.025   3.920  16.978 -1.9593 -2.8193 -1.2103
  176MPD1    N1 2743   0.036   3.451  16.943 -0.3090  0.1049 -0.8036
  176MPD1    H6 2744   0.076   3.359  16.924  0.5149  0.3153 -0.0849
  176MPD1    H7 2745   0.011   3.461  17.042  1.8842  2.7487 -0.5326
  177MPD1     C 2746   3.081   3.698   9.533 -0.0673  0.3087  0.7360
  177MPD1    C1 2747   2.954   3.649   9.541  0.6786  0.0032  0.8895
  177MPD1    C2 2748   2.856   3.718   9.469 -0.2441  0.6287 -0.6554
  177MPD1    C3 2749   2.879   3.847   9.413 -0.0834 -0.0921 -0.0063
  177MPD1    C4 2750   3.007   3.900   9.418 -0.2256  0.5819  0.1805
  177MPD1    C5 2751   3.105   3.822   9.476  0.6253 -0.5304 -0.2277
  177MPD1     H 2752   2.758   3.674   9.451  0.0816  0.0969 -1.1093
  177MPD1    H1 2753   3.021   3.999   9.376  0.4641  0.1557 -0.5975
  177MPD1    H2 2754   3.162   3.634   9.567  1.3376  1.9595  0.5018
  177MPD1    H3 2755   3.206   3.861   9.484  0.5529 -0.5378  0.6627
  177MPD1     N 2756   2.766   3.906   9.362  0.5960 -0.4340  0.8020
  177MPD1    H5 2757   2.677   3.860   9.375  0.0574  0.5269  0.5152
  177MPD1    N1 2758   2.926   3.524   9.594 -0.6603 -0.1613  0.0424
  177MPD1    H6 2759   2.997   3.494   9.660 -1.4837 -1.4644  0.3367
  177MPD1    H7 2760   2.834   3.494   9.626 -0.0633 -2.4215 -0.3945
  178MPD1     C 2761   0.992   3.930   0.057  0.4241 -0.0310  0.0416
  178MPD1    C1 2762   0.880   3.988   0.110 -0.3385 -0.0413  0.1103
  178MPD1    C2 2763   0.840   4.115   0.071  0.6947 -0.0594 -0.1871
  178MPD1    C3 2764   0.900   4.182  17.715 -0.2035 -0.4094 -0.4379
  178MPD1    C4 2765   1.014   4.122  17.653  0.2441  0.2742 -0.1443
  178MPD1    C5 2766   1.061   3.999  17.706 -0.0531 -0.5919  0.0661
  178MPD1     H 2767   0.760   4.169   0.119 -0.6476 -0.7156 -1.7101
  178MPD1    H1 2768   1.072   4.177  17.581 -1.9012 -0.4486 -2.4168
  178MPD1    H2 2769   1.027   3.832   0.086  0.3561 -0.7865 -2.4419
  178MPD1    H3 2770   1.143   3.948  17.656  0.2122 -1.7068  1.6482
  178MPD1     N 2771   0.869   4.307  17.661  0.4345  0.4422 -0.2923
  178MPD1    H5 2772   0.932   4.347  17.592  2.1708 -1.8269 -0.0033
  178MPD1    N1 2773   0.844   3.944   0.240 -0.1108 -0.1850  0.3345
  178MPD1    H6 2774   0.755   3.973   0.280 -0.4707  0.6247 -1.0646
  178MPD1    H7 2775   0.871   3.847   0.250  1.3909 -0.1031 -2.7231
  179MPD1     C 2776   4.541   2.760  16.207 -0.2125  1.1178 -0.4963
  179MPD1    C1 2777   4.525   2.695  16.086  1.0473 -0.1809  0.4500
  179MPD1    C2 2778   4.612   2.590  16.056 -0.3768  0.1411  0.2418
  179MPD1    C3 2779   4.711   2.554  16.140 -0.3947 -0.0313  0.0112
  179MPD1    C4 2780   4.716   2.607  16.269  0.3926  0.4274 -0.5479
  179MPD1    C5 2781   4.631   2.706  16.298 -0.1502  0.7043 -0.0718
  179MPD1     H 2782   4.623   2.547  15.957  0.4547 -1.3816  0.9995
  179MPD1    H1 2783   0.046   2.569  16.345 -1.8094 -1.1727  0.6072
  179MPD1    H2 2784   4.478   2.848  16.217 -1.0309  0.3694  0.8798
  179MPD1    H3 2785   4.632   2.744  16.400  1.9356 -0.2401  0.2601
  179MPD1     N 2786   0.068   2.450  16.109  0.4367 -0.3032 -0.1872
  179MPD1    H5 2787   0.132   2.428  16.185  0.0573 -1.0634 -0.0946
  179MPD1    N1 2788   4.453   2.758  15.984 -0.1175  0.0951 -0.6560
  179MPD1    H6 2789   4.377   2.815  16.019 -0.7962 -2.1139  1.4900
  179MPD1    H7 2790   4.408   2.685  15.929 -1.0320  0.0754  0.1261
  180MPD1     C 2791   4.685   4.375  13.992  0.5038  0.8772  0.5309
  180MPD1    C1 2792   4.656   4.281  13.896  0.1790  0.6698  1.0033
  180MPD1    C2 2793   4.667   4.144  13.926  0.1816  0.1531  0.1909
  180MPD1    C3 2794   4.707   4.103  14.053  0.8357  0.0394 -0.4118
  180MPD1    C4 2795   4.716   4.199  14.153  0.3094  0.8548  0.2674
  180MPD1    C5 2796   4.711   4.328  14.116 -0.6598 -0.3941  0.5796
  180MPD1     H 2797   4.644   4.083  13.840 -0.8875 -0.0218  0.6037
  180MPD1    H1 2798   0.002   4.169  14.255 -0.2169  0.8418  0.3863
  180MPD1    H2 2799   4.668   4.481  13.976 -0.8169  0.6487  0.4479
  180MPD1    H3 2800   4.736   4.395  14.197 -0.2115  1.2067 -0.9051
  180MPD1     N 2801   4.714   3.964  14.075 -0.8765 -0.6458  0.1176
  180MPD1    H5 2802   4.675   3.907  14.000  0.3024 -1.3708  0.0600
  180MPD1    N1 2803   4.616   4.324  13.766  0.1058  0.3756  0.5422
  180MPD1    H6 2804   4.646   4.420  13.750 -0.0850  0.4480  0.6215
  180MPD1    H7 2805   4.657   4.265  13.694  0.5412  1.0854  0.2089
  181MPD1     C 2806   1.712   1.191  10.742  0.0333 -0.4714 -0.7620
  181MPD1    C1 2807   1.815   1.097  10.704  0.5615  0.8135 -0.0795
  181MPD1    C2 2808   1.911   1.134  10.618  0.0164 -0.3182 -0.0308
  181MPD1    C3 2809   1.895   1.252  10.545 -0.1715 -0.0659  0.3208
  181MPD1    C4 2810   1.792   1.342  10.578  0.6478  0.0809 -0.4612
  181MPD1    C5 2811   1.702   1.308  10.681  0.7516 -0.5257 -0.2913
  181MPD1     H 2812   2.000   1.075  10.603  0.8877  0.0748  3.4493
  181MPD1    H1 2813   1.771   1.433  10.523  3.2367  0.5019 -0.7156
  181MPD1    H2 2814   1.643   1.165  10.822  1.1481 -1.8596 -0.2580
  181MPD1    H3 2815   1.629   1.384  10.706 -0.4495 -1.5055 -0.7541
  181MPD1     N 2816   1.981   1.295  10.444  0.4872  0.3591 -0.2009
  181MPD1    H5 2817   1.985   1.394  10.421 -2.0774 -0.4669 -4.2285
  181MPD1    N1 2818   1.843   0.987  10.785  0.2877 -0.2726  0.2398
  181MPD1    H6 2819   1.757   0.945  10.820 -0.3343 -0.3872 -1.4554
  181MPD1    H7 2820   1.898   0.916  10.738 -1.9278 -1.0552 -1.1929
  182MPD1     C 2821   2.183   0.344   1.240  0.3735 -0.1318 -0.3345
  182MPD1    C1 2822   2.086   0.301   1.327 -0.0845  0.1203  0.3541
  182MPD1    C2 2823   1.967   0.258   1.280  0.4341  0.1483 -0.8724
  182MPD1    C3 2824   1.944   0.240   1.149  0.1307  0.3371 -0.0004
  182MPD1    C4 2825   2.051   0.263   1.062 -0.3890  1.2667  0.2259
  182MPD1    C5 2826   2.166   0.321   1.110  0.3619 -0.2569 -0.7284
  182MPD1     H 2827   1.885   0.244   1.350  0.0098  1.4956 -1.0952
  182MPD1    H1 2828   2.034   0.241   0.957 -1.7861  0.2730  0.6582
  182MPD1    H2 2829   2.275   0.388   1.278  0.1892  1.5552 -1.8714
  182MPD1    H3 2830   2.239   0.341   1.032  1.3181  0.7124  0.4310
  182MPD1     N 2831   1.822   0.197   1.087  0.6277  0.8008  0.6164
  182MPD1    H5 2832   1.827   0.193   0.986 -0.4909 -0.7165  0.6237
  182MPD1    N1 2833   2.096   0.353   1.457 -0.0897  0.0465  0.0512
  182MPD1    H6 2834   2.033   0.305   1.522  0.4134 -0.1878  0.3664
  182MPD1    H7 2835   2.189   0.352   1.499 -0.1209  2.1794  0.1778
  183MPD1     C 2836   4.245   0.672   9.855 -0.0602 -1.3503  0.7038
  183MPD1    C1 2837   4.244   0.777   9.774  0.9511  0.6701 -0.1334
  183MPD1    C2 2838   4.131   0.847   9.759 -0.3347 -0.6225  0.4087
  183MPD1    C3 2839   4.010   0.797   9.811 -0.1755 -0.0103  0.1027
  183MPD1    C4 2840   4.007   0.680   9.892  0.3749 -0.0398 -0.1050
  183MPD1    C5 2841   4.131   0.626   9.916  0.1315 -0.3380  0.4806
  183MPD1     H 2842   4.126   0.928   9.688  0.4195 -1.9413 -1.1630
  183MPD1    H1 2843   3.920   0.642   9.944 -0.4370 -2.4695 -3.2000
  183MPD1    H2 2844   4.342   0.627   9.875  0.6703  0.6631  1.6483
  183MPD1    H3 2845   4.131   0.547   9.990 -0.8441 -0.2741  0.5566
  183MPD1     N 2846   3.895   0.874   9.784 -0.3412  0.2699  0.0949
  183MPD1    H5 2847   3.915   0.957   9.730  1.1953  0.6459  1.2374
  183MPD1    N1 2848   4.364   0.829   9.719  0.1912 -0.2643 -0.0848
  183MPD1    H6 2849   4.426   0.750   9.700  0.2122 -0.1438 -0.5234
  183MPD1    H7 2850   4.346   0.881   9.633 -2.7540 -0.4730  0.4084
  184MPD1     C 2851   1.830   4.472  10.240  0.5627  0.1843 -0.7039
  184MPD1    C1 2852   1.856   4.558  10.137 -0.1044 -0.0754  0.5721
  184MPD1    C2 2853   1.949   4.521  10.044 -0.1190  0.1350 -0.6772
  184MPD1    C3 2854   1.987   4.383  10.028 -0.6117  0.4333 -0.3480
  184MPD1    C4 2855   1.947   4.296  10.126 -0.4912  0.5492  0.1186
  184MPD1    C5 2856   1.872   4.343  10.233 -1.0409 -0.2999  0.4601
  184MPD1     H 2857   1.982   4.599   9.976  0.9843 -1.8270 -2.3980
  184MPD1    H1 2858   1.983   4.194  10.129  1.0895  1.0479 -1.8655
  184MPD1    H2 2859   1.775   4.497  10.330  1.7145 -0.4257  0.1658
  184MPD1    H3 2860   1.851   4.281  10.319 -0.8952 -0.8986  0.0648
  184MPD1     N 2861   2.062   4.351   9.917  0.3215  0.5660 -0.4725
  184MPD1    H5 2862   2.079   4.423   9.847 -0.3712  1.6190  0.4621
  184MPD1    N1 2863   1.813   4.691  10.148 -0.1993 -0.1296 -0.2393
  184MPD1    H6 2864   1.803   4.726  10.053  0.3117  1.4290  0.2717
  184MPD1    H7 2865   1.719   4.702  10.185 -0.3726 -0.1522 -0.6658
  185MPD1     C 2866   2.369   0.203   9.429 -0.0200 -0.3528 -0.0674
  185MPD1    C1 2867   2.462   0.108   9.387  0.3684  0.2246 -0.4859
  185MPD1    C2 2868   2.452   4.714   9.441  0.7605 -0.7489 -0.1708
  185MPD1    C3 2869   2.357   4.677   9.535 -0.1447  0.5519 -0.1616
  185MPD1    C4 2870   2.274   0.042   9.584 -0.8107  0.9118  0.0178
  185MPD1    C5 2871   2.281   0.168   9.526  0.5673  0.0917  0.0111
  185MPD1     H 2872   2.531   4.650   9.404  1.5332  0.7319 -1.1201
  185MPD1    H1 2873   2.194   0.015   9.652 -0.2550  2.0154  1.1159
  185MPD1    H2 2874   2.367   0.297   9.374 -1.9980 -0.7852 -0.7426
  185MPD1    H3 2875   2.205   0.236   9.560 -0.2660 -0.6012 -0.4649
  185MPD1     N 2876   2.351   4.555   9.602  0.5950 -0.2775 -0.5256
  185MPD1    H5 2877   2.297   4.551   9.688  0.4459  0.8512 -0.5617
  185MPD1    N1 2878   2.541   0.145   9.280  0.0037 -0.2279  0.2470
  185MPD1    H6 2879   2.620   0.081   9.269 -1.1253 -1.0876 -2.6738
  185MPD1    H7 2880   2.567   0.244   9.278  0.4217 -0.3182  0.9225
  186MPD1     C 2881   0.305   2.934  15.424 -0.0559 -0.2278 -0.6637
  186MPD1    C1 2882   0.229   2.950  15.539 -0.4157 -0.1653  0.4707
  186MPD1    C2 2883   0.292   2.999  15.652  0.1275 -0.1105 -0.1414
  186MPD1    C3 2884   0.427   3.023  15.661 -0.2350  0.9370  0.6697
  186MPD1    C4 2885   0.500   3.003  15.547 -0.3516  0.9610 -0.0380
  186MPD1    C5 2886   0.445   2.944  15.431 -0.2355  0.1229 -0.2096
  186MPD1     H 2887   0.227   3.029  15.734  1.8233  3.8768 -0.2583
  186MPD1    H1 2888   0.608   3.015  15.538 -0.2054 -1.2538 -1.0685
  186MPD1    H2 2889   0.265   2.898  15.330 -1.2271 -0.5069 -0.0588
  186MPD1    H3 2890   0.509   2.928  15.345 -2.1856  0.5682 -1.7504
  186MPD1     N 2891   0.490   3.079  15.773 -0.1663  0.1854  0.4107
  186MPD1    H5 2892   0.591   3.087  15.774 -0.2439  1.0968  1.1442
  186MPD1    N1 2893   0.087   2.953  15.529  0.1584 -0.1452 -0.3327
  186MPD1    H6 2894   0.045   2.894  15.458  0.4784  3.0269 -3.1657
  186MPD1    H7 2895   0.028   2.941  15.611 -0.5051  0.8475 -0.6640
  187MPD1     C 2896   0.533   0.168  17.074 -0.1515  0.3707 -0.4934
  187MPD1    C1 2897   0.437   0.102  17.001  0.0625 -0.5747 -0.8338
  187MPD1    C2 2898   0.359   0.184  16.924  0.2140  0.2392  0.1663
  187MPD1    C3 2899   0.374   0.322  16.918 -0.3674  0.6171 -0.3859
  187MPD1    C4 2900   0.463   0.387  16.997 -0.1551 -0.3675 -1.1528
  187MPD1    C5 2901   0.537   0.306  17.079  0.1630 -0.9575 -0.2218
  187MPD1     H 2902   0.293   0.129  16.857  0.4399  0.4603 -0.2378
  187MPD1    H1 2903   0.467   0.495  17.004 -0.9459 -0.3724 -0.5638
  187MPD1    H2 2904   0.605   0.111  17.132 -0.8684  0.6520  0.6744
  187MPD1    H3 2905   0.606   0.351  17.151 -0.1487 -0.2210 -0.3836
  187MPD1     N 2906   0.286   0.406  16.846  0.4001  0.5412  0.1766
  187MPD1    H5 2907   0.304   0.506  16.855  0.8236  0.1526  4.0337
  187MPD1    N1 2908   0.431   4.698  17.003 -0.2251 -0.0212  0.4512
  187MPD1    H6 2909   0.480   4.653  17.080 -3.9267 -0.0472  2.7917
  187MPD1    H7 2910   0.334   4.667  16.996 -0.7713  1.3590  2.1481
  188MPD1     C 2911   4.463   0.616  10.369 -0.9958  0.3497 -0.5642
  188MPD1    C1 2912   4.450   0.629  10.239 -0.2311  0.1105 -0.0786
  188MPD1    C2 2913   4.449   0.512  10.158  0.4755  0.0586 -0.8854
  188MPD1    C3 2914   4.428   0.385  10.219  0.6799  0.2606 -0.7037
  188MPD1    C4 2915   4.415   0.384  10.361  0.3229 -1.1527 -0.3455
  188MPD1    C5 2916   4.427   0.502  10.438  0.0404 -0.1388 -0.2444
  188MPD1     H 2917   4.459   0.523  10.050 -1.2686 -0.6503 -1.1181
  188MPD1    H1 2918   4.386   0.299  10.421 -0.2542 -0.2424  0.6587
  188MPD1    H2 2919   4.465   0.706  10.431  0.3936  2.0543 -3.0890
  188MPD1    H3 2920   4.428   0.500  10.546  0.7013  1.9050 -0.2065
  188MPD1     N 2921   4.420   0.264  10.151 -1.2061 -0.2383  0.5797
  188MPD1    H5 2922   4.408   0.183  10.212  2.3793  0.2161  1.8879
  188MPD1    N1 2923   4.491   0.753  10.184 -0.2909  0.3038 -0.3741
  188MPD1    H6 2924   4.592   0.754  10.195 -0.0682 -0.4442 -2.1937
  188MPD1    H7 2925   4.474   0.753  10.083  1.1978  1.9725 -0.6111
  189MPD1     C 2926   1.331   0.742   0.612  0.7125  0.2952  0.4225
  189MPD1    C1 2927   1.220   0.707   0.541  0.4079  0.5509 -0.1109
  189MPD1    C2 2928   1.160   0.809   0.470 -0.0038  0.9156  0.3824
  189MPD1    C3 2929   1.203   0.939   0.468  1.0606  0.1724  0.4930
  189MPD1    C4 2930   1.327   0.968   0.534 -0.9173  0.1104  0.5541
  189MPD1    C5 2931   1.387   0.866   0.602 -0.8467 -0.2550 -0.0215
  189MPD1     H 2932   1.067   0.786   0.419 -0.6114  1.7107  1.1289
  189MPD1    H1 2933   1.378   1.063   0.529  1.1425 -0.8667  3.0060
  189MPD1    H2 2934   1.387   0.670   0.671 -1.2787  0.0967  2.0733
  189MPD1    H3 2935   1.480   0.887   0.653 -1.9257 -2.2192  2.7837
  189MPD1     N 2936   1.117   1.033   0.406  0.1630 -0.1484  0.6751
  189MPD1    H5 2937   1.024   1.002   0.381 -0.6006  1.9458  0.8813
  189MPD1    N1 2938   1.151   0.588   0.569  0.7319  0.3952 -0.5356
  189MPD1    H6 2939   1.208   0.512   0.604  1.5632  1.9542  1.5240
  189MPD1    H7 2940   1.090   0.556   0.494 -1.1117  0.9016  0.7336
  190MPD1     C 2941   4.570   4.280  15.210 -1.1051  0.4258 -0.8443
  190MPD1    C1 2942   4.604   4.212  15.330  0.5326 -0.8078  0.1623
  190MPD1    C2 2943   4.736   4.173  15.342  0.2865 -0.1384 -0.0356
  190MPD1    C3 2944   0.096   4.210  15.255  0.8651 -0.3562 -0.4906
  190MPD1    C4 2945   0.056   4.286  15.146 -0.3907  0.2147  0.5370
  190MPD1    C5 2946   4.666   4.312  15.120  0.1404  0.1509  0.7915
  190MPD1     H 2947   0.029   4.131  15.437  0.0816  0.7275  0.4156
  190MPD1    H1 2948   0.130   4.318  15.073 -2.1169  2.1893 -0.3339
  190MPD1    H2 2949   4.467   4.306  15.189 -1.6800 -1.6323 -0.5905
  190MPD1    H3 2950   4.649   4.356  15.022  0.9999  0.7523  0.9138
  190MPD1     N 2951   0.220   4.176  15.287  0.4352 -0.7642  0.4558
  190MPD1    H5 2952   0.246   4.141  15.379 -1.6879 -1.8676  0.6240
  190MPD1    N1 2953   4.505   4.142  15.406  0.5302  0.2096 -0.3601
  190MPD1    H6 2954   4.422   4.198  15.419  0.7280  0.4670 -0.2069
  190MPD1    H7 2955   4.539   4.119  15.499 -2.0136  2.7996  1.1917
  191MPD1     C 2956   4.614   2.323  12.230 -0.0581 -0.0410  0.4678
  191MPD1    C1 2957   4.615   2.188  12.249 -0.6831 -0.3706 -0.3786
  191MPD1    C2 2958   4.668   2.111  12.152  0.1342  0.6731  0.3289
  191MPD1    C3 2959   4.726   2.169  12.034 -0.5297 -0.2014  0.2689
  191MPD1    C4 2960   4.724   2.308  12.023  0.3473 -0.6758 -0.0471
  191MPD1    C5 2961   4.667   2.383  12.119 -0.1327  1.5209 -0.3534
  191MPD1     H 2962   4.658   2.003  12.155  0.6641  0.6019 -0.3557
  191MPD1    H1 2963   0.031   2.360  11.939 -3.1825  1.4055 -0.6037
  191MPD1    H2 2964   4.564   2.393  12.297 -1.7918 -0.2311 -0.6347
  191MPD1    H3 2965   4.682   2.490  12.115  1.8764  1.2507 -0.3611
  191MPD1     N 2966   0.051   2.090  11.935 -0.5454 -0.2888 -0.1262
  191MPD1    H5 2967   0.063   1.992  11.960 -1.8191 -1.7110 -5.1061
  191MPD1    N1 2968   4.529   2.136  12.347 -0.0005  0.3366  0.1472
  191MPD1    H6 2969   4.554   2.044  12.383  1.3617  0.9831  0.8662
  191MPD1    H7 2970   4.523   2.198  12.427 -2.6915 -1.8335  1.6263
  192MPD1     C 2971   0.722   1.843  11.152 -0.2918  1.2945 -0.3073
  192MPD1    C1 2972   0.672   1.967  11.191 -0.2455  0.4684 -0.4659
  192MPD1    C2 2973   0.568   1.974  11.283 -0.3365 -0.4168  0.1677
  192MPD1    C3 2974   0.513   1.858  11.331  0.0532  0.8100 -0.4581
  192MPD1    C4 2975   0.565   1.734  11.289 -0.1468 -0.4478  0.0580
  192MPD1    C5 2976   0.669   1.728  11.200  0.5116  0.3440  0.1828
  192MPD1     H 2977   0.532   2.073  11.308 -0.9781 -1.1613  2.2037
  192MPD1    H1 2978   0.528   1.645  11.339  0.2166 -0.6850 -0.0921
  192MPD1    H2 2979   0.799   1.832  11.076 -0.5788 -1.6855 -0.1678
  192MPD1    H3 2980   0.701   1.628  11.173 -1.5917 -0.5927  1.0974
  192MPD1     N 2981   0.405   1.862  11.420 -1.0885  0.2567 -0.7102
  192MPD1    H5 2982   0.370   1.772  11.449  1.9309 -0.2455  1.2946
  192MPD1    N1 2983   0.736   2.089  11.152 -0.6220  0.4992  0.2524
  192MPD1    H6 2984   0.675   2.170  11.160 -2.0514 -0.7495  1.7732
  192MPD1    H7 2985   0.783   2.080  11.062  0.1923  2.5868  0.4512
  193MPD1     C 2986   3.636   1.164  16.433 -0.0558  0.2847  0.6909
  193MPD1    C1 2987   3.736   1.122  16.517 -0.4531  0.3302  0.5632
  193MPD1    C2 2988   3.852   1.189  16.513 -0.4636 -0.0428  0.5738
  193MPD1    C3 2989   3.862   1.311  16.439  0.1491  0.3101 -0.6188
  193MPD1    C4 2990   3.748   1.355  16.364 -0.8992 -0.1565 -0.3956
  193MPD1    C5 2991   3.637   1.282  16.361  0.6129 -0.4222  0.3488
  193MPD1     H 2992   3.937   1.157  16.572  0.0046  1.8501  0.9119
  193MPD1    H1 2993   3.750   1.446  16.306  0.8991 -2.1481 -3.4593
  193MPD1    H2 2994   3.550   1.098  16.424  1.4761 -1.9416  2.1447
  193MPD1    H3 2995   3.555   1.305  16.293  1.8430  0.4509 -0.8369
  193MPD1     N 2996   3.982   1.392  16.439 -0.1627  0.2245 -0.4215
  193MPD1    H5 2997   3.985   1.470  16.375 -1.5629 -0.5044 -1.3571
  193MPD1    N1 2998   3.720   1.003  16.595  0.5593  0.1281 -0.3527
  193MPD1    H6 2999   3.629   0.959  16.582 -0.2732  2.0876 -1.1308
  193MPD1    H7 3000   3.730   1.022  16.694 -1.1875 -2.6459  0.3680
  194MPD1     C 3001   0.846   2.345  17.468 -0.5844  0.5014 -0.0128
  194MPD1    C1 3002   0.890   2.290  17.585  0.7128 -0.4100  0.0158
  194MPD1    C2 3003   1.015   2.302  17.631 -0.4815 -0.1361  0.7061
  194MPD1    C3 3004   1.113   2.346  17.546 -0.2168  0.3756  0.1266
  194MPD1    C4 3005   1.075   2.395  17.421  0.0486 -0.8486  0.0302
  194MPD1    C5 3006   0.943   2.393  17.390  0.3281 -0.2150  0.4944
  194MPD1     H 3007   1.043   2.257  17.725  0.9609  2.2768  1.4337
  194MPD1    H1 3008   1.143   2.452  17.358 -4.7743  2.1547 -2.4391
  194MPD1    H2 3009   0.743   2.333  17.437 -0.0267 -2.1742 -0.8623
  194MPD1    H3 3010   0.914   2.443  17.298 -0.4090 -0.9807  0.3167
  194MPD1     N 3011   1.250   2.337  17.570 -0.0265  1.2705  1.0172
  194MPD1    H5 3012   1.308   2.365  17.491  0.2598 -1.7626  0.1523
  194MPD1    N1 3013   0.796   2.240  17.672  0.3030  1.2601  0.7715
  194MPD1    H6 3014   0.719   2.187  17.633 -0.8446  2.5704  1.2663
  194MPD1    H7 3015   0.847   2.181  17.737  0.3190  0.0328 -0.3586
  195MPD1     C 3016   4.343   0.524   0.193 -0.9674 -0.1002  0.8874
  195MPD1    C1 3017   4.266   0.471   0.294  0.3744  0.0311 -0.5937
  195MPD1    C2 3018   4.220   0.347   0.276 -0.4577 -0.2158  0.4215
  195MPD1    C3 3019   4.225   0.279   0.152 -0.6521 -0.2154 -0.1823
  195MPD1    C4 3020   4.291   0.341   0.052  0.8253 -0.4758  0.5229
  195MPD1    C5 3021   4.353   0.460   0.076  0.2207  0.6578  0.0692
  195MPD1     H 3022   4.189   0.304   0.371 -0.4802 -2.5023 -0.6151
  195MPD1    H1 3023   4.312   0.291  17.707  0.1913 -0.5921  0.4433
  195MPD1    H2 3024   4.400   0.616   0.199 -0.4189 -0.4542  1.0746
  195MPD1    H3 3025   4.424   0.504   0.007  0.8159  0.9806  0.8706
  195MPD1     N 3026   4.182   0.144   0.133 -0.3823 -0.1261 -0.2760
  195MPD1    H5 3027   4.205   0.103   0.042  1.2368  0.7654 -0.2686
  195MPD1    N1 3028   4.279   0.533   0.418 -0.1572  0.0695 -0.1431
  195MPD1    H6 3029   4.296   0.633   0.421 -0.9565  0.1847  0.5235
  195MPD1    H7 3030   4.195   0.532   0.475 -1.1508  0.1488 -1.6121
  196MPD1     C 3031   3.091   3.787  17.544 -0.2004  0.7698  0.0540
  196MPD1    C1 3032   3.187   3.790  17.653  1.0310  0.2120  0.3995
  196MPD1    C2 3033   3.208   3.908  17.720  0.2578 -0.3286 -0.2764
  196MPD1    C3 3034   3.110   4.004  17.716 -0.1623  0.2057 -0.2273
  196MPD1    C4 3035   3.023   4.005  17.610 -0.0018 -0.7501 -0.1281
  196MPD1    C5 3036   3.024   3.902  17.517 -1.0468 -0.3784 -0.7944
  196MPD1     H 3037   3.276   3.915   0.056  1.6752 -3.4149 -1.1347
  196MPD1    H1 3038   2.948   4.081  17.592 -1.0651 -1.8595 -0.3442
  196MPD1    H2 3039   3.065   3.698  17.488 -0.5600  0.4058  0.8014
  196MPD1    H3 3040   2.961   3.914  17.430  0.5257  0.0434 -1.8859
  196MPD1     N 3041   3.100   4.112   0.056 -0.0627 -0.2411 -0.4742
  196MPD1    H5 3042   3.018   4.171   0.049  1.8951  2.5134 -0.2360
  196MPD1    N1 3043   3.279   3.684  17.672  0.0190 -0.1761 -0.0842
  196MPD1    H6 3044   3.253   3.598  17.626 -1.3382  0.1759  0.0143
  196MPD1    H7 3045   3.288   3.657   0.022 -0.7232  2.8903  0.8347
  197MPD1     C 3046   2.651   1.382  17.311 -0.6725 -0.5098  0.3267
  197MPD1    C1 3047   2.636   1.413  17.176 -0.1737  0.4426 -0.4683
  197MPD1    C2 3048   2.728   1.502  17.130  0.0845 -0.2024  0.1750
  197MPD1    C3 3049   2.832   1.565  17.205  0.2012 -0.1378 -0.6548
  197MPD1    C4 3050   2.824   1.554  17.340  0.6093  0.2548  1.2259
  197MPD1    C5 3051   2.739   1.455  17.389 -0.5843  0.1926  0.5597
  197MPD1     H 3052   2.719   1.538  17.028 -0.0254  2.8790  1.2687
  197MPD1    H1 3053   2.907   1.586  17.402  0.5434  0.0104  1.4398
  197MPD1    H2 3054   2.604   1.296  17.358 -0.5575 -1.8035 -1.9124
  197MPD1    H3 3055   2.748   1.431  17.494 -0.6639 -2.2623  0.0160
  197MPD1     N 3056   2.934   1.652  17.154 -0.2247  0.0669  0.0989
  197MPD1    H5 3057   3.009   1.678  17.218 -2.0362  2.0371  1.3826
  197MPD1    N1 3058   2.559   1.334  17.092  0.1591 -0.7042 -0.0430
  197MPD1    H6 3059   2.486   1.292  17.150  1.6496 -1.1002  1.5377
  197MPD1    H7 3060   2.611   1.263  17.043  1.2642  0.7180 -0.9369
  198MPD1     C 3061   4.705   1.399  15.270  0.2857 -0.1327  0.0909
  198MPD1    C1 3062   4.695   1.318  15.161  0.2213  0.7228  0.1738
  198MPD1    C2 3063   4.721   1.180  15.180  0.0778 -0.4892 -0.0604
  198MPD1    C3 3064   0.047   1.135  15.296 -0.0893 -0.2371  0.8564
  198MPD1    C4 3065   0.086   1.227  15.394  0.5802 -0.2753  0.2411
  198MPD1    C5 3066   0.036   1.356  15.384  0.3336 -0.1676  1.5156
  198MPD1     H 3067   4.703   1.109  15.100  0.0676 -1.4238  0.7597
  198MPD1    H1 3068   0.137   1.211  15.488 -0.4566 -1.5122  0.5887
  198MPD1    H2 3069   4.683   1.505  15.263  1.8660  0.2770  1.2878
  198MPD1    H3 3070   0.065   1.431  15.458 -0.0547  0.9778  0.5042
  198MPD1     N 3071   0.085   0.996  15.307 -0.3464 -0.1475  0.2784
  198MPD1    H5 3072   0.039   0.943  15.233 -2.8483  0.7368  1.1948
  198MPD1    N1 3073   4.599   1.361  15.062  0.0696  0.1241  0.8146
  198MPD1    H6 3074   4.581   1.303  14.980 -0.0439 -0.5803  1.3316
  198MPD1    H7 3075   4.614   1.458  15.038 -0.7206  0.2143  0.6939
  199MPD1     C 3076   3.013   2.313  10.144 -0.3311 -0.1982 -0.3913
  199MPD1    C1 3077   2.943   2.414  10.214 -0.6415 -0.5152  0.0764
  199MPD1    C2 3078   2.807   2.407  10.217  0.2965  0.4202 -0.0266
  199MPD1    C3 3079   2.737   2.297  10.175  0.4816  0.6698  0.3716
  199MPD1    C4 3080   2.805   2.185  10.137  0.2053  0.3471 -0.1131
  199MPD1    C5 3081   2.939   2.199  10.118 -0.1701 -0.1533  0.2231
  199MPD1     H 3082   2.753   2.489  10.262  0.7378  0.4952  0.3583
  199MPD1    H1 3083   2.756   2.090  10.119  2.3669 -0.8580  0.2753
  199MPD1    H2 3084   3.118   2.318  10.119 -0.3701 -0.8084 -0.6833
  199MPD1    H3 3085   2.994   2.112  10.083  0.1245 -0.6006  1.7739
  199MPD1     N 3086   2.594   2.283  10.180 -0.3112 -0.3111 -0.5462
  199MPD1    H5 3087   2.551   2.196  10.149 -1.7378  0.2197 -0.0459
  199MPD1    N1 3088   3.003   2.535  10.252  0.3801 -0.2246  0.4078
  199MPD1    H6 3089   2.963   2.566  10.340  4.0013 -1.1968  2.3836
  199MPD1    H7 3090   3.099   2.516  10.278  0.5926  0.1392 -0.1054
  200MPD1     C 3091   1.189   1.765  14.521 -0.5987  0.2452  0.5857
  200MPD1    C1 3092   1.219   1.845  14.409 -0.5104  0.0841  0.1345
  200MPD1    C2 3093   1.336   1.921  14.420  0.4859 -0.8687 -0.2531
  200MPD1    C3 3094   1.419   1.930  14.528  0.2358  0.3571  0.2469
  200MPD1    C4 3095   1.378   1.856  14.634  0.7471 -0.4375 -0.2462
  200MPD1    C5 3096   1.268   1.781  14.638 -0.3079  0.1159 -0.2592
  200MPD1     H 3097   1.363   1.967  14.326  0.0559 -1.6222 -0.7443
  200MPD1    H1 3098   1.433   1.849  14.727  0.4288  1.9967  0.1206
  200MPD1    H2 3099   1.100   1.704  14.522  1.7380 -3.1399  1.6467
  200MPD1    H3 3100   1.238   1.730  14.729 -1.1246 -0.4901 -0.8720
  200MPD1     N 3101   1.542   2.004  14.517 -0.3033  0.4631 -0.6090
  200MPD1    H5 3102   1.551   2.058  14.431 -0.6320  0.8004 -0.4319
  200MPD1    N1 3103   1.157   1.814  14.291 -0.4869  0.6369  0.2222
  200MPD1    H6 3104   1.063   1.775  14.293  0.5419 -1.8620 -0.2601
  200MPD1    H7 3105   1.163   1.883  14.217  3.7431 -1.6235 -1.5298
  201MPD1     C 3106   2.681   0.505  13.627 -0.0387  0.4037  0.5617
  201MPD1    C1 3107   2.713   0.386  13.563 -0.1043 -0.2728 -0.0449
  201MPD1    C2 3108   2.845   0.366  13.525  0.0081 -0.2382  0.0161
  201MPD1    C3 3109   2.945   0.456  13.559 -0.2151 -0.3233  0.0139
  201MPD1    C4 3110   2.905   0.574  13.622 -0.3171 -0.3573  0.7730
  201MPD1    C5 3111   2.779   0.594  13.657 -0.4293  0.2437  0.8569
  201MPD1     H 3112   2.869   0.276  13.470 -1.7715 -0.2564 -0.7181
  201MPD1    H1 3113   2.981   0.649  13.639  2.1784 -2.4496 -1.0004
  201MPD1    H2 3114   2.585   0.535  13.668  0.0823 -0.4049  1.4463
  201MPD1    H3 3115   2.753   0.687  13.707 -1.8739  0.9582 -1.2035
  201MPD1     N 3116   3.072   0.434  13.505 -0.4544  0.3448  0.1576
  201MPD1    H5 3117   3.088   0.348  13.453  0.6167  0.5737  0.1058
  201MPD1    N1 3118   2.613   0.303  13.506  0.0179  0.4918  0.3839
  201MPD1    H6 3119   2.520   0.314  13.546 -0.1836  0.8947 -0.1948
  201MPD1    H7 3120   2.642   0.206  13.512 -2.8613 -0.0853  4.3868
  202MPD1     C 3121   2.796   4.380   8.887 -0.0839 -0.2444  0.2041
  202MPD1    C1 3122   2.734   4.492   8.929  0.0912 -0.7455  0.2470
  202MPD1    C2 3123   2.803   4.573   9.023 -0.0711  0.6448  0.4447
  202MPD1    C3 3124   2.907   4.518   9.102  0.3254 -0.0755  0.2214
  202MPD1    C4 3125   2.954   4.398   9.062  0.0527  0.1843  0.6983
  202MPD1    C5 3126   2.898   4.329   8.960  0.3384  0.2372 -0.1463
  202MPD1     H 3127   2.758   4.670   9.043  1.8840  1.9625 -1.5682
  202MPD1    H1 3128   3.025   4.339   9.119  0.1304 -1.0693 -0.7197
  202MPD1    H2 3129   2.747   4.329   8.804 -0.2300 -0.8302  0.6442
  202MPD1    H3 3130   2.943   4.235   8.930  0.1118  0.1364 -0.1645
  202MPD1     N 3131   2.963   4.594   9.212 -0.2644  0.2464 -0.5851
  202MPD1    H5 3132   3.051   4.554   9.242 -0.7867  0.6009  1.4239
  202MPD1    N1 3133   2.660   4.566   8.847 -0.7215 -0.1028  0.0387
  202MPD1    H6 3134   2.602   4.631   8.899  1.4907  1.7123  0.2315
  202MPD1    H7 3135   2.600   4.515   8.781  1.2657 -2.6620  0.2550
  203MPD1     C 3136   2.152   1.016  12.187  0.0499 -0.3853 -0.1947
  203MPD1    C1 3137   2.170   0.903  12.104 -0.4046 -0.9453 -0.5890
  203MPD1    C2 3138   2.227   0.792  12.164 -0.3007 -0.2070 -0.0994
  203MPD1    C3 3139   2.274   0.793  12.294  0.6545  0.4994  0.7827
  203MPD1    C4 3140   2.256   0.908  12.371  0.0561  0.6713  0.3154
  203MPD1    C5 3141   2.200   1.014  12.314  0.5006  0.7256 -0.0018
  203MPD1     H 3142   2.237   0.700  12.108 -4.0807  0.1973 -1.4218
  203MPD1    H1 3143   2.284   0.923  12.474  1.7600  0.6917 -0.1561
  203MPD1    H2 3144   2.118   1.108  12.142  0.2289  0.2724  1.0221
  203MPD1    H3 3145   2.185   1.104  12.374 -1.8883  1.6778 -1.9990
  203MPD1     N 3146   2.342   0.675  12.340  0.0161 -0.2399  0.0345
  203MPD1    H5 3147   2.354   0.589  12.287  0.7475 -0.7870  1.0966
  203MPD1    N1 3148   2.128   0.898  11.974 -0.2221 -0.1840  0.0457
  203MPD1    H6 3149   2.113   0.983  11.921 -0.0055  0.4659  1.0326
  203MPD1    H7 3150   2.188   0.836  11.919  1.1832 -1.5230  3.1267
  204MPD1     C 3151   1.025   1.953  17.464  0.0541 -0.5848  0.2168
  204MPD1    C1 3152   1.064   1.829  17.498  0.4315  0.2956 -0.2774
  204MPD1    C2 3153   1.194   1.786  17.470 -0.3006  1.2434  0.0244
  204MPD1    C3 3154   1.278   1.876  17.413 -0.7674  1.2312  0.0251
  204MPD1    C4 3155   1.241   2.002  17.367 -0.2598 -0.8746 -0.2905
  204MPD1    C5 3156   1.111   2.036  17.398 -0.1876 -0.1507 -0.2353
  204MPD1     H 3157   1.225   1.685  17.497 -0.1010  0.8111 -1.8517
  204MPD1    H1 3158   1.307   2.076  17.323 -0.5637 -0.5621 -0.2227
  204MPD1    H2 3159   0.925   1.987  17.487  0.7596  0.6057  1.5492
  204MPD1    H3 3160   1.077   2.136  17.375 -1.8873 -1.0300 -1.5443
  204MPD1     N 3161   1.414   1.838  17.394 -0.9447 -0.3742 -0.1823
  204MPD1    H5 3162   1.442   1.749  17.433 -1.5714  0.0465  1.2088
  204MPD1    N1 3163   0.967   1.737  17.537 -0.4584  0.2291  0.0632
  204MPD1    H6 3164   1.004   1.658  17.589  2.7534  1.4875 -0.2883
  204MPD1    H7 3165   0.910   1.777  17.611  1.1341  2.0378  0.3275
  205MPD1     C 3166   2.564   0.794  17.380  0.1727  0.1596  0.6601
  205MPD1    C1 3167   2.510   0.669  17.414  1.0421 -0.3714 -0.0186
  205MPD1    C2 3168   2.374   0.657  17.438  0.6307  0.6309 -0.1723
  205MPD1    C3 3169   2.297   0.773  17.432 -0.5599  0.1651  0.4893
  205MPD1    C4 3170   2.353   0.888  17.379 -0.3177  0.0069 -0.0745
  205MPD1    C5 3171   2.488   0.904  17.355  0.5458  0.7899  0.2489
  205MPD1     H 3172   2.333   0.566  17.478  1.6220  0.7827  1.2223
  205MPD1    H1 3173   2.287   0.972  17.366  1.0975  1.0207 -0.6840
  205MPD1    H2 3174   2.671   0.811  17.379  0.4296 -1.4837  0.9635
  205MPD1    H3 3175   2.535   0.993  17.316 -1.3749  1.7415  0.0888
  205MPD1     N 3176   2.157   0.768  17.453 -0.3558  0.4891  0.0531
  205MPD1    H5 3177   2.104   0.853  17.437 -1.4498  0.1196  1.7587
  205MPD1    N1 3178   2.598   0.570  17.456  0.2417  1.0203 -0.5998
  205MPD1    H6 3179   2.689   0.610  17.434  0.5470  0.7907  0.2419
  205MPD1    H7 3180   2.575   0.491  17.396 -1.6621 -0.2342  1.8232
  206MPD1     C 3181   1.448   3.916  17.027  0.4114 -0.5641  0.6813
  206MPD1    C1 3182   1.544   3.826  16.988 -0.4610 -0.0916  0.1163
  206MPD1    C2 3183   1.553   3.791  16.853 -0.0055 -0.5197  0.2127
  206MPD1    C3 3184   1.482   3.865  16.756  0.8090 -0.2810 -0.3062
  206MPD1    C4 3185   1.390   3.959  16.801 -0.4794 -0.0597  0.6037
  206MPD1    C5 3186   1.373   3.978  16.930  0.2360  0.2347  0.3810
  206MPD1     H 3187   1.619   3.711  16.820  2.5272  2.2103 -1.2725
  206MPD1    H1 3188   1.321   4.013  16.738  0.5575  0.3676 -0.1755
  206MPD1    H2 3189   1.427   3.935  17.132  0.2348 -3.5298  1.1785
  206MPD1    H3 3190   1.283   4.028  16.965 -0.0005  0.2064 -0.1877
  206MPD1     N 3191   1.480   3.846  16.617  0.1909 -0.2022  0.2119
  206MPD1    H5 3192   1.426   3.916  16.567 -1.2706 -0.2637  1.7158
  206MPD1    N1 3193   1.616   3.751  17.080 -0.2961 -0.5195  0.0954
  206MPD1    H6 3194   1.637   3.804  17.164 -1.7341  0.1161  0.0555
  206MPD1    H7 3195   1.701   3.709  17.041  0.0536 -1.3216  1.7391
  207MPD1     C 3196   0.187   1.773   9.458 -0.4357 -0.3514  0.6334
  207MPD1    C1 3197   0.206   1.901   9.405 -0.0147  0.2296 -0.0645
  207MPD1    C2 3198   0.243   2.004   9.484 -0.0192 -0.0666  0.0136
  207MPD1    C3 3199   0.273   1.980   9.622 -0.4288  0.6785  0.2082
  207MPD1    C4 3200   0.251   1.848   9.672 -0.7510 -0.2592 -0.2656
  207MPD1    C5 3201   0.208   1.748   9.594  0.4585  0.3775 -0.2520
  207MPD1     H 3202   0.263   2.097   9.432  2.3610 -0.0244  0.9795
  207MPD1    H1 3203   0.272   1.818   9.774  2.3406 -0.0517 -0.8380
  207MPD1    H2 3204   0.157   1.690   9.394 -2.2163 -0.0793  1.1195
  207MPD1    H3 3205   0.183   1.658   9.648  0.0448  0.4095 -0.3929
  207MPD1     N 3206   0.297   2.082   9.714 -0.3419  0.2214  0.3698
  207MPD1    H5 3207   0.321   2.058   9.810 -0.6889 -1.8156 -0.0603
  207MPD1    N1 3208   0.189   1.919   9.269 -0.4063 -0.7139 -0.3594
  207MPD1    H6 3209   0.105   1.872   9.236 -0.1246 -0.5989 -1.2608
  207MPD1    H7 3210   0.165   2.017   9.253 -2.4456 -1.3397 -1.2248
  208MPD1     C 3211   2.541   0.080   0.272  0.5285  0.4398 -0.1429
  208MPD1    C1 3212   2.449   0.021   0.364 -0.0614  1.0164  0.7764
  208MPD1    C2 3213   2.342   4.684   0.312 -1.2058  0.5597  0.0715
  208MPD1    C3 3214   2.320   4.679   0.178 -0.8892  0.9348  0.3808
  208MPD1    C4 3215   2.396   0.021   0.095  0.3091  0.5309  0.3992
  208MPD1    C5 3216   2.510   0.078   0.139  0.3235  0.4296  0.9724
  208MPD1     H 3217   2.268   4.631   0.371  0.8929 -4.2247 -1.5776
  208MPD1    H1 3218   2.372   0.032  17.738  3.4356  1.3204 -0.2429
  208MPD1    H2 3219   2.636   0.120   0.305  0.9274 -0.5517 -0.0750
  208MPD1    H3 3220   2.574   0.121   0.062 -2.0112 -0.6993 -1.5845
  208MPD1     N 3221   2.194   4.617   0.138  0.3755 -0.2788 -0.1807
  208MPD1    H5 3222   2.151   4.573   0.219 -0.5170  0.8463 -0.0458
  208MPD1    N1 3223   2.477   0.042   0.500 -0.5834 -0.1779 -0.3854
  208MPD1    H6 3224   2.429   4.705   0.549 -1.7519 -0.6270 -2.1903
  208MPD1    H7 3225   2.576   0.042   0.524 -1.2770 -1.1610  2.4637
  209MPD1     C 3226   1.445   1.435  10.979 -0.3128 -0.0689 -0.2959
  209MPD1    C1 3227   1.504   1.556  10.965  0.1666  0.0460 -0.2991
  209MPD1    C2 3228   1.503   1.622  10.845  0.0846  0.0489 -0.6755
  209MPD1    C3 3229   1.420   1.570  10.744  0.5233  0.1740  0.1752
  209MPD1    C4 3230   1.349   1.452  10.760  0.0966 -0.4723 -0.1664
  209MPD1    C5 3231   1.365   1.388  10.879 -0.0683 -0.0129  0.4180
  209MPD1     H 3232   1.572   1.705  10.830 -1.1230  1.3182  0.7399
  209MPD1    H1 3233   1.293   1.401  10.682 -1.9210  0.0261  0.9565
  209MPD1    H2 3234   1.430   1.385  11.075  1.1279 -0.3410 -0.2242
  209MPD1    H3 3235   1.319   1.290  10.888 -0.3738  0.0013 -0.9752
  209MPD1     N 3236   1.404   1.652  10.632 -0.1587  0.2249 -0.6794
  209MPD1    H5 3237   1.453   1.741  10.625  0.5927 -0.2304 -1.0862
  209MPD1    N1 3238   1.585   1.599  11.070  0.1187  0.5769 -0.2351
  209MPD1    H6 3239   1.589   1.700  11.061 -0.2277  0.3009 -3.3195
  209MPD1    H7 3240   1.546   1.591  11.164 -0.6188  0.9845 -0.5047
  210MPD1     C 3241   1.872   2.151   9.914  0.0023 -1.0105 -0.0503
  210MPD1    C1 3242   1.851   2.018   9.936  0.7866 -0.1479 -0.3878
  210MPD1    C2 3243   1.741   1.984  10.010  0.2674  0.2443  0.0019
  210MPD1    C3 3244   1.660   2.070  10.073  0.1326  0.2670 -0.8271
  210MPD1    C4 3245   1.683   2.204  10.057 -0.4656  0.3754  0.1626
  210MPD1    C5 3246   1.795   2.242   9.981 -0.2163  0.0020  0.3372
  210MPD1     H 3247   1.726   1.877  10.021  0.2097  0.1904 -0.6044
  210MPD1    H1 3248   1.610   2.273  10.100 -0.0446  0.0969  1.3378
  210MPD1    H2 3249   1.951   2.190   9.851  0.0036 -0.0967  0.5175
  210MPD1    H3 3250   1.820   2.346   9.967  2.5873 -0.5237  1.4738
  210MPD1     N 3251   1.548   2.028  10.151  0.1703 -0.1895  0.3178
  210MPD1    H5 3252   1.483   2.102  10.175 -3.0764 -1.5723 -4.1979
  210MPD1    N1 3253   1.924   1.923   9.867 -0.7610  0.0873  0.1441
  210MPD1    H6 3254   2.015   1.955   9.835 -1.4824  1.6106 -0.3424
  210MPD1    H7 3255   1.931   1.834   9.917 -1.7115  0.5035  1.0126
  211MPD1     C 3256   2.698   0.906  16.242 -0.6386  0.6214  0.1160
  211MPD1    C1 3257   2.716   0.785  16.306 -0.8497 -0.8701  0.1630
  211MPD1    C2 3258   2.608   0.707  16.303 -0.6144  0.1778 -0.0178
  211MPD1    C3 3259   2.493   0.729  16.232 -0.0439  0.2945  0.5369
  211MPD1    C4 3260   2.490   0.845  16.155  0.5033  0.1066 -0.4035
  211MPD1    C5 3261   2.586   0.942  16.182 -0.0264 -0.4439  0.9938
  211MPD1     H 3262   2.614   0.616  16.362  0.1323 -0.5953 -1.2764
  211MPD1    H1 3263   2.411   0.874  16.088 -0.9137 -0.4403  1.0192
  211MPD1    H2 3264   2.766   0.991  16.239 -0.5004  0.5794  1.9889
  211MPD1    H3 3265   2.587   1.039  16.134 -1.3770  0.2003  2.2405
  211MPD1     N 3266   2.385   0.637  16.229 -0.0770 -0.1024  0.9154
  211MPD1    H5 3267   2.387   0.563  16.299  0.6481  0.4057  1.4264
  211MPD1    N1 3268   2.817   0.772  16.396 -0.1117  0.1686 -0.0115
  211MPD1    H6 3269   2.847   0.675  16.400  0.5434  0.2806 -2.1522
  211MPD1    H7 3270   2.898   0.826  16.365  0.0372  0.8322  1.5322
  212MPD1     C 3271   1.093   4.392  16.276  0.3916 -0.0027  0.4202
  212MPD1    C1 3272   1.204   4.321  16.320 -0.3410  0.4729 -0.7129
  212MPD1    C2 3273   1.191   4.207  16.396 -0.1683  0.5113 -0.3158
  212MPD1    C3 3274   1.063   4.163  16.435  0.3760  0.0013  0.8495
  212MPD1    C4 3275   0.952   4.234  16.387  0.8938  0.5477 -0.9433
  212MPD1    C5 3276   0.965   4.354  16.314 -0.1113  1.0317 -0.2557
  212MPD1     H 3277   1.274   4.139  16.413 -0.2492  0.4164 -0.3038
  212MPD1    H1 3278   0.853   4.196  16.410  1.3281 -1.0890 -1.7592
  212MPD1    H2 3279   1.099   4.480  16.213  1.1510 -0.0473  0.4262
  212MPD1    H3 3280   0.883   4.401  16.261 -0.4881  2.3919  1.5381
  212MPD1     N 3281   1.033   4.051  16.517  0.1133  0.4082  0.3474
  212MPD1    H5 3282   0.940   4.050  16.556  0.0317 -1.4382  0.1033
  212MPD1    N1 3283   1.334   4.361  16.279  0.2745  0.1277  0.3772
  212MPD1    H6 3284   1.334   4.439  16.214  1.4278 -1.0750 -1.0844
  212MPD1    H7 3285   1.396   4.290  16.241 -0.1916 -0.2828  0.3867
  213MPD1     C 3286   4.322   4.572  15.629  0.1860  0.8408 -0.6413
  213MPD1    C1 3287   4.375   4.487  15.531 -0.2617  0.6110 -0.2918
  213MPD1    C2 3288   4.311   4.498  15.412 -0.5583 -0.0958 -0.0274
  213MPD1    C3 3289   4.196   4.569  15.392 -0.2623 -0.1089 -0.2169
  213MPD1    C4 3290   4.151   4.651  15.491  0.0666  0.3328  0.0768
  213MPD1    C5 3291   4.211   4.643  15.608 -0.5462 -0.1903 -0.0073
  213MPD1     H 3292   4.356   4.443  15.330 -1.5576  1.1225 -1.3878
  213MPD1    H1 3293   4.064   4.715  15.495  1.0310  1.8701 -2.8104
  213MPD1    H2 3294   4.353   4.553  15.731 -2.6384  1.0261  0.2428
  213MPD1    H3 3295   4.175   4.707  15.688  1.5000  1.3476 -0.3053
  213MPD1     N 3296   4.145   4.562  15.257  0.3604  0.6936  0.2956
  213MPD1    H5 3297   4.198   4.505  15.193 -1.9427  1.1556 -1.9992
  213MPD1    N1 3298   4.503   4.438  15.544  0.3313 -0.0907 -0.0782
  213MPD1    H6 3299   4.529   4.373  15.470 -1.4435 -0.8092 -0.0711
  213MPD1    H7 3300   4.517   4.421  15.643 -1.8019 -1.7023 -0.0535
  214MPD1     C 3301   3.696   3.820  14.692 -0.1594  0.3828 -0.0154
  214MPD1    C1 3302   3.738   3.828  14.817  0.1252 -0.4530 -0.1667
  214MPD1    C2 3303   3.787   3.950  14.868 -0.4242  0.4294  0.7559
  214MPD1    C3 3304   3.817   4.056  14.784  0.7431 -0.3198 -0.1830
  214MPD1    C4 3305   3.795   4.027  14.650  0.2426 -0.6412  0.4890
  214MPD1    C5 3306   3.731   3.918  14.607  0.4730  0.5389  0.3042
  214MPD1     H 3307   3.800   3.955  14.976  1.2989  0.1994  0.5592
  214MPD1    H1 3308   3.813   4.109  14.581  1.1655  1.1839  2.8935
  214MPD1    H2 3309   3.651   3.733  14.645 -0.5841  0.1778  0.7476
  214MPD1    H3 3310   3.699   3.906  14.504 -1.5827  0.9887  0.8918
  214MPD1     N 3311   3.863   4.186  14.827 -0.4344 -0.9156 -0.0372
  214MPD1    H5 3312   3.895   4.247  14.752  0.6032  2.0312  2.7708
  214MPD1    N1 3313   3.684   3.725  14.905  0.2816 -0.0025  0.0834
  214MPD1    H6 3314   3.748   3.721  14.984 -0.0223  0.4390  0.3461
  214MPD1    H7 3315   3.688   3.634  14.859  1.0496  0.4566 -0.7712
  215MPD1     C 3316   4.061   0.513  10.790  0.5792  0.0731 -0.2375
  215MPD1    C1 3317   4.160   0.500  10.886 -0.4327 -0.0836 -0.0436
  215MPD1    C2 3318   4.267   0.580  10.875 -0.6813  0.0836  0.5732
  215MPD1    C3 3319   4.291   0.667  10.778 -0.5144  0.0797 -0.3068
  215MPD1    C4 3320   4.200   0.668  10.674 -0.1033 -0.4302  0.2024
  215MPD1    C5 3321   4.088   0.593  10.679 -0.1029  0.5390 -0.0357
  215MPD1     H 3322   4.337   0.568  10.957 -0.2037  0.7409  0.2665
  215MPD1    H1 3323   4.198   0.742  10.595 -4.2265 -1.5767 -0.7183
  215MPD1    H2 3324   3.960   0.475  10.790  0.5944  0.0017  1.6992
  215MPD1    H3 3325   4.020   0.602  10.594  0.2694 -0.0566 -0.3976
  215MPD1     N 3326   4.400   0.752  10.787 -0.1273  0.6443  0.1546
  215MPD1    H5 3327   4.468   0.735  10.860 -0.0560 -2.2850 -0.5888
  215MPD1    N1 3328   4.144   0.453  11.017  0.1888 -0.1927 -0.5026
  215MPD1    H6 3329   4.086   0.369  11.017  0.4756 -0.3813  1.1855
  215MPD1    H7 3330   4.228   0.432  11.070  0.3025 -2.7940 -1.6583
  216MPD1     C 3331   0.160   2.803   0.557 -0.1735  0.2067 -0.3403
  216MPD1    C1 3332   0.215   2.734   0.662 -1.0677  0.8682  0.1666
  216MPD1    C2 3333   0.332   2.660   0.640 -0.3477  0.9798 -0.1882
  216MPD1    C3 3334   0.385   2.641   0.515 -0.5537 -0.1216 -0.4268
  216MPD1    C4 3335   0.312   2.693   0.406  0.0204  0.2158  0.2755
  216MPD1    C5 3336   0.205   2.776   0.428  0.5930  0.2178 -0.3656
  216MPD1     H 3337   0.374   2.616   0.729 -1.3979  0.8301  0.2270
  216MPD1    H1 3338   0.350   2.679   0.306  0.0837  0.6437  0.2384
  216MPD1    H2 3339   0.080   2.874   0.572  0.3315  0.4839  1.0331
  216MPD1    H3 3340   0.162   2.832   0.345 -2.1418  2.0657  2.2813
  216MPD1     N 3341   0.505   2.584   0.493  0.1104  0.0352  0.3745
  216MPD1    H5 3342   0.538   2.568   0.398 -0.4613  0.6520  0.0653
  216MPD1    N1 3343   0.164   2.749   0.794 -0.4160  0.1306 -0.2686
  216MPD1    H6 3344   0.180   2.672   0.858 -0.5281  2.1327  2.1529
  216MPD1    H7 3345   0.062   2.757   0.792 -0.1364  3.2674 -2.5612
  217MPD1     C 3346   1.066   0.726   8.358 -0.1860  0.2955  0.1945
  217MPD1    C1 3347   1.147   0.617   8.340 -0.0178  0.3655 -0.2167
  217MPD1    C2 3348   1.238   0.594   8.438 -0.3266  0.4194  0.6295
  217MPD1    C3 3349   1.248   0.676   8.549 -0.0565  0.1295  0.3082
  217MPD1    C4 3350   1.137   0.765   8.571 -0.1372  0.0991 -0.4724
  217MPD1    C5 3351   1.051   0.797   8.473 -0.0181  0.3458  0.3235
  217MPD1     H 3352   1.304   0.509   8.429 -2.4819 -1.2044  0.0918
  217MPD1    H1 3353   1.134   0.827   8.660 -3.5761 -0.7173 -0.0285
  217MPD1    H2 3354   0.991   0.740   8.281  0.5887 -0.8579 -0.7741
  217MPD1    H3 3355   0.978   0.877   8.477 -0.6925 -0.2891  0.7188
  217MPD1     N 3356   1.342   0.652   8.655  0.1484 -0.5720 -0.2672
  217MPD1    H5 3357   1.341   0.717   8.732 -0.0758 -1.4668  0.4821
  217MPD1    N1 3358   1.125   0.542   8.224  0.1771  0.5072 -1.3307
  217MPD1    H6 3359   1.185   0.461   8.230  0.0770  0.4046 -1.7426
  217MPD1    H7 3360   1.026   0.516   8.220  0.7098 -1.6378 -0.3589
  218MPD1     C 3361   3.639   1.460  13.358  0.3564 -0.3286  0.2686
  218MPD1    C1 3362   3.669   1.583  13.305 -0.3019 -0.3043 -0.1129
  218MPD1    C2 3363   3.763   1.593  13.205  0.2540  0.0900 -0.0621
  218MPD1    C3 3364   3.822   1.479  13.150  0.0115  1.1758  0.0196
  218MPD1    C4 3365   3.786   1.358  13.199 -0.2593  0.0275 -0.5402
  218MPD1    C5 3366   3.702   1.351  13.310  0.1899  0.3618 -0.3905
  218MPD1     H 3367   3.783   1.692  13.165 -2.5391 -0.4411 -2.8079
  218MPD1    H1 3368   3.825   1.266  13.158  1.6525  1.3129 -1.6275
  218MPD1    H2 3369   3.574   1.441  13.442  2.8012  1.4451  2.5617
  218MPD1    H3 3370   3.677   1.253  13.351 -0.7675  0.6383 -0.3152
  218MPD1     N 3371   3.908   1.486  13.038 -0.1401 -0.1765  0.1267
  218MPD1    H5 3372   3.954   1.401  13.008 -2.0643 -1.0507 -0.3817
  218MPD1    N1 3373   3.608   1.698  13.360  0.1355 -0.0275  0.1918
  218MPD1    H6 3374   3.569   1.759  13.288 -0.1391  1.5206  1.6599
  218MPD1    H7 3375   3.538   1.669  13.428 -1.1842  0.4146 -0.9811
  219MPD1     C 3376   4.722   1.956  12.549 -0.1118  0.8436  0.1692
  219MPD1    C1 3377   4.650   1.967  12.666 -0.5534  0.7979 -0.5718
  219MPD1    C2 3378   4.533   1.894  12.681  0.0950  0.0711  0.0235
  219MPD1    C3 3379   4.481   1.820  12.576  0.4786  0.2065  0.4191
  219MPD1    C4 3380   4.555   1.808  12.466 -0.0788  0.0917  0.3094
  219MPD1    C5 3381   4.674   1.875  12.450  0.1671 -0.0165  0.2108
  219MPD1     H 3382   4.481   1.910  12.775 -1.1723  1.5395 -0.9232
  219MPD1    H1 3383   4.511   1.751  12.384 -2.4929  1.9472  0.3150
  219MPD1    H2 3384   0.073   2.017  12.538  0.3829  0.5165  2.2093
  219MPD1    H3 3385   4.720   1.877  12.352 -2.7203 -0.3606 -1.1515
  219MPD1     N 3386   4.355   1.753  12.593  0.0653  0.2273  0.3153
  219MPD1    H5 3387   4.325   1.699  12.512 -2.0581 -1.0612  1.9471
  219MPD1    N1 3388   4.715   2.029  12.771 -0.2002  0.1613  0.3667
  219MPD1    H6 3389   4.661   2.049  12.854 -0.1289  2.2838 -0.1074
  219MPD1    H7 3390   0.039   2.104  12.738 -0.0257  0.4635  1.3786
  220MPD1     C 3391   4.065   2.082   9.463  0.3160 -0.1033 -0.2710
  220MPD1    C1 3392   4.183   2.073   9.530 -0.6919 -0.0650 -0.5562
  220MPD1    C2 3393   4.215   1.953   9.589 -0.1155 -0.2618 -0.1607
  220MPD1    C3 3394   4.124   1.845   9.602  0.4509 -0.4098  0.1174
  220MPD1    C4 3395   4.003   1.863   9.535 -0.4870  0.8913 -0.1923
  220MPD1    C5 3396   3.982   1.978   9.460 -0.1781  0.3959 -0.4896
  220MPD1     H 3397   4.307   1.944   9.645  1.0589 -0.0073 -2.0632
  220MPD1    H1 3398   3.928   1.788   9.518  0.8338 -0.4544 -0.0845
  220MPD1    H2 3399   4.030   2.171   9.412  1.1539  0.2665 -0.2005
  220MPD1    H3 3400   3.889   1.993   9.407  0.0549 -1.1461 -1.3244
  220MPD1     N 3401   4.161   1.744   9.694 -0.1532 -0.3391 -0.0794
  220MPD1    H5 3402   4.257   1.742   9.727  1.3619  2.2482 -4.3838
  220MPD1    N1 3403   4.288   2.175   9.529  0.0717  0.2856  0.0191
  220MPD1    H6 3404   4.346   2.163   9.612  1.9722 -0.2662 -1.3926
  220MPD1    H7 3405   4.256   2.271   9.532 -0.4310  0.1168  0.1017
  221MPD1     C 3406   0.870   0.373  15.929  0.3554  0.0111  0.3757
  221MPD1    C1 3407   0.913   0.350  15.805  0.0455 -0.2824  0.4417
  221MPD1    C2 3408   1.050   0.337  15.784 -0.3302  0.0510 -0.5529
  221MPD1    C3 3409   1.140   0.329  15.890  0.0651 -0.0559 -0.0459
  221MPD1    C4 3410   1.091   0.355  16.016 -0.3630  0.4728  0.5623
  221MPD1    C5 3411   0.955   0.383  16.032 -0.3095 -0.2929 -0.2125
  221MPD1     H 3412   1.087   0.318  15.683  0.7053  0.8697 -0.3272
  221MPD1    H1 3413   1.151   0.365  16.105  1.8891  0.6378 -0.9493
  221MPD1    H2 3414   0.766   0.402  15.941  0.5467  1.4318 -1.3983
  221MPD1    H3 3415   0.912   0.403  16.129 -1.0371 -2.0800 -0.1646
  221MPD1     N 3416   1.272   0.295  15.885 -0.2425  0.6200 -0.2225
  221MPD1    H5 3417   1.321   0.284  15.973  0.3456  1.0689 -0.4916
  221MPD1    N1 3418   0.821   0.364  15.704 -0.0678 -0.1751 -0.5333
  221MPD1    H6 3419   0.723   0.345  15.725 -0.0992 -1.5147 -1.9084
  221MPD1    H7 3420   0.836   0.311  15.619 -1.2819 -0.2008 -0.7374
  222MPD1     C 3421   0.888   3.607   0.426  0.9179  0.7111  0.2188
  222MPD1    C1 3422   0.768   3.673   0.426 -0.6491  0.1697  0.2366
  222MPD1    C2 3423   0.753   3.792   0.486 -0.2016  0.7596 -0.2939
  222MPD1    C3 3424   0.867   3.857   0.540  0.1205 -0.4697 -0.1971
  222MPD1    C4 3425   0.990   3.801   0.524  0.0358 -0.0985  0.4773
  222MPD1    C5 3426   0.999   3.675   0.469  0.2871 -0.3606  0.3566
  222MPD1     H 3427   0.654   3.836   0.493 -0.3465  0.6435 -1.5369
  222MPD1    H1 3428   1.085   3.840   0.557  0.7933  0.8236 -2.8097
  222MPD1    H2 3429   0.896   3.504   0.394 -1.3538 -0.1358  2.4325
  222MPD1    H3 3430   1.095   3.628   0.451 -0.2575 -1.3837  0.0967
  222MPD1     N 3431   0.872   3.991   0.583 -0.0464  0.7681 -0.2029
  222MPD1    H5 3432   0.962   4.036   0.587 -0.3404  1.3810 -0.4477
  222MPD1    N1 3433   0.662   3.593   0.388  0.1090  0.4675 -0.3348
  222MPD1    H6 3434   0.581   3.650   0.363 -1.7897 -2.7967 -1.5931
  222MPD1    H7 3435   0.695   3.538   0.309 -0.4744 -0.1601 -0.1438
  223MPD1     C 3436   0.204   4.505   1.129  0.6892  0.2436  0.4979
  223MPD1    C1 3437   0.258   4.378   1.138 -0.2481  0.2027  0.1126
  223MPD1    C2 3438   0.354   4.342   1.047 -0.1412  0.1324 -0.0017
  223MPD1    C3 3439   0.400   4.428   0.946  0.1642  0.5483 -0.1494
  223MPD1    C4 3440   0.332   4.552   0.929 -0.3435 -0.2461 -0.8801
  223MPD1    C5 3441   0.239   4.589   1.026  0.5559  0.1738 -0.1478
  223MPD1     H 3442   0.399   4.243   1.046 -0.1816  0.1239 -0.9464
  223MPD1    H1 3443   0.352   4.613   0.842  1.2328 -1.5923 -1.4735
  223MPD1    H2 3444   0.121   4.540   1.190  0.5318 -1.3873  1.2291
  223MPD1    H3 3445   0.178   4.676   1.002 -1.6061 -1.5171 -0.7788
  223MPD1     N 3446   0.503   4.395   0.861  0.2035 -0.5783 -0.5896
  223MPD1    H5 3447   0.536   4.299   0.868  1.6649 -0.0946 -0.7981
  223MPD1    N1 3448   0.192   4.285   1.222 -0.2475  0.2817 -0.1875
  223MPD1    H6 3449   0.258   4.225   1.271 -1.6911 -1.9542 -1.0060
  223MPD1    H7 3450   0.136   4.332   1.293 -0.8987 -1.4744  0.4443
  224MPD1     C 3451   3.642   1.111   9.355 -0.0190  0.4322 -0.1973
  224MPD1    C1 3452   3.544   1.197   9.401  0.1667 -0.5483  0.0921
  224MPD1    C2 3453   3.417   1.146   9.408  0.4668 -0.1372  0.5071
  224MPD1    C3 3454   3.393   1.011   9.432 -0.0684 -0.2747  0.6639
  224MPD1    C4 3455   3.498   0.925   9.411  0.0441 -0.5158 -0.6762
  224MPD1    C5 3456   3.619   0.977   9.365  0.2818 -0.0035  0.4606
  224MPD1     H 3457   3.335   1.217   9.402  2.4904  1.9162 -2.7688
  224MPD1    H1 3458   3.489   0.817   9.407  0.2309 -0.5901  0.8648
  224MPD1    H2 3459   3.742   1.149   9.338  1.0363 -1.8922  0.9830
  224MPD1    H3 3460   3.686   0.895   9.346  0.8263 -0.2014  3.3083
  224MPD1     N 3461   3.266   0.953   9.463 -0.6279  0.2227 -0.1524
  224MPD1    H5 3462   3.260   0.852   9.458 -0.5854  0.1652  1.0986
  224MPD1    N1 3463   3.562   1.337   9.385 -0.1601  0.3725  0.1214
  224MPD1    H6 3464   3.485   1.383   9.433  2.0696  2.0531  2.0778
  224MPD1    H7 3465   3.647   1.368   9.432  0.5046 -1.4861  0.1580
  225MPD1     C 3466   3.085   1.543  13.519 -0.8557 -0.6233  0.4491
  225MPD1    C1 3467   3.095   1.420  13.454 -0.3539  0.1063 -0.5077
  225MPD1    C2 3468   3.180   1.414  13.342 -0.5706 -0.4343  0.0335
  225MPD1    C3 3469   3.235   1.525  13.290 -0.2098  0.2002 -0.1957
  225MPD1    C4 3470   3.219   1.646  13.359 -0.3980 -0.4796 -0.7412
  225MPD1    C5 3471   3.141   1.657  13.469  0.4534 -0.5400  0.3105
  225MPD1     H 3472   3.193   1.314  13.301 -0.8062 -0.7645  0.7580
  225MPD1    H1 3473   3.262   1.735  13.313 -0.3981  0.5898  1.3268
  225MPD1    H2 3474   3.021   1.553  13.606 -0.2895  1.9410  0.5622
  225MPD1    H3 3475   3.124   1.753  13.516  2.3323  0.1657 -0.4815
  225MPD1     N 3476   3.327   1.518  13.179 -0.3311  0.3201 -0.0811
  225MPD1    H5 3477   3.390   1.598  13.178 -2.0531  1.6771 -0.4892
  225MPD1    N1 3478   3.034   1.305  13.507  0.4763  0.0386  0.6273
  225MPD1    H6 3479   2.982   1.259  13.433 -0.4123 -1.7469  2.3668
  225MPD1    H7 3480   2.965   1.336  13.575  0.3633  1.6784 -0.2167
  226MPD1     C 3481   4.386   1.588  10.311 -0.7514  0.1155  0.2602
  226MPD1    C1 3482   4.253   1.555  10.294 -0.2716  0.5216  0.0117
  226MPD1    C2 3483   4.179   1.635  10.216 -1.0223  0.2952  0.2052
  226MPD1    C3 3484   4.235   1.729  10.131  0.7106 -0.8824 -0.0989
  226MPD1    C4 3485   4.367   1.750  10.135  1.1521 -0.3237  0.8868
  226MPD1    C5 3486   4.441   1.683  10.231  0.5193 -0.2500 -0.2358
  226MPD1     H 3487   4.071   1.621  10.215 -0.9794 -0.1071  1.6363
  226MPD1    H1 3488   4.419   1.819  10.070  0.1925 -1.3128 -0.9254
  226MPD1    H2 3489   4.448   1.551  10.392 -1.2614  2.1778  1.6010
  226MPD1    H3 3490   4.546   1.699  10.249  0.8898 -1.0243 -1.7164
  226MPD1     N 3491   4.142   1.812  10.051 -0.6633 -0.2418  0.0194
  226MPD1    H5 3492   4.045   1.792  10.074 -0.4102 -0.7520  0.6565
  226MPD1    N1 3493   4.179   1.490  10.392 -0.4869 -0.1306  0.7455
  226MPD1    H6 3494   4.230   1.421  10.447  0.7764 -0.7466 -1.1951
  226MPD1    H7 3495   4.095   1.448  10.353  1.0533 -0.2457 -2.4526
  227MPD1     C 3496   4.349   2.695   9.625 -0.5371  0.1803 -0.6092
  227MPD1    C1 3497   4.410   2.602   9.705  0.1438  0.5718  0.0511
  227MPD1    C2 3498   4.336   2.491   9.740 -0.2499  0.2136  0.1319
  227MPD1    C3 3499   4.205   2.465   9.704 -0.3050  0.1353  0.2344
  227MPD1    C4 3500   4.139   2.562   9.631 -0.0601  0.0650 -0.1602
  227MPD1    C5 3501   4.215   2.676   9.592  0.1056  0.5440  0.3193
  227MPD1     H 3502   4.381   2.430   9.817  0.1489 -1.9153 -1.8053
  227MPD1    H1 3503   4.038   2.549   9.594  0.2958  0.2544 -1.1799
  227MPD1    H2 3504   4.404   2.780   9.588 -0.4247 -0.0014 -0.8668
  227MPD1    H3 3505   4.162   2.745   9.527  1.7685  1.5190 -0.0000
  227MPD1     N 3506   4.146   2.350   9.759  0.2807  0.7052 -0.0574
  227MPD1    H5 3507   4.208   2.285   9.806 -0.1816 -0.5319 -1.1785
  227MPD1    N1 3508   4.536   2.623   9.759  0.3279  0.2740  0.8914
  227MPD1    H6 3509   4.581   2.536   9.788 -0.8212 -1.0087 -1.1536
  227MPD1    H7 3510   4.603   2.687   9.717 -0.8589  1.3468  0.6285
  228MPD1     C 3511   0.815   4.232  12.006 -0.7632  0.4190  0.2950
  228MPD1    C1 3512   0.691   4.251  11.957 -0.2390  0.4082  0.3352
  228MPD1    C2 3513   0.584   4.244  12.045  0.4692  0.2288 -0.1714
  228MPD1    C3 3514   0.604   4.234  12.179  0.6200 -0.3173  0.3528
  228MPD1    C4 3515   0.732   4.220  12.232 -0.0971  0.0489 -0.0441
  228MPD1    C5 3516   0.842   4.214  12.142  0.0687  0.2900  0.0473
  228MPD1     H 3517   0.483   4.241  12.005 -0.2070  0.0752  1.5386
  228MPD1    H1 3518   0.740   4.242  12.338 -2.4969 -1.0110  0.3505
  228MPD1    H2 3519   0.905   4.223  11.946 -0.5833  2.1477  0.2924
  228MPD1    H3 3520   0.940   4.207  12.186  1.0018  0.6101 -1.9640
  228MPD1     N 3521   0.486   4.244  12.258 -0.4074 -0.1974 -0.0338
  228MPD1    H5 3522   0.397   4.249  12.209 -0.1058  2.8192 -0.2792
  228MPD1    N1 3523   0.662   4.255  11.821  0.4763 -0.0058  0.0701
  228MPD1    H6 3524   0.577   4.303  11.793  1.3591  0.4392 -1.8323
  228MPD1    H7 3525   0.737   4.297  11.767 -0.1795  2.8678  1.4284
  229MPD1     C 3526   4.725   3.170  14.230  0.0066 -0.6194 -0.0010
  229MPD1    C1 3527   4.726   3.182  14.365  0.2815  0.3500  0.1716
  229MPD1    C2 3528   0.063   3.089  14.435  0.4672  0.1638  0.4371
  229MPD1    C3 3529   0.151   3.004  14.370 -0.4345 -0.0232  0.6053
  229MPD1    C4 3530   0.160   3.010  14.236  0.0350 -0.0505  0.2823
  229MPD1    C5 3531   0.080   3.091  14.164  0.6595 -0.3362 -0.8322
  229MPD1     H 3532   0.050   3.085  14.542  1.7453  2.6065  0.6782
  229MPD1    H1 3533   0.225   2.941  14.184  0.8199  0.7347  0.2114
  229MPD1    H2 3534   4.672   3.245  14.172 -0.3747 -0.0333  1.1168
  229MPD1    H3 3535   0.081   3.105  14.056 -0.1507 -0.8235 -0.9058
  229MPD1     N 3536   0.244   2.921  14.441  0.3799 -0.1551 -0.2634
  229MPD1    H5 3537   0.303   2.864  14.381 -1.1137 -1.2263 -0.7205
  229MPD1    N1 3538   4.680   3.296  14.430 -0.3747 -0.3871 -0.0039
  229MPD1    H6 3539   4.599   3.344  14.394  0.8865  0.4569 -1.7255
  229MPD1    H7 3540   4.647   3.272  14.523 -2.2581 -3.4870 -1.4756
  230MPD1     C 3541   0.849   2.741  15.335 -0.1230  0.2547  0.4116
  230MPD1    C1 3542   0.857   2.631  15.258 -0.0089  0.6355 -0.3415
  230MPD1    C2 3543   0.803   2.634  15.129  0.3352  0.4892 -0.5231
  230MPD1    C3 3544   0.736   2.749  15.082  0.1639  0.1921  0.1117
  230MPD1    C4 3545   0.723   2.856  15.168  0.3381 -0.5544 -0.7018
  230MPD1    C5 3546   0.790   2.857  15.285 -0.6238 -0.1928 -0.5026
  230MPD1     H 3547   0.795   2.546  15.066  0.2920 -0.0534  0.2523
  230MPD1    H1 3548   0.659   2.942  15.150  1.0762  0.1819  0.2499
  230MPD1    H2 3549   0.896   2.748  15.432 -2.2044 -1.5952  1.5378
  230MPD1    H3 3550   0.799   2.947  15.345 -1.3680 -0.9551  0.7628
  230MPD1     N 3551   0.664   2.742  14.960  0.2546  0.7376 -0.0085
  230MPD1    H5 3552   0.672   2.652  14.913 -1.4128 -0.5364  2.1357
  230MPD1    N1 3553   0.924   2.519  15.312 -0.0646  0.0019  0.2311
  230MPD1    H6 3554   0.892   2.432  15.270  0.0792  0.0698 -0.0254
  230MPD1    H7 3555   0.905   2.502  15.410  0.0113  1.5085  0.5171
  231MPD1     C 3556   3.288   4.704  15.548 -0.5184  0.0761 -0.4829
  231MPD1    C1 3557   3.222   4.653  15.443 -0.2655  0.7109 -0.2965
  231MPD1    C2 3558   3.255   4.693  15.314 -0.3403  1.1319 -0.8694
  231MPD1    C3 3559   3.344   0.060  15.288 -0.3822 -0.0976  0.5302
  231MPD1    C4 3560   3.408   0.115  15.396  1.0394  0.3313 -0.2411
  231MPD1    C5 3561   3.379   0.069  15.524  0.9034 -0.8968 -0.1058
  231MPD1     H 3562   3.201   4.642  15.234 -0.4801 -0.7105  0.3945
  231MPD1    H1 3563   3.486   0.191  15.389  0.9048  0.2160 -3.0268
  231MPD1    H2 3564   3.282   4.669  15.650  1.6439  0.9503 -0.0381
  231MPD1    H3 3565   3.432   0.112  15.608  2.3706 -0.5717 -1.1823
  231MPD1     N 3566   3.364   0.094  15.152 -0.2304  0.0119  0.3973
  231MPD1    H5 3567   3.311   0.045  15.081  1.2674 -0.0659 -0.6762
  231MPD1    N1 3568   3.141   4.543  15.466  0.2321 -0.5074 -0.2765
  231MPD1    H6 3569   3.095   4.540  15.557 -1.3846  1.1519 -1.0435
  231MPD1    H7 3570   3.064   4.534  15.401 -1.8288  2.3558  1.7604
  232MPD1     C 3571   0.061   3.243   0.466  0.0786  0.2354  0.0811
  232MPD1    C1 3572   0.130   3.306   0.369  0.6300  0.2123 -0.6368
  232MPD1    C2 3573   0.133   3.245   0.244 -0.4867 -0.2383 -0.2361
  232MPD1    C3 3574   0.070   3.126   0.219 -0.9879 -0.5169 -0.4418
  232MPD1    C4 3575   4.731   3.072   0.319  0.6436 -0.2131  0.7728
  232MPD1    C5 3576   4.737   3.125   0.444 -0.7850  0.4314 -0.3320
  232MPD1     H 3577   0.189   3.296   0.166 -0.5214 -0.9761 -0.7429
  232MPD1    H1 3578   4.677   2.979   0.310 -1.6943  1.4102 -1.8438
  232MPD1    H2 3579   0.050   3.294   0.561 -0.3996  0.2895 -0.0014
  232MPD1    H3 3580   4.681   3.084   0.527 -0.1644 -0.3572 -0.3034
  232MPD1     N 3581   0.093   3.067   0.092 -0.4679 -0.1937 -0.2654
  232MPD1    H5 3582   0.141   3.120   0.020 -0.1974 -0.8480 -0.5644
  232MPD1    N1 3583   0.170   3.444   0.375 -0.8189 -0.5336  0.1679
  232MPD1    H6 3584   0.180   3.478   0.470  2.3732 -0.7396 -0.0796
  232MPD1    H7 3585   0.245   3.471   0.311 -0.5880  0.0908  0.6930
  233MPD1     C 3586   0.499   3.705   1.866  0.1445 -0.3669  0.1085
  233MPD1    C1 3587   0.462   3.831   1.814 -0.3261  0.0065  0.6356
  233MPD1    C2 3588   0.547   3.888   1.715  0.1288 -0.2388  0.6731
  233MPD1    C3 3589   0.659   3.822   1.674  0.8346  0.5540  0.9029
  233MPD1    C4 3590   0.678   3.696   1.719 -0.7006 -0.6231  0.9784
  233MPD1    C5 3591   0.602   3.636   1.810 -0.9994  0.3733 -0.3634
  233MPD1     H 3592   0.514   3.983   1.676  2.0598  1.0744  2.2173
  233MPD1    H1 3593   0.755   3.638   1.669 -0.6845  0.9689 -0.8636
  233MPD1    H2 3594   0.442   3.654   1.943 -1.8664  1.2616 -0.2885
  233MPD1    H3 3595   0.619   3.535   1.846 -0.4903  0.9036  0.9089
  233MPD1     N 3596   0.749   3.865   1.576 -0.2470  0.5440 -0.1731
  233MPD1    H5 3597   0.830   3.811   1.549 -1.7462 -0.7986 -1.9312
  233MPD1    N1 3598   0.349   3.904   1.865  0.7992 -0.0132  0.4153
  233MPD1    H6 3599   0.300   3.955   1.791 -0.2638 -0.3129  0.9193
  233MPD1    H7 3600   0.284   3.839   1.908  1.8664 -0.8078  0.8268
  234MPD1     C 3601   2.464   0.121   7.954  0.2625  0.4231  0.8156
  234MPD1    C1 3602   2.353   0.159   8.024  0.4571  0.3873  0.1345
  234MPD1    C2 3603   2.376   0.168   8.161 -0.1180  0.0190  0.0335
  234MPD1    C3 3604   2.503   0.157   8.217 -0.1038  0.0743  0.2365
  234MPD1    C4 3605   2.609   0.126   8.140  0.3522  0.2317 -0.6881
  234MPD1    C5 3606   2.588   0.109   8.002  0.7490 -0.6439  0.5605
  234MPD1     H 3607   2.297   0.196   8.229 -0.3826 -1.4035  0.3042
  234MPD1    H1 3608   2.711   0.109   8.173  0.2424  1.1851  0.1501
  234MPD1    H2 3609   2.447   0.108   7.848  1.7665  0.7927  0.5282
  234MPD1    H3 3610   2.668   0.088   7.932  0.8257  0.8341  0.1913
  234MPD1     N 3611   2.507   0.161   8.356  0.3594 -0.1631  0.0791
  234MPD1    H5 3612   2.421   0.187   8.402  0.8777  1.7276 -0.0226
  234MPD1    N1 3613   2.222   0.156   7.969 -0.4055 -0.6276  0.5741
  234MPD1    H6 3614   2.223   0.192   7.874  1.9918 -1.4900  0.2614
  234MPD1    H7 3615   2.153   0.206   8.024 -1.0979 -0.4062 -0.4982
  235MPD1     C 3616   0.238   2.183  10.204  0.6325  0.2335 -0.8414
  235MPD1    C1 3617   0.203   2.250  10.087 -0.0822  0.6583  0.3385
  235MPD1    C2 3618   0.258   2.370  10.053  0.6859  0.3049 -0.2738
  235MPD1    C3 3619   0.347   2.437  10.137  0.2459 -0.6053 -0.4382
  235MPD1    C4 3620   0.366   2.374  10.263  0.1822  0.1450  0.0087
  235MPD1    C5 3621   0.333   2.246  10.283  0.9524  0.2045 -0.3026
  235MPD1     H 3622   0.220   2.419   9.964 -1.5959  1.6024  1.4223
  235MPD1    H1 3623   0.429   2.417  10.340 -0.8343 -0.1407  1.0013
  235MPD1    H2 3624   0.202   2.082  10.225  1.4122  0.2989  0.8683
  235MPD1    H3 3625   0.357   2.201  10.379  0.4292  0.6991  0.0578
  235MPD1     N 3626   0.390   2.575  10.103  0.1620 -0.0871  0.2820
  235MPD1    H5 3627   0.335   2.610  10.026 -1.3140 -1.5891  0.6579
  235MPD1    N1 3628   0.133   2.171   9.995 -0.4576  0.8673 -0.0008
  235MPD1    H6 3629   0.077   2.098  10.038 -1.4051 -0.2604 -3.1737
  235MPD1    H7 3630   0.071   2.225   9.935  0.6588  0.8112 -1.2117
  236MPD1     C 3631   3.653   2.792   9.329  0.3153  0.1910 -0.8877
  236MPD1    C1 3632   3.701   2.922   9.352  0.4670  0.0516 -0.6318
  236MPD1    C2 3633   3.768   2.947   9.472 -0.2785 -0.0797 -0.0701
  236MPD1    C3 3634   3.798   2.844   9.555  0.2427 -0.2385 -0.0788
  236MPD1    C4 3635   3.761   2.715   9.523  0.5382 -0.3210 -0.1999
  236MPD1    C5 3636   3.686   2.687   9.410  0.3954 -0.2683  0.3814
  236MPD1     H 3637   3.786   3.051   9.499  0.7632 -0.2206 -0.2335
  236MPD1    H1 3638   3.788   2.628   9.583  1.3668 -1.3619 -2.0967
  236MPD1    H2 3639   3.599   2.761   9.239 -1.2257 -0.0709  0.1238
  236MPD1    H3 3640   3.652   2.587   9.387  0.5233  0.0359 -1.1479
  236MPD1     N 3641   3.861   2.855   9.675 -0.4836  0.0912  0.2170
  236MPD1    H5 3642   3.853   2.772   9.732  0.9943 -0.8036 -0.8704
  236MPD1    N1 3643   3.665   3.021   9.262 -0.1103 -0.8441 -0.2493
  236MPD1    H6 3644   3.662   2.973   9.173  2.4803  0.3436 -0.9776
  236MPD1    H7 3645   3.728   3.101   9.268 -2.6625  1.1015  0.3527
  237MPD1     C 3646   3.607   0.610  15.425  0.1175 -0.1040  0.0429
  237MPD1    C1 3647   3.617   0.735  15.361  0.7424 -0.1309  0.1921
  237MPD1    C2 3648   3.512   0.796  15.314 -0.4061  0.8297  0.0363
  237MPD1    C3 3649   3.384   0.745  15.338 -0.3780  0.5473 -0.4957
  237MPD1    C4 3650   3.372   0.627  15.410 -0.0698  0.3768 -0.4511
  237MPD1    C5 3651   3.485   0.556  15.452  0.4091  1.1118  0.2454
  237MPD1     H 3652   3.525   0.885  15.253 -0.8273  1.6624  1.1568
  237MPD1    H1 3653   3.279   0.582  15.441 -1.5699  4.4406  0.9737
  237MPD1    H2 3654   3.691   0.544  15.442 -0.0459 -0.2894  0.1321
  237MPD1    H3 3655   3.481   0.456  15.494  1.1682  0.8902 -0.2125
  237MPD1     N 3656   3.266   0.812  15.285 -0.1304  0.0142  0.2410
  237MPD1    H5 3657   3.282   0.896  15.231  0.6145 -0.9037 -0.9619
  237MPD1    N1 3658   3.743   0.777  15.316  1.1588  0.2705 -0.4564
  237MPD1    H6 3659   3.815   0.742  15.377 -0.4111  0.6087  1.5766
  237MPD1    H7 3660   3.751   0.877  15.297 -2.7506  0.6973  0.0830
  238MPD1     C 3661   0.694   0.444  14.547 -0.1138  0.0213  0.1438
  238MPD1    C1 3662   0.698   0.313  14.583  0.7355 -0.2693  0.2821
  238MPD1    C2 3663   0.588   0.238  14.549 -0.0761 -0.2755  0.4045
  238MPD1    C3 3664   0.493   0.285  14.467  0.1513  0.3424  0.6489
  238MPD1    C4 3665   0.493   0.413  14.428 -0.4984 -0.7366 -0.5738
  238MPD1    C5 3666   0.595   0.500  14.463  0.3211 -0.4945  0.9160
  238MPD1     H 3667   0.594   0.132  14.573 -0.7548 -0.6167 -0.9540
  238MPD1    H1 3668   0.409   0.456  14.374 -1.2821 -2.8846 -1.0699
  238MPD1    H2 3669   0.779   0.508  14.567 -0.3349 -0.0029  1.1248
  238MPD1    H3 3670   0.602   0.605  14.438 -0.8031 -0.6942 -0.2062
  238MPD1     N 3671   0.390   0.210  14.405 -0.2184 -0.9416  0.2750
  238MPD1    H5 3672   0.337   0.260  14.335 -0.0360  0.0724  0.8543
  238MPD1    N1 3673   0.803   0.258  14.655 -0.1426 -0.3215  0.3739
  238MPD1    H6 3674   0.801   0.159  14.676  2.2160 -0.8329 -1.8675
  238MPD1    H7 3675   0.898   0.295  14.647 -0.2474  0.4166  2.4999
  239MPD1     C 3676   0.243   1.862  14.834 -0.0194  0.4455 -0.0406
  239MPD1    C1 3677   0.133   1.864  14.752  0.4000 -0.3848 -0.4759
  239MPD1    C2 3678   0.139   1.782  14.633 -0.2718  0.1776  0.2817
  239MPD1    C3 3679   0.226   1.677  14.614 -0.2441  0.8309  0.4932
  239MPD1    C4 3680   0.325   1.660  14.710 -1.0189 -0.3248  1.0752
  239MPD1    C5 3681   0.327   1.750  14.819 -0.2370 -0.4561  0.5660
  239MPD1     H 3682   0.054   1.804  14.569 -0.5372 -0.5022  0.3942
  239MPD1    H1 3683   0.392   1.575  14.711  1.1324  1.3832  3.0124
  239MPD1    H2 3684   0.254   1.930  14.918  0.1561  1.3532 -0.8012
  239MPD1    H3 3685   0.401   1.733  14.896 -1.5208 -0.7527  1.7345
  239MPD1     N 3686   0.221   1.579  14.515 -0.0402 -0.5213 -0.2634
  239MPD1    H5 3687   0.278   1.496  14.509  0.0346 -0.5739  1.2068
  239MPD1    N1 3688   0.047   1.975  14.760 -0.4905 -0.2443 -0.3191
  239MPD1    H6 3689   0.051   2.014  14.854 -1.7254 -0.8628 -0.0170
  239MPD1    H7 3690   4.691   1.950  14.731 -0.2847 -0.7428 -0.5467
  240MPD1     C 3691   4.050   0.974  13.243 -0.4488 -0.4976  0.6549
  240MPD1    C1 3692   3.970   0.885  13.314 -0.0949  0.1663  0.2617
  240MPD1    C2 3693   4.037   0.784  13.384 -0.2962  0.3569  0.0475
  240MPD1    C3 3694   4.175   0.769  13.385 -0.2679 -0.6295 -1.1702
  240MPD1    C4 3695   4.253   0.847  13.297  0.5607 -0.2524 -0.8186
  240MPD1    C5 3696   4.185   0.945  13.230  0.1741 -0.6356  0.3263
  240MPD1     H 3697   3.971   0.723  13.445  1.7083 -3.1602 -1.3310
  240MPD1    H1 3698   4.358   0.831  13.274  1.6408  0.3985  3.5477
  240MPD1    H2 3699   4.009   1.061  13.192 -1.8945 -1.1996  0.6295
  240MPD1    H3 3700   4.242   1.013  13.168  0.3111  0.0452  1.2124
  240MPD1     N 3701   4.226   0.668  13.468 -0.0273  0.1032 -0.0301
  240MPD1    H5 3702   4.165   0.613  13.528  0.0813 -1.1445 -1.0701
  240MPD1    N1 3703   3.834   0.907  13.326 -0.2765  0.1468  0.0057
  240MPD1    H6 3704   3.801   0.951  13.240 -1.6951  0.0461  0.4947
  240MPD1    H7 3705   3.781   0.821  13.338 -0.8900  0.4251 -0.7106
  241MPD1     C 3706   0.163   0.928  14.074 -0.9419 -0.1286 -0.2834
  241MPD1    C1 3707   0.070   0.853  14.143 -0.4551  0.9219  0.1233
  241MPD1    C2 3708   0.008   0.753  14.072  0.5706  0.1370  0.2866
  241MPD1    C3 3709   0.031   0.744  13.935  0.4700  0.0219 -0.5549
  241MPD1    C4 3710   0.128   0.820  13.874  0.0293 -0.4206 -0.2065
  241MPD1    C5 3711   0.196   0.906  13.947  0.3199 -0.7593  0.5764
  241MPD1     H 3712   4.662   0.701  14.117  2.0342  0.7315  3.6998
  241MPD1    H1 3713   0.150   0.816  13.768 -2.0179 -1.4476 -0.6058
  241MPD1    H2 3714   0.211   1.018  14.113  0.0652 -1.0678  0.6559
  241MPD1    H3 3715   0.277   0.959  13.899  1.2040 -1.4206  1.3443
  241MPD1     N 3716   4.699   0.651  13.854  0.1691  0.0523  0.1734
  241MPD1    H5 3717   4.711   0.655  13.753 -0.2208 -1.4548  0.0574
  241MPD1    N1 3718   0.054   0.870  14.282 -0.4082  0.1217  0.1207
  241MPD1    H6 3719   4.709   0.819  14.311 -0.4143  0.2521  0.3300
  241MPD1    H7 3720   0.053   0.966  14.317  0.5085 -0.4760  1.7927
  242MPD1     C 3721   4.498   3.663  15.762 -1.0374  0.2621 -0.1529
  242MPD1    C1 3722   4.427   3.692  15.645 -0.8869 -0.3623  0.5764
  242MPD1    C2 3723   4.454   3.627  15.527  0.0119  0.3782  0.2535
  242MPD1    C3 3724   4.551   3.523  15.526  0.5103 -0.3165 -0.7085
  242MPD1    C4 3725   4.630   3.502  15.644 -0.5901 -0.5973 -0.3301
  242MPD1    C5 3726   4.603   3.576  15.755 -0.2272 -0.1456  0.2678
  242MPD1     H 3727   4.401   3.647  15.434  0.9102 -1.0787 -0.5645
  242MPD1    H1 3728   4.703   3.422  15.650  0.6350  0.6447  1.3094
  242MPD1    H2 3729   4.477   3.708  15.858  0.8580  0.2869  0.2492
  242MPD1    H3 3730   4.656   3.548  15.845 -2.2733  0.5553  1.6691
  242MPD1     N 3731   4.590   3.455  15.408 -0.2784 -0.4100  0.0251
  242MPD1    H5 3732   4.676   3.401  15.415 -1.1515 -1.3322  3.4325
  242MPD1    N1 3733   4.347   3.808  15.647  0.5158 -0.1709  0.1855
  242MPD1    H6 3734   4.304   3.826  15.737  0.7491  3.1545 -0.3671
  242MPD1    H7 3735   4.281   3.816  15.570 -2.0843 -1.7284  2.2587
  243MPD1     C 3736   1.290   1.683  17.078  0.1604 -0.5365 -0.5186
  243MPD1    C1 3737   1.263   1.733  16.955 -0.1187 -0.2112  0.3373
  243MPD1    C2 3738   1.332   1.700  16.844  0.3527 -0.0989  0.0102
  243MPD1    C3 3739   1.430   1.604  16.849  0.0514 -0.1206 -0.2896
  243MPD1    C4 3740   1.470   1.561  16.978 -0.0052  0.2003 -0.1414
  243MPD1    C5 3741   1.406   1.604  17.090  0.1488 -0.3118  0.2852
  243MPD1     H 3742   1.292   1.743  16.752  0.4945  2.3368  1.0769
  243MPD1    H1 3743   1.545   1.483  16.992  0.5189  0.8052  0.4584
  243MPD1    H2 3744   1.230   1.702  17.166 -0.7924  2.2739 -1.7750
  243MPD1    H3 3745   1.433   1.568  17.189  0.1552  0.5130  0.5831
  243MPD1     N 3746   1.484   1.554  16.724  0.0387 -0.4490 -0.4993
  243MPD1    H5 3747   1.439   1.601  16.646  1.3828 -0.3382 -1.2157
  243MPD1    N1 3748   1.173   1.841  16.952  0.1736 -0.0708 -0.3904
  243MPD1    H6 3749   1.125   1.855  16.864 -0.3927  0.6693  0.0308
  243MPD1    H7 3750   1.107   1.835  17.030  0.7199 -1.6302 -0.0473
  244MPD1     C 3751   2.198   0.850  16.517  0.6826 -0.2585  0.1494
  244MPD1    C1 3752   2.148   0.892  16.637 -0.1789 -0.4087 -0.6069
  244MPD1    C2 3753   2.033   0.968  16.632  0.3255 -0.1288  0.6578
  244MPD1    C3 3754   1.970   0.997  16.513  0.3109  0.2979  0.1281
  244MPD1    C4 3755   2.020   0.945  16.394  0.9787 -0.1558 -0.5666
  244MPD1    C5 3756   2.137   0.871  16.398  0.7276  0.3173  0.1926
  244MPD1     H 3757   1.996   1.017  16.721  1.1316  0.2953  0.7595
  244MPD1    H1 3758   1.976   0.960  16.296  1.2588 -4.1775 -1.3169
  244MPD1    H2 3759   2.291   0.795  16.513  0.2305 -1.0059 -0.1707
  244MPD1    H3 3760   2.183   0.839  16.306  0.3904  0.9918 -0.2113
  244MPD1     N 3761   1.856   1.087  16.529  0.1786  1.2524  0.0123
  244MPD1    H5 3762   1.828   1.134  16.614  2.5802  0.6531  1.1266
  244MPD1    N1 3763   2.207   0.868  16.756 -0.5108 -0.2580  0.4209
  244MPD1    H6 3764   2.306   0.891  16.759 -0.9412  1.4705  1.4145
  244MPD1    H7 3765   2.156   0.926  16.821  0.3626 -2.0145  2.6747
  245MPD1     C 3766   3.017   2.571  13.358 -0.0114  0.3127  0.5470
  245MPD1    C1 3767   3.042   2.696  13.416  0.3008 -0.2934 -0.1955
  245MPD1    C2 3768   3.171   2.739  13.410  0.4298 -0.2469  0.5713
  245MPD1    C3 3769   3.271   2.672  13.344 -0.2458  0.1074 -0.3144
  245MPD1    C4 3770   3.241   2.555  13.276 -0.0906 -1.1628  0.5033
  245MPD1    C5 3771   3.114   2.512  13.280  0.0339  0.1176 -0.0957
  245MPD1     H 3772   3.202   2.837  13.442 -1.1414  0.2672  0.5333
  245MPD1    H1 3773   3.316   2.503  13.217  0.4533 -0.3022  0.4335
  245MPD1    H2 3774   2.919   2.526  13.370  0.3047 -0.8115 -1.0154
  245MPD1    H3 3775   3.080   2.419  13.236  3.3680 -0.1829 -2.0111
  245MPD1     N 3776   3.406   2.733  13.336  0.0391 -0.1815 -0.0098
  245MPD1    H5 3777   3.416   2.827  13.373  1.3969 -0.1640 -0.4298
  245MPD1    N1 3778   2.952   2.762  13.504  0.1370 -0.5483  0.0277
  245MPD1    H6 3779   2.859   2.738  13.469 -1.1414  1.9523  1.7038
  245MPD1    H7 3780   2.970   2.862  13.513 -2.3505  0.1530 -2.6182
  246MPD1     C 3781   4.497   1.487   9.422 -0.0885  0.1906 -0.1350
  246MPD1    C1 3782   4.558   1.529   9.538 -0.8322 -0.4002 -0.8011
  246MPD1    C2 3783   4.572   1.664   9.553 -0.1242 -0.7821  0.4031
  246MPD1    C3 3784   4.542   1.755   9.452 -0.5535  0.7141  0.7790
  246MPD1    C4 3785   4.487   1.706   9.336 -0.6177  0.0538 -0.6571
  246MPD1    C5 3786   4.449   1.578   9.330 -0.2962 -0.1424 -0.2116
  246MPD1     H 3787   4.629   1.697   9.639 -1.9729  1.3260  0.8071
  246MPD1    H1 3788   4.424   1.769   9.274 -0.8840  0.6936  0.2821
  246MPD1    H2 3789   4.496   1.383   9.394 -1.8554 -0.3767  1.9700
  246MPD1    H3 3790   4.413   1.543   9.234  0.9576 -0.6271 -0.5157
  246MPD1     N 3791   4.567   1.894   9.470  0.3813 -0.4024 -0.7099
  246MPD1    H5 3792   4.604   1.917   9.562 -0.4818 -0.6264 -0.3077
  246MPD1    N1 3793   4.624   1.436   9.622  0.0986 -0.2533 -0.2123
  246MPD1    H6 3794   4.623   1.474   9.717 -0.9272  2.0838 -1.1794
  246MPD1    H7 3795   4.580   1.344   9.619  1.1141 -0.7514  0.1421
  247MPD1     C 3796   2.876   2.130  17.119  0.4779 -0.5826 -0.5002
  247MPD1    C1 3797   2.933   2.235  17.046 -0.6642  0.8225  0.7948
  247MPD1    C2 3798   2.939   2.225  16.911 -0.7443  0.6430  1.2232
  247MPD1    C3 3799   2.913   2.104  16.845 -0.1261 -0.1261 -0.0881
  247MPD1    C4 3800   2.846   2.008  16.914 -0.1411  0.0225  0.1807
  247MPD1    C5 3801   2.827   2.019  17.050  0.6535 -0.1762  0.1557
  247MPD1     H 3802   2.972   2.314  16.858  0.8962 -2.0346 -2.2895
  247MPD1    H1 3803   2.810   1.920  16.861 -1.8764  0.7509  0.1573
  247MPD1    H2 3804   2.858   2.144  17.225  0.6113 -0.9601 -0.4282
  247MPD1    H3 3805   2.784   1.932  17.099 -1.0382 -0.0878 -1.1479
  247MPD1     N 3806   2.937   2.076  16.709  0.1461  0.4007 -0.0314
  247MPD1    H5 3807   2.899   1.991  16.669  0.7263 -0.1056  0.5019
  247MPD1    N1 3808   2.953   2.361  17.110  0.3924  0.4914  0.0075
  247MPD1    H6 3809   3.021   2.421  17.065 -2.5370  1.7915 -2.6750
  247MPD1    H7 3810   2.991   2.349  17.204 -0.5002  1.0781  0.4361
  248MPD1     C 3811   3.431   1.790  17.743  0.3177  0.3331  0.7140
  248MPD1    C1 3812   3.322   1.862   0.031 -0.3294  0.1209 -0.0848
  248MPD1    C2 3813   3.275   1.851   0.159  0.1981 -0.8538 -0.1160
  248MPD1    C3 3814   3.355   1.801   0.259  0.2153  0.1917  0.2860
  248MPD1    C4 3815   3.477   1.746   0.226  0.8289  0.1832 -0.3242
  248MPD1    C5 3816   3.513   1.732   0.097  0.5999 -0.8216  0.0043
  248MPD1     H 3817   3.179   1.893   0.187  0.9476  1.3877 -0.9609
  248MPD1    H1 3818   3.543   1.706   0.302  1.4435  3.8926  1.0721
  248MPD1    H2 3819   3.457   1.770  17.640  0.5407 -0.4528  0.9168
  248MPD1    H3 3820   3.611   1.689   0.075 -0.3248 -4.1290  2.4123
  248MPD1     N 3821   3.296   1.805   0.386 -0.3252  0.3890 -0.5532
  248MPD1    H5 3822   3.213   1.859   0.406 -1.0598 -0.7356 -0.6146
  248MPD1    N1 3823   3.247   1.916  17.677  0.1848  0.4049  0.0878
  248MPD1    H6 3824   3.189   1.991  17.713  0.1478  1.4501 -2.1443
  248MPD1    H7 3825   3.299   1.949  17.596  1.1999 -1.2059  0.0916
  249MPD1     C 3826   0.658   1.998   9.678 -0.3698 -0.5606 -0.3118
  249MPD1    C1 3827   0.696   1.961   9.804  0.1455 -0.0523 -0.3742
  249MPD1    C2 3828   0.821   2.000   9.850  0.3259 -0.2377  0.2235
  249MPD1    C3 3829   0.890   2.101   9.782 -0.1406  0.2735  0.1167
  249MPD1    C4 3830   0.849   2.139   9.657  0.3471  0.0123 -0.0281
  249MPD1    C5 3831   0.743   2.079   9.598  0.1647  0.5475 -0.1832
  249MPD1     H 3832   0.871   1.965   9.940 -2.3256 -2.5025  0.8124
  249MPD1    H1 3833   0.916   2.199   9.597 -0.4127 -1.3631 -2.2562
  249MPD1    H2 3834   0.570   1.948   9.641 -2.2716  0.3443  3.0481
  249MPD1    H3 3835   0.715   2.093   9.494 -0.1243 -0.4587 -0.2486
  249MPD1     N 3836   1.025   2.119   9.829 -0.1129 -0.7534  0.1037
  249MPD1    H5 3837   1.049   2.083   9.921  1.1385 -0.3729 -0.0712
  249MPD1    N1 3838   0.626   1.863   9.886  0.2645 -0.0496  0.5889
  249MPD1    H6 3839   0.657   1.863   9.983 -0.4634  2.3627  0.8236
  249MPD1    H7 3840   0.525   1.873   9.884  0.1681 -0.8071  2.2234
  250MPD2     C 3841   2.474   1.232  12.624  0.4312  0.0649 -0.1894
  250MPD2    C1 3842   2.365   1.298  12.681 -0.2284  0.1372  0.0949
  250MPD2    C2 3843   2.267   1.218  12.733 -0.8468 -0.4451 -0.1512
  250MPD2    C3 3844   2.277   1.086  12.756  0.1845 -0.6368 -0.1997
  250MPD2    C4 3845   2.398   1.023  12.719  0.0824  0.5530 -0.3288
  250MPD2    C5 3846   2.494   1.095  12.645 -0.3472 -0.7440  0.8471
  250MPD2     H 3847   2.180   1.268  12.773 -0.9376 -0.3359 -0.4907
  250MPD2    H1 3848   2.423   0.918  12.728  0.8318  0.6785 -0.9860
  250MPD2    H2 3849   2.548   1.284  12.564 -0.5479 -0.9346 -2.2587
  250MPD2    H3 3850   2.586   1.049  12.609 -2.1902 -2.7470 -1.3113
  250MPD2     N 3851   2.183   1.011  12.832  0.9493  0.1019 -0.5674
  250MPD2    H5 3852   2.206   0.914  12.852  0.0647 -0.1554 -0.8337
  250MPD2    N1 3853   2.360   1.437  12.678 -0.1289 -0.2890 -0.2423
  250MPD2    H7 3854   2.444   1.492  12.660 -1.1192  1.1897 -0.3639
  251TMC3    C1 3855   2.289   1.644  12.760  0.0132 -0.2892 -0.1963
  251TMC3    C2 3856   2.187   1.702  12.839  0.0263  0.7584 -0.1121
  251TMC3    C3 3857   2.224   1.808  12.918 -0.0110 -0.0786 -0.6803
  251TMC3    C4 3858   2.421   1.677  12.779 -0.4354  0.3596 -0.4808
  251TMC3    C5 3859   2.445   1.777  12.867 -0.0564  0.3307 -0.7235
  251TMC3    C6 3860   2.351   1.852  12.936  0.8239 -0.2905 -0.6127
  251TMC3     C 3861   2.246   1.509  12.711  0.3325  0.3631  0.0643
  251TMC3     O 3862   2.127   1.473  12.703  0.4203  0.1112 -0.0184
  251TMC3     H 3863   2.085   1.665  12.834 -0.6071  2.1121  2.7713
  251TMC3    H1 3864   2.508   1.629  12.736  1.3243  2.4395  0.7365
  251TMC3    H2 3865   2.372   1.936  13.001  0.1792 -0.9143  0.3961
  251TMC3    C7 3866   2.585   1.821  12.878  0.4175  0.0370 -0.1760
  251TMC3    C8 3867   2.113   1.867  12.991  0.1392 -0.1400  0.1727
  251TMC3    O1 3868   2.673   1.732  12.871 -0.0575 -0.4826  0.2655
  251TMC3    O2 3869   2.017   1.797  13.005  0.0756 -0.0412 -0.9494
  252TMC3    C1 3870   1.558   3.231   9.974 -0.5424  0.1139  0.1539
  252TMC3    C2 3871   1.691   3.264   9.944  0.2718  0.0130 -0.1819
  252TMC3    C3 3872   1.786   3.168   9.965  0.3642  0.4281  0.2666
  252TMC3    C4 3873   1.519   3.105  10.011 -0.0286 -0.3273 -0.0573
  252TMC3    C5 3874   1.621   3.013  10.040 -1.0598 -0.1720  0.1875
  252TMC3    C6 3875   1.753   3.047  10.012 -0.2501  0.2622 -0.9081
  252TMC3     C 3876   1.467   3.341   9.990  0.0590  0.4223 -0.9707
  252TMC3     O 3877   1.509   3.458   9.986 -0.6556 -0.4559 -0.4545
  252TMC3     H 3878   1.720   3.358   9.899  1.7066  1.2375  3.2441
  252TMC3    H1 3879   1.414   3.084  10.025 -0.3448  2.3183  1.4334
  252TMC3    H2 3880   1.831   2.976  10.033 -1.1124  0.0975  1.7066
  252TMC3    C7 3881   1.581   2.881  10.094  0.4519  0.0461 -0.8671
  252TMC3    C8 3882   1.906   3.185   9.887  0.1501 -0.2322  0.5415
  252TMC3    O1 3883   1.460   2.860  10.097  0.1785 -0.1734  0.7388
  252TMC3    O2 3884   1.890   3.237   9.776  0.5179  0.0916 -0.5082
  253MPD2     C 3885   3.265   1.240  15.058  1.1603  0.7185 -1.0016
  253MPD2    C1 3886   3.129   1.277  15.062 -0.0230  0.2359 -0.0989
  253MPD2    C2 3887   3.062   1.267  15.185 -0.2700  0.5558 -0.3773
  253MPD2    C3 3888   3.132   1.228  15.296  0.1560 -0.2238  0.4238
  253MPD2    C4 3889   3.265   1.196  15.300  0.2002  0.0337 -0.6613
  253MPD2    C5 3890   3.329   1.201  15.177  0.2952 -0.5026  0.5819
  253MPD2     H 3891   2.960   1.302  15.189 -0.6940 -0.5633 -1.3418
  253MPD2    H1 3892   3.307   1.172  15.396 -0.2129  1.1095 -0.2054
  253MPD2    H2 3893   3.318   1.255  14.965  2.4042 -0.6357 -0.5096
  253MPD2    H3 3894   3.437   1.190  15.176  0.6326  3.4859 -4.1104
  253MPD2     N 3895   3.066   1.216  15.421 -0.1056 -0.0423  0.2262
  253MPD2    H5 3896   3.112   1.156  15.489  1.8826 -2.0192 -2.8189
  253MPD2    N1 3897   3.055   1.309  14.945  0.2008 -0.0391 -0.1104
  253MPD2    H7 3898   2.955   1.314  14.960  0.1436  0.3922 -0.6668
  254TMC3    C1 3899   2.896   1.222  15.589 -0.4068  0.1592 -0.2613
  254TMC3    C2 3900   2.763   1.209  15.617  0.0048  0.1174  0.0702
  254TMC3    C3 3901   2.726   1.194  15.748  0.2204  0.4923  0.0497
  254TMC3    C4 3902   2.991   1.207  15.686 -0.3346 -0.3422  0.2513
  254TMC3    C5 3903   2.945   1.195  15.816  0.2581 -0.6876  0.4137
  254TMC3    C6 3904   2.815   1.187  15.852 -0.3939 -0.5817 -0.0051
  254TMC3     C 3905   2.934   1.240  15.449  0.5664  0.1744 -1.1193
  254TMC3     O 3906   2.837   1.252  15.372 -0.0225 -0.0716  0.0554
  254TMC3     H 3907   2.683   1.208  15.544 -0.2380 -0.2183  0.3421
  254TMC3    H1 3908   3.097   1.197  15.664 -0.0379 -1.1434  2.0946
  254TMC3    H2 3909   2.782   1.171  15.954 -0.6215  0.0827  0.0259
  254TMC3    C7 3910   3.036   1.166  15.922 -0.0215 -0.2024  0.4729
  254TMC3    C8 3911   2.593   1.182  15.795 -0.2418 -0.2272  0.2748
  254TMC3    O1 3912   2.991   1.132  16.028 -0.2496 -0.6258  0.1623
  254TMC3    O2 3913   2.572   1.152  15.913  1.1309  0.1864 -0.6185
  255MPD2     C 3914   1.233   0.780  10.275 -0.5108  0.3615  0.2027
  255MPD2    C1 3915   1.127   0.750  10.197  0.0014  0.5447  0.3480
  255MPD2    C2 3916   1.151   0.714  10.063  0.3577 -0.3406  0.0121
  255MPD2    C3 3917   1.283   0.695  10.020  0.3980  0.9297  0.5528
  255MPD2    C4 3918   1.381   0.707  10.103 -0.9865 -0.0926 -0.7190
  255MPD2    C5 3919   1.357   0.756  10.227  0.4793  0.0470 -0.3758
  255MPD2     H 3920   1.071   0.690   9.994 -0.5673 -0.8372  1.2575
  255MPD2    H1 3921   1.485   0.694  10.074 -0.6955  1.3855 -0.3456
  255MPD2    H2 3922   1.229   0.813  10.378 -0.2700 -1.1727  0.7084
  255MPD2    H3 3923   1.444   0.781  10.287 -1.0460  0.8775  1.4840
  255MPD2     N 3924   1.302   0.684   9.878  0.0328 -0.1603 -0.4587
  255MPD2    H5 3925   1.223   0.650   9.823 -0.4016  0.3205 -0.1271
  255MPD2    N1 3926   0.996   0.767  10.254  0.3523  0.6581  0.4113
  255MPD2    H7 3927   0.990   0.804  10.348  0.8886  0.0754  0.6723
  256TMC3    C1 3928   0.753   0.768  10.272  0.1599  0.1792 -0.0133
  256TMC3    C2 3929   0.763   0.904  10.302  0.0216  0.1638  0.1542
  256TMC3    C3 3930   0.669   0.988  10.248 -0.0778 -0.9467 -0.0211
  256TMC3    C4 3931   0.640   0.721  10.213 -0.1621 -0.5098 -0.0759
  256TMC3    C5 3932   0.543   0.805  10.161  0.5859  0.6186 -0.0475
  256TMC3    C6 3933   0.559   0.939  10.178  0.1645  1.0065  0.1144
  256TMC3     C 3934   0.874   0.718  10.205 -0.1832  0.0371 -0.7992
  256TMC3     O 3935   0.847   0.646  10.114 -0.0181  0.6216  0.3373
  256TMC3     H 3936   0.837   0.938  10.374 -0.1293 -2.7870  1.7127
  256TMC3    H1 3937   0.631   0.613  10.205  1.4067 -0.5808 -0.9731
  256TMC3    H2 3938   0.482   1.007  10.143 -1.5831 -0.8125  0.4401
  256TMC3    C7 3939   0.454   0.745  10.064  0.5253  0.1197  0.5355
  256TMC3    C8 3940   0.720   1.105  10.180  0.4196  0.0148  0.1326
  256TMC3    O1 3941   0.455   0.626  10.071  0.2256  0.6438  0.1161
  256TMC3    O2 3942   0.644   1.171  10.110 -0.3003 -0.6740 -0.6657
  257MPD2     C 3943   0.115   0.944  12.530  0.4833  0.0022 -0.7359
  257MPD2    C1 3944   0.165   1.020  12.630  1.0490 -0.5250  0.3027
  257MPD2    C2 3945   0.216   0.956  12.748  0.7454 -0.1228  0.6018
  257MPD2    C3 3946   0.207   0.817  12.759  0.5809 -0.5640  0.1791
  257MPD2    C4 3947   0.148   0.745  12.652  0.1845  0.0397  0.9614
  257MPD2    C5 3948   0.115   0.808  12.540  0.3271  0.0910  0.2800
  257MPD2     H 3949   0.266   1.016  12.824  1.3360 -0.7337  0.6910
  257MPD2    H1 3950   0.155   0.637  12.655 -0.0126 -0.0124 -1.0542
  257MPD2    H2 3951   0.084   0.998  12.441  1.9577 -0.6758 -1.6666
  257MPD2    H3 3952   0.061   0.753  12.464 -1.2913  0.8463  0.8632
  257MPD2     N 3953   0.266   0.747  12.866  0.6301 -0.0056  0.2739
  257MPD2    H5 3954   0.283   0.798  12.952  1.0273 -2.2106  1.4996
  257MPD2    N1 3955   0.157   1.161  12.611  0.5006 -0.3951 -0.1172
  257MPD2    H7 3956   0.106   1.196  12.531 -0.9262  1.6994  1.7054
  258TMC3    C1 3957   0.395   0.585  12.979 -0.0009 -0.6865  0.3485
  258TMC3    C2 3958   0.495   0.501  12.961  0.0733 -0.8419  0.1547
  258TMC3    C3 3959   0.595   0.497  13.047  0.3732 -0.6935 -0.2254
  258TMC3    C4 3960   0.394   0.675  13.082  0.4322  0.3050 -0.2289
  258TMC3    C5 3961   0.501   0.668  13.169 -0.0709 -0.1105 -0.2601
  258TMC3    C6 3962   0.594   0.580  13.152 -1.1673 -0.2394  0.0379
  258TMC3     C 3963   0.319   0.619  12.861 -0.0652  0.0717  0.3285
  258TMC3     O 3964   0.344   0.550  12.763 -0.0947 -0.9348 -0.0606
  258TMC3     H 3965   0.511   0.454  12.865 -1.1734 -1.1817  0.1190
  258TMC3    H1 3966   0.309   0.741  13.095 -0.3530 -0.5143 -1.1984
  258TMC3    H2 3967   0.684   0.570  13.212 -0.9263  1.3658 -0.0502
  258TMC3    C7 3968   0.472   0.715  13.303 -0.2744  0.0270 -0.0597
  258TMC3    C8 3969   0.731   0.458  13.000  0.4725  0.3483 -0.0923
  258TMC3    O1 3970   0.356   0.728  13.340  0.2383  0.1832 -0.1087
  258TMC3    O2 3971   0.820   0.535  13.030  0.4124  0.2487  0.4017
  259MPD2     C 3972   3.990   2.831   0.978 -0.0861  0.0889  0.6281
  259MPD2    C1 3973   3.955   2.710   0.931  0.1410  0.1291 -0.5777
  259MPD2    C2 3974   3.923   2.685   0.799  0.1368 -0.0260  0.2347
  259MPD2    C3 3975   3.925   2.798   0.714 -0.3812  0.0115 -0.4282
  259MPD2    C4 3976   3.968   2.918   0.759 -1.3996  0.4174 -0.3073
  259MPD2    C5 3977   4.007   2.931   0.890  0.1453 -0.5314  0.4509
  259MPD2     H 3978   3.895   2.588   0.758  1.3726 -0.8618  1.3760
  259MPD2    H1 3979   3.983   3.005   0.695  0.2789  0.4428  0.1145
  259MPD2    H2 3980   4.019   2.856   1.079  1.0733  0.7054  0.1502
  259MPD2    H3 3981   4.054   3.022   0.924  0.3621 -0.6852  0.5606
  259MPD2     N 3982   3.887   2.789   0.572  0.2916 -0.9994 -0.6230
  259MPD2    H5 3983   3.880   2.694   0.536 -2.5977 -1.1857  0.4229
  259MPD2    N1 3984   3.962   2.611   1.026  0.0770 -0.6801  0.2707
  259MPD2    H7 3985   4.000   2.641   1.115  0.7633  0.8805 -0.5458
  260TMC3    C1 3986   3.842   2.853   0.346 -0.2231 -0.3444  0.3911
  260TMC3    C2 3987   3.879   2.954   0.261 -0.6637  0.2412 -0.6905
  260TMC3    C3 3988   3.916   2.915   0.137 -0.2739  0.0558 -0.0046
  260TMC3    C4 3989   3.832   2.722   0.312 -0.9740 -0.1644 -0.5737
  260TMC3    C5 3990   3.857   2.687   0.181 -0.3386  0.6195 -0.0556
  260TMC3    C6 3991   3.897   2.785   0.094  0.5717  0.4297 -0.2224
  260TMC3     C 3992   3.850   2.889   0.488  0.2208 -0.0635  0.3523
  260TMC3     O 3993   3.840   3.009   0.509  0.9269 -0.5829 -0.0050
  260TMC3     H 3994   3.863   3.059   0.285 -2.1943 -0.2650  0.5261
  260TMC3    H1 3995   3.784   2.654   0.382 -0.9022  0.5107  0.1270
  260TMC3    H2 3996   3.934   2.753  17.745  1.0986  0.5305 -0.0590
  260TMC3    C7 3997   3.887   2.556   0.134  0.5392 -0.1207  0.2104
  260TMC3    C8 3998   3.942   3.015   0.039 -0.6242 -0.1578  0.1629
  260TMC3    O1 3999   3.893   2.537   0.015  0.0084 -0.9374  0.7801
  260TMC3    O2 4000   3.901   3.127   0.070 -0.6212  0.5000  0.2720
  261MPD2     C 4001   1.364   0.955  12.940 -0.1392  0.2472  0.4318
  261MPD2    C1 4002   1.451   0.943  12.833  0.1964  0.1397  0.0579
  261MPD2    C2 4003   1.422   0.997  12.707 -0.7979 -0.2356  0.2564
  261MPD2    C3 4004   1.302   1.064  12.678  0.5880 -0.3975  0.3376
  261MPD2    C4 4005   1.212   1.067  12.789  0.0961 -0.0535  0.2746
  261MPD2    C5 4006   1.242   1.018  12.917  0.2548  0.2496 -0.1455
  261MPD2     H 4007   1.497   0.997  12.628 -1.4616  0.0688 -0.3667
  261MPD2    H1 4008   1.118   1.121  12.789  0.0892 -0.0487  1.4857
  261MPD2    H2 4009   1.373   0.920  13.042  1.2008 -0.7227 -0.0244
  261MPD2    H3 4010   1.162   1.015  12.990  0.2526 -0.9509 -0.1851
  261MPD2     N 4011   1.271   1.118  12.551  0.2367 -0.0067 -0.2248
  261MPD2    H5 4012   1.339   1.098  12.478  0.1430 -1.4184  0.0830
  261MPD2    N1 4013   1.583   0.896  12.853  0.3496  0.0467 -0.5680
  261MPD2    H7 4014   1.637   0.903  12.767  1.4092  1.5738  0.2124
  262TMC3    C1 4015   1.158   1.234  12.386 -0.4125 -0.1688 -0.1765
  262TMC3    C2 4016   1.115   1.355  12.346  0.3716 -0.0129 -0.1018
  262TMC3    C3 4017   1.129   1.385  12.213 -1.0529 -0.3192  0.0232
  262TMC3    C4 4018   1.193   1.145  12.295  0.7254  1.2112  0.3330
  262TMC3    C5 4019   1.202   1.175  12.166 -0.0948  0.0831 -0.4734
  262TMC3    C6 4020   1.168   1.298  12.119 -0.4649 -0.4964  0.4710
  262TMC3     C 4021   1.166   1.203  12.530  0.4210 -0.2876  0.1558
  262TMC3     O 4022   1.102   1.260  12.618 -0.1129  0.2612  0.1736
  262TMC3     H 4023   1.087   1.424  12.425  0.5529 -0.2401  0.1581
  262TMC3    H1 4024   1.199   1.041  12.328 -2.8071 -0.0320 -2.9795
  262TMC3    H2 4025   1.164   1.332  12.016  1.9928 -0.8443  0.2473
  262TMC3    C7 4026   1.235   1.074  12.068 -0.9719 -0.4521 -0.1255
  262TMC3    C8 4027   1.084   1.521  12.172 -0.0780  0.0803 -0.0225
  262TMC3    O1 4028   1.207   0.955  12.087 -0.0716 -0.4774 -0.5117
  262TMC3    O2 4029   1.147   1.571  12.077 -0.7487 -0.0814 -0.5094
  263MPD2     C 4030   2.549   0.385  11.377  0.3337 -0.2614 -0.1865
  263MPD2    C1 4031   2.652   0.471  11.358 -0.2700  0.4453  0.1110
  263MPD2    C2 4032   2.649   0.557  11.256 -0.5318  0.2633 -0.2728
  263MPD2    C3 4033   2.543   0.558  11.164 -0.3327  0.2585 -0.2229
  263MPD2    C4 4034   2.439   0.470  11.183  0.4868 -0.4634  0.2135
  263MPD2    C5 4035   2.445   0.377  11.287  0.2741 -0.2488 -0.0500
  263MPD2     H 4036   2.734   0.618  11.228 -1.0746  0.8793 -0.5706
  263MPD2    H1 4037   2.348   0.474  11.125  1.3971  1.7055 -1.0674
  263MPD2    H2 4038   2.530   0.341  11.474  0.4109 -2.7789 -1.3071
  263MPD2    H3 4039   2.358   0.315  11.306  2.0414 -2.7620 -0.1642
  263MPD2     N 4040   2.561   0.644  11.054  0.1682 -0.4018  0.0653
  263MPD2    H5 4041   2.625   0.722  11.048  1.6989 -1.7336 -0.9452
  263MPD2    N1 4042   2.769   0.449  11.446 -0.3258 -0.3092  0.0450
  263MPD2    H7 4043   2.754   0.371  11.510 -2.7309  0.4554  0.4054
  264TMC3    C1 4044   2.507   0.725  10.852  0.6170 -0.1757 -0.5722
  264TMC3    C2 4045   2.501   0.860  10.881  1.1745  0.2636  0.6324
  264TMC3    C3 4046   2.531   0.958  10.791  0.2963 -0.1761  0.6218
  264TMC3    C4 4047   2.540   0.687  10.723  0.1333  0.0346  0.6709
  264TMC3    C5 4048   2.565   0.785  10.633 -0.7880 -0.3306 -0.2050
  264TMC3    C6 4049   2.571   0.922  10.670  0.5740  0.5985 -0.1220
  264TMC3     C 4050   2.487   0.626  10.945  0.5948  0.4011 -0.3191
  264TMC3     O 4051   2.427   0.525  10.910  0.1041 -0.2297 -0.1758
  264TMC3     H 4052   2.476   0.890  10.982  0.8069  2.3132 -0.0509
  264TMC3    H1 4053   2.562   0.585  10.693 -2.5461  0.4739 -2.7816
  264TMC3    H2 4054   2.618   0.996  10.606  1.4808  0.5693  0.5169
  264TMC3    C7 4055   2.631   0.753  10.505  0.3957 -0.0059 -0.4669
  264TMC3    C8 4056   2.589   1.077  10.839  0.1367  0.5061  0.1518
  264TMC3    O1 4057   2.683   0.643  10.487 -0.4924  0.5053  0.5322
  264TMC3    O2 4058   2.685   1.125  10.777  0.2114  0.3594  0.0271
  265MPD2     C 4059   4.124   0.712  15.402  0.1325 -0.0015 -0.2271
  265MPD2    C1 4060   4.087   0.831  15.343 -0.6463 -0.7375 -0.1037
  265MPD2    C2 4061   4.109   0.848  15.206 -0.0816 -0.1242 -0.1913
  265MPD2    C3 4062   4.175   0.743  15.133 -0.0842  0.0349  0.7948
  265MPD2    C4 4063   4.220   0.633  15.198 -0.3823 -0.0652 -0.2519
  265MPD2    C5 4064   4.185   0.615  15.328  0.1580 -0.3079  0.7732
  265MPD2     H 4065   4.077   0.939  15.156 -1.4558 -0.5884 -0.1490
  265MPD2    H1 4066   4.258   0.542  15.152 -1.5152 -0.3530 -0.6205
  265MPD2    H2 4067   4.100   0.689  15.505 -1.9606  1.5187 -0.3722
  265MPD2    H3 4068   4.192   0.520  15.379 -0.7221 -0.6167  0.3198
  265MPD2     N 4069   4.193   0.751  14.989 -0.3438 -0.7972 -0.1611
  265MPD2    H5 4070   4.239   0.675  14.941 -1.1341 -0.4525 -1.4673
  265MPD2    N1 4071   4.037   0.939  15.416  0.3769  0.2867 -0.0185
  265MPD2    H7 4072   4.032   1.020  15.355 -2.4086  1.7079  2.0961
  266TMC3    C1 4073   4.013   1.082  15.591 -0.1774  0.3252  0.1081
  266TMC3    C2 4074   4.102   1.102  15.692 -0.1251  0.0961 -0.3108
  266TMC3    C3 4075   4.156   1.226  15.722 -0.6619  0.2112  0.2825
  266TMC3    C4 4076   3.986   1.189  15.503  0.5244  0.1157 -0.4350
  266TMC3    C5 4077   4.048   1.306  15.527  0.0790  0.1776 -0.2616
  266TMC3    C6 4078   4.119   1.332  15.641 -0.6508  0.1561  0.7068
  266TMC3     C 4079   4.019   0.941  15.551 -0.5113  0.3042 -0.3933
  266TMC3     O 4080   4.018   0.848  15.630 -0.0250  0.2689 -0.2471
  266TMC3     H 4081   4.125   1.021  15.759 -2.6672  1.1738  1.8546
  266TMC3    H1 4082   3.913   1.183  15.423  0.3430 -1.6183 -0.1248
  266TMC3    H2 4083   4.168   1.429  15.649  0.7355 -0.4373 -0.5883
  266TMC3    C7 4084   4.005   1.429  15.457 -0.0044 -0.3659  1.1262
  266TMC3    C8 4085   4.252   1.236  15.832 -0.4479  0.8952 -0.4182
  266TMC3    O1 4086   4.004   1.532  15.525  0.2668 -0.3407  0.1806
  266TMC3    O2 4087   4.295   1.135  15.883 -0.0463  0.5702 -0.3152
  267MPD2     C 4088   1.228   1.824   0.851  0.0329 -0.3596  0.0525
  267MPD2    C1 4089   1.252   1.958   0.845 -1.0261  0.5787  0.5881
  267MPD2    C2 4090   1.147   2.041   0.795 -0.1269 -0.9548 -0.4259
  267MPD2    C3 4091   1.023   1.995   0.749 -0.5421  0.1334  0.1814
  267MPD2    C4 4092   1.013   1.864   0.753  0.3443 -0.0819 -0.0249
  267MPD2    C5 4093   1.109   1.779   0.808  0.8328  0.8565 -0.3949
  267MPD2     H 4094   1.163   2.149   0.796 -2.9220 -0.5369  0.0962
  267MPD2    H1 4095   0.922   1.813   0.725 -0.4767  1.1468  0.4432
  267MPD2    H2 4096   1.292   1.750   0.897  0.9714 -0.8633 -2.0566
  267MPD2    H3 4097   1.090   1.672   0.816 -0.3959  0.9978 -1.3751
  267MPD2     N 4098   0.914   2.070   0.710 -0.2772 -0.3235  0.1854
  267MPD2    H5 4099   0.829   2.028   0.673  0.2796 -1.7195  0.4651
  267MPD2    N1 4100   1.374   2.012   0.893 -0.2065 -0.5055 -0.3448
  267MPD2    H7 4101   1.395   2.110   0.882  2.3658 -1.2829 -2.5325
  268TMC3    C1 4102   1.578   2.025   0.996  0.6893 -0.0725  0.5114
  268TMC3    C2 4103   1.622   2.116   0.902 -0.0016 -0.3655 -0.3603
  268TMC3    C3 4104   1.724   2.193   0.939  0.4766 -0.6779  0.6769
  268TMC3    C4 4105   1.640   2.004   1.119  0.0905  0.3273 -0.7318
  268TMC3    C5 4106   1.745   2.084   1.138  0.6076  0.0842  0.1311
  268TMC3    C6 4107   1.794   2.177   1.054 -0.2009  0.1107 -0.2216
  268TMC3     C 4108   1.465   1.942   0.968 -0.2675 -0.9135  0.2263
  268TMC3     O 4109   1.444   1.844   1.041 -0.7322 -0.3198 -0.3742
  268TMC3     H 4110   1.576   2.121   0.804 -1.4567 -0.0185  0.3411
  268TMC3    H1 4111   1.604   1.938   1.196 -1.4466  3.4774  1.2684
  268TMC3    H2 4112   1.875   2.245   1.080 -1.2586  0.8571  1.1121
  268TMC3    C7 4113   1.834   2.044   1.241 -0.6747  0.1342  0.9747
  268TMC3    C8 4114   1.804   2.265   0.839  0.3662 -0.1988 -0.0383
  268TMC3    O1 4115   1.840   1.924   1.264 -0.0255  0.3129 -0.4196
  268TMC3    O2 4116   1.916   2.301   0.870  0.2475  0.2257  0.7841
  269MPD2     C 4117   1.940   1.515  15.344  0.1269  1.1148 -1.0860
  269MPD2    C1 4118   1.814   1.561  15.356 -0.1733  0.1716  0.8119
  269MPD2    C2 4119   1.795   1.701  15.347 -0.1979  0.0862  0.2874
  269MPD2    C3 4120   1.898   1.788  15.330 -0.2276  0.1854  0.3353
  269MPD2    C4 4121   2.026   1.735  15.311 -0.3630  0.4890 -0.4896
  269MPD2    C5 4122   2.042   1.600  15.318  0.6880 -0.4737 -0.4036
  269MPD2     H 4123   1.693   1.739  15.343  0.8152  2.9920  2.6041
  269MPD2    H1 4124   2.113   1.790  15.276  0.5656 -1.3140 -1.0088
  269MPD2    H2 4125   1.968   1.410  15.346  0.2522  1.1664 -0.3059
  269MPD2    H3 4126   2.145   1.567  15.307  1.0590  0.0677  1.3856
  269MPD2     N 4127   1.865   1.927  15.335  0.2128 -0.7128  0.0129
  269MPD2    H5 4128   1.766   1.949  15.340  0.9046  2.0227  1.4809
  269MPD2    N1 4129   1.712   1.461  15.360 -0.3606 -0.1236  0.2183
  269MPD2    H7 4130   1.754   1.369  15.359 -0.5983 -0.2272 -0.5241
  270TMC3    C1 4131   1.491   1.375  15.365 -0.0872  0.1271 -0.3713
  270TMC3    C2 4132   1.505   1.303  15.248  0.0154  0.0009  0.2869
  270TMC3    C3 4133   1.413   1.201  15.229  0.1667 -0.4063 -0.6553
  270TMC3    C4 4134   1.397   1.341  15.463  0.0026 -0.0828  0.1455
  270TMC3    C5 4135   1.316   1.229  15.442 -0.0662 -0.3861  0.1748
  270TMC3    C6 4136   1.318   1.165  15.324 -0.2408 -0.6330 -0.2121
  270TMC3     C 4137   1.579   1.491  15.389  0.1525 -0.0574  0.6311
  270TMC3     O 4138   1.528   1.584  15.445  0.0290 -0.1015 -0.0897
  270TMC3     H 4139   1.571   1.335  15.168 -0.2498 -0.3414 -0.0735
  270TMC3    H1 4140   1.399   1.401  15.553  4.0179 -0.1697  0.1335
  270TMC3    H2 4141   1.262   1.074  15.305 -2.7520  0.7573  0.5681
  270TMC3    C7 4142   1.222   1.195  15.553  0.0421  0.1788 -0.4794
  270TMC3    C8 4143   1.421   1.131  15.100  0.6632 -0.0339  0.0568
  270TMC3    O1 4144   1.174   1.304  15.593  0.8580 -0.1283 -0.4981
  270TMC3    O2 4145   1.337   1.050  15.066 -0.0039 -0.4530 -0.1940
  271MPD2     C 4146   1.430   1.254  13.656 -0.0922  0.2865  0.4888
  271MPD2    C1 4147   1.352   1.241  13.772  0.2722 -0.3105  0.2817
  271MPD2    C2 4148   1.244   1.326  13.783  0.1748 -0.3703 -0.3604
  271MPD2    C3 4149   1.205   1.420  13.686  0.3952 -0.1583  0.5891
  271MPD2    C4 4150   1.298   1.452  13.588  0.6928  0.0332 -0.4569
  271MPD2    C5 4151   1.401   1.359  13.569 -0.5581 -0.3613  0.2414
  271MPD2     H 4152   1.189   1.321  13.877 -1.4966  0.1566 -1.3144
  271MPD2    H1 4153   1.287   1.536  13.520 -0.9379 -1.1351 -1.6201
  271MPD2    H2 4154   1.519   1.194  13.641  0.0132  0.3468  0.8773
  271MPD2    H3 4155   1.474   1.379  13.491 -1.4656 -1.7842 -0.9732
  271MPD2     N 4156   1.081   1.495  13.696  0.2988  0.6540  0.0953
  271MPD2    H5 4157   1.061   1.561  13.622 -1.2581  0.5552  0.4292
  271MPD2    N1 4158   1.377   1.148  13.867  0.5018  0.1965 -0.1779
  271MPD2    H7 4159   1.313   1.155  13.946  1.7694  0.2146  0.8457
  272TMC3    C1 4160   1.491   1.009  14.006 -0.9645  0.9117 -0.5376
  272TMC3    C2 4161   1.621   0.965  14.044 -0.3016  0.1081  0.2188
  272TMC3    C3 4162   1.648   0.938  14.178 -0.4285  1.4958  0.1726
  272TMC3    C4 4163   1.397   1.036  14.102  0.2804 -0.2291  0.0873
  272TMC3    C5 4164   1.426   1.002  14.230 -0.3955  0.1034 -0.3252
  272TMC3    C6 4165   1.544   0.954  14.278 -0.0126  0.2936 -0.0954
  272TMC3     C 4166   1.492   1.080  13.884  0.6174  0.4115 -0.1563
  272TMC3     O 4167   1.587   1.071  13.807  0.3109  0.3886  0.1358
  272TMC3     H 4168   1.705   0.950  13.978  1.3240  1.0546  2.0616
  272TMC3    H1 4169   1.304   1.090  14.086 -1.7003 -2.7485  3.0637
  272TMC3    H2 4170   1.559   0.949  14.385  2.6104 -0.1359 -0.4996
  272TMC3    C7 4171   1.332   1.060  14.323  0.3730  0.6429  0.5538
  272TMC3    C8 4172   1.764   0.869  14.216  0.3135 -0.3643  0.5262
  272TMC3    O1 4173   1.216   1.078  14.292  0.4622 -0.1029 -0.3353
  272TMC3    O2 4174   1.845   0.840  14.129  0.7432  0.0414  0.1568
  273MPD2     C 4175   2.822   4.209  11.765  0.3943  0.5896  0.3359
  273MPD2    C1 4176   2.951   4.248  11.747 -0.5188 -1.0428  0.1931
  273MPD2    C2 4177   3.007   4.248  11.616 -0.2873 -0.5072 -0.5319
  273MPD2    C3 4178   2.940   4.192  11.508 -0.3344  0.2358  0.4349
  273MPD2    C4 4179   2.816   4.142  11.533  0.1803 -0.3332 -0.4912
  273MPD2    C5 4180   2.752   4.159  11.653 -0.0030 -0.0446  0.9699
  273MPD2     H 4181   3.109   4.280  11.600 -0.0695 -0.6199  0.6425
  273MPD2    H1 4182   2.754   4.101  11.454 -0.9865  1.2534 -0.4052
  273MPD2    H2 4183   2.776   4.205  11.863 -1.1154  0.1132 -0.3972
  273MPD2    H3 4184   2.658   4.106  11.656  0.5348 -1.3356 -4.3560
  273MPD2     N 4185   3.017   4.186  11.385 -0.0651  0.3470  0.2567
  273MPD2    H5 4186   3.103   4.240  11.385 -0.9111  1.6806  1.0514
  273MPD2    N1 4187   3.023   4.306  11.853  0.5670 -0.2968  0.0871
  273MPD2    H7 4188   2.987   4.299  11.948 -0.8335  2.3500 -0.2405
  274TMC3    C1 4189   3.043   4.152  11.145 -0.3545  0.0869 -0.0645
  274TMC3    C2 4190   2.987   4.094  11.033 -0.2832  0.1272  0.1401
  274TMC3    C3 4191   3.027   4.151  10.910 -0.1289 -0.2144 -0.1042
  274TMC3    C4 4192   3.131   4.252  11.141 -0.0422 -0.5815  0.1260
  274TMC3    C5 4193   3.162   4.303  11.012  0.2089  0.4269 -0.2046
  274TMC3    C6 4194   3.117   4.249  10.894  0.9754 -0.6465  0.3109
  274TMC3     C 4195   2.969   4.125  11.266  0.0900 -0.1379  0.1980
  274TMC3     O 4196   2.869   4.059  11.252 -0.3003 -0.5313  0.1627
  274TMC3     H 4197   2.917   4.012  11.044  0.3781 -0.4263  0.2075
  274TMC3    H1 4198   3.178   4.298  11.227  2.0861 -3.3034  0.4414
  274TMC3    H2 4199   3.116   4.304  10.801 -0.7269 -3.2009 -1.1845
  274TMC3    C7 4200   3.232   4.427  11.010  0.0159  0.0169 -0.4799
  274TMC3    C8 4201   2.934   4.123  10.804 -0.2689  1.0938  0.1805
  274TMC3    O1 4202   3.290   4.442  10.905  0.0532 -0.2183  0.2781
  274TMC3    O2 4203   2.975   4.132  10.688  0.3048 -0.1922  0.2030
  275MPD2     C 4204   3.224   2.032  14.694 -0.3929 -0.5687  0.4849
  275MPD2    C1 4205   3.130   2.128  14.702  0.3765  0.2689 -0.3791
  275MPD2    C2 4206   3.008   2.109  14.641  0.0157 -0.4404  0.3510
  275MPD2    C3 4207   2.987   1.993  14.565  0.4724 -0.8636 -0.1294
  275MPD2    C4 4208   3.085   1.899  14.563 -0.0915  0.1917 -0.2097
  275MPD2    C5 4209   3.204   1.915  14.627 -0.2953  0.5806  0.1955
  275MPD2     H 4210   2.923   2.173  14.664 -0.5182  0.1394 -3.2675
  275MPD2    H1 4211   3.079   1.805  14.509  0.2497 -0.9239  1.6738
  275MPD2    H2 4212   3.325   2.053  14.727 -0.0971  0.3804 -0.9945
  275MPD2    H3 4213   3.278   1.835  14.625  0.5039  1.3783 -2.6640
  275MPD2     N 4214   2.864   1.965  14.502  0.7531  0.2267 -0.2090
  275MPD2    H5 4215   2.858   1.881  14.445  0.4310  0.3114 -0.3035
  275MPD2    N1 4216   3.160   2.244  14.774  0.0491 -0.6093 -0.2087
  275MPD2    H7 4217   3.234   2.239  14.843  1.4638  2.7105 -1.4861
  276TMC3    C1 4218   3.095   2.451  14.865 -0.1667  0.1140  0.2380
  276TMC3    C2 4219   2.972   2.460  14.914 -0.0558  0.3528  0.3707
  276TMC3    C3 4220   2.952   2.470  15.048  0.3337 -0.2437  0.0390
  276TMC3    C4 4221   3.207   2.451  14.945  0.3006 -0.9387  0.4697
  276TMC3    C5 4222   3.184   2.455  15.082  0.6362  0.0308 -0.8291
  276TMC3    C6 4223   3.061   2.480  15.134 -0.3850  0.2443 -0.0911
  276TMC3     C 4224   3.095   2.362  14.754 -0.2521  0.5497 -0.5944
  276TMC3     O 4225   3.022   2.391  14.663 -0.0290 -0.1894 -0.0272
  276TMC3     H 4226   2.891   2.445  14.844  0.1157 -3.1705  0.9300
  276TMC3    H1 4227   3.305   2.461  14.899  1.2471 -0.5393  2.5583
  276TMC3    H2 4228   3.048   2.477  15.241 -3.5229 -0.2002 -0.4826
  276TMC3    C7 4229   3.297   2.463  15.173 -0.2665 -0.4397 -0.0481
  276TMC3    C8 4230   2.849   2.372  15.087  0.2720 -0.1528  0.4398
  276TMC3    O1 4231   3.280   2.505  15.287 -0.5834  0.2576 -0.2736
  276TMC3    O2 4232   2.769   2.394  15.177 -0.2817 -0.0886 -0.2569
  277MPD2     C 4233   4.324   1.530  13.068  0.2744  0.5836  0.0366
  277MPD2    C1 4234   4.244   1.587  13.167 -0.2196 -0.1283 -0.6373
  277MPD2    C2 4235   4.221   1.504  13.278 -0.2435  0.2873 -0.6352
  277MPD2    C3 4236   4.277   1.379  13.288 -0.7199 -0.3082 -0.4136
  277MPD2    C4 4237   4.355   1.331  13.190  0.7281 -0.3198  0.7794
  277MPD2    C5 4238   4.376   1.402  13.076  0.2032  0.3139 -0.2430
  277MPD2     H 4239   4.154   1.537  13.357 -1.8257 -1.8663 -1.0648
  277MPD2    H1 4240   4.405   1.235  13.192 -1.1306 -1.2524  2.0657
  277MPD2    H2 4241   4.347   1.582  12.976  1.2595  1.8112  0.9784
  277MPD2    H3 4242   4.451   1.366  13.007 -0.1201  1.3695 -1.1380
  277MPD2     N 4243   4.238   1.322  13.407 -0.3883 -0.1048 -0.0875
  277MPD2    H5 4244   4.160   1.365  13.456 -1.2616 -2.2187  0.3798
  277MPD2    N1 4245   4.192   1.719  13.156  0.1119  0.8983  0.0363
  277MPD2    H7 4246   4.213   1.774  13.073  1.8842 -0.1337 -0.1904
  278TMC3    C1 4247   4.214   1.189  13.593 -0.2729  0.4419 -0.0244
  278TMC3    C2 4248   4.220   1.057  13.638  0.2027  0.1728 -0.1947
  278TMC3    C3 4249   4.117   1.020  13.715  0.1662 -0.0412 -0.3731
  278TMC3    C4 4250   4.116   1.277  13.632  0.4161 -0.6017  0.0573
  278TMC3    C5 4251   4.018   1.225  13.709  0.1791  0.1278 -0.5287
  278TMC3    C6 4252   4.011   1.096  13.741  0.0128 -0.0787 -0.7421
  278TMC3     C 4253   4.287   1.211  13.470 -0.0852 -0.3935 -0.3706
  278TMC3     O 4254   4.378   1.135  13.439  0.0410 -0.3820 -0.0566
  278TMC3     H 4255   4.295   0.985  13.604  0.3254  0.2373 -0.0605
  278TMC3    H1 4256   4.110   1.380  13.597  0.8013 -1.1266 -1.5673
  278TMC3    H2 4257   3.927   1.054  13.796  0.0836  0.1461 -0.4641
  278TMC3    C7 4258   3.895   1.303  13.715  0.5231 -0.4012  0.6689
  278TMC3    C8 4259   4.122   0.881  13.750 -0.3869 -0.9029 -0.6993
  278TMC3    O1 4260   3.917   1.419  13.743  0.6234 -0.4078 -0.7159
  278TMC3    O2 4261   4.230   0.820  13.750 -0.0472  0.3465 -0.0088
  279MPD2     C 4262   4.077   0.842   0.120 -0.0151 -0.0501  0.0881
  279MPD2    C1 4263   3.963   0.896   0.077  0.1861  0.3672  0.5482
  279MPD2    C2 4264   3.948   0.940  17.697  0.4535  0.3671 -0.2694
  279MPD2    C3 4265   4.056   0.935  17.607 -0.1513  0.5264  0.2475
  279MPD2    C4 4266   4.175   0.884  17.661 -0.6693 -0.1807  0.6285
  279MPD2    C5 4267   4.191   0.833   0.038 -0.2401 -0.2817  0.4667
  279MPD2     H 4268   3.854   0.989  17.673 -1.4449 -2.6711  0.9914
  279MPD2    H1 4269   4.267   0.877  17.604 -0.7903 -0.2375  0.4419
  279MPD2    H2 4270   4.083   0.822   0.227  2.5146  0.3160  0.0056
  279MPD2    H3 4271   4.282   0.782   0.064  0.0378 -0.4660 -0.8664
  279MPD2     N 4272   4.047   0.972  17.474  0.8121  0.4936  0.3653
  279MPD2    H5 4273   4.132   0.954  17.422  0.9519 -0.8236  1.0587
  279MPD2    N1 4274   3.847   0.896   0.150  0.1249 -0.2489  0.1053
  279MPD2    H7 4275   3.762   0.940   0.117  0.5686  0.5979  0.0930
  280TMC3    C1 4276   3.701   0.841   0.303 -0.5386  0.5910 -0.3817
  280TMC3    C2 4277   3.613   0.743   0.273  0.5667  0.1532 -0.7964
  280TMC3    C3 4278   3.478   0.770   0.286 -0.2839  0.2124 -0.0292
  280TMC3    C4 4279   3.663   0.972   0.337 -0.3737 -0.8642 -0.7694
  280TMC3    C5 4280   3.528   0.992   0.349  0.6570 -0.5280 -0.2730
  280TMC3    C6 4281   3.430   0.896   0.321 -0.2078  0.4432 -0.3200
  280TMC3     C 4282   3.834   0.812   0.250 -0.6503  0.2834  0.1494
  280TMC3     O 4283   3.883   0.703   0.275 -0.3685  0.1338 -0.6234
  280TMC3     H 4284   3.650   0.642   0.264 -0.3086 -0.1742 -0.6183
  280TMC3    H1 4285   3.735   1.054   0.340 -0.4655 -0.8167  0.1299
  280TMC3    H2 4286   3.324   0.913   0.337  0.3156  0.9402  2.5422
  280TMC3    C7 4287   3.484   1.108   0.421 -0.7054 -0.8049 -0.4979
  280TMC3    C8 4288   3.380   0.656   0.272  1.0549 -0.2026 -0.4349
  280TMC3    O1 4289   3.565   1.149   0.504  0.8824  0.5648  0.3410
  280TMC3    O2 4290   3.266   0.679   0.314 -0.3254 -0.3746  0.1590
  281TMC3    C1 4291   2.856   1.974  13.288 -0.1503 -0.3326 -0.0944
  281TMC3    C2 4292   2.963   2.005  13.208 -0.7670 -0.3182  0.0425
  281TMC3    C3 4293   3.019   1.892  13.152  0.0385  0.2765  0.0102
  281TMC3    C4 4294   2.820   1.842  13.309  0.3804  0.2746 -0.6446
  281TMC3    C5 4295   2.867   1.738  13.244  0.4123  0.1356  0.1995
  281TMC3    C6 4296   2.970   1.762  13.157 -0.1985 -0.2008 -0.0448
  281TMC3     C 4297   2.788   2.072  13.369 -0.2894  0.0956 -0.0674
  281TMC3     O 4298   2.757   2.046  13.486 -0.4448 -0.3623 -0.0507
  281TMC3     H 4299   3.016   2.099  13.209  1.1880 -1.4036 -1.1174
  281TMC3    H1 4300   2.742   1.829  13.384  0.3961  0.3943 -0.6077
  281TMC3    H2 4301   3.037   1.689  13.113 -2.1712 -0.8868 -1.9277
  281TMC3    C7 4302   2.773   1.631  13.224  0.4399 -0.1369 -0.6495
  281TMC3    C8 4303   3.128   1.916  13.054 -0.1162  0.4640  0.2599
  281TMC3    O1 4304   2.666   1.644  13.276 -0.4090 -0.5399  0.1199
  281TMC3    O2 4305   3.243   1.885  13.083  0.7252  0.1514 -0.0948
  282MPD2     C 4306   4.431   3.076  15.105  0.4934  0.3892  0.5574
  282MPD2    C1 4307   4.322   3.141  15.147  0.2565  0.1540  0.3932
  282MPD2    C2 4308   4.220   3.164  15.053  0.4935  0.4946 -0.3592
  282MPD2    C3 4309   4.224   3.112  14.924  0.4547  0.4895  0.2120
  282MPD2    C4 4310   4.331   3.031  14.889  0.1775  0.7680  0.0848
  282MPD2    C5 4311   4.432   3.023  14.980 -0.5309  0.8462  0.0037
  282MPD2     H 4312   4.133   3.224  15.076  1.0527  2.0040 -2.1961
  282MPD2    H1 4313   4.343   2.993  14.789 -0.3548 -0.3133  0.4344
  282MPD2    H2 4314   4.510   3.065  15.179  2.0511  2.4137 -0.7830
  282MPD2    H3 4315   4.522   2.971  14.949 -0.1799  1.8227 -0.6021
  282MPD2     N 4316   4.129   3.145  14.823  0.1902 -0.6999  0.1933
  282MPD2    H5 4317   4.062   3.215  14.851  0.4354 -0.4614  0.1781
  282MPD2    N1 4318   4.306   3.184  15.282 -0.2444 -0.2788 -0.7394
  282MPD2    H7 4319   4.217   3.228  15.304 -0.1413 -0.1391 -0.6002
  283TMC3    C1 4320   4.331   3.176  15.521  0.1841  0.0747 -0.2151
  283TMC3    C2 4321   4.261   3.291  15.530 -0.1236 -0.0268 -0.4153
  283TMC3    C3 4322   4.190   3.310  15.644 -0.0375 -0.6179 -0.3270
  283TMC3    C4 4323   4.330   3.080  15.620  0.2719  0.2591  0.2761
  283TMC3    C5 4324   4.251   3.100  15.729 -0.6120  0.1084 -0.3765
  283TMC3    C6 4325   4.186   3.216  15.740 -0.5480 -0.5130  0.6144
  283TMC3     C 4326   4.384   3.144  15.394  0.0110 -0.5888  0.0616
  283TMC3     O 4327   4.473   3.064  15.404 -0.3202  0.2079  0.0218
  283TMC3     H 4328   4.273   3.374  15.461 -1.6909  0.1588 -0.4626
  283TMC3    H1 4329   4.398   2.996  15.611 -0.9237 -0.3078 -3.3261
  283TMC3    H2 4330   4.121   3.232  15.824  0.0539  2.7387  0.4448
  283TMC3    C7 4331   4.221   2.994  15.818 -0.5038 -0.0433 -0.7954
  283TMC3    C8 4332   4.136   3.446  15.671  0.0442 -0.0515  0.1603
  283TMC3    O1 4333   4.193   3.023  15.930  0.2501 -0.0099  0.5531
  283TMC3    O2 4334   4.133   3.489  15.786 -0.3063 -0.8763 -0.1874
  284MPD2     C 4335   2.530   2.257  11.633 -0.3524 -0.8024  0.9586
  284MPD2    C1 4336   2.666   2.265  11.636  0.5401  0.7193  0.3539
  284MPD2    C2 4337   2.732   2.223  11.748 -0.7317  0.3514  0.4504
  284MPD2    C3 4338   2.662   2.164  11.857  0.5494  0.1785 -0.7227
  284MPD2    C4 4339   2.522   2.159  11.854  0.7686  0.3745 -0.2309
  284MPD2    C5 4340   2.463   2.217  11.744  0.6943  0.3551  0.2011
  284MPD2     H 4341   2.838   2.206  11.734 -0.2445  1.2394  2.9373
  284MPD2    H1 4342   2.462   2.120  11.936 -0.5015  0.1126 -1.2776
  284MPD2    H2 4343   2.470   2.307  11.558  0.2821 -0.6346  0.5541
  284MPD2    H3 4344   2.357   2.238  11.740  0.9513  1.5459 -0.3437
  284MPD2     N 4345   2.745   2.123  11.963 -0.0723 -0.2185 -0.4316
  284MPD2    H5 4346   2.844   2.144  11.951  0.0266 -0.2127  0.4176
  284MPD2    N1 4347   2.745   2.338  11.540 -0.7900  0.1439  0.1209
  284MPD2    H7 4348   2.837   2.368  11.572 -0.4045 -0.2893 -0.5722
  285TMC3    C1 4349   2.839   2.439  11.361  0.9026 -0.1351 -0.1353
  285TMC3    C2 4350   2.923   2.344  11.324 -1.1052  0.0275 -0.1833
  285TMC3    C3 4351   3.060   2.385  11.324 -1.3864 -0.6683 -0.2775
  285TMC3    C4 4352   2.873   2.567  11.388 -0.4794  0.5428 -0.6075
  285TMC3    C5 4353   3.002   2.603  11.390  0.8824  0.5363 -0.1534
  285TMC3    C6 4354   3.102   2.522  11.346  0.3577 -0.7629 -0.1321
  285TMC3     C 4355   2.715   2.389  11.415 -0.7155  0.2695  0.2413
  285TMC3     O 4356   2.608   2.377  11.355 -0.4049  0.5263  0.3771
  285TMC3     H 4357   2.899   2.239  11.314  1.1426 -0.2019 -3.2660
  285TMC3    H1 4358   2.802   2.627  11.443 -0.5965 -0.5045  0.3772
  285TMC3    H2 4359   3.205   2.556  11.341  0.3291 -0.7862 -0.8889
  285TMC3    C7 4360   3.037   2.736  11.435  0.7562  0.0257  0.8631
  285TMC3    C8 4361   3.148   2.277  11.296  0.1140  0.1209 -0.1710
  285TMC3    O1 4362   2.954   2.819  11.468 -0.2221 -0.2064 -0.0513
  285TMC3    O2 4363   3.103   2.160  11.301 -0.9533 -0.3179  0.3042
  286MPD2     C 4364   2.561   0.626   1.341  0.2447  0.0850  0.4595
  286MPD2    C1 4365   2.510   0.593   1.220 -0.3250 -0.4751  0.1818
  286MPD2    C2 4366   2.581   0.513   1.136  0.0152 -0.1832 -0.4145
  286MPD2    C3 4367   2.705   0.461   1.178  0.1333 -0.4587 -0.1341
  286MPD2    C4 4368   2.757   0.494   1.296 -0.7092  0.0985  0.2190
  286MPD2    C5 4369   2.689   0.578   1.373  0.4344 -0.4959  0.2702
  286MPD2     H 4370   2.538   0.474   1.045 -3.7101 -1.0880  1.7536
  286MPD2    H1 4371   2.851   0.456   1.333  0.4262 -0.1646 -2.9399
  286MPD2    H2 4372   2.505   0.688   1.409  2.6639  0.3527  2.2098
  286MPD2    H3 4373   2.723   0.585   1.476  0.1475 -0.3232  0.3524
  286MPD2     N 4374   2.776   0.365   1.104  0.1653 -0.2958 -0.3062
  286MPD2    H5 4375   2.859   0.327   1.148 -0.0403  1.0358  1.2389
  286MPD2    N1 4376   2.381   0.624   1.176 -0.0068  0.2796 -0.2579
  286MPD2    H7 4377   2.364   0.609   1.077 -0.4425  0.5139 -0.2192
  287TMC3    C1 4378   2.845   0.236   0.917 -0.4904  0.8454 -0.3361
  287TMC3    C2 4379   2.802   0.175   0.801  0.5115 -0.5021  0.2751
  287TMC3    C3 4380   2.898   0.097   0.733 -0.5436 -0.1802 -0.1762
  287TMC3    C4 4381   2.969   0.225   0.971  0.6570  0.0599  0.2353
  287TMC3    C5 4382   3.051   0.135   0.908  0.7863  0.1295 -0.1373
  287TMC3    C6 4383   3.030   0.083   0.782 -0.1571  0.0883  0.6479
  287TMC3     C 4384   2.749   0.322   0.974  0.0545 -0.4144  0.1610
  287TMC3     O 4385   2.652   0.353   0.908  0.4362 -0.6134 -0.7098
  287TMC3     H 4386   2.698   0.177   0.771  1.2569  0.4534 -2.2801
  287TMC3    H1 4387   2.987   0.272   1.067  0.7888 -0.4022  0.4382
  287TMC3    H2 4388   3.104   0.016   0.740  0.5521  1.6690 -0.6312
  287TMC3    C7 4389   3.191   0.183   0.923 -0.2786  0.6495 -0.0569
  287TMC3    C8 4390   2.864   0.052   0.600 -0.1321  0.1714  0.1214
  287TMC3    O1 4391   3.205   0.279   1.000 -0.0309 -0.4726  0.1717
  287TMC3    O2 4392   2.750   0.070   0.564  0.6695  0.5973  0.0522
  288TMC3    C1 4393   4.240   0.063  14.111 -0.4461  0.9484  0.0270
  288TMC3    C2 4394   4.151   0.160  14.088 -0.1372 -0.4792 -0.4159
  288TMC3    C3 4395   4.196   0.289  14.104  0.1454 -0.1495 -0.3683
  288TMC3    C4 4396   4.370   0.083  14.142 -0.2230 -0.6564 -0.5494
  288TMC3    C5 4397   4.410   0.211  14.162  0.6976  0.2423 -0.2547
  288TMC3    C6 4398   4.330   0.317  14.142 -0.1863 -0.0297 -1.1878
  288TMC3     C 4399   4.188   4.672  14.162 -0.5388 -0.3926  0.2574
  288TMC3     O 4400   4.069   4.673  14.184  0.2006 -0.0462  0.6676
  288TMC3     H 4401   4.050   0.132  14.057 -0.3085  0.2461 -0.5089
  288TMC3    H1 4402   4.447   0.007  14.147 -0.2492 -0.7055 -0.8910
  288TMC3    H2 4403   4.347   0.417  14.181  0.7777  0.0587 -1.8548
  288TMC3    C7 4404   4.501   0.233  14.277  0.6558  0.9036  0.6158
  288TMC3    C8 4405   4.105   0.399  14.147 -0.4881 -0.2278  0.3977
  288TMC3    O1 4406   4.505   0.148  14.363  0.1415  0.6521 -0.1095
  288TMC3    O2 4407   4.133   0.512  14.107  0.5283  0.9327 -0.4716
  289MPD2     C 4408   4.407   4.656  13.848 -0.3092  0.0196  0.3281
  289MPD2    C1 4409   4.326   0.004  13.780  0.1264  0.2047  0.3783
  289MPD2    C2 4410   4.190   4.707  13.759 -0.5393  0.6799  0.0500
  289MPD2    C3 4411   4.133   4.590  13.819  0.3533 -0.5633 -0.4036
  289MPD2    C4 4412   4.220   4.498  13.872 -0.0042 -0.1266  0.6821
  289MPD2    C5 4413   4.352   4.537  13.891 -0.8976  0.3717 -0.3439
  289MPD2     H 4414   4.123   0.050  13.729  0.2141  1.0041 -0.7471
  289MPD2    H1 4415   4.192   4.410  13.931  1.7361 -1.4489 -0.4617
  289MPD2    H2 4416   4.507   4.673  13.886 -0.8111 -1.4791  2.2987
  289MPD2    H3 4417   4.419   4.470  13.944  0.3770  1.1337 -0.9973
  289MPD2     N 4418   3.995   4.577  13.843 -0.5336  0.3719  0.3781
  289MPD2    H5 4419   3.970   4.488  13.884 -2.1248  0.9948  0.7907
  289MPD2    N1 4420   4.392   0.132  13.756  0.3646 -0.2251 -0.3846
  289MPD2    H7 4421   4.486   0.154  13.785  0.0568  0.8252 -0.1820
  290TMC3    C1 4422   3.768   4.618  13.873  0.0537 -0.0089 -0.4634
  290TMC3    C2 4423   3.652   4.672  13.833 -0.2730 -0.2969 -0.8077
  290TMC3    C3 4424   3.539   4.648  13.889  0.4278  0.2805  0.5030
  290TMC3    C4 4425   3.773   4.541  13.988  0.3483 -0.3650 -0.1986
  290TMC3    C5 4426   3.654   4.522  14.050  0.4507  0.1196  0.1936
  290TMC3    C6 4427   3.535   4.569  13.998 -0.1625 -0.1814 -0.6611
  290TMC3     C 4428   3.891   4.661  13.814 -0.9192  0.4871 -0.0028
  290TMC3     O 4429   3.895   0.030  13.757  0.0967  0.1430  0.1035
  290TMC3     H 4430   3.653   0.010  13.755  2.1881  2.8886  2.2526
  290TMC3    H1 4431   3.863   4.498  14.030  0.0376  2.2600  3.1432
  290TMC3    H2 4432   3.441   4.538  14.042 -1.2679  2.1755 -1.3547
  290TMC3    C7 4433   3.646   4.432  14.159 -0.1100  0.2381  0.2115
  290TMC3    C8 4434   3.428   4.737  13.869  0.6365 -0.0610  0.4526
  290TMC3    O1 4435   3.547   4.442  14.229 -0.4136  0.1446 -0.2302
  290TMC3    O2 4436   3.319   4.692  13.833 -0.3442 -0.4164 -0.1029
  291MPD2     C 4437   3.519   4.327   0.637  0.9986 -0.7153 -0.2454
  291MPD2    C1 4438   3.538   4.256   0.526  0.1128  0.2606  0.2004
  291MPD2    C2 4439   3.634   4.303   0.436 -0.6230  0.3995 -0.1118
  291MPD2    C3 4440   3.713   4.409   0.464  1.1111  0.2581 -0.0818
  291MPD2    C4 4441   3.686   4.487   0.575 -0.2162  0.3473 -0.7367
  291MPD2    C5 4442   3.584   4.449   0.655 -0.0348 -0.2211  0.4635
  291MPD2     H 4443   3.655   4.255   0.341 -0.8134  2.4147 -1.1792
  291MPD2    H1 4444   3.748   4.572   0.602 -0.3213 -0.4657  2.1117
  291MPD2    H2 4445   3.457   4.295   0.721 -0.0632 -0.3571 -0.8929
  291MPD2    H3 4446   3.570   4.504   0.747  0.7594  1.2192 -0.2713
  291MPD2     N 4447   3.817   4.457   0.380  1.2055  0.0583  0.6745
  291MPD2    H5 4448   3.865   4.544   0.400 -1.1564  1.1128  1.7775
  291MPD2    N1 4449   3.470   4.139   0.493 -0.1739 -0.3093 -0.2619
  291MPD2    H7 4450   3.517   4.073   0.432 -2.6273 -1.4436 -0.9315
  292TMC3    C1 4451   3.301   3.983   0.504 -0.0500 -0.3432 -0.4778
  292TMC3    C2 4452   3.160   3.981   0.488 -0.6877 -0.5308  0.2661
  292TMC3    C3 4453   3.105   3.878   0.417 -0.6441 -0.3073 -0.3537
  292TMC3    C4 4454   3.381   3.896   0.432 -0.3854  0.0803 -0.3835
  292TMC3    C5 4455   3.317   3.798   0.357 -0.2907  0.2331  0.7186
  292TMC3    C6 4456   3.181   3.791   0.349 -0.8236 -0.3279 -0.0388
  292TMC3     C 4457   3.349   4.103   0.555 -0.6015 -0.0782 -0.2710
  292TMC3     O 4458   3.274   4.168   0.625 -0.0836 -0.0690 -0.1550
  292TMC3     H 4459   3.099   4.037   0.557 -0.7833  0.5840 -0.7301
  292TMC3    H1 4460   3.489   3.905   0.426 -0.1133 -1.6525  1.9238
  292TMC3    H2 4461   3.129   3.710   0.299 -1.2840 -0.0593 -0.0004
  292TMC3    C7 4462   3.381   3.682   0.299  0.2692  0.2561  0.1308
  292TMC3    C8 4463   2.963   3.854   0.445  0.2318 -0.1734  0.4222
  292TMC3    O1 4464   3.328   3.634   0.205  0.0404 -0.3062 -0.9721
  292TMC3    O2 4465   2.895   3.952   0.476  0.6022  0.0869 -0.1460
  293MPD2     C 4466   0.561   0.831  12.631  0.3912  0.0911  0.6107
  293MPD2    C1 4467   0.580   0.967  12.619 -0.0856 -0.4673 -0.5591
  293MPD2    C2 4468   0.643   1.035  12.717 -0.9594  0.5392 -0.7388
  293MPD2    C3 4469   0.683   0.975  12.834 -0.6091 -0.3474  0.1137
  293MPD2    C4 4470   0.678   0.839  12.844  0.7962  0.2449 -0.3620
  293MPD2    C5 4471   0.622   0.764  12.740 -0.8302  1.1266  0.0882
  293MPD2     H 4472   0.656   1.142  12.708 -1.4702  0.7463  0.9910
  293MPD2    H1 4473   0.701   0.800  12.943 -1.4827  1.1677  0.5543
  293MPD2    H2 4474   0.485   0.784  12.570 -0.2799  0.3244  1.2630
  293MPD2    H3 4475   0.614   0.657  12.753 -0.3905  1.1677  0.6637
  293MPD2     N 4476   0.718   1.056  12.942 -0.4227 -0.0465  0.1938
  293MPD2    H5 4477   0.733   1.154  12.921  1.4485 -0.2933  0.3393
  293MPD2    N1 4478   0.540   1.045  12.506 -0.5429 -0.6712 -0.5706
  293MPD2    H7 4479   0.474   0.993  12.449 -0.5598  0.2454 -1.3872
  294TMC3    C1 4480   0.518   1.224  12.358 -0.2151 -1.1628 -0.6482
  294TMC3    C2 4481   0.384   1.200  12.351 -0.4133  0.7894 -0.1186
  294TMC3    C3 4482   0.316   1.276  12.258 -0.1750  0.2315 -0.5081
  294TMC3    C4 4483   0.590   1.304  12.271 -0.0651  0.9217  0.0549
  294TMC3    C5 4484   0.515   1.371  12.180  0.0312 -0.3795 -0.0655
  294TMC3    C6 4485   0.376   1.356  12.165  0.3343  0.0871 -0.3308
  294TMC3     C 4486   0.594   1.165  12.463 -0.6749  0.2204  0.1480
  294TMC3     O 4487   0.697   1.221  12.491 -0.0652  0.0412 -0.7068
  294TMC3     H 4488   0.338   1.133  12.422  0.3671 -0.4497 -0.7927
  294TMC3    H1 4489   0.695   1.324  12.290  0.5330 -0.6518 -1.5813
  294TMC3    H2 4490   0.311   1.405  12.094  1.0814 -1.0355 -1.8090
  294TMC3    C7 4491   0.589   1.436  12.076 -0.0235  0.1464 -0.4966
  294TMC3    C8 4492   0.189   1.215  12.217  0.4442 -0.0811  0.5422
  294TMC3    O1 4493   0.525   1.525  12.016  0.4802 -0.3791 -0.3506
  294TMC3    O2 4494   0.114   1.191  12.312  0.3260 -0.1120  0.0701
  295MPD2     C 4495   1.435   0.474   0.887 -0.5450 -0.4261  0.4638
  295MPD2    C1 4496   1.392   0.377   0.807 -0.0056  0.0107  0.3911
  295MPD2    C2 4497   1.271   0.320   0.831  0.1563 -0.0234 -0.1133
  295MPD2    C3 4498   1.189   0.353   0.940  0.0776  0.2891 -0.2068
  295MPD2    C4 4499   1.229   0.459   1.017 -0.2029  0.3368 -0.0399
  295MPD2    C5 4500   1.356   0.511   0.996 -0.1521 -0.0922  0.5833
  295MPD2     H 4501   1.238   0.244   0.761 -0.5838 -0.7661  1.0503
  295MPD2    H1 4502   1.178   0.493   1.106  1.3783  2.2167  0.1617
  295MPD2    H2 4503   1.531   0.525   0.882 -1.9044  2.2261  1.2638
  295MPD2    H3 4504   1.379   0.598   1.056  0.5712  0.1730 -0.0862
  295MPD2     N 4505   1.066   0.279   0.971  0.3482 -0.0952  0.6188
  295MPD2    H5 4506   1.007   0.298   1.051  0.5612  2.7335  0.0748
  295MPD2    N1 4507   1.457   0.331   0.695  0.1523 -0.0309  0.4310
  295MPD2    H7 4508   1.408   0.266   0.635  0.8768 -0.0876 -0.1099
  296TMC3    C1 4509   0.915   0.097   0.961 -0.0053  0.5774  0.7972
  296TMC3    C2 4510   0.825   0.168   1.042 -0.7594 -0.2939 -0.8858
  296TMC3    C3 4511   0.743   0.087   1.118  0.6671 -0.0207  0.0337
  296TMC3    C4 4512   0.934   4.700   0.970 -0.1300  0.4115 -0.4380
  296TMC3    C5 4513   0.852   4.630   1.044 -0.7700  0.6741  0.3942
  296TMC3    C6 4514   0.759   4.688   1.119  0.2151  0.7317 -0.5091
  296TMC3     C 4515   1.028   0.167   0.906 -0.3230 -0.2614 -0.1088
  296TMC3     O 4516   1.079   0.108   0.812  0.1538  0.4490  0.0884
  296TMC3     H 4517   0.797   0.269   1.013 -0.5056  0.1684  0.5033
  296TMC3    H1 4518   1.004   4.645   0.907  0.4355  0.4669  0.1468
  296TMC3    H2 4519   0.684   4.628   1.169  2.8214 -1.0375  1.2720
  296TMC3    C7 4520   0.841   4.486   1.007 -0.0621  0.0100 -0.4944
  296TMC3    C8 4521   0.621   0.143   1.167  0.5011  0.7611 -1.1058
  296TMC3    O1 4522   0.885   4.448   0.898 -0.5211 -0.3767  0.0005
  296TMC3    O2 4523   0.529   0.066   1.188 -0.4682  0.3986 -0.0266
  297MPD2     C 4524   3.267   1.486  16.692  0.4843  0.2882 -0.1732
  297MPD2    C1 4525   3.294   1.503  16.558  0.1364 -0.3469 -0.2371
  297MPD2    C2 4526   3.399   1.576  16.513 -0.4481 -0.0781 -0.1701
  297MPD2    C3 4527   3.485   1.634  16.603 -0.3818  0.8045 -0.4707
  297MPD2    C4 4528   3.451   1.624  16.738  0.2786  0.6924  0.7254
  297MPD2    C5 4529   3.345   1.552  16.782 -1.4776  0.2386  0.2783
  297MPD2     H 4530   3.411   1.604  16.409 -0.0400 -2.1580 -0.6881
  297MPD2    H1 4531   3.495   1.679  16.821  1.7229  2.2088 -1.0290
  297MPD2    H2 4532   3.184   1.429  16.732  0.6738  0.2029  0.0954
  297MPD2    H3 4533   3.322   1.543  16.887 -2.1041 -0.3028  0.1028
  297MPD2     N 4534   3.570   1.736  16.563  0.9627 -0.2141 -0.0472
  297MPD2    H5 4535   3.585   1.746  16.463 -2.1310  2.3240 -0.2600
  297MPD2    N1 4536   3.201   1.452  16.464 -0.3210 -0.7228  0.0618
  297MPD2    H7 4537   3.117   1.409  16.501 -1.3855  1.2712 -0.0601
  298TMC3    C1 4538   3.073   1.449  16.265 -0.6534  0.8203 -0.7922
  298TMC3    C2 4539   3.073   1.470  16.133  0.5903  0.2516  0.1938
  298TMC3    C3 4540   2.964   1.529  16.071  0.3207  0.3575  0.2991
  298TMC3    C4 4541   2.966   1.481  16.347 -0.0021  0.2708  0.6050
  298TMC3    C5 4542   2.849   1.520  16.284 -0.6427 -0.0355  0.2224
  298TMC3    C6 4543   2.849   1.538  16.148  0.4310 -0.0316 -0.0062
  298TMC3     C 4544   3.203   1.476  16.327 -0.1377  0.4542  0.1216
  298TMC3     O 4545   3.296   1.502  16.254  0.1566  0.6533  0.0946
  298TMC3     H 4546   3.170   1.475  16.085 -0.2881 -1.7730 -1.8002
  298TMC3    H1 4547   2.966   1.468  16.455 -0.6183 -1.4976  0.3934
  298TMC3    H2 4548   2.758   1.579  16.105  0.5623  1.4547  1.1361
  298TMC3    C7 4549   2.740   1.567  16.366 -0.3699 -0.6418  0.0655
  298TMC3    C8 4550   2.961   1.526  15.925  0.1780 -0.9276 -0.4634
  298TMC3    O1 4551   2.781   1.603  16.473 -0.5229 -0.0414 -0.3353
  298TMC3    O2 4552   3.063   1.484  15.873 -0.0528  0.3078 -0.4564
  299MPD2     C 4553   4.395   1.438  11.004 -0.7603  0.3029  0.5794
  299MPD2    C1 4554   4.417   1.474  10.867  0.5285 -0.1217 -0.2527
  299MPD2    C2 4555   4.348   1.388  10.783  0.1346 -0.7851 -0.3878
  299MPD2    C3 4556   4.281   1.273  10.820  0.2341 -0.6168 -0.1735
  299MPD2    C4 4557   4.273   1.242  10.954  0.0289  0.0187 -0.0932
  299MPD2    C5 4558   4.321   1.328  11.042 -1.1606 -0.9489 -0.3844
  299MPD2     H 4559   4.378   1.414  10.682 -4.7161  2.2941 -1.0418
  299MPD2    H1 4560   4.234   1.149  10.995 -0.4132 -0.1497 -0.9138
  299MPD2    H2 4561   4.437   1.501  11.082  1.7673 -0.4589 -0.1498
  299MPD2    H3 4562   4.312   1.298  11.146 -2.2641  3.1605  0.7060
  299MPD2     N 4563   4.223   1.177  10.728 -0.4335  0.4935  0.4254
  299MPD2    H5 4564   4.167   1.104  10.773 -0.9944 -0.0450 -1.1328
  299MPD2    N1 4565   4.496   1.587  10.837 -0.0273 -0.2999 -0.2319
  299MPD2    H7 4566   4.551   1.631  10.909  0.2423 -1.0951  0.0524
  300TMC3    C1 4567   4.133   1.088  10.528  0.1888 -0.2168 -0.7085
  300TMC3    C2 4568   4.067   1.155  10.426 -0.4862  0.6867  0.5474
  300TMC3    C3 4569   3.931   1.162  10.428 -0.4997  0.0816  0.4022
  300TMC3    C4 4570   4.061   1.015  10.619 -0.2342 -0.7390  0.3727
  300TMC3    C5 4571   3.927   1.017  10.613 -0.3711  0.2286  0.3771
  300TMC3    C6 4572   3.859   1.093  10.525 -1.0661  0.3023  0.2073
  300TMC3     C 4573   4.226   1.182  10.592  0.2725  0.4292  0.6992
  300TMC3     O 4574   4.303   1.241  10.516 -0.2405 -0.1447  0.4545
  300TMC3     H 4575   4.130   1.212  10.359 -2.3671 -0.4924 -2.2448
  300TMC3    H1 4576   4.105   0.951  10.695 -0.6264 -0.4981  0.8004
  300TMC3    H2 4577   3.751   1.095  10.525 -1.0360  1.8759 -1.1715
  300TMC3    C7 4578   3.854   0.982  10.729  0.1744 -0.1313  0.4141
  300TMC3    C8 4579   3.867   1.265  10.340  0.1672  0.1073 -0.3448
  300TMC3    O1 4580   3.882   0.876  10.783  0.2505 -0.2471  0.3923
  300TMC3    O2 4581   3.930   1.369  10.314 -0.3383  0.4361 -0.1617
  301MPD2     C 4582   0.941   2.613   1.227  0.0184  0.5466  0.7843
  301MPD2    C1 4583   0.815   2.600   1.171  0.3247  0.6895  0.1778
  301MPD2    C2 4584   0.786   2.486   1.110  0.1180 -0.5421 -0.1165
  301MPD2    C3 4585   0.867   2.375   1.113 -0.2080 -0.3247  0.1539
  301MPD2    C4 4586   0.992   2.386   1.173 -0.0146 -0.7700 -0.0048
  301MPD2    C5 4587   1.028   2.507   1.224  0.1772 -0.4522  0.7601
  301MPD2     H 4588   0.685   2.498   1.072  0.8483 -0.6685 -2.0753
  301MPD2    H1 4589   1.066   2.309   1.156  0.8271  0.0245  0.0794
  301MPD2    H2 4590   0.978   2.706   1.270  0.8927  0.6395 -0.1695
  301MPD2    H3 4591   1.124   2.513   1.275  0.1191  2.1516  0.5412
  301MPD2     N 4592   0.830   2.251   1.060  0.4248 -0.5530 -0.0311
  301MPD2    H5 4593   0.882   2.181   1.113  1.2503  0.1025  0.0310
  301MPD2    N1 4594   0.721   2.704   1.154 -0.0674 -0.1527  0.3530
  301MPD2    H7 4595   0.632   2.676   1.115  0.1684 -0.1252 -0.2001
  302TMC3    C1 4596   0.682   2.082   0.986 -0.5192  0.0818  0.5705
  302TMC3    C2 4597   0.778   1.986   1.010 -0.0709  0.5899  0.1597
  302TMC3    C3 4598   0.736   1.856   1.018 -0.5787 -0.2209  0.4958
  302TMC3    C4 4599   0.546   2.047   0.983  0.3834 -0.1997  0.0645
  302TMC3    C5 4600   0.511   1.914   1.011 -0.0398  0.1200  0.4400
  302TMC3    C6 4601   0.606   1.816   1.028 -0.4323 -0.2138  0.3599
  302TMC3     C 4602   0.709   2.229   1.002  0.8050 -0.1067 -0.3599
  302TMC3     O 4603   0.614   2.303   0.978  0.2659  0.7202 -0.6308
  302TMC3     H 4604   0.885   2.005   1.013 -0.1500  0.9404  0.6428
  302TMC3    H1 4605   0.478   2.131   0.981  0.8738  0.2018  0.3161
  302TMC3    H2 4606   0.567   1.718   1.052 -0.6419  0.3748  2.4002
  302TMC3    C7 4607   0.370   1.872   0.997 -0.9734  0.0019  0.2828
  302TMC3    C8 4608   0.837   1.752   1.045  0.1997  0.7126  0.4214
  302TMC3    O1 4609   0.351   1.749   1.007  0.1377  0.0819 -0.3456
  302TMC3    O2 4610   0.936   1.790   1.107 -0.2501 -0.2305 -0.2668
  303MPD2     C 4611   1.492   0.791  10.736  0.1441 -0.2194  0.0663
  303MPD2    C1 4612   1.404   0.892  10.742 -0.7650  0.5425 -0.1117
  303MPD2    C2 4613   1.405   0.997  10.650  0.5780  0.1813  0.2472
  303MPD2    C3 4614   1.503   0.997  10.549  0.1536  0.4602  0.2491
  303MPD2    C4 4615   1.600   0.899  10.551  0.4022 -0.7095  0.0486
  303MPD2    C5 4616   1.592   0.799  10.645 -0.1674 -0.3511  0.0320
  303MPD2     H 4617   1.339   1.083  10.662 -1.5032 -1.3549 -0.2058
  303MPD2    H1 4618   1.677   0.893  10.474  1.1221 -3.7982  1.0279
  303MPD2    H2 4619   1.492   0.709  10.806  2.2892 -0.8138 -0.6084
  303MPD2    H3 4620   1.673   0.727  10.648 -0.6403 -0.8907 -0.1479
  303MPD2     N 4621   1.520   1.103  10.458 -0.2861  0.3302 -0.2995
  303MPD2    H5 4622   1.603   1.097  10.399  0.3582 -0.2612  0.6602
  303MPD2    N1 4623   1.298   0.868  10.828 -0.5155  0.1761 -0.0270
  303MPD2    H7 4624   1.312   0.793  10.895 -1.4663 -0.0299 -0.0647
  304TMC3    C1 4625   1.105   0.911  10.943  0.3644  0.3520 -0.3475
  304TMC3    C2 4626   1.118   1.003  11.046  0.4411  0.0163 -0.0346
  304TMC3    C3 4627   1.005   1.041  11.114  0.2452  0.6080  0.1974
  304TMC3    C4 4628   0.982   0.854  10.910  0.2616  0.0154  0.1566
  304TMC3    C5 4629   0.873   0.890  10.985 -0.0721 -0.4927 -0.0935
  304TMC3    C6 4630   0.886   0.977  11.090  0.7015 -0.3805  0.0180
  304TMC3     C 4631   1.183   0.946  10.834  0.0196 -0.6488  0.6895
  304TMC3     O 4632   1.141   1.042  10.765 -0.3075 -0.6080  0.1674
  304TMC3     H 4633   1.210   1.060  11.047 -0.0323  0.7647  0.5967
  304TMC3    H1 4634   0.985   0.800  10.816  1.4600 -0.6839  0.6024
  304TMC3    H2 4635   0.801   0.994  11.156  2.1764  0.6341  1.6545
  304TMC3    C7 4636   0.753   0.903  10.921  0.6025 -0.3379  0.5382
  304TMC3    C8 4637   0.999   1.184  11.101 -0.4960 -0.5551 -0.3258
  304TMC3    O1 4638   0.694   1.001  10.953 -0.1426 -0.1523  0.9429
  304TMC3    O2 4639   1.094   1.256  11.128  0.8579 -0.6398  0.1325
  305MPD2     C 4640   4.638   3.278  13.611  0.2548  0.6814 -0.2549
  305MPD2    C1 4641   4.610   3.149  13.639 -0.2464  0.2425  0.0491
  305MPD2    C2 4642   4.620   3.052  13.545  0.6845 -0.3282 -0.3586
  305MPD2    C3 4643   4.651   3.087  13.414 -0.5735  0.4154 -0.1714
  305MPD2    C4 4644   4.690   3.217  13.386  0.0884 -0.1942 -0.4204
  305MPD2    C5 4645   4.678   3.313  13.487  1.0264  0.2672  0.2143
  305MPD2     H 4646   4.579   2.953  13.562  0.3060 -0.5580 -2.5413
  305MPD2    H1 4647   4.706   3.256  13.286 -1.1709  0.6921 -0.2766
  305MPD2    H2 4648   4.638   3.357  13.686  0.0606 -0.1018  0.5697
  305MPD2    H3 4649   4.692   3.418  13.462 -2.0001  0.9242  1.2875
  305MPD2     N 4650   4.661   2.991  13.313 -0.0597 -0.4393  0.6111
  305MPD2    H5 4651   4.701   3.015  13.223 -2.3589 -0.1987 -0.3589
  305MPD2    N1 4652   4.574   3.128  13.773  0.5103 -1.0024 -0.5436
  305MPD2    H7 4653   4.561   3.204  13.839  1.3893 -2.2263  1.0629
  306TMC3    C1 4654   4.546   3.013  13.970  1.5274 -0.1783 -0.0973
  306TMC3    C2 4655   4.598   2.894  14.030  0.3273 -0.1378  0.1136
  306TMC3    C3 4656   4.562   2.861  14.160 -0.1455  0.4722 -0.5937
  306TMC3    C4 4657   4.450   3.082  14.031 -0.4280 -0.1961 -0.4270
  306TMC3    C5 4658   4.429   3.044  14.161 -0.0559  0.0981 -0.4774
  306TMC3    C6 4659   4.479   2.938  14.235  0.1567  0.6337  0.4680
  306TMC3     C 4660   4.554   3.005  13.827 -0.1084 -0.7010  0.1942
  306TMC3     O 4661   4.552   2.895  13.776  0.0439 -0.0457  0.9822
  306TMC3     H 4662   4.666   2.833  13.972 -0.7125 -1.7809  0.6273
  306TMC3    H1 4663   4.400   3.165  13.983 -2.2527 -0.5541  0.8860
  306TMC3    H2 4664   4.442   2.896  14.328  0.8231 -2.9306 -0.8627
  306TMC3    C7 4665   4.339   3.139  14.228 -0.0045  0.1935 -0.8985
  306TMC3    C8 4666   4.656   2.761  14.220 -0.3285  0.3994 -0.1723
  306TMC3    O1 4667   4.259   3.206  14.162 -0.1462 -0.0249  0.1636
  306TMC3    O2 4668   0.001   2.714  14.143  0.1146  0.0606 -0.1813
  307MPD2     C 4669   1.924   0.783   0.516  0.4904 -0.5083  0.2785
  307MPD2    C1 4670   1.899   0.923   0.509  0.0717  0.6543 -0.0817
  307MPD2    C2 4671   1.823   0.980   0.611 -0.0786  0.6716  0.2392
  307MPD2    C3 4672   1.770   0.891   0.715  0.9866 -1.0073 -0.3526
  307MPD2    C4 4673   1.788   0.759   0.705 -0.3496  0.2657  0.6946
  307MPD2    C5 4674   1.863   0.700   0.601 -0.0101 -0.2177  0.3232
  307MPD2     H 4675   1.802   1.086   0.610 -0.4547  0.5862 -1.3262
  307MPD2    H1 4676   1.735   0.692   0.772  0.2123 -1.1449 -0.2766
  307MPD2    H2 4677   1.996   0.726   0.459  0.4890  0.4536 -0.6981
  307MPD2    H3 4678   1.877   0.593   0.608  0.9338 -0.2228 -1.7513
  307MPD2     N 4679   1.679   0.950   0.811 -0.2688 -0.8632  0.3067
  307MPD2    H5 4680   1.669   1.051   0.806 -1.8218 -0.9667  1.3295
  307MPD2    N1 4681   1.956   1.001   0.412  0.4873  0.1887 -0.0289
  307MPD2    H7 4682   1.944   1.102   0.406  0.1148  0.3140  2.6295
  308TMC3    C1 4683   1.294   1.062   0.943  0.1521 -0.3663 -0.2655
  308TMC3    C2 4684   1.331   1.196   0.952  0.3377  0.4734  0.5998
  308TMC3    C3 4685   1.462   1.219   0.979 -0.5716 -0.3932 -0.0645
  308TMC3    C4 4686   1.377   0.955   0.955 -0.4646  0.1802 -0.3483
  308TMC3    C5 4687   1.507   0.989   0.952  0.0586 -0.0841  0.0179
  308TMC3    C6 4688   1.552   1.117   0.963 -0.8366  0.3222  0.1236
  308TMC3     C 4689   1.169   1.028   0.889  0.9699  0.0714  0.3815
  308TMC3     O 4690   1.126   0.913   0.907  0.4469  0.0396 -0.6433
  308TMC3     H 4691   1.261   1.278   0.952 -0.2680 -0.0365  2.2303
  308TMC3    H1 4692   1.348   0.857   0.918 -0.9515  0.8057 -1.6498
  308TMC3    H2 4693   1.657   1.144   0.968 -0.3779 -1.0322 -2.1318
  308TMC3    C7 4694   1.604   0.893   0.908  0.1278  0.0288  0.2606
  308TMC3    C8 4695   1.508   1.358   0.965 -0.0262 -0.4507 -0.0370
  308TMC3    O1 4696   1.596   0.779   0.952  0.5885 -0.4066 -0.3918
  308TMC3    O2 4697   1.437   1.444   0.919  0.4356  0.2509 -0.8120
  309MPD2     C 4698   1.137   1.378  17.184 -0.8922  0.5361  0.6188
  309MPD2    C1 4699   1.068   1.380  17.065 -0.1098 -0.7104  0.2279
  309MPD2    C2 4700   0.942   1.440  17.059 -0.3948  0.1428  0.5590
  309MPD2    C3 4701   0.895   1.507  17.172 -0.0812 -0.3756  0.3616
  309MPD2    C4 4702   0.968   1.498  17.287  0.5543  0.4081  0.1133
  309MPD2    C5 4703   1.088   1.433  17.295  0.5708 -0.2680 -0.5292
  309MPD2     H 4704   0.886   1.449  16.966 -0.7017  1.7502  0.8846
  309MPD2    H1 4705   0.940   1.546  17.380 -1.2186 -0.3098 -0.0577
  309MPD2    H2 4706   1.229   1.323  17.200 -0.0994  0.5513 -3.7940
  309MPD2    H3 4707   1.141   1.431  17.390 -2.0725 -1.1365  0.9098
  309MPD2     N 4708   0.767   1.578  17.164  0.3252  0.4767  0.0564
  309MPD2    H5 4709   0.728   1.606  17.253 -0.1279  1.4270 -0.4443
  309MPD2    N1 4710   1.119   1.314  16.947 -0.2137 -0.9234  0.8579
  309MPD2    H7 4711   1.065   1.324  16.863 -0.7961 -0.9585  1.2275
  310TMC3    C1 4712   1.271   1.208  16.807  0.6319 -0.5430  0.2186
  310TMC3    C2 4713   1.205   1.270  16.703  0.5899 -0.6836 -1.2880
  310TMC3    C3 4714   1.220   1.212  16.577 -0.1872  0.4023  0.0688
  310TMC3    C4 4715   1.365   1.111  16.788 -0.0803 -0.2784  0.1165
  310TMC3    C5 4716   1.382   1.065  16.655 -0.3797  0.1120 -0.4240
  310TMC3    C6 4717   1.312   1.117  16.551  0.4131  1.0149 -0.6045
  310TMC3     C 4718   1.236   1.242  16.946  0.0829 -0.1620  0.0756
  310TMC3     O 4719   1.314   1.214  17.033  0.2836  0.2571 -0.0427
  310TMC3     H 4720   1.136   1.354  16.705 -0.5962 -1.6335 -2.4185
  310TMC3    H1 4721   1.406   1.069  16.879 -1.5383 -0.7479  0.5593
  310TMC3    H2 4722   1.322   1.069  16.454 -1.3411 -0.5455 -0.0061
  310TMC3    C7 4723   1.489   0.969  16.627  0.2407  0.0054 -0.2422
  310TMC3    C8 4724   1.166   1.286  16.465  0.0239 -0.0613  0.1798
  310TMC3    O1 4725   1.486   0.910  16.519 -0.7988 -0.1871  0.1438
  310TMC3    O2 4726   1.175   1.410  16.467 -0.2611  0.5952  0.3679
  311MPD2     C 4727   3.632   2.696  12.925 -1.1593 -0.1733 -0.5450
  311MPD2    C1 4728   3.561   2.814  12.889 -0.2218  0.2168  0.0313
  311MPD2    C2 4729   3.425   2.819  12.897  0.1149 -0.4394 -0.0817
  311MPD2    C3 4730   3.363   2.698  12.919  0.6447  0.6891  0.0698
  311MPD2    C4 4731   3.431   2.579  12.935  0.2996 -0.2084 -0.0927
  311MPD2    C5 4732   3.568   2.580  12.953 -0.2162 -0.1147  0.2019
  311MPD2     H 4733   3.378   2.912  12.869  1.2968 -0.2558 -1.4400
  311MPD2    H1 4734   3.375   2.489  12.955  0.7513 -0.1316  1.4957
  311MPD2    H2 4735   3.741   2.694  12.925 -1.1447  1.3733  1.5812
  311MPD2    H3 4736   3.625   2.491  12.976 -0.1782  0.2326  1.5064
  311MPD2     N 4737   3.225   2.709  12.925 -0.7127  0.0197  0.1633
  311MPD2    H5 4738   3.183   2.801  12.914  1.1181  0.7937 -0.3028
  311MPD2    N1 4739   3.635   2.931  12.853 -0.0456 -0.6999 -0.1050
  311MPD2    H7 4740   3.585   3.019  12.842 -1.1772 -1.0314  2.2907
  312TMC3    C1 4741   3.004   2.665  12.910  0.5264 -0.6322  0.3820
  312TMC3    C2 4742   2.939   2.609  12.803 -0.9721 -0.0596 -0.7888
  312TMC3    C3 4743   2.835   2.680  12.749  0.8137  0.1602  0.3202
  312TMC3    C4 4744   2.973   2.785  12.961  0.4058 -0.4870 -0.1271
  312TMC3    C5 4745   2.868   2.858  12.908 -0.4135  0.5361 -0.2906
  312TMC3    C6 4746   2.795   2.805  12.802 -0.2086  0.0273 -0.2435
  312TMC3     C 4747   3.136   2.612  12.937  0.9159 -0.4440 -0.0340
  312TMC3     O 4748   3.148   2.492  12.924 -0.0016  0.6392  0.0225
  312TMC3     H 4749   2.972   2.514  12.764  1.5251 -0.0934  1.3564
  312TMC3    H1 4750   3.034   2.821  13.044 -1.2566  2.1020 -0.0256
  312TMC3    H2 4751   2.700   2.847  12.772 -0.4059  0.5523  1.1068
  312TMC3    C7 4752   2.800   2.958  12.986  0.2975  0.4276 -0.3970
  312TMC3    C8 4753   2.749   2.616  12.650  0.0691  0.4204  0.1479
  312TMC3    O1 4754   2.687   2.983  12.954  0.0862  0.0154  0.4530
  312TMC3    O2 4755   2.726   2.498  12.660 -0.1273 -0.5980 -0.6776
  313MPD2     C 4756   2.686   1.741  10.839 -0.5510  0.3093  0.2936
  313MPD2    C1 4757   2.755   1.865  10.825  0.4206 -0.1174 -0.3850
  313MPD2    C2 4758   2.866   1.861  10.750  0.2522  0.0686  0.2918
  313MPD2    C3 4759   2.924   1.747  10.703  0.1728 -0.1986 -0.1600
  313MPD2    C4 4760   2.866   1.629  10.735  0.0371 -0.0267  0.1093
  313MPD2    C5 4761   2.741   1.633  10.787  0.5175 -0.2816 -0.3790
  313MPD2     H 4762   2.902   1.957  10.715 -2.8884  0.3182 -2.2534
  313MPD2    H1 4763   2.906   1.534  10.700  0.4431 -0.5894  2.1048
  313MPD2    H2 4764   2.594   1.721  10.893  0.5580 -1.1233  1.6501
  313MPD2    H3 4765   2.698   1.536  10.808  0.6106 -0.2923 -0.2411
  313MPD2     N 4766   3.027   1.760  10.612 -0.3445 -0.7918  0.2961
  313MPD2    H5 4767   3.051   1.847  10.565 -0.5987 -1.5303 -1.1962
  313MPD2    N1 4768   2.701   1.990  10.870 -0.3801  0.3754 -0.4601
  313MPD2    H7 4769   2.762   2.070  10.854 -1.2858  1.4554  1.5215
  314TMC3    C1 4770   2.564   2.164  10.963  0.1055 -0.1176  0.4174
  314TMC3    C2 4771   2.671   2.234  11.006  0.0312 -0.4081  0.6924
  314TMC3    C3 4772   2.645   2.365  11.041  0.5523 -0.0278  0.3917
  314TMC3    C4 4773   2.435   2.215  10.959 -0.0835 -0.1980 -0.3677
  314TMC3    C5 4774   2.419   2.350  11.000 -0.1452  0.6043 -0.4435
  314TMC3    C6 4775   2.525   2.424  11.043 -0.0642  0.9249  0.4329
  314TMC3     C 4776   2.582   2.017  10.938  0.2448  0.6329  0.5703
  314TMC3     O 4777   2.484   1.951  10.974 -0.0709  0.0477 -0.2298
  314TMC3     H 4778   2.767   2.183  11.010  0.8811  1.2182  1.0923
  314TMC3    H1 4779   2.353   2.158  10.918 -2.7556  1.4438  2.6678
  314TMC3    H2 4780   2.509   2.526  11.077 -0.6123  0.6508  1.0007
  314TMC3    C7 4781   2.331   2.429  10.914 -0.5568  0.3756  0.0721
  314TMC3    C8 4782   2.755   2.457  11.050 -0.8495 -0.4682 -0.4666
  314TMC3    O1 4783   2.215   2.397  10.906  1.2137 -0.4218 -0.0831
  314TMC3    O2 4784   2.726   2.569  11.079  0.6273 -0.6979  0.4991
  315MPD2     C 4785   2.426   0.804   0.088  0.5948 -0.3307  0.6537
  315MPD2    C1 4786   2.518   0.820   0.193  0.0060 -0.2757  0.4372
  315MPD2    C2 4787   2.555   0.946   0.235  0.3534 -0.2243 -0.2931
  315MPD2    C3 4788   2.519   1.063   0.165  0.0253  0.6120 -0.3736
  315MPD2    C4 4789   2.430   1.050   0.060 -0.0831 -0.3768  1.1859
  315MPD2    C5 4790   2.383   0.924   0.025  0.3751 -0.3934 -0.0689
  315MPD2     H 4791   2.628   0.973   0.311 -0.7011  0.1619  0.5834
  315MPD2    H1 4792   2.383   1.135   0.014  1.1320 -1.0385 -1.2887
  315MPD2    H2 4793   2.388   0.712   0.046 -0.0460  0.3330 -0.2039
  315MPD2    H3 4794   2.311   0.916  17.693  1.5427 -1.1699 -1.0352
  315MPD2     N 4795   2.586   1.184   0.192  0.1483  0.1450  0.0388
  315MPD2    H5 4796   2.665   1.178   0.256 -0.8509 -1.4565  1.1175
  315MPD2    N1 4797   2.583   0.713   0.249 -0.4074  1.0633  0.3154
  315MPD2    H7 4798   2.653   0.746   0.314 -0.1060 -0.5525  0.8027
  316TMC3    C1 4799   2.648   1.417   0.175  0.0787 -0.1416  0.7604
  316TMC3    C2 4800   2.721   1.417   0.291  0.1814 -0.6237  1.0354
  316TMC3    C3 4801   2.785   1.531   0.317  0.2206  0.3207  0.5337
  316TMC3    C4 4802   2.641   1.529   0.094 -0.1556 -0.1248  0.1871
  316TMC3    C5 4803   2.712   1.636   0.125  0.0580  0.2995  0.1152
  316TMC3    C6 4804   2.778   1.643   0.242  0.1840 -0.0521 -0.5056
  316TMC3     C 4805   2.564   1.302   0.129  0.5762 -0.3062 -0.3771
  316TMC3     O 4806   2.491   1.335   0.039 -1.0614  0.2482 -0.4126
  316TMC3     H 4807   2.721   1.336   0.363 -1.4058 -0.9387  0.6718
  316TMC3    H1 4808   2.596   1.520  17.744  1.5958 -1.1281 -0.5379
  316TMC3    H2 4809   2.838   1.729   0.271  2.1225 -1.7861  0.5980
  316TMC3    C7 4810   2.713   1.760   0.042  0.3154  0.3372  0.1171
  316TMC3    C8 4811   2.894   1.529   0.409 -0.2441 -0.0019  0.2436
  316TMC3    O1 4812   2.776   1.851   0.094  0.1711  0.2642 -0.4755
  316TMC3    O2 4813   2.927   1.630   0.473  1.0228  0.1861  0.0467
  317MPD2     C 4814   4.335   0.344  12.647 -0.0193 -0.4675 -0.0246
  317MPD2    C1 4815   4.372   0.237  12.568  0.2470 -0.1257 -0.1016
  317MPD2    C2 4816   4.424   0.122  12.628 -0.1560 -0.0882 -0.6035
  317MPD2    C3 4817   4.450   0.117  12.767  0.3213 -0.5136 -0.4767
  317MPD2    C4 4818   4.419   0.229  12.841  0.3793  0.0705  0.4953
  317MPD2    C5 4819   4.359   0.339  12.786 -0.2923 -0.2659 -0.6234
  317MPD2     H 4820   4.447   0.033  12.571 -2.3751 -0.8744 -0.3073
  317MPD2    H1 4821   4.440   0.234  12.947 -0.4867 -1.4988  0.7332
  317MPD2    H2 4822   4.304   0.440  12.608  1.5337 -0.1002 -0.3407
  317MPD2    H3 4823   4.330   0.416  12.857 -3.6258 -0.9652 -1.2595
  317MPD2     N 4824   4.502   4.736  12.826 -0.3877 -0.0589  0.3364
  317MPD2    H5 4825   4.512   4.653  12.768 -0.9208  1.2178 -1.5698
  317MPD2    N1 4826   4.362   0.231  12.425  0.4771  1.3953  0.2623
  317MPD2    H7 4827   4.404   0.148  12.385 -1.1180 -0.1878  1.9097
  318TMC3    C1 4828   4.602   4.585  12.986  0.2243 -0.1253 -0.4955
  318TMC3    C2 4829   4.536   4.471  12.944 -0.3700  0.2303 -0.0353
  318TMC3    C3 4830   4.554   4.350  13.010 -0.7155 -0.2309  0.1980
  318TMC3    C4 4831   4.683   4.575  13.090 -0.2988 -1.2015 -0.3945
  318TMC3    C5 4832   4.709   4.450  13.143  0.0118 -0.3697 -1.0514
  318TMC3    C6 4833   4.645   4.332  13.109  0.1179 -0.2476  1.1429
  318TMC3     C 4834   4.544   4.714  12.957  0.0234  0.2711  0.8837
  318TMC3     O 4835   4.573   0.065  13.039 -0.0592 -0.3730  0.1313
  318TMC3     H 4836   4.458   4.491  12.872 -0.6938  0.1551  0.2943
  318TMC3    H1 4837   0.001   4.665  13.113 -0.9636 -0.6721 -0.8732
  318TMC3    H2 4838   4.678   4.232  13.132  0.4391 -0.8991 -2.0896
  318TMC3    C7 4839   0.059   4.455  13.262 -0.4622  0.0634  0.5432
  318TMC3    C8 4840   4.476   4.232  12.967 -0.1948 -0.1481  0.0411
  318TMC3    O1 4841   0.114   4.560  13.280  0.1250  0.0485  0.1471
  318TMC3    O2 4842   4.520   4.122  12.993 -0.3447  0.3283  0.3116
  319MPD2     C 4843   0.717   1.047  16.227 -0.2220  0.2116  0.1193
  319MPD2    C1 4844   0.608   0.995  16.300 -0.2902  0.2890 -0.5924
  319MPD2    C2 4845   0.500   0.923  16.235  0.0496 -0.2633  0.1782
  319MPD2    C3 4846   0.501   0.916  16.098  0.8243  0.7230 -0.1331
  319MPD2    C4 4847   0.609   0.970  16.028  0.2377 -0.3024  0.0253
  319MPD2    C5 4848   0.716   1.027  16.093  0.7958  0.1064 -0.4742
  319MPD2     H 4849   0.427   0.876  16.299 -1.3640 -0.1624 -1.3539
  319MPD2    H1 4850   0.609   0.982  15.920  2.2456  0.1690  0.0795
  319MPD2    H2 4851   0.809   1.080  16.274  0.4369 -0.1900 -0.9030
  319MPD2    H3 4852   0.808   1.061  16.046  0.3884  1.6885 -0.1270
  319MPD2     N 4853   0.391   0.877  16.026  0.3957 -0.5480 -0.2828
  319MPD2    H5 4854   0.386   0.907  15.929  0.2083  0.6216  0.0881
  319MPD2    N1 4855   0.603   0.991  16.438 -0.0211 -0.0028  0.2021
  319MPD2    H7 4856   0.530   0.935  16.481 -0.2950  0.9074  0.9229
  320TMC3    C1 4857   0.166   0.794  15.989 -0.5009 -0.2070  0.1808
  320TMC3    C2 4858   0.136   0.905  15.909 -0.5184  0.5254 -0.4690
  320TMC3    C3 4859   0.042   0.887  15.804 -0.4077  0.0636 -0.1814
  320TMC3    C4 4860   0.104   0.673  15.977  0.6985 -0.0320  0.2464
  320TMC3    C5 4861   0.010   0.659  15.877 -0.0097 -1.0036 -0.6748
  320TMC3    C6 4862   4.722   0.764  15.793 -0.5074 -0.3829 -0.2357
  320TMC3     C 4863   0.273   0.810  16.081 -0.0188  0.5943 -0.4178
  320TMC3     O 4864   0.257   0.766  16.194  0.1840  0.1541  0.2866
  320TMC3     H 4865   0.162   1.008  15.933  2.5507 -0.9324  2.4244
  320TMC3    H1 4866   0.136   0.588  16.036 -1.4401 -0.6246  0.5801
  320TMC3    H2 4867   4.644   0.741  15.722  0.0269 -2.8872 -0.0108
  320TMC3    C7 4868   4.716   0.524  15.817  0.5973 -0.2103 -0.8133
  320TMC3    C8 4869   4.705   1.000  15.749 -0.0633 -0.0640 -0.2570
  320TMC3    O1 4870   4.694   0.521  15.698 -0.0322  0.3227  0.3272
  320TMC3    O2 4871   4.730   1.108  15.801  0.2780  0.8039  0.0267
  321TMC3    C1 4872   0.641   1.051  16.654 -0.9344 -0.3005  0.7392
  321TMC3    C2 4873   0.596   0.931  16.701  0.2916  0.0789  0.3436
  321TMC3    C3 4874   0.519   0.944  16.815  0.0020 -0.1344  0.5897
  321TMC3    C4 4875   0.597   1.173  16.696 -0.0936  0.5057  0.5854
  321TMC3    C5 4876   0.506   1.175  16.794 -0.5682 -0.0488 -0.1096
  321TMC3    C6 4877   0.456   1.063  16.854  0.4992 -0.2785 -0.0791
  321TMC3     C 4878   0.698   1.049  16.520  0.0533 -0.4505 -0.1709
  321TMC3     O 4879   0.779   1.131  16.496 -1.0942  1.2296  0.7137
  321TMC3     H 4880   0.631   0.835  16.664 -0.0453 -0.2272  0.8182
  321TMC3    H1 4881   0.635   1.262  16.648 -2.4415 -0.3480 -2.8142
  321TMC3    H2 4882   0.391   1.077  16.939 -1.3232 -2.7180 -1.0587
  321TMC3    C7 4883   0.535   1.282  16.882 -0.2037  0.8943  0.2619
  321TMC3    C8 4884   0.581   0.901  16.935 -0.6024  0.1899 -0.4958
  321TMC3    O1 4885   0.650   1.322  16.896 -0.3264 -0.3662  0.5443
  321TMC3    O2 4886   0.562   0.966  17.035 -0.7691  0.6987 -0.2802
  322MPD2     C 4887   4.308   2.466  13.373  0.5788  0.0816  0.2671
  322MPD2    C1 4888   4.329   2.385  13.479 -0.3796 -0.4713  0.3828
  322MPD2    C2 4889   4.339   2.254  13.458 -0.3480  0.4541 -0.0533
  322MPD2    C3 4890   4.365   2.200  13.333  0.2767  0.3187 -0.3361
  322MPD2    C4 4891   4.354   2.284  13.222  0.3332 -0.3423 -1.2452
  322MPD2    C5 4892   4.321   2.419  13.246 -0.4397 -0.2071  0.2267
  322MPD2     H 4893   4.346   2.192  13.546  0.4583  1.7749  0.8140
  322MPD2    H1 4894   4.383   2.257  13.121  1.4561 -2.6580 -0.3042
  322MPD2    H2 4895   4.299   2.573  13.391  1.3435  0.1271  0.3615
  322MPD2    H3 4896   4.321   2.493  13.168 -1.2346  0.3620  0.7690
  322MPD2     N 4897   4.389   2.063  13.328  0.9429 -0.7205 -0.4256
  322MPD2    H5 4898   4.411   2.015  13.414  0.1373  2.8201  1.7755
  322MPD2    N1 4899   4.316   2.443  13.603 -0.1674  0.0654  0.5713
  322MPD2    H7 4900   4.329   2.541  13.625 -1.0295  0.4455 -0.5835
  323TMC3    C1 4901   4.338   2.458  13.840  0.1872 -0.8627  0.6346
  323TMC3    C2 4902   4.458   2.528  13.827 -0.3929  0.1599  0.6489
  323TMC3    C3 4903   4.545   2.551  13.933  0.2534  0.1340  0.0812
  323TMC3    C4 4904   4.312   2.400  13.964 -0.1454  0.3369  0.5364
  323TMC3    C5 4905   4.392   2.422  14.072  0.7808 -0.0841  0.3831
  323TMC3    C6 4906   4.502   2.500  14.058  0.3969 -0.6270  0.0936
  323TMC3     C 4907   4.298   2.381  13.726 -0.6904 -0.4140  0.0290
  323TMC3     O 4908   4.256   2.273  13.760  0.3312 -0.2904 -0.1538
  323TMC3     H 4909   4.492   2.560  13.729 -0.9886 -1.4904 -0.0990
  323TMC3    H1 4910   4.226   2.334  13.977  0.1285 -0.0276  0.4793
  323TMC3    H2 4911   4.563   2.525  14.144 -0.4130 -0.6441  0.6754
  323TMC3    C7 4912   4.390   2.325  14.182  0.1663 -0.3653  0.0714
  323TMC3    C8 4913   4.692   2.551  13.913  1.2101 -0.0126 -0.6062
  323TMC3    O1 4914   4.334   2.221  14.159 -0.4628  0.4594  0.1525
  323TMC3    O2 4915   0.018   2.474  13.979  0.0934 -0.4744 -0.5259
  324MPD2     C 4916   1.562   3.125  13.703 -0.5968 -0.8961 -0.2770
  324MPD2    C1 4917   1.567   3.154  13.835 -0.7689 -0.5488  0.4730
  324MPD2    C2 4918   1.453   3.156  13.909 -0.7453 -0.2028 -0.1622
  324MPD2    C3 4919   1.333   3.129  13.843  0.6680  0.2007  1.0586
  324MPD2    C4 4920   1.331   3.111  13.708 -0.1298  1.4741 -0.6522
  324MPD2    C5 4921   1.444   3.096  13.642  0.2213 -0.1433 -0.7905
  324MPD2     H 4922   1.460   3.178  14.015  1.0416 -1.0769 -0.1020
  324MPD2    H1 4923   1.237   3.097  13.655  0.5402  0.0706 -1.4427
  324MPD2    H2 4924   1.647   3.123  13.636  1.5835 -3.0221  2.5747
  324MPD2    H3 4925   1.441   3.072  13.536 -1.6332 -0.1266 -0.7478
  324MPD2     N 4926   1.210   3.120  13.903  0.4602  0.1136 -0.5348
  324MPD2    H5 4927   1.137   3.072  13.851 -0.4408  1.4545 -0.4919
  324MPD2    N1 4928   1.687   3.166  13.905 -0.0580  0.0188 -0.3008
  324MPD2    H7 4929   1.675   3.154  14.005  0.1814  1.6084 -0.0794
  325TMC3    C1 4930   1.034   3.150  14.050  0.2535  0.2305  0.1192
  325TMC3    C2 4931   0.948   3.144  13.938 -0.3552 -0.0617 -0.6464
  325TMC3    C3 4932   0.810   3.160  13.958 -0.6463 -0.1283  0.4723
  325TMC3    C4 4933   0.984   3.193  14.171  0.1036  0.3840  1.2603
  325TMC3    C5 4934   0.851   3.207  14.182 -0.7169 -0.4833 -0.2686
  325TMC3    C6 4935   0.760   3.184  14.080 -0.1117  0.7259  0.8586
  325TMC3     C 4936   1.177   3.159  14.030  0.5438 -0.4564  0.2572
  325TMC3     O 4937   1.246   3.216  14.113 -0.2372  0.1671  0.0942
  325TMC3     H 4938   0.972   3.103  13.840  0.2601  0.5833 -0.7624
  325TMC3    H1 4939   1.060   3.217  14.245  1.7175  1.2230 -0.6526
  325TMC3    H2 4940   0.655   3.202  14.100 -0.6336  1.5635 -2.6693
  325TMC3    C7 4941   0.815   3.287  14.299 -0.0183  0.0004  0.0772
  325TMC3    C8 4942   0.727   3.161  13.840  1.2275 -0.3965 -0.3835
  325TMC3    O1 4943   0.900   3.317  14.383  0.3026 -0.2175  0.0960
  325TMC3    O2 4944   0.786   3.136  13.737  0.3185 -0.2458 -0.3018
  326MPD2     C 4945   2.377   4.653  11.242  0.8876  0.2260  0.1319
  326MPD2    C1 4946   2.413   4.564  11.146 -0.4215  0.7927 -0.5564
  326MPD2    C2 4947   2.526   4.592  11.075  0.2884  0.3365 -0.1031
  326MPD2    C3 4948   2.617   4.694  11.115  0.9512  0.1516  0.6630
  326MPD2    C4 4949   2.572   0.042  11.220 -0.5665  0.2773 -0.2456
  326MPD2    C5 4950   2.456   0.018  11.285 -0.2809  0.0887  0.1796
  326MPD2     H 4951   2.551   4.531  10.990  1.2360 -1.5588  1.5378
  326MPD2    H1 4952   2.639   0.121  11.255 -0.1896  0.2073 -0.7954
  326MPD2    H2 4953   2.295   4.636  11.311 -1.1617  0.7927 -2.1536
  326MPD2    H3 4954   2.427   0.073  11.373 -1.4080 -0.9786  0.4788
  326MPD2     N 4955   2.741   4.724  11.059 -0.0441  0.4077 -0.1777
  326MPD2    H5 4956   2.788   0.057  11.116 -1.4979  1.7174 -0.5795
  326MPD2    N1 4957   2.323   4.475  11.096 -0.0416 -0.1533  0.2146
  326MPD2    H7 4958   2.348   4.421  11.013 -1.1719 -0.0379 -0.1927
  327TMC3    C1 4959   2.116   4.365  11.058  0.0249  0.3503  0.0003
  327TMC3    C2 4960   1.983   4.396  11.037 -0.1951 -0.7564  0.5131
  327TMC3    C3 4961   1.924   4.337  10.925 -0.7985  0.0348 -0.3543
  327TMC3    C4 4962   2.186   4.273  10.986 -0.0651  0.0893  0.0369
  327TMC3    C5 4963   2.125   4.217  10.878 -0.8101 -0.4261  0.4934
  327TMC3    C6 4964   1.999   4.254  10.852 -0.9190 -0.8449 -0.0958
  327TMC3     C 4965   2.188   4.469  11.129 -0.1221  0.0171 -0.0653
  327TMC3     O 4966   2.117   4.545  11.197  0.3319  0.5313 -0.4110
  327TMC3     H 4967   1.925   4.467  11.095 -2.8586 -0.9125 -1.9632
  327TMC3    H1 4968   2.282   4.239  11.023 -0.7457 -0.7150  1.0668
  327TMC3    H2 4969   1.958   4.212  10.761 -2.4811 -1.5344  0.9146
  327TMC3    C7 4970   2.205   4.148  10.773  0.4492  0.5216  0.6162
  327TMC3    C8 4971   1.838   4.419  10.850 -1.0994  0.2316 -0.4570
  327TMC3    O1 4972   2.166   4.134  10.658  0.0960  0.1274  0.1719
  327TMC3    O2 4973   1.822   4.534  10.887 -0.1567 -0.3936  0.2236
  328MPD2     C 4974   4.358   4.672  16.959 -0.0141 -0.5306 -0.0801
  328MPD2    C1 4975   4.438   4.613  16.863 -0.3340 -0.3649 -0.7802
  328MPD2    C2 4976   4.427   4.668  16.738 -0.7468  0.3842 -0.6570
  328MPD2    C3 4977   4.320   0.015  16.703  0.0906  0.0003 -0.0966
  328MPD2    C4 4978   4.228   0.041  16.796 -0.4407  0.6170  0.1413
  328MPD2    C5 4979   4.256   0.018  16.928 -0.1654  0.1183 -0.9294
  328MPD2     H 4980   4.505   4.637  16.669 -1.5571  0.2432 -1.5018
  328MPD2    H1 4981   4.157   0.119  16.770  0.4795  2.0409  1.8720
  328MPD2    H2 4982   4.383   4.648  17.061 -1.2183 -0.1019  0.3132
  328MPD2    H3 4983   4.196   0.062  17.007 -1.5924  0.0729 -1.9867
  328MPD2     N 4984   4.298   0.068  16.573  0.0115  0.0357  0.4003
  328MPD2    H5 4985   4.210   0.119  16.569 -0.4436 -0.9093 -1.4796
  328MPD2    N1 4986   4.516   4.513  16.911  0.1602 -0.3617  0.0108
  328MPD2    H7 4987   4.512   4.497  17.011  0.5715 -3.4979 -0.4518
  329TMC3    C1 4988   4.636   4.313  16.909 -0.1364 -0.5086 -0.6096
  329TMC3    C2 4989   4.586   4.299  17.028 -0.2840 -0.1669  0.1490
  329TMC3    C3 4990   4.641   4.199  17.100  0.0729 -0.8074 -0.1000
  329TMC3    C4 4991   0.007   4.249  16.853  0.2708 -0.6757 -0.7117
  329TMC3    C5 4992   0.060   4.145  16.926  0.3772 -0.3693 -0.7216
  329TMC3    C6 4993   0.010   4.129  17.055 -0.5377  0.3401  0.6611
  329TMC3     C 4994   4.587   4.423  16.834  0.8384 -0.2044  0.4438
  329TMC3     O 4995   4.593   4.420  16.708  0.4758 -0.0377  0.2872
  329TMC3     H 4996   4.480   4.319  17.040 -0.6614 -1.9343 -0.2730
  329TMC3    H1 4997   0.048   4.268  16.755 -0.2240 -0.9015 -0.9628
  329TMC3    H2 4998   0.061   4.055  17.116 -1.0652 -1.9741 -1.7120
  329TMC3    C7 4999   0.129   4.045  16.849 -0.2671 -0.5346 -0.5446
  329TMC3    C8 5000   4.555   4.128  17.186 -0.4680  0.1756 -0.1240
  329TMC3    O1 5001   0.179   4.071  16.744 -0.0986  0.0177 -0.1540
  329TMC3    O2 5002   4.570   4.005  17.186  0.1747  0.2115  0.2147
  330TMC3    C1 5003   2.502   4.148   9.078  0.9849  0.1064  0.4879
  330TMC3    C2 5004   2.392   4.153   9.162 -0.3652 -0.0106 -0.0224
  330TMC3    C3 5005   2.400   4.088   9.280  0.4916  0.2434 -0.1647
  330TMC3    C4 5006   2.621   4.088   9.111  0.2247  0.1500 -0.1858
  330TMC3    C5 5007   2.625   4.046   9.238  0.4111  0.5146 -0.0155
  330TMC3    C6 5008   2.522   4.050   9.330  0.0402  0.6089 -0.0100
  330TMC3     C 5009   2.494   4.206   8.948  0.3774  0.2819  0.2778
  330TMC3     O 5010   2.535   4.143   8.849  0.1894  0.1910  0.2354
  330TMC3     H 5011   2.302   4.209   9.139  0.3710 -0.0915 -3.1152
  330TMC3    H1 5012   2.697   4.085   9.034  0.4478  0.1894  0.0349
  330TMC3    H2 5013   2.535   4.024   9.434  0.6184 -0.3916 -0.3398
  330TMC3    C7 5014   2.760   4.009   9.276 -0.1529  0.2590 -0.1935
  330TMC3    C8 5015   2.278   4.067   9.362  0.3433 -0.0548  0.4604
  330TMC3    O1 5016   2.847   4.054   9.200 -0.0585 -0.4239  0.0240
  330TMC3    O2 5017   2.186   4.139   9.336  0.0655 -0.2840 -0.1190
  331MPD2     C 5018   0.800   3.114  12.602  0.1362  0.6024  0.4404
  331MPD2    C1 5019   0.817   3.114  12.464  0.0615 -0.2785 -0.0964
  331MPD2    C2 5020   0.821   2.996  12.402  0.1643 -0.2715 -0.0278
  331MPD2    C3 5021   0.819   2.875  12.468 -0.5118  0.0986 -0.7123
  331MPD2    C4 5022   0.804   2.874  12.608  0.2291 -0.3190  0.4560
  331MPD2    C5 5023   0.795   2.995  12.670 -0.4553 -0.1175  0.5485
  331MPD2     H 5024   0.839   2.996  12.296  0.0996 -0.2884 -0.0388
  331MPD2    H1 5025   0.811   2.788  12.673 -0.3784 -0.9189 -0.2714
  331MPD2    H2 5026   0.805   3.205  12.662 -0.1173 -0.9618  2.8256
  331MPD2    H3 5027   0.791   2.995  12.779  1.4868 -0.2609  0.6244
  331MPD2     N 5028   0.833   2.758  12.386 -0.4860 -0.0132  0.3737
  331MPD2    H5 5029   0.865   2.775  12.292  0.0514 -1.2865  0.3213
  331MPD2    N1 5030   0.832   3.236  12.392 -0.3229 -0.3305  0.5669
  331MPD2    H7 5031   0.849   3.322  12.444 -0.5704  0.3101 -0.4185
  332TMC3    C1 5032   0.862   2.535  12.330 -0.3088  0.8121  0.3898
  332TMC3    C2 5033   0.902   2.579  12.204 -0.6454 -0.5402  0.3171
  332TMC3    C3 5034   1.023   2.532  12.148 -0.0171  0.6407 -0.2233
  332TMC3    C4 5035   0.919   2.424  12.385  0.0528  0.3774  0.6389
  332TMC3    C5 5036   1.034   2.384  12.321  0.6671  0.6629  0.0681
  332TMC3    C6 5037   1.092   2.432  12.206  0.3628  0.4039 -0.3211
  332TMC3     C 5038   0.828   2.631  12.427 -0.3135 -0.0024 -0.0826
  332TMC3     O 5039   0.801   2.580  12.535 -1.1897 -0.1996 -0.1982
  332TMC3     H 5040   0.853   2.657  12.146 -1.2639 -0.4077  1.0157
  332TMC3    H1 5041   0.889   2.371  12.475 -2.1472  2.8073  1.3715
  332TMC3    H2 5042   1.180   2.383  12.165  0.6093  1.3339 -0.9132
  332TMC3    C7 5043   1.103   2.274  12.378 -0.1688 -0.0628 -0.3329
  332TMC3    C8 5044   1.067   2.579  12.016 -0.1877 -0.0109  0.0180
  332TMC3    O1 5045   1.041   2.179  12.419 -0.2839 -0.0091 -0.5341
  332TMC3    O2 5046   0.988   2.630  11.940 -0.6893  0.0298  0.1703
  333MPD2     C 5047   0.667   2.711  11.208 -0.2556 -0.2870  0.2228
  333MPD2    C1 5048   0.771   2.632  11.174 -0.7506 -0.2769 -0.4710
  333MPD2    C2 5049   0.775   2.507  11.241  0.1747  0.7946  0.3022
  333MPD2    C3 5050   0.681   2.463  11.331 -0.3258  0.2919  0.7371
  333MPD2    C4 5051   0.577   2.549  11.365  0.2665  0.2663  0.2259
  333MPD2    C5 5052   0.570   2.670  11.294  0.3514 -0.1794 -0.9325
  333MPD2     H 5053   0.859   2.449  11.204 -1.6004 -0.6740 -1.3817
  333MPD2    H1 5054   0.495   2.519  11.429 -1.0520  1.3586 -0.9832
  333MPD2    H2 5055   0.665   2.808  11.160  1.4102 -1.7409 -2.7738
  333MPD2    H3 5056   0.483   2.732  11.310  1.9347  1.7584  0.2551
  333MPD2     N 5057   0.692   2.335  11.388  0.0800  0.6883  0.1432
  333MPD2    H5 5058   0.764   2.272  11.355 -1.1037 -1.1036  0.9701
  333MPD2    N1 5059   0.881   2.686  11.101  0.0079 -0.1800  0.5443
  333MPD2    H7 5060   0.870   2.784  11.079  0.1220 -0.0405  1.1417
  334TMC3    C1 5061   1.078   2.706  10.987  0.3322 -0.0923  0.2644
  334TMC3    C2 5062   1.218   2.703  10.999 -0.1923  0.0573 -0.0762
  334TMC3    C3 5063   1.293   2.780  10.922 -0.8352 -0.0033  0.3472
  334TMC3    C4 5064   1.019   2.795  10.900  0.3806  0.5039 -0.8318
  334TMC3    C5 5065   1.103   2.871  10.826  0.1360 -0.5633  0.3666
  334TMC3    C6 5066   1.238   2.863  10.833  0.3766 -0.2287 -0.0556
  334TMC3     C 5067   0.993   2.621  11.062  0.6368  0.2417  0.4906
  334TMC3     O 5068   1.039   2.511  11.093  0.1867 -0.3273  0.5370
  334TMC3     H 5069   1.268   2.658  11.083 -0.2868  1.9208  0.9760
  334TMC3    H1 5070   0.912   2.811  10.892  0.7385  2.4448 -1.7840
  334TMC3    H2 5071   1.311   2.906  10.765 -0.9676  2.5812  0.2840
  334TMC3    C7 5072   1.045   2.967  10.737  0.5595  0.3218  0.1891
  334TMC3    C8 5073   1.435   2.747  10.916  1.2220  0.4455 -0.5189
  334TMC3    O1 5074   0.925   2.955  10.713 -0.3048  0.0175 -0.5789
  334TMC3    O2 5075   1.456   2.634  10.963 -0.6514  0.1834  0.0590
  335TMC3    C1 5076   0.732   4.490  17.599 -0.4964  0.3598 -0.3395
  335TMC3    C2 5077   0.602   4.506  17.547  0.3448  0.7253 -0.0267
  335TMC3    C3 5078   0.589   4.599  17.443  0.8427  0.2296 -0.4554
  335TMC3    C4 5079   0.841   4.568  17.568  0.4181 -0.2173 -0.8240
  335TMC3    C5 5080   0.817   4.673  17.482 -0.2119  0.0322  0.7362
  335TMC3    C6 5081   0.699   4.686  17.416 -0.4927 -0.6388 -0.1391
  335TMC3     C 5082   0.754   4.380  17.689 -0.0486  0.7207 -0.0754
  335TMC3     O 5083   0.652   4.336  17.748 -0.4213 -0.1879 -0.3057
  335TMC3     H 5084   0.532   4.425  17.565  2.4486 -1.1405 -0.1351
  335TMC3    H1 5085   0.933   4.542  17.619  0.4803  2.2874  0.3410
  335TMC3    H2 5086   0.693   0.023  17.338  2.9355 -0.5386 -0.2917
  335TMC3    C7 5087   0.933   4.711  17.403  0.2922 -0.6713 -0.1079
  335TMC3    C8 5088   0.536   4.533  17.321  0.3464  0.3691 -0.4518
  335TMC3    O1 5089   1.033   4.639  17.410 -0.5533  0.9728  0.2098
  335TMC3    O2 5090   0.580   4.590  17.225 -0.0593 -0.1484 -0.0096
  336MPD2     C 5091   0.567   1.985  16.412 -0.0950  0.8922  1.1037
  336MPD2    C1 5092   0.566   1.951  16.284 -0.4806  0.3597  0.6203
  336MPD2    C2 5093   0.625   1.834  16.252 -0.4954  0.6581 -0.0710
  336MPD2    C3 5094   0.657   1.739  16.356 -0.0051 -0.3600  0.6531
  336MPD2    C4 5095   0.648   1.773  16.491 -0.0177  0.1003 -0.3018
  336MPD2    C5 5096   0.605   1.899  16.509  0.0689  0.7993  0.4025
  336MPD2     H 5097   0.631   1.819  16.145 -1.0750 -2.9115  0.3957
  336MPD2    H1 5098   0.690   1.713  16.571  0.2575  0.5066 -0.1393
  336MPD2    H2 5099   0.537   2.086  16.440 -0.5285  0.3702  2.5329
  336MPD2    H3 5100   0.590   1.930  16.611 -0.0080  1.2265  0.2603
  336MPD2     N 5101   0.702   1.612  16.317  0.1658  0.5183  0.2102
  336MPD2    H5 5102   0.705   1.604  16.216  1.7786 -1.1244  0.3770
  336MPD2    N1 5103   0.509   2.034  16.186  0.0294 -0.1873  0.0033
  336MPD2    H7 5104   0.508   1.998  16.091  2.0154 -2.0976  0.7026
  337TMC3    C1 5105   0.392   2.206  16.073  0.3247 -0.2257 -0.4026
  337TMC3    C2 5106   0.410   2.143  15.954 -0.3844 -0.5955  0.5918
  337TMC3    C3 5107   0.321   2.154  15.856 -0.4028  0.2778 -0.3838
  337TMC3    C4 5108   0.284   2.290  16.087 -0.4686  0.0697 -0.0860
  337TMC3    C5 5109   0.195   2.296  15.981 -0.3516  0.1327 -0.9527
  337TMC3    C6 5110   0.206   2.224  15.866 -0.2199  0.1720  0.9659
  337TMC3     C 5111   0.449   2.155  16.200 -1.0275 -0.0837 -0.4894
  337TMC3     O 5112   0.440   2.227  16.298 -0.3825 -0.1974  0.3908
  337TMC3     H 5113   0.501   2.090  15.931 -0.6894 -0.5945 -0.6107
  337TMC3    H1 5114   0.276   2.340  16.183 -5.3209  2.4252 -1.7215
  337TMC3    H2 5115   0.125   2.217  15.794 -1.6414  1.1614  2.4492
  337TMC3    C7 5116   0.081   2.385  15.986  0.3285  0.3573  0.0720
  337TMC3    C8 5117   0.327   2.053  15.758  0.2405 -0.3522  0.3888
  337TMC3    O1 5118   0.007   2.398  15.885  0.1521  0.2193 -0.1640
  337TMC3    O2 5119   0.396   1.959  15.782 -0.3292 -0.1778 -0.1959
  338MPD2     C 5120   0.448   2.142   0.693  0.1810  0.7834 -0.2944
  338MPD2    C1 5121   0.391   2.052   0.609  0.1332  0.0451  0.1117
  338MPD2    C2 5122   0.259   2.065   0.575  0.1563 -0.3971  0.1470
  338MPD2    C3 5123   0.182   2.169   0.629 -0.4069 -0.0130  0.4496
  338MPD2    C4 5124   0.244   2.269   0.696  0.2659 -0.1976  0.0589
  338MPD2    C5 5125   0.378   2.257   0.734  0.2812  0.3500  0.1763
  338MPD2     H 5126   0.221   1.997   0.500 -1.0976 -0.1436  0.5645
  338MPD2    H1 5127   0.193   2.355   0.738 -2.7619 -0.0819 -3.9150
  338MPD2    H2 5128   0.549   2.125   0.727 -0.1877 -1.0672 -0.1583
  338MPD2    H3 5129   0.424   2.338   0.789  0.4175 -0.2535  0.9545
  338MPD2     N 5130   0.045   2.178   0.593 -0.0662  0.2612 -0.7749
  338MPD2    H5 5131   0.007   2.096   0.547 -0.1505 -1.4962  2.4444
  338MPD2    N1 5132   0.454   1.941   0.563 -0.5626 -0.8663 -0.1070
  338MPD2    H7 5133   0.400   1.868   0.517  0.6515 -1.4383 -0.6272
  339TMC3    C1 5134   4.570   2.240   0.571  0.2482 -0.9245 -0.3734
  339TMC3    C2 5135   4.551   2.102   0.581  0.6184 -0.1598 -0.1046
  339TMC3    C3 5136   4.473   2.053   0.481  0.0891 -0.2961 -0.7782
  339TMC3    C4 5137   4.527   2.316   0.465 -0.2383  0.5144 -0.1496
  339TMC3    C5 5138   4.459   2.256   0.360 -0.4333  0.0748  0.4324
  339TMC3    C6 5139   4.433   2.124   0.367 -0.2229 -0.3388  0.3497
  339TMC3     C 5140   4.695   2.279   0.626  0.4496 -0.2567 -0.3942
  339TMC3     O 5141   4.713   2.401   0.654  0.0051  0.0925 -0.1715
  339TMC3     H 5142   4.576   2.052   0.673  0.3413  1.1833  0.7099
  339TMC3    H1 5143   4.553   2.421   0.463 -0.1989  0.4884 -1.1242
  339TMC3    H2 5144   4.385   2.075   0.283 -0.4192 -0.3751  0.4795
  339TMC3    C7 5145   4.466   2.329   0.230 -0.2682  0.2495 -0.4981
  339TMC3    C8 5146   4.400   1.925   0.495 -0.2671  0.0426 -0.3006
  339TMC3    O1 5147   4.482   2.448   0.245 -0.6272  0.1526  0.6285
  339TMC3    O2 5148   4.301   1.919   0.420  0.2243  0.0618 -0.2986
  340MPD2     C 5149   0.150   0.739   9.658  0.2749  0.6770  0.1454
  340MPD2    C1 5150   0.228   0.645   9.709 -0.5428  0.8076 -0.1253
  340MPD2    C2 5151   0.296   0.672   9.824 -0.3804 -0.1798 -0.1428
  340MPD2    C3 5152   0.295   0.794   9.891  0.8415  0.2879 -0.5175
  340MPD2    C4 5153   0.211   0.888   9.830 -0.2732 -0.0755 -0.5275
  340MPD2    C5 5154   0.135   0.859   9.718  0.4397  0.0351  0.0826
  340MPD2     H 5155   0.365   0.599   9.865 -0.1999 -0.0864 -0.2794
  340MPD2    H1 5156   0.208   0.990   9.867 -0.1083 -0.0255 -0.6493
  340MPD2    H2 5157   0.100   0.725   9.563 -0.5244 -0.2671  0.7034
  340MPD2    H3 5158   0.064   0.926   9.671  0.1051 -0.7785 -0.5653
  340MPD2     N 5159   0.376   0.832   9.994  0.2623 -0.5336 -0.3869
  340MPD2    H5 5160   0.376   0.930  10.019 -2.1830 -0.4761 -0.6203
  340MPD2    N1 5161   0.250   0.532   9.628 -0.1438 -0.1930  0.2676
  340MPD2    H7 5162   0.206   0.521   9.537 -0.2178 -2.2534  0.5585
  341TMC3    C1 5163   0.322   0.313   9.585 -0.1200 -0.0663 -0.0154
  341TMC3    C2 5164   0.286   0.190   9.620 -0.2069  0.1932  0.6031
  341TMC3    C3 5165   0.274   0.102   9.517  0.1917  0.1601 -0.0318
  341TMC3    C4 5166   0.355   0.341   9.460 -0.3094 -0.2945 -0.3167
  341TMC3    C5 5167   0.340   0.248   9.362  0.5414 -0.4903 -0.0653
  341TMC3    C6 5168   0.297   0.126   9.388  0.3931  0.0228  0.2498
  341TMC3     C 5169   0.308   0.418   9.680  0.0954  0.4003 -0.3305
  341TMC3     O 5170   0.327   0.391   9.799 -0.5659  0.4194 -0.7751
  341TMC3     H 5171   0.259   0.161   9.721  0.1175 -2.1089  0.0211
  341TMC3    H1 5172   0.383   0.443   9.435  1.8628 -0.8551 -0.2285
  341TMC3    H2 5173   0.296   0.050   9.311 -4.3035 -0.0983  0.4232
  341TMC3    C7 5174   0.391   0.282   9.232  1.1181 -0.3861 -0.2840
  341TMC3    C8 5175   0.231   4.708   9.561 -0.1859  0.4676 -0.4731
  341TMC3    O1 5176   0.472   0.372   9.213  0.3635 -0.1087  0.4782
  341TMC3    O2 5177   0.265   4.675   9.677  0.0555 -0.1858 -0.4669
  342MPD2     C 5178   3.388   2.257  17.669  0.3244 -0.3378  0.5357
  342MPD2    C1 5179   3.480   2.311  17.579 -0.1733  0.1014 -0.2138
  342MPD2    C2 5180   3.493   2.449  17.574 -0.2505 -0.2252 -0.0743
  342MPD2    C3 5181   3.414   2.531  17.645  0.6217 -0.0986 -0.1243
  342MPD2    C4 5182   3.313   2.479  17.724 -0.2706 -0.7076  0.0342
  342MPD2    C5 5183   3.306   2.342  17.744  0.7142  0.0821  0.2230
  342MPD2     H 5184   3.578   2.488  17.519  1.1573 -2.1072  0.7278
  342MPD2    H1 5185   3.248   2.545   0.031 -1.3721  0.2229 -2.3718
  342MPD2    H2 5186   3.382   2.150  17.687  1.5524 -0.5667 -0.4427
  342MPD2    H3 5187   3.240   2.296   0.068  1.8007 -2.2261 -0.2484
  342MPD2     N 5188   3.432   2.670  17.652  0.1457  0.2036 -0.0561
  342MPD2    H5 5189   3.365   2.731  17.698 -1.6087 -2.0090  0.2805
  342MPD2    N1 5190   3.555   2.232  17.486 -0.2736  0.3450 -0.1117
  342MPD2    H7 5191   3.603   2.287  17.416 -0.8995 -1.0216 -1.6242
  343TMC3    C1 5192   3.600   2.026  17.361  0.0921  0.6470  0.0065
  343TMC3    C2 5193   3.664   2.092  17.259  0.2745  0.0424  0.5409
  343TMC3    C3 5194   3.692   2.027  17.139  0.8878  0.3471 -0.7516
  343TMC3    C4 5195   3.567   1.895  17.349  0.1615 -0.5830  0.1037
  343TMC3    C5 5196   3.593   1.829  17.233 -0.1856 -0.6142 -0.2393
  343TMC3    C6 5197   3.656   1.894  17.127 -0.3553 -0.4398  0.3682
  343TMC3     C 5198   3.546   2.096  17.475  0.0863  0.1402  0.2922
  343TMC3     O 5199   3.482   2.021  17.547 -0.1869  0.1851 -0.0680
  343TMC3     H 5200   3.689   2.197  17.271 -1.5759  0.4888  0.5157
  343TMC3    H1 5201   3.529   1.838  17.433  2.3040  1.2923  2.3607
  343TMC3    H2 5202   3.680   1.837  17.038  0.6442  0.4396  0.0864
  343TMC3    C7 5203   3.535   1.696  17.215  0.3648 -0.0062 -0.4179
  343TMC3    C8 5204   3.785   2.085  17.047 -0.6874  0.5167 -1.0994
  343TMC3    O1 5205   3.441   1.673  17.291 -0.1291  0.6162 -0.6204
  343TMC3    O2 5206   3.792   2.206  17.051 -0.3926  0.4353 -0.1130
  344MPD2     C 5207   4.608   2.178  10.236  0.1783 -0.3752 -1.1668
  344MPD2    C1 5208   4.681   2.217  10.346 -0.6325  0.0657 -0.7441
  344MPD2    C2 5209   4.708   2.350  10.358  0.4650 -0.0598 -0.1140
  344MPD2    C3 5210   4.681   2.442  10.251 -0.0554  0.0998 -0.1848
  344MPD2    C4 5211   4.623   2.386  10.139  0.7992 -0.3097 -0.2367
  344MPD2    C5 5212   4.587   2.258  10.129  0.1106 -0.1019 -0.1781
  344MPD2     H 5213   0.023   2.386  10.446 -2.9699  0.0907  1.8471
  344MPD2    H1 5214   4.603   2.455  10.058 -0.2946 -1.9152 -1.3460
  344MPD2    H2 5215   4.567   2.078  10.221 -0.3658 -0.5392  1.5161
  344MPD2    H3 5216   4.551   2.218  10.035  2.1822  0.4637 -1.2185
  344MPD2     N 5217   4.714   2.577  10.243  0.5793 -0.4606 -0.2814
  344MPD2    H5 5218   4.677   2.638  10.171  0.9342  0.3212  0.1982
  344MPD2    N1 5219   4.694   2.134  10.459  0.7558 -0.1981 -0.6083
  344MPD2    H7 5220   4.735   2.181  10.540  0.2171  1.2842 -1.1999
  345TMC3    C1 5221   0.072   2.784  10.314 -0.4204 -0.2272 -0.4002
  345TMC3    C2 5222   0.148   2.852  10.414  0.2981  0.4538  0.0088
  345TMC3    C3 5223   0.185   2.981  10.382 -0.4911  0.1981 -0.5529
  345TMC3    C4 5224   0.048   2.844  10.193  0.0327  0.3105  0.3536
  345TMC3    C5 5225   0.094   2.972  10.171 -0.1222 -0.6183  0.4825
  345TMC3    C6 5226   0.157   3.041  10.267  0.9095 -0.3750  0.1055
  345TMC3     C 5227   0.052   2.642  10.335  0.9412  0.6884  0.7359
  345TMC3     O 5228   0.114   2.604  10.432 -0.0262 -0.3029  0.2742
  345TMC3     H 5229   0.175   2.793  10.500  0.4205  0.4088 -0.0608
  345TMC3    H1 5230   4.733   2.791  10.114  0.7540 -0.2062  0.2243
  345TMC3    H2 5231   0.189   3.142  10.245  1.6613 -1.2179 -2.6350
  345TMC3    C7 5232   0.002   3.061  10.092 -0.1048 -0.2857  0.1058
  345TMC3    C8 5233   0.213   3.082  10.479 -0.4739  0.0063 -0.1838
  345TMC3    O1 5234   0.004   3.179  10.131 -0.0867  0.3938 -0.0280
  345TMC3    O2 5235   0.267   3.187  10.443  0.0954  0.6683 -0.1308
  346MPD2     C 5236   4.312   3.366  13.580 -0.0961 -0.3281 -0.4790
  346MPD2    C1 5237   4.378   3.484  13.552 -0.0624  0.2844 -0.7708
  346MPD2    C2 5238   4.442   3.545  13.656  0.9073  0.4221  0.8798
  346MPD2    C3 5239   4.438   3.499  13.788  0.9434 -0.3446  0.9997
  346MPD2    C4 5240   4.363   3.389  13.815  0.8101  0.9257 -0.1416
  346MPD2    C5 5241   4.304   3.326  13.712  1.1869 -0.0656 -0.1192
  346MPD2     H 5242   4.493   3.637  13.630  1.1310  0.3189  0.9527
  346MPD2    H1 5243   4.347   3.351  13.915 -0.3722 -2.3682 -1.5654
  346MPD2    H2 5244   4.261   3.305  13.507  1.5783 -1.7995 -0.4201
  346MPD2    H3 5245   4.246   3.235  13.728  1.7966 -0.2863  0.8888
  346MPD2     N 5246   4.517   3.566  13.885 -0.0540 -0.5275  0.1900
  346MPD2    H5 5247   4.541   3.664  13.877 -0.3376 -0.3403  1.5759
  346MPD2    N1 5248   4.397   3.523  13.415  0.1735 -0.0322 -0.2862
  346MPD2    H7 5249   4.435   3.617  13.402  1.6226 -0.9896 -3.0208
  347TMC3    C1 5250   4.680   3.557  14.062 -0.2373 -0.5418 -0.0012
  347TMC3    C2 5251   0.039   3.489  14.133  0.0623  0.8311  0.5543
  347TMC3    C3 5252   0.097   3.549  14.244  0.0940 -0.2564  0.7161
  347TMC3    C4 5253   4.659   3.689  14.085  0.2258 -0.0972 -0.3022
  347TMC3    C5 5254   4.737   3.753  14.185 -0.6895  0.6879  0.2503
  347TMC3    C6 5255   0.084   3.679  14.273 -0.6944 -0.3779 -0.1440
  347TMC3     C 5256   4.581   3.486  13.981  0.2210  0.3823  0.2439
  347TMC3     O 5257   4.576   3.361  13.982 -0.2196 -0.2382  0.4383
  347TMC3     H 5258   0.054   3.384  14.110 -2.0427  0.1196  2.4351
  347TMC3    H1 5259   4.568   3.737  14.049 -0.8789 -0.4871  1.9661
  347TMC3    H2 5260   0.150   3.730  14.342  3.1070 -2.2626 -2.4133
  347TMC3    C7 5261   0.026   3.894  14.183  0.3699  0.3121 -0.8223
  347TMC3    C8 5262   0.221   3.491  14.285 -0.7576  0.1747 -0.7851
  347TMC3    O1 5263   0.090   3.944  14.275 -0.4968 -0.1755 -0.2721
  347TMC3    O2 5264   0.267   3.420  14.200  0.3115 -0.4923 -0.0721
  348MPD2     C 5265   3.027   3.840  12.305 -0.1294 -0.3938  0.5706
  348MPD2    C1 5266   3.125   3.784  12.222 -0.3244 -0.1692 -0.0823
  348MPD2    C2 5267   3.100   3.783  12.089 -0.4508 -1.4622  0.3346
  348MPD2    C3 5268   2.982   3.828  12.032 -0.1148 -0.0505  0.7814
  348MPD2    C4 5269   2.884   3.872  12.112  0.0067  0.5745 -0.4308
  348MPD2    C5 5270   2.912   3.888  12.247  0.4495  0.4948 -0.6110
  348MPD2     H 5271   3.172   3.750  12.014 -0.3305  0.5990 -0.4711
  348MPD2    H1 5272   2.795   3.922  12.076  0.8834  1.0771 -1.9027
  348MPD2    H2 5273   3.026   3.850  12.413 -1.2429  2.5853  0.2944
  348MPD2    H3 5274   2.837   3.938  12.306 -1.3041 -0.3431 -2.1299
  348MPD2     N 5275   2.969   3.813  11.891  0.2360  0.0659 -0.5307
  348MPD2    H5 5276   3.044   3.767  11.842 -0.2702 -0.5491 -0.7333
  348MPD2    N1 5277   3.254   3.742  12.274 -0.0826  0.3092  0.3301
  348MPD2    H7 5278   3.325   3.714  12.206 -0.1694 -1.4752  0.9749
  349TMC3    C1 5279   3.414   3.664  12.428 -0.3179  0.0771 -0.2686
  349TMC3    C2 5280   3.407   3.537  12.474  0.0076 -0.5111 -0.4785
  349TMC3    C3 5281   3.494   3.439  12.432 -0.1821 -1.1375  0.8170
  349TMC3    C4 5282   3.503   3.684  12.324 -0.5381 -0.0916 -0.8262
  349TMC3    C5 5283   3.585   3.591  12.273  0.3754 -0.0277  0.0200
  349TMC3    C6 5284   3.592   3.467  12.332 -0.0923 -0.0904 -0.3933
  349TMC3     C 5285   3.282   3.724  12.410  0.3214  0.1378 -0.0714
  349TMC3     O 5286   3.199   3.723  12.498 -0.1118 -0.1028 -0.0204
  349TMC3     H 5287   3.315   3.521  12.530  1.2367  0.4807  1.7954
  349TMC3    H1 5288   3.492   3.776  12.266 -1.4487  1.3708  1.6326
  349TMC3    H2 5289   3.661   3.391  12.297  0.6824  0.6791 -0.5290
  349TMC3    C7 5290   3.615   3.595  12.133 -0.4945  0.7124 -0.5118
  349TMC3    C8 5291   3.497   3.296  12.478  0.3137 -0.1343 -0.1505
  349TMC3    O1 5292   3.592   3.488  12.079  0.2235 -0.2147 -0.1620
  349TMC3    O2 5293   3.600   3.237  12.450  0.1984  0.0935  0.1336
  350MPD2     C 5294   2.519   1.839  10.335 -0.3020  0.3562 -0.4474
  350MPD2    C1 5295   2.567   1.726  10.270 -0.2675 -0.4645  0.5435
  350MPD2    C2 5296   2.694   1.722  10.225  1.0245  0.3191 -0.1880
  350MPD2    C3 5297   2.785   1.817  10.263  0.2729 -0.2592 -0.4717
  350MPD2    C4 5298   2.743   1.921  10.349  0.0168 -0.1085 -0.1966
  350MPD2    C5 5299   2.608   1.939  10.368  0.3146  0.4585 -0.2025
  350MPD2     H 5300   2.735   1.643  10.163  0.3946 -0.2418  0.1078
  350MPD2    H1 5301   2.800   1.999  10.398 -0.2134 -0.3867  0.5134
  350MPD2    H2 5302   2.414   1.847  10.360 -0.1455  0.6340  0.1125
  350MPD2    H3 5303   2.562   2.017  10.428  0.1680 -1.4283  2.1577
  350MPD2     N 5304   2.915   1.808  10.229 -0.0782  0.4192  0.1155
  350MPD2    H5 5305   2.947   1.729  10.173  0.1320  1.5497 -1.3781
  350MPD2    N1 5306   2.493   1.608  10.246  0.2135 -0.0675 -0.4247
  350MPD2    H7 5307   2.540   1.533  10.197  1.4547 -1.0269  2.2562
  351TMC3    C1 5308   2.318   1.453  10.261 -0.3368 -0.2476 -0.1011
  351TMC3    C2 5309   2.362   1.393  10.148  0.0269  0.6643  0.3490
  351TMC3    C3 5310   2.313   1.270  10.112 -0.3589  0.4245 -0.0758
  351TMC3    C4 5311   2.232   1.391  10.345 -0.4458 -0.0090 -0.2694
  351TMC3    C5 5312   2.179   1.267  10.305  0.2651  0.1369  1.0464
  351TMC3    C6 5313   2.226   1.204  10.191 -0.3467 -0.0542 -0.2982
  351TMC3     C 5314   2.366   1.582  10.306  0.5786 -0.1800  0.5836
  351TMC3     O 5315   2.292   1.644  10.384 -0.5578  0.3149  0.1738
  351TMC3     H 5316   2.433   1.444  10.084 -2.2540  0.3952 -2.4005
  351TMC3    H1 5317   2.197   1.432  10.439 -2.2341 -0.9063 -0.5626
  351TMC3    H2 5318   2.185   1.106  10.167 -0.0856 -0.7233  1.9926
  351TMC3    C7 5319   2.073   1.205  10.385  0.5508  0.4967 -0.1927
  351TMC3    C8 5320   2.369   1.207   9.993  0.9764 -0.1196 -0.0541
  351TMC3    O1 5321   2.069   1.086  10.377  0.4780 -0.2173 -0.3213
  351TMC3    O2 5322   2.469   1.259   9.952 -0.1798 -0.4963  0.3460
  352MPD2     C 5323   0.706   3.666   0.861 -0.6110 -0.1621  0.7433
  352MPD2    C1 5324   0.583   3.648   0.916 -0.3523 -0.6950  0.1122
  352MPD2    C2 5325   0.552   3.523   0.972  0.1681  0.0545  0.4974
  352MPD2    C3 5326   0.652   3.422   0.971  0.1629 -0.2948 -0.2156
  352MPD2    C4 5327   0.780   3.448   0.935  0.6650 -0.0508 -0.4359
  352MPD2    C5 5328   0.806   3.569   0.879 -0.2233 -0.7007 -0.6163
  352MPD2     H 5329   0.448   3.509   1.000  0.5207  0.6008  2.0917
  352MPD2    H1 5330   0.863   3.382   0.959  0.6786  0.6118  1.3624
  352MPD2    H2 5331   0.727   3.761   0.813 -1.6262  1.1525  2.9179
  352MPD2    H3 5332   0.910   3.587   0.851  0.5846 -2.5568  1.2201
  352MPD2     N 5333   0.631   3.297   1.033  0.3808  0.2259  0.4669
  352MPD2    H5 5334   0.708   3.231   1.039 -0.1583 -0.4982 -0.6091
  352MPD2    N1 5335   0.486   3.754   0.914 -0.1616  0.3258 -0.3808
  352MPD2    H7 5336   0.518   3.838   0.866  0.2068  0.6341  0.4044
  353TMC3    C1 5337   0.513   3.113   1.137 -0.6650 -0.6114  0.4389
  353TMC3    C2 5338   0.626   3.034   1.140 -0.0523 -0.4683  0.5465
  353TMC3    C3 5339   0.621   2.901   1.149  0.3499  0.1901 -0.3497
  353TMC3    C4 5340   0.390   3.061   1.163 -0.3964  0.1569 -0.2066
  353TMC3    C5 5341   0.381   2.928   1.177 -0.3728 -0.8717 -0.5271
  353TMC3    C6 5342   0.498   2.848   1.176 -0.0268 -0.2091 -0.3218
  353TMC3     C 5343   0.506   3.251   1.076 -0.6581 -0.0250  0.0706
  353TMC3     O 5344   0.395   3.301   1.077 -0.6104  0.2936 -0.8238
  353TMC3     H 5345   0.720   3.082   1.118  0.4765 -0.9545  1.7851
  353TMC3    H1 5346   0.304   3.126   1.148  0.1585  0.6543 -1.2206
  353TMC3    H2 5347   0.482   2.744   1.205 -0.1204 -0.8193 -2.5691
  353TMC3    C7 5348   0.255   2.857   1.169  0.5124  0.0416  0.3391
  353TMC3    C8 5349   0.740   2.835   1.182  0.1581 -0.2316  0.5550
  353TMC3    O1 5350   0.262   2.741   1.133  0.2048  0.3090 -0.0637
  353TMC3    O2 5351   0.841   2.903   1.190 -0.0184 -0.1687  0.0080
  354TMC3    C1 5352   2.352   4.439  13.405  0.1779  0.0214  0.6109
  354TMC3    C2 5353   2.315   4.535  13.322  0.4756 -0.0459 -0.0370
  354TMC3    C3 5354   2.376   4.551  13.205 -0.4780 -0.3642  0.7000
  354TMC3    C4 5355   2.446   4.344  13.368 -0.3311 -0.7980 -0.1091
  354TMC3    C5 5356   2.502   4.354  13.239  0.1925  0.4414 -0.4978
  354TMC3    C6 5357   2.459   4.454  13.159 -0.5128  0.4415 -0.2831
  354TMC3     C 5358   2.263   4.409  13.515  0.0956 -0.2324 -0.4053
  354TMC3     O 5359   2.141   4.415  13.494 -0.1476  0.4934  0.4162
  354TMC3     H 5360   2.220   4.577  13.352  0.8637  0.0589  1.0225
  354TMC3    H1 5361   2.460   4.258  13.433  1.2364 -0.4387  0.0217
  354TMC3    H2 5362   2.508   4.479  13.065  0.7411  1.9970  0.7831
  354TMC3    C7 5363   2.626   4.293  13.217  0.1257  0.1727  0.0966
  354TMC3    C8 5364   2.342   4.666  13.127 -0.1932 -0.2761 -0.7903
  354TMC3    O1 5365   2.654   4.211  13.305 -0.0900 -0.2038 -0.3512
  354TMC3    O2 5366   2.382   4.655  13.011 -0.3703 -0.7453 -0.2680
  355MPD2     C 5367   2.894   0.775  11.982  0.4757 -0.5208 -0.7085
  355MPD2    C1 5368   2.993   0.819  11.895  0.2525 -0.3440 -0.3373
  355MPD2    C2 5369   3.124   0.815  11.939  0.0966 -0.0945 -0.6080
  355MPD2    C3 5370   3.159   0.756  12.056 -0.5064  0.7664 -0.0489
  355MPD2    C4 5371   3.065   0.676  12.123  0.4184 -0.0953 -0.2648
  355MPD2    C5 5372   2.932   0.705  12.094 -0.4096 -0.3942 -0.2744
  355MPD2     H 5373   3.209   0.857  11.886  1.5479  0.2787  2.0190
  355MPD2    H1 5374   3.084   0.608  12.206 -0.4343  1.0197  0.8465
  355MPD2    H2 5375   2.790   0.799  11.963  0.3028 -1.0519 -0.4190
  355MPD2    H3 5376   2.851   0.654  12.144 -0.8521 -0.0839 -0.6710
  355MPD2     N 5377   3.293   0.777  12.103 -0.3015  0.4781 -0.5564
  355MPD2    H5 5378   3.355   0.832  12.044  0.0523 -1.8568 -2.3667
  355MPD2    N1 5379   2.947   0.864  11.768 -0.6382 -0.1592  0.6562
  355MPD2    H7 5380   2.849   0.880  11.745 -0.0257  1.2406 -0.9497
  356TMC3    C1 5381   3.494   0.731  12.217 -0.8135 -0.2614  0.0082
  356TMC3    C2 5382   3.572   0.744  12.104  0.1592 -0.2276 -0.0202
  356TMC3    C3 5383   3.713   0.735  12.102 -0.2150 -0.3042 -0.2367
  356TMC3    C4 5384   3.554   0.708  12.332 -0.3806 -0.0018  0.2388
  356TMC3    C5 5385   3.688   0.679  12.324 -0.6656  0.1186 -0.5383
  356TMC3    C6 5386   3.771   0.687  12.212 -0.1550 -0.9458  0.0234
  356TMC3     C 5387   3.344   0.717  12.208 -0.0467  0.4570 -0.3084
  356TMC3     O 5388   3.292   0.656  12.303 -0.3742  0.4562 -0.0824
  356TMC3     H 5389   3.533   0.762  12.005  2.9503  1.0194 -0.8950
  356TMC3    H1 5390   3.490   0.691  12.418  0.1175 -0.0100  0.6071
  356TMC3    H2 5391   3.877   0.665  12.215 -0.0778 -0.4684  0.8903
  356TMC3    C7 5392   3.747   0.682  12.455  0.2884  0.0193 -0.1257
  356TMC3    C8 5393   3.789   0.737  11.978 -0.5335 -0.0583  0.0677
  356TMC3    O1 5394   3.835   0.600  12.477  0.2076  0.5506 -0.0549
  356TMC3    O2 5395   3.885   0.663  11.983 -0.5744 -0.1038  0.5894
  357MPD2     C 5396   1.072   0.082   1.366 -0.8231 -0.1905 -0.0867
  357MPD2    C1 5397   1.124   4.732   1.269  0.3866 -1.0181 -0.5851
  357MPD2    C2 5398   1.082   4.603   1.274 -0.1798 -0.1558 -0.1961
  357MPD2    C3 5399   1.002   4.560   1.379  0.0795 -0.6275  0.0330
  357MPD2    C4 5400   0.943   4.651   1.467 -0.2491 -0.0172 -0.7809
  357MPD2    C5 5401   0.979   0.042   1.458  0.0669  0.1189  1.0760
  357MPD2     H 5402   1.120   4.534   1.199  0.2986  0.4354 -0.4908
  357MPD2    H1 5403   0.882   4.620   1.551 -1.3832  1.5691 -1.0180
  357MPD2    H2 5404   1.094   0.188   1.361 -0.0828 -0.2645  1.8945
  357MPD2    H3 5405   0.945   0.124   1.521 -0.9382  0.4655  0.0911
  357MPD2     N 5406   0.959   4.423   1.392 -0.1492  1.1859  0.0191
  357MPD2    H5 5407   0.867   4.408   1.432  0.5478 -0.4901  0.9876
  357MPD2    N1 5408   1.220   0.039   1.181  0.0058  0.1791 -0.3725
  357MPD2    H7 5409   1.252   0.132   1.207 -0.2243 -0.1935  1.2431
  358TMC3    C1 5410   1.385   0.038   1.021  0.1113  1.0095  0.0340
  358TMC3    C2 5411   1.411   4.729   0.903  1.0459 -0.3322  0.0987
  358TMC3    C3 5412   1.540   0.008   0.856 -0.2492 -0.2382  0.6262
  358TMC3    C4 5413   1.475   0.089   1.104  0.2683 -0.2194 -0.2436
  358TMC3    C5 5414   1.604   0.100   1.063  0.0703  0.4989 -0.2701
  358TMC3    C6 5415   1.640   0.058   0.932 -0.0837  0.1149 -0.5965
  358TMC3     C 5416   1.272   4.707   1.069 -0.1343 -0.1367 -0.3028
  358TMC3     O 5417   1.230   4.609   1.010  0.5148 -0.3193 -0.0687
  358TMC3     H 5418   1.336   4.694   0.833  1.2367  1.1126 -0.8248
  358TMC3    H1 5419   1.456   0.101   1.210  2.3774 -2.0401  0.3195
  358TMC3    H2 5420   1.741   0.052   0.893  0.2703 -0.6749  0.4371
  358TMC3    C7 5421   1.707   0.153   1.151 -1.0690 -0.0169  0.2468
  358TMC3    C8 5422   1.574   4.665   0.744  0.2708 -0.1004 -0.8006
  358TMC3    O1 5423   1.677   0.167   1.268 -0.2678  1.1470  0.6607
  358TMC3    O2 5424   1.676   4.704   0.683 -0.1859  0.0830 -0.1481
  359MPD2     C 5425   2.811   4.656  12.448  0.3085 -0.7363 -0.8876
  359MPD2    C1 5426   2.817   4.549  12.357  0.3206 -0.2287  0.4321
  359MPD2    C2 5427   2.706   4.473  12.334  0.7570  0.3930 -0.6415
  359MPD2    C3 5428   2.591   4.504  12.402  0.1546  0.3093 -1.0570
  359MPD2    C4 5429   2.585   4.610  12.487 -0.7652  0.1893  0.7809
  359MPD2    C5 5430   2.697   4.679  12.519  0.9563 -0.2001  0.1526
  359MPD2     H 5431   2.708   4.390  12.265 -0.7282 -0.7357  0.6871
  359MPD2    H1 5432   2.490   4.633  12.534 -3.2197 -2.2511 -2.9057
  359MPD2    H2 5433   2.887   4.731  12.463  0.8101 -1.2452 -0.8951
  359MPD2    H3 5434   2.684   0.020  12.592 -0.8923 -0.1204 -0.2748
  359MPD2     N 5435   2.470   4.433  12.367 -0.2382  0.2393 -0.0021
  359MPD2    H5 5436   2.391   4.485  12.403  1.1221  3.2676 -1.4063
  359MPD2    N1 5437   2.926   4.516  12.275 -0.0226  0.0593  0.5414
  359MPD2    H7 5438   2.922   4.439  12.210 -1.0290  0.6657 -0.0998
  360TMC3    C1 5439   3.140   4.537  12.170  0.4674 -0.3373 -0.0710
  360TMC3    C2 5440   3.270   4.565  12.188 -0.1359  0.3944 -0.1233
  360TMC3    C3 5441   3.361   4.513  12.095 -0.0660 -0.4225 -0.3963
  360TMC3    C4 5442   3.103   4.448  12.070 -0.1763  0.1233  0.2883
  360TMC3    C5 5443   3.189   4.394  11.987 -0.6877 -0.1463  0.5253
  360TMC3    C6 5444   3.318   4.414  12.001  0.1166  0.2900  0.1573
  360TMC3     C 5445   3.051   4.568  12.283  0.0321 -0.6561 -0.7100
  360TMC3     O 5446   3.093   4.632  12.381 -0.8265  0.2300 -0.5194
  360TMC3     H 5447   3.295   4.640  12.262  0.5231 -0.9126  0.9813
  360TMC3    H1 5448   2.996   4.440  12.054 -0.4685  0.0141  2.2319
  360TMC3    H2 5449   3.388   4.362  11.937 -0.1129 -0.0306  0.1697
  360TMC3    C7 5450   3.145   4.364  11.852 -0.0748 -0.0831 -0.0394
  360TMC3    C8 5451   3.475   4.590  12.064  0.8045 -0.1662 -0.1882
  360TMC3    O1 5452   3.226   4.390  11.763 -0.2937  0.1174 -0.1693
  360TMC3    O2 5453   3.488   4.710  12.090 -0.4156 -0.3332 -0.6441
  361MPD2     C 5454   4.702   3.348  16.401  0.7593 -0.2801 -0.0272
  361MPD2    C1 5455   4.630   3.297  16.510 -0.0196  0.8780  0.0868
  361MPD2    C2 5456   4.697   3.234  16.613  0.3271 -0.3882  0.2550
  361MPD2    C3 5457   0.100   3.218  16.600 -0.2285  0.7167  0.0080
  361MPD2    C4 5458   0.159   3.252  16.479  0.4543 -0.0957 -0.6557
  361MPD2    C5 5459   0.093   3.329  16.387 -0.5949 -0.1051 -0.2263
  361MPD2     H 5460   4.639   3.187  16.692 -0.7300  0.3802 -0.0533
  361MPD2    H1 5461   0.264   3.228  16.465  0.9017  0.0097  2.5053
  361MPD2    H2 5462   4.651   3.405  16.325 -0.3456 -0.0029  0.9266
  361MPD2    H3 5463   0.150   3.360  16.300  0.3182 -1.1323  0.0055
  361MPD2     N 5464   0.179   3.147  16.691  0.7829  0.5910 -0.5562
  361MPD2    H5 5465   0.266   3.111  16.652  0.7648 -0.5210  0.4360
  361MPD2    N1 5466   4.490   3.313  16.524  0.4476  0.4083 -0.8896
  361MPD2    H7 5467   4.445   3.281  16.609 -0.7737  0.9048 -1.3471
  362TMC3    C1 5468   4.263   3.360  16.491 -0.1295  0.7536  0.2143
  362TMC3    C2 5469   4.248   3.356  16.628  0.4746 -0.6155  0.2746
  362TMC3    C3 5470   4.121   3.388  16.682 -0.2409  0.1325  0.5396
  362TMC3    C4 5471   4.166   3.401  16.404  0.4459  0.8560  0.1920
  362TMC3    C5 5472   4.049   3.441  16.464 -0.5376 -0.4189  0.2780
  362TMC3    C6 5473   4.017   3.427  16.600  0.0910  0.1648 -0.0771
  362TMC3     C 5474   4.398   3.369  16.442  0.1257 -0.2598  0.6363
  362TMC3     O 5475   4.413   3.426  16.334  0.6665 -0.2775 -0.5201
  362TMC3     H 5476   4.328   3.327  16.694  2.0772  2.0861 -0.4711
  362TMC3    H1 5477   4.188   3.409  16.298  0.1646 -0.4183  0.0386
  362TMC3    H2 5478   3.917   3.438  16.639  0.6559  0.6667  1.2025
  362TMC3    C7 5479   3.950   3.497  16.378 -0.6366  0.6463  1.0323
  362TMC3    C8 5480   4.098   3.389  16.828 -0.4158 -0.3405 -0.3090
  362TMC3    O1 5481   3.984   3.558  16.276 -0.2778 -0.3468  0.3882
  362TMC3    O2 5482   4.161   3.310  16.898 -0.1363  0.0333  0.0640
  363TMC3    C1 5483   3.663   0.925   9.762 -0.3937  0.2343 -0.0596
  363TMC3    C2 5484   3.539   0.875   9.782  0.0559  0.2997  0.0084
  363TMC3    C3 5485   3.439   0.958   9.779  0.1537  0.3495 -0.5393
  363TMC3    C4 5486   3.689   1.054   9.737 -0.3699  0.2361  0.2182
  363TMC3    C5 5487   3.584   1.139   9.759 -0.0387  0.1659  0.2713
  363TMC3    C6 5488   3.454   1.094   9.772 -0.2342  0.3197 -0.7905
  363TMC3     C 5489   3.762   0.832   9.801 -0.4227 -0.3405 -0.0479
  363TMC3     O 5490   3.727   0.726   9.858  0.0082 -0.4194  0.2037
  363TMC3     H 5491   3.519   0.769   9.786 -0.8228  0.4033 -1.6078
  363TMC3    H1 5492   3.789   1.094   9.726 -0.5846  0.6015 -0.3701
  363TMC3    H2 5493   3.370   1.163   9.777 -1.9582 -1.8772  0.2463
  363TMC3    C7 5494   3.617   1.277   9.756 -0.0364  0.4652 -0.6142
  363TMC3    C8 5495   3.302   0.915   9.803  0.1202  0.0658 -0.1957
  363TMC3    O1 5496   3.718   1.322   9.704 -0.0764 -0.3773 -0.2289
  363TMC3    O2 5497   3.214   0.993   9.826  0.5627 -0.1863 -0.0128
  364MPD2     C 5498   1.543   4.530  10.455  0.7098 -0.2416  0.4330
  364MPD2    C1 5499   1.593   4.614  10.551 -0.8394  0.5878 -0.0888
  364MPD2    C2 5500   1.651   4.557  10.657  0.2189 -1.0648  0.1902
  364MPD2    C3 5501   1.675   4.416  10.663 -0.7141  0.2763 -0.6463
  364MPD2    C4 5502   1.620   4.337  10.568  0.1799 -0.2673 -0.0589
  364MPD2    C5 5503   1.558   4.393  10.457  0.2784  0.5778 -0.4630
  364MPD2     H 5504   1.678   4.622  10.740  1.8813 -0.9467 -0.4391
  364MPD2    H1 5505   1.627   4.228  10.565 -1.2875 -0.3253 -1.3736
  364MPD2    H2 5506   1.480   4.578  10.381  0.8926  0.3469  0.6587
  364MPD2    H3 5507   1.518   4.337  10.374 -0.2431  0.1063  0.1038
  364MPD2     N 5508   1.760   4.355  10.761  0.6688  0.5596 -0.0708
  364MPD2    H5 5509   1.786   4.258  10.747  2.4161  1.2414 -1.3993
  364MPD2    N1 5510   1.596   0.017  10.545  0.4364  0.1963  0.3461
  364MPD2    H7 5511   1.632   0.064  10.627  2.3320  1.8870 -1.4680
  365TMC3    C1 5512   1.599   0.228  10.446  0.4345 -0.3268  0.2504
  365TMC3    C2 5513   1.611   0.298  10.331  0.2409  0.8275 -0.0740
  365TMC3    C3 5514   1.669   0.422  10.334 -0.3882 -0.2355 -0.6616
  365TMC3    C4 5515   1.622   0.293  10.570 -0.0072  0.4560 -0.0070
  365TMC3    C5 5516   1.675   0.417  10.572 -0.3466  1.1354 -0.4761
  365TMC3    C6 5517   1.698   0.483  10.452 -0.0962  0.0406 -0.3614
  365TMC3     C 5518   1.571   0.081  10.429  0.7355 -0.1100  0.2567
  365TMC3     O 5519   1.582   0.036  10.316 -0.1995  0.0318 -0.8864
  365TMC3     H 5520   1.599   0.250  10.235  0.1984  3.9444 -1.6242
  365TMC3    H1 5521   1.598   0.244  10.663  1.5988 -0.8000 -0.2680
  365TMC3    H2 5522   1.733   0.586  10.451 -0.1993  0.0753 -0.3402
  365TMC3    C7 5523   1.747   0.470  10.684 -0.1366  0.4179 -0.2061
  365TMC3    C8 5524   1.696   0.481  10.206 -0.7947  0.0638 -0.0174
  365TMC3    O1 5525   1.854   0.520  10.655 -0.6738 -0.4044 -0.7755
  365TMC3    O2 5526   1.601   0.468  10.129  0.1770 -0.2575  0.8015
  366MPD2     C 5527   0.618   2.224  14.821  0.1612  0.2859 -0.3583
  366MPD2    C1 5528   0.614   2.193  14.951  0.0865  0.6334  0.6681
  366MPD2    C2 5529   0.638   2.063  15.005  0.2199  0.6032  0.6963
  366MPD2    C3 5530   0.657   1.960  14.918  0.2941  0.1780 -0.4988
  366MPD2    C4 5531   0.648   1.983  14.780  0.3389  0.3705  0.2295
  366MPD2    C5 5532   0.630   2.117  14.737 -0.1205  0.1653 -0.0480
  366MPD2     H 5533   0.636   2.054  15.113  0.0103  0.4303  0.6775
  366MPD2    H1 5534   0.661   1.905  14.706  1.8867 -1.1852  2.1263
  366MPD2    H2 5535   0.594   2.318  14.773 -1.1818  0.2406  0.2298
  366MPD2    H3 5536   0.617   2.139  14.632  0.1991  0.5978  0.0009
  366MPD2     N 5537   0.667   1.828  14.973 -0.8159 -0.3428  0.3939
  366MPD2    H5 5538   0.674   1.821  15.074  0.1549  0.9096  0.4290
  366MPD2    N1 5539   0.576   2.289  15.050  0.2988  0.5288 -0.5372
  366MPD2    H7 5540   0.572   2.256  15.146  1.6766  2.8609  0.3085
  367TMC3    C1 5541   0.498   2.470  15.161 -0.2652 -0.2996  0.1097
  367TMC3    C2 5542   0.566   2.432  15.274  0.5293 -0.8711 -0.1901
  367TMC3    C3 5543   0.509   2.472  15.391 -0.1079 -0.1049  0.3973
  367TMC3    C4 5544   0.389   2.549  15.163  0.0777 -0.4846 -0.8982
  367TMC3    C5 5545   0.339   2.577  15.285 -0.4754 -0.6570 -0.4874
  367TMC3    C6 5546   0.393   2.540  15.401  0.2948  0.1775 -0.2027
  367TMC3     C 5547   0.544   2.414  15.033 -0.1725  0.1811  0.2620
  367TMC3     O 5548   0.530   2.476  14.928  0.0986 -0.1538 -0.1044
  367TMC3     H 5549   0.650   2.364  15.269 -0.0734 -1.7280  1.2364
  367TMC3    H1 5550   0.335   2.563  15.070 -1.0111 -0.4606 -0.2715
  367TMC3    H2 5551   0.345   2.565  15.495 -1.4591  0.0786 -1.0652
  367TMC3    C7 5552   0.195   2.584  15.291 -0.4737  0.7951 -0.4485
  367TMC3    C8 5553   0.551   2.391  15.502  0.3917  0.2292  0.5219
  367TMC3    O1 5554   0.148   2.498  15.360  0.0914 -0.2971 -0.0583
  367TMC3    O2 5555   0.595   2.280  15.469 -0.3410  0.4428  0.0486
  368MPD2     C 5556   1.609   3.232  12.914  0.1324  1.1411  0.0843
  368MPD2    C1 5557   1.640   3.365  12.892 -0.9956  0.2419  0.0802
  368MPD2    C2 5558   1.773   3.407  12.879 -0.2557 -0.5118  0.4081
  368MPD2    C3 5559   1.872   3.323  12.905 -0.1490  0.2691  0.7211
  368MPD2    C4 5560   1.842   3.189  12.941  0.3246 -0.0293  0.7987
  368MPD2    C5 5561   1.713   3.145  12.942  0.1112  0.2025  0.3636
  368MPD2     H 5562   1.800   3.507  12.845 -1.0908 -0.5777 -0.4432
  368MPD2    H1 5563   1.922   3.119  12.960  1.8618  1.6714  0.6437
  368MPD2    H2 5564   1.507   3.198  12.901  0.8575 -0.8514 -0.3974
  368MPD2    H3 5565   1.690   3.042  12.969  0.2997 -0.3343 -1.5440
  368MPD2     N 5566   2.006   3.372  12.889 -0.2067 -0.5609  0.4575
  368MPD2    H5 5567   2.010   3.460  12.839  0.9569 -0.6273  0.4398
  368MPD2    N1 5568   1.527   3.450  12.870  0.2661  0.2351  0.0033
  368MPD2    H7 5569   1.438   3.402  12.870 -0.3243  1.3292 -0.6026
  369TMC3    C1 5570   1.415   3.652  12.827 -0.1423 -0.0258  0.8034
  369TMC3    C2 5571   1.412   3.789  12.863 -0.8556 -0.0867  0.9747
  369TMC3    C3 5572   1.292   3.850  12.883 -0.1349  0.5761  0.1587
  369TMC3    C4 5573   1.295   3.581  12.817  0.0674  0.2934  0.2374
  369TMC3    C5 5574   1.175   3.650  12.833 -0.5262 -0.0272 -0.2527
  369TMC3    C6 5575   1.175   3.781  12.863  0.0511 -0.2561  0.3579
  369TMC3     C 5576   1.539   3.585  12.857 -0.1993  0.6884  0.8239
  369TMC3     O 5577   1.634   3.662  12.869  0.1827  0.1073  0.3792
  369TMC3     H 5578   1.504   3.841  12.886 -0.7958  0.2892 -0.1000
  369TMC3    H1 5579   1.291   3.473  12.803  2.1645 -0.0044  1.9201
  369TMC3    H2 5580   1.080   3.828  12.882 -0.0523 -0.2895 -0.0764
  369TMC3    C7 5581   1.051   3.582  12.836 -0.3240  0.3430  0.4846
  369TMC3    C8 5582   1.286   3.994  12.878  0.5774 -0.2027 -1.0345
  369TMC3    O1 5583   1.060   3.458  12.843  0.1031 -0.0075 -0.0718
  369TMC3    O2 5584   1.239   4.048  12.775  0.1382 -0.1561  0.3281
  370TMC3    C1 5585   0.738   4.044  15.917 -0.3796 -0.2723 -0.0900
  370TMC3    C2 5586   0.665   3.990  16.016 -0.9646  0.2752 -0.1715
  370TMC3    C3 5587   0.611   3.866  16.001 -0.0273 -0.2452 -0.3088
  370TMC3    C4 5588   0.759   3.985  15.796 -0.1510  1.5370  0.1123
  370TMC3    C5 5589   0.708   3.858  15.781  0.3576  0.0617  0.4178
  370TMC3    C6 5590   0.632   3.796  15.883  0.0507  0.5084  0.2653
  370TMC3     C 5591   0.832   4.144  15.965 -0.5731  0.8343 -0.1205
  370TMC3     O 5592   0.884   4.121  16.072 -0.3245 -0.1254  0.9310
  370TMC3     H 5593   0.677   4.031  16.115  2.0804 -2.3106  0.5335
  370TMC3    H1 5594   0.818   4.032  15.719  0.9737  3.1442  1.9612
  370TMC3    H2 5595   0.588   3.699  15.867  0.4160  0.3619  0.1549
  370TMC3    C7 5596   0.780   3.782  15.688 -0.1029  0.0913  0.1415
  370TMC3    C8 5597   0.584   3.796  16.127 -0.2128 -0.9587 -0.6503
  370TMC3    O1 5598   0.821   3.842  15.592  0.3078 -0.1055 -0.1302
  370TMC3    O2 5599   0.600   3.674  16.123  0.2353  0.2170  0.0516
  371TMC3    C1 5600   1.890   2.154  15.354 -0.4337 -0.4584 -0.2518
  371TMC3    C2 5601   1.790   2.154  15.447 -0.5542 -0.4143 -0.4205
  371TMC3    C3 5602   1.738   2.276  15.474  0.4828  0.0923 -0.3208
  371TMC3    C4 5603   1.943   2.267  15.293  0.4321 -0.3959  0.0289
  371TMC3    C5 5604   1.895   2.386  15.340  0.2024 -0.4198 -1.1939
  371TMC3    C6 5605   1.793   2.391  15.427 -0.7577 -0.2889  0.5704
  371TMC3     C 5606   1.956   2.028  15.329  0.1071 -0.4881 -0.0181
  371TMC3     O 5607   2.078   2.026  15.310  0.6580 -0.7241 -0.0593
  371TMC3     H 5608   1.749   2.064  15.491  0.6616 -1.0926 -0.6918
  371TMC3    H1 5609   2.034   2.259  15.234  0.8193 -0.2294  0.6087
  371TMC3    H2 5610   1.749   2.488  15.448 -1.5119 -0.4649 -0.2042
  371TMC3    C7 5611   1.919   2.513  15.272  0.2376 -0.2114  0.1157
  371TMC3    C8 5612   1.659   2.287  15.596  0.7698 -0.0578 -0.0298
  371TMC3    O1 5613   1.896   2.618  15.326  0.0246  0.4324  0.0126
  371TMC3    O2 5614   1.667   2.192  15.670  0.0575  0.4206  0.1949
  372MPD2     C 5615   1.193   3.630  13.204  0.3450  0.4826  0.2589
  372MPD2    C1 5616   1.309   3.559  13.177  0.5396 -0.4096  0.9316
  372MPD2    C2 5617   1.297   3.423  13.144 -0.2789  0.0256  0.2328
  372MPD2    C3 5618   1.175   3.354  13.140  0.0819  0.3538 -0.6800
  372MPD2    C4 5619   1.065   3.431  13.150 -0.6138  0.6521  0.3931
  372MPD2    C5 5620   1.072   3.568  13.182 -0.1667 -0.5513 -0.1151
  372MPD2     H 5621   1.393   3.378  13.124 -0.4017  0.3441 -1.0427
  372MPD2    H1 5622   0.967   3.386  13.158 -0.6084  0.5253 -0.3174
  372MPD2    H2 5623   1.193   3.737  13.222 -1.9554  0.4053  0.6985
  372MPD2    H3 5624   0.983   3.626  13.200 -0.5659 -1.3358  0.4432
  372MPD2     N 5625   1.165   3.217  13.114  0.6640  0.4617  0.2123
  372MPD2    H5 5626   1.076   3.168  13.118  1.3908 -0.8435  0.7999
  372MPD2    N1 5627   1.435   3.620  13.188 -0.1538 -0.6979  0.3776
  372MPD2    H7 5628   1.514   3.557  13.195  0.7665  0.3888 -0.2882
  373TMC3    C1 5629   1.226   2.995  13.053  0.3638  0.1577 -0.5776
  373TMC3    C2 5630   1.132   2.925  13.122  0.0304  0.3241 -0.5974
  373TMC3    C3 5631   1.124   2.788  13.126 -0.0347  0.2222  0.3932
  373TMC3    C4 5632   1.325   2.930  12.988 -0.3547  0.0020  0.0262
  373TMC3    C5 5633   1.327   2.796  13.009  0.4256 -0.2219  0.3067
  373TMC3    C6 5634   1.224   2.721  13.066  0.6148  0.7454  0.2126
  373TMC3     C 5635   1.269   3.127  13.103  0.1172 -0.8071  0.0918
  373TMC3     O 5636   1.389   3.149  13.106  0.5043 -0.3471  0.2733
  373TMC3     H 5637   1.050   2.975  13.171  0.0687  0.7051 -0.9232
  373TMC3    H1 5638   1.402   2.975  12.926 -0.2774  1.2820  1.0537
  373TMC3    H2 5639   1.223   2.613  13.062  1.5975  0.6718  1.8615
  373TMC3    C7 5640   1.455   2.728  12.979 -0.5416 -0.7134 -0.0892
  373TMC3    C8 5641   1.004   2.726  13.181 -0.2345 -0.1836  0.1249
  373TMC3    O1 5642   1.557   2.795  12.964 -0.7205  0.1725  0.0197
  373TMC3    O2 5643   0.893   2.773  13.163 -0.5258 -0.4822  0.2614
  374TMC3    C1 5644   2.246   4.224   9.817 -0.0660  0.0428 -0.0294
  374TMC3    C2 5645   2.339   4.122   9.834 -0.0644 -0.2773  0.9866
  374TMC3    C3 5646   2.438   4.121   9.735 -0.6588  0.1220 -0.1017
  374TMC3    C4 5647   2.255   4.325   9.722 -0.3178 -0.2709  0.1694
  374TMC3    C5 5648   2.361   4.325   9.640 -0.2031  0.4942  0.1536
  374TMC3    C6 5649   2.449   4.219   9.637  0.1536 -0.1085 -0.5075
  374TMC3     C 5650   2.130   4.227   9.908 -0.2439  0.0352  0.8564
  374TMC3     O 5651   2.110   4.121   9.967  0.3489 -0.5434 -0.1743
  374TMC3     H 5652   2.325   4.049   9.912  1.1816  0.9275  2.3375
  374TMC3    H1 5653   2.175   4.397   9.712  1.5849  2.0476  1.4560
  374TMC3    H2 5654   2.532   4.217   9.567  0.8287 -0.5085  0.3000
  374TMC3    C7 5655   2.408   4.439   9.563 -0.6318 -0.0692 -0.6034
  374TMC3    C8 5656   2.543   4.025   9.729 -0.1911 -0.2157 -0.4616
  374TMC3    O1 5657   2.469   4.409   9.459  0.1650  0.4186 -0.1237
  374TMC3    O2 5658   2.625   4.026   9.638 -0.0669 -0.1431  0.5366
  375MPD2     C 5659   1.756   4.173  16.983  0.7445  0.0698  0.1140
  375MPD2    C1 5660   1.725   4.203  16.854 -0.5457 -0.3040 -0.0082
  375MPD2    C2 5661   1.751   4.109  16.759  0.1369 -0.8876 -0.3483
  375MPD2    C3 5662   1.817   3.990  16.782 -0.1096  0.7222 -0.5645
  375MPD2    C4 5663   1.862   3.963  16.911 -0.6493  0.7923 -0.5291
  375MPD2    C5 5664   1.825   4.055  17.010  0.0184  0.3260 -0.1270
  375MPD2     H 5665   1.709   4.131  16.662 -2.2906  0.9593  1.1264
  375MPD2    H1 5666   1.919   3.875  16.940 -0.8025  0.6670 -0.6124
  375MPD2    H2 5667   1.746   4.245  17.063 -1.0883  0.4556 -0.4788
  375MPD2    H3 5668   1.851   4.029  17.112 -0.8984  0.7929  0.2188
  375MPD2     N 5669   1.838   3.890  16.685  0.3070 -0.2659  0.4519
  375MPD2    H5 5670   1.844   3.797  16.725  0.3459 -1.2207 -1.7893
  375MPD2    N1 5671   1.650   4.315  16.808 -0.8854  0.7582  0.3567
  375MPD2    H7 5672   1.603   4.317  16.718 -3.3497  1.6718  1.6767
  376TMC3    C1 5673   1.878   3.806  16.470  1.1233  0.3977  0.7364
  376TMC3    C2 5674   1.986   3.729  16.509  0.3215 -0.5551 -0.1772
  376TMC3    C3 5675   2.083   3.690  16.422 -0.0657 -0.5776  0.7114
  376TMC3    C4 5676   1.869   3.824  16.332  0.7816  0.2613 -0.1304
  376TMC3    C5 5677   1.964   3.774  16.245  0.2296  0.1270  0.3653
  376TMC3    C6 5678   2.072   3.704  16.289 -0.7135  0.3045  0.2215
  376TMC3     C 5679   1.838   3.917  16.553 -0.8302 -0.2172 -0.1505
  376TMC3     O 5680   1.822   4.024  16.498  0.4068  0.5348  0.2737
  376TMC3     H 5681   2.005   3.730  16.616 -1.3899  2.6432  0.0905
  376TMC3    H1 5682   1.795   3.897  16.301 -0.1512  0.7863  3.2973
  376TMC3    H2 5683   2.138   3.649  16.222 -1.2361 -0.1049  0.0408
  376TMC3    C7 5684   1.963   3.817  16.106 -0.6404  0.2923  0.0171
  376TMC3    C8 5685   2.211   3.660  16.477  0.1529  0.4088 -0.0918
  376TMC3    O1 5686   1.902   3.924  16.092 -0.1529 -0.1635 -0.1155
  376TMC3    O2 5687   2.213   3.619  16.589 -0.4758 -0.3311 -0.1254
  377MPD2     C 5688   0.436   3.770  12.011 -0.3793 -0.6991 -0.7646
  377MPD2    C1 5689   0.528   3.737  12.104  0.0016 -0.0300 -0.1843
  377MPD2    C2 5690   0.519   3.608  12.159 -0.1605 -0.5324  0.1652
  377MPD2    C3 5691   0.428   3.514  12.111  0.6312 -0.0984  0.7727
  377MPD2    C4 5692   0.350   3.546  11.999  0.3621 -0.0121 -0.4350
  377MPD2    C5 5693   0.353   3.678  11.960 -0.0899 -0.4324 -0.0669
  377MPD2     H 5694   0.585   3.581  12.241  0.9788  1.0257 -0.2193
  377MPD2    H1 5695   0.283   3.472  11.956  0.3493  0.4380 -1.2023
  377MPD2    H2 5696   0.439   3.874  11.980  0.4245 -0.8807 -1.2809
  377MPD2    H3 5697   0.285   3.710  11.881  1.4128 -1.3089 -1.7168
  377MPD2     N 5698   0.412   3.379  12.160 -0.1011 -0.1654 -0.3630
  377MPD2    H5 5699   0.344   3.323  12.110 -0.4266 -1.0189  1.0233
  377MPD2    N1 5700   0.638   3.822  12.130 -0.1958 -0.0410  0.6557
  377MPD2    H7 5701   0.641   3.910  12.079  2.1085 -0.2285  0.4939
  378TMC3    C1 5702   1.015   3.907  12.004 -0.0170 -0.2557  0.1688
  378TMC3    C2 5703   0.888   3.897  12.044 -0.6380  0.3020  0.3342
  378TMC3    C3 5704   0.862   3.888  12.182 -0.7798  0.0891  0.1199
  378TMC3    C4 5705   1.116   3.916  12.096 -0.0151  0.4169 -0.1611
  378TMC3    C5 5706   1.090   3.900  12.229 -0.5381 -0.2008  0.0651
  378TMC3    C6 5707   0.964   3.884  12.273  0.1939 -0.2438 -0.5070
  378TMC3     C 5708   1.045   3.858  11.866 -0.9607  0.5944 -0.2420
  378TMC3     O 5709   0.940   3.858  11.798  0.1963  0.2305 -0.2091
  378TMC3     H 5710   0.810   3.886  11.969  1.5402 -2.3239 -1.5575
  378TMC3    H1 5711   1.219   3.924  12.063  0.7585 -0.8737  1.9118
  378TMC3    H2 5712   0.940   3.848  12.373 -0.2051  0.4646 -0.3474
  378TMC3    C7 5713   1.190   3.927  12.332 -0.1780 -0.3178  0.3001
  378TMC3    C8 5714   0.749   3.801  12.215 -0.0968 -0.6135  0.0736
  378TMC3    O1 5715   1.149   3.978  12.434  0.2180  0.8729  0.0848
  378TMC3    O2 5716   0.769   3.701  12.282  0.3669 -0.5984  0.4008
  379MPD2     C 5717   1.104   1.268  15.946  0.2167 -0.8574  0.2833
  379MPD2    C1 5718   1.103   1.375  16.027 -0.6391  0.2894 -0.4438
  379MPD2    C2 5719   1.119   1.364  16.165 -0.6073 -0.4999 -0.3237
  379MPD2    C3 5720   1.118   1.240  16.222  0.4400 -0.2458  0.8892
  379MPD2    C4 5721   1.110   1.127  16.141  0.5445 -0.0136 -0.1531
  379MPD2    C5 5722   1.120   1.145  16.005 -0.0364  1.0604  0.3867
  379MPD2     H 5723   1.132   1.451  16.228  1.0018 -1.5641  0.8153
  379MPD2    H1 5724   1.124   1.033  16.194  0.3443  0.0587  0.0269
  379MPD2    H2 5725   1.112   1.274  15.838 -1.4067 -1.3176  0.1496
  379MPD2    H3 5726   1.135   1.063  15.936 -0.2931 -0.9671  2.7550
  379MPD2     N 5727   1.135   1.201  16.358  0.0224 -0.6812  0.1665
  379MPD2    H5 5728   1.127   1.101  16.378 -0.9889 -0.6666 -0.1441
  379MPD2    N1 5729   1.088   1.501  15.962 -0.6514 -0.5885 -0.2572
  379MPD2    H7 5730   1.087   1.507  15.861 -1.2247  0.7831 -0.1692
  380TMC3    C1 5731   1.021   1.731  15.933  0.1743 -0.3000 -0.1156
  380TMC3    C2 5732   1.037   1.716  15.798 -0.9636  0.1845 -0.6077
  380TMC3    C3 5733   1.011   1.822  15.724  0.2007 -0.6204 -0.0908
  380TMC3    C4 5734   0.948   1.832  15.994  0.0904  0.7565 -0.1708
  380TMC3    C5 5735   0.924   1.939  15.908  0.0092 -0.2394  0.7565
  380TMC3    C6 5736   0.973   1.942  15.779 -1.0058  0.5331 -0.7753
  380TMC3     C 5737   1.064   1.622  16.024 -0.1109 -0.6910 -0.4920
  380TMC3     O 5738   1.047   1.641  16.144 -0.1432  0.2682  0.0017
  380TMC3     H 5739   1.098   1.639  15.752 -0.0808  1.0153 -0.8363
  380TMC3    H1 5740   0.936   1.824  16.101  2.0552  1.3869  0.1028
  380TMC3    H2 5741   0.970   2.033  15.721  1.6849  0.8156 -0.4802
  380TMC3    C7 5742   0.848   2.053  15.961 -0.9624 -0.2775 -0.2461
  380TMC3    C8 5743   1.050   1.815  15.586 -0.1233 -0.4092  0.0140
  380TMC3    O1 5744   0.824   2.066  16.084 -0.6771 -0.4169 -0.0169
  380TMC3    O2 5745   1.098   1.920  15.538 -0.1749 -0.3830 -0.0747
  381TMC3    C1 5746   0.515   3.186  15.985  0.6075 -0.0586 -0.2155
  381TMC3    C2 5747   0.620   3.267  15.958  0.3300 -0.0873 -0.0412
  381TMC3    C3 5748   0.679   3.338  16.063  0.7834 -0.0085  0.2826
  381TMC3    C4 5749   0.464   3.181  16.111 -0.0161  0.4897 -0.9062
  381TMC3    C5 5750   0.521   3.258  16.210  0.2433 -0.0805 -0.1179
  381TMC3    C6 5751   0.635   3.330  16.193  0.0308  0.3458 -0.0656
  381TMC3     C 5752   0.428   3.135  15.883 -0.1886  0.1854 -0.0913
  381TMC3     O 5753   0.309   3.148  15.904  0.4253 -0.0201 -0.1713
  381TMC3     H 5754   0.656   3.281  15.857 -0.5966 -0.1730 -0.3835
  381TMC3    H1 5755   0.382   3.117  16.140  1.2249 -1.4586 -1.7053
  381TMC3    H2 5756   0.688   3.385  16.270  0.2092 -0.2658  0.2445
  381TMC3    C7 5757   0.507   3.197  16.342 -0.0735  0.3065 -0.7433
  381TMC3    C8 5758   0.811   3.381  16.034  0.3770 -0.3297  0.4177
  381TMC3    O1 5759   0.483   3.079  16.351 -0.7671 -0.4836  0.2638
  381TMC3    O2 5760   0.880   3.306  15.962  0.5409  0.1427 -0.0962
  382MPD2     C 5761   0.265   1.244  16.565 -0.1658  0.3944 -1.0580
  382MPD2    C1 5762   0.150   1.239  16.642 -0.2639 -0.1427 -0.2599
  382MPD2    C2 5763   0.109   1.111  16.678 -0.4657 -0.6751  0.2659
  382MPD2    C3 5764   0.185   0.998  16.651 -0.3247  0.3779 -0.0972
  382MPD2    C4 5765   0.290   1.007  16.562  0.2136 -0.3317 -0.9655
  382MPD2    C5 5766   0.329   1.130  16.526  0.2754 -0.1827 -0.1225
  382MPD2     H 5767   0.019   1.104  16.739 -1.3007 -2.1564 -1.1494
  382MPD2    H1 5768   0.343   0.924  16.517 -1.0572 -2.4809  1.5011
  382MPD2    H2 5769   0.319   1.337  16.555 -2.0549  1.3320 -2.5073
  382MPD2    H3 5770   0.406   1.140  16.451  1.2133 -0.8140  0.7707
  382MPD2     N 5771   0.136   0.869  16.670  0.5847 -0.4716  0.5828
  382MPD2    H5 5772   0.177   0.800  16.608 -3.6093 -2.5435  0.1277
  382MPD2    N1 5773   0.066   1.351  16.663  0.4206 -0.5455  0.4706
  382MPD2    H7 5774   4.720   1.329  16.717 -1.8063  3.3017 -1.3996
  383TMC3    C1 5775   0.014   0.693  16.727  0.1227 -0.1043  0.0641
  383TMC3    C2 5776   4.624   0.655  16.696  0.1733 -0.1472  1.1887
  383TMC3    C3 5777   4.600   0.521  16.693 -0.4354  0.0035  0.1647
  383TMC3    C4 5778   0.116   0.602  16.741 -0.2768 -0.6050  0.0788
  383TMC3    C5 5779   0.086   0.471  16.732  0.3565 -0.0386 -0.7547
  383TMC3    C6 5780   4.697   0.429  16.700  0.6765 -0.2165 -0.6774
  383TMC3     C 5781   0.036   0.829  16.749 -0.1512 -0.5581 -0.0192
  383TMC3     O 5782   4.697   0.900  16.808 -0.1946  0.4800  0.2666
  383TMC3     H 5783   4.543   0.727  16.693  1.3489  1.1906  1.3866
  383TMC3    H1 5784   0.217   0.642  16.746  0.3595 -2.1616 -0.3337
  383TMC3    H2 5785   4.670   0.324  16.693  1.6574 -0.6537  2.2528
  383TMC3    C7 5786   0.179   0.364  16.774  0.4834 -0.2669 -0.0120
  383TMC3    C8 5787   4.478   0.475  16.638  0.2532 -0.0111 -0.1916
  383TMC3    O1 5788   0.138   0.252  16.740  0.2250  0.1844  0.7939
  383TMC3    O2 5789   4.431   0.375  16.681  0.1887 -0.7627 -0.1865
  384MPD2     C 5790   1.455   1.800  11.960 -0.1061 -0.0380  0.2199
  384MPD2    C1 5791   1.454   1.709  12.063 -0.0544 -0.5418 -0.0566
  384MPD2    C2 5792   1.505   1.584  12.060 -0.2153 -0.0980  0.0181
  384MPD2    C3 5793   1.575   1.547  11.947 -1.3025 -0.0767 -0.3191
  384MPD2    C4 5794   1.583   1.637  11.840 -0.5484  0.1262 -0.4383
  384MPD2    C5 5795   1.517   1.760  11.842 -0.9779  0.1666  0.1865
  384MPD2     H 5796   1.501   1.514  12.142  0.1082  3.0871  2.7232
  384MPD2    H1 5797   1.639   1.599  11.756  0.3529 -0.1055  0.2621
  384MPD2    H2 5798   1.412   1.898  11.972 -0.2051  0.0815 -1.0966
  384MPD2    H3 5799   1.519   1.827  11.756 -0.5176 -0.5420 -0.3611
  384MPD2     N 5800   1.633   1.427  11.931  0.3372 -0.7549 -0.6931
  384MPD2    H5 5801   1.706   1.409  11.862 -1.7558  0.5804 -3.2399
  384MPD2    N1 5802   1.389   1.742  12.186 -0.1701 -0.8695  0.1003
  384MPD2    H7 5803   1.385   1.675  12.262  2.0053  0.1640  1.1556
  385TMC3    C1 5804   1.731   1.230  12.021 -0.3894 -0.5999 -0.3020
  385TMC3    C2 5805   1.700   1.101  12.040  0.0053  0.6311  0.5505
  385TMC3    C3 5806   1.755   1.034  12.146  0.0153 -0.3541 -1.2135
  385TMC3    C4 5807   1.825   1.295  12.092  0.3900 -0.3695  0.1506
  385TMC3    C5 5808   1.864   1.238  12.209  0.0608 -0.1324 -0.2275
  385TMC3    C6 5809   1.830   1.105  12.232  0.8136 -0.0006 -0.3815
  385TMC3     C 5810   1.618   1.321  12.020  0.8901  0.5747 -0.3897
  385TMC3     O 5811   1.530   1.291  12.101 -0.3409 -0.0170  0.0864
  385TMC3     H 5812   1.609   1.070  11.990  0.3043 -0.3027  0.5925
  385TMC3    H1 5813   1.833   1.403  12.083 -0.2505 -0.5797 -3.0387
  385TMC3    H2 5814   1.881   1.056  12.314  3.6115  2.8136 -0.4402
  385TMC3    C7 5815   1.842   1.327  12.321  0.5278 -0.5378  0.1265
  385TMC3    C8 5816   1.685   0.919  12.190  0.0162 -0.5160  0.1363
  385TMC3    O1 5817   1.820   1.449  12.308 -0.4394 -0.3532 -0.1724
  385TMC3    O2 5818   1.708   0.889  12.306 -0.0278 -0.0742  0.1207
  386TMC3    C1 5819   2.128   3.644  11.693 -0.8744  0.1100  0.4857
  386TMC3    C2 5820   2.073   3.584  11.583 -0.5205  0.1709  0.3758
  386TMC3    C3 5821   1.941   3.594  11.559  0.5230  0.0297  0.2977
  386TMC3    C4 5822   2.047   3.719  11.774 -0.6415  0.2110 -0.4521
  386TMC3    C5 5823   1.913   3.721  11.750 -0.4518 -0.4788  0.1620
  386TMC3    C6 5824   1.853   3.649  11.646  0.5173  0.2987 -0.6227
  386TMC3     C 5825   2.271   3.623  11.725 -0.4745  0.2442  0.2276
  386TMC3     O 5826   2.333   3.700  11.797 -0.7171  0.4560 -0.5927
  386TMC3     H 5827   2.128   3.536  11.503  0.5657 -0.9629  1.7937
  386TMC3    H1 5828   2.089   3.770  11.860 -0.9410 -2.1361  1.0633
  386TMC3    H2 5829   1.749   3.663  11.622  1.1327  2.8393 -1.8145
  386TMC3    C7 5830   1.825   3.785  11.849  0.3942  0.2025 -0.1265
  386TMC3    C8 5831   1.890   3.559  11.427  0.3953 -0.0078  0.7784
  386TMC3    O1 5832   1.882   3.814  11.954  0.2835  0.4095 -1.1348
  386TMC3    O2 5833   1.769   3.559  11.417 -0.4557 -0.5825 -0.3213
  387MPD2     C 5834   4.019   4.391   9.677  0.1878  0.1714 -0.3007
  387MPD2    C1 5835   4.102   4.379   9.781  0.3804  0.3742  0.1017
  387MPD2    C2 5836   4.136   4.255   9.823  0.1145  0.6255  0.2296
  387MPD2    C3 5837   4.099   4.147   9.748 -0.1899  0.4205  0.2598
  387MPD2    C4 5838   4.011   4.159   9.637 -0.1743 -0.0590 -0.4518
  387MPD2    C5 5839   3.966   4.286   9.610 -0.2726 -0.8851 -0.2162
  387MPD2     H 5840   4.206   4.247   9.905  0.3382  1.3276  0.1094
  387MPD2    H1 5841   3.977   4.073   9.580 -0.2973  0.3403 -0.9842
  387MPD2    H2 5842   3.996   4.488   9.634 -0.1171 -0.0619 -0.6676
  387MPD2    H3 5843   3.895   4.306   9.531  0.5460  1.0700 -0.4608
  387MPD2     N 5844   4.159   4.030   9.788  0.3729 -0.4127 -0.9805
  387MPD2    H5 5845   4.210   4.035   9.876  1.8471  0.8790 -1.8901
  387MPD2    N1 5846   4.168   4.491   9.837 -0.0971 -0.5714  0.4684
  387MPD2    H7 5847   4.228   4.471   9.916 -0.3906 -0.1774  0.7936
  388TMC3    C1 5848   4.287   4.684   9.861  0.3195  0.0147  0.2329
  388TMC3    C2 5849   4.284   0.075   9.909  0.6320  0.0746 -0.3233
  388TMC3    C3 5850   4.379   0.114   9.991  0.0557 -0.1684 -0.3652
  388TMC3    C4 5851   4.384   4.597   9.904  0.7374 -0.4093  0.4103
  388TMC3    C5 5852   4.482   4.641   9.983 -0.9286  0.2901 -0.1151
  388TMC3    C6 5853   4.481   0.033  10.037 -0.5873  0.1454  0.0731
  388TMC3     C 5854   4.169   4.623   9.798 -0.0784 -0.8303  0.3676
  388TMC3     O 5855   4.101   4.690   9.723  0.0241  0.1007  0.4182
  388TMC3     H 5856   4.204   0.144   9.884  0.8549  0.4168 -0.0849
  388TMC3    H1 5857   4.399   4.495   9.871  2.7754  0.6495 -1.9153
  388TMC3    H2 5858   4.545   0.061  10.120 -1.3143  1.1453  0.2959
  388TMC3    C7 5859   4.576   4.552  10.048 -0.1497  0.9547 -0.1626
  388TMC3    C8 5860   4.380   0.251  10.023 -0.0419 -0.7058  0.1424
  388TMC3    O1 5861   4.616   4.591  10.154 -0.0778  0.7086 -0.2661
  388TMC3    O2 5862   4.323   0.339   9.951 -0.6998  0.4126  0.7377
  389MPD2     C 5863   3.992   2.203  10.782  0.5505  0.0566  0.4075
  389MPD2    C1 5864   3.890   2.116  10.773 -0.6778  0.2264 -0.2349
  389MPD2    C2 5865   3.847   2.065  10.892 -0.2701  0.3539  0.2229
  389MPD2    C3 5866   3.901   2.093  11.015  0.5829  0.4174 -0.1657
  389MPD2    C4 5867   4.003   2.181  11.012  0.1577  0.7853 -0.0964
  389MPD2    C5 5868   4.063   2.229  10.893  0.1031 -0.0700 -0.1218
  389MPD2     H 5869   3.767   1.991  10.892 -0.1550  0.2310  1.2043
  389MPD2    H1 5870   4.057   2.213  11.101  2.3146  0.2107 -1.2284
  389MPD2    H2 5871   4.034   2.244  10.691 -0.4899 -1.0657 -0.5603
  389MPD2    H3 5872   4.149   2.293  10.908  0.3774 -0.3260 -0.6076
  389MPD2     N 5873   3.850   2.031  11.135  0.0420 -0.7088  0.0714
  389MPD2    H5 5874   3.895   2.066  11.219 -0.1538 -1.6522  0.5608
  389MPD2    N1 5875   3.833   2.107  10.643 -0.3003 -0.3726 -0.1020
  389MPD2    H7 5876   3.874   2.158  10.566  2.0769 -1.1458  0.6459
  390TMC3    C1 5877   3.677   1.916  11.258 -0.2442  0.0667 -0.4274
  390TMC3    C2 5878   3.578   1.822  11.241 -0.4115 -0.3569  0.4649
  390TMC3    C3 5879   3.456   1.844  11.304 -0.1215  1.4733 -0.1174
  390TMC3    C4 5880   3.661   2.033  11.327  0.1270 -0.4252  0.2684
  390TMC3    C5 5881   3.542   2.053  11.389 -0.3452 -0.6711 -0.1973
  390TMC3    C6 5882   3.443   1.958  11.378  0.5731 -0.0429 -0.7670
  390TMC3     C 5883   3.767   1.922  11.139  0.3526 -0.1602  0.0332
  390TMC3     O 5884   3.741   1.844  11.051  0.4410  0.6498 -0.1877
  390TMC3     H 5885   3.595   1.728  11.189 -0.1488  0.6561 -1.2917
  390TMC3    H1 5886   3.733   2.112  11.338 -0.1997 -0.0882 -0.0093
  390TMC3    H2 5887   3.351   1.967  11.434  0.2166 -1.9214 -1.0445
  390TMC3    C7 5888   3.555   2.131  11.511  0.0679 -0.3774 -0.5300
  390TMC3    C8 5889   3.359   1.738  11.313  0.4041 -0.3077  0.1732
  390TMC3    O1 5890   3.667   2.175  11.536  0.0791  0.4273  0.2501
  390TMC3    O2 5891   3.404   1.633  11.273  0.6697 -0.4071 -0.2631
  391MPD2     C 5892   2.466   3.645  11.264 -0.2185  0.2669  0.1745
  391MPD2    C1 5893   2.600   3.659  11.246 -0.1955  0.7255  0.3070
  391MPD2    C2 5894   2.645   3.654  11.116 -0.6229 -0.5872 -0.5615
  391MPD2    C3 5895   2.564   3.654  11.009 -0.2987  0.4202  0.4326
  391MPD2    C4 5896   2.427   3.646  11.025  0.1878 -0.2896  0.2905
  391MPD2    C5 5897   2.382   3.639  11.156  0.6824  0.3446 -0.4220
  391MPD2     H 5898   2.751   3.647  11.096 -0.6929 -0.9488 -0.7997
  391MPD2    H1 5899   2.350   3.642  10.949  2.3388 -1.0052 -1.8436
  391MPD2    H2 5900   2.429   3.636  11.366 -2.3813  0.0555 -0.6247
  391MPD2    H3 5901   2.276   3.640  11.182  0.0923  0.0526 -2.8504
  391MPD2     N 5902   2.633   3.665  10.887  0.0266  0.1715  0.6193
  391MPD2    H5 5903   2.735   3.673  10.887  0.1201 -0.9633 -2.9091
  391MPD2    N1 5904   2.678   3.683  11.362 -0.0808  0.0727  0.6689
  391MPD2    H7 5905   2.632   3.717  11.446  0.3809  0.5523  0.7243
  392TMC3    C1 5906   2.675   3.718  10.655  0.3485  0.0232 -0.0703
  392TMC3    C2 5907   2.630   3.695  10.528 -0.0465  0.7803 -0.7217
  392TMC3    C3 5908   2.719   3.712  10.428  0.1327 -0.0874  0.4581
  392TMC3    C4 5909   2.806   3.754  10.685 -0.2967 -1.4042  0.3471
  392TMC3    C5 5910   2.890   3.784  10.581  0.1139 -0.0286  0.5713
  392TMC3    C6 5911   2.847   3.759  10.448  0.2096  1.2505  1.0042
  392TMC3     C 5912   2.579   3.695  10.763  0.4045 -0.0168  0.5316
  392TMC3     O 5913   2.461   3.704  10.741  0.3884 -0.8059  0.5079
  392TMC3     H 5914   2.528   3.658  10.519 -0.0141  0.9062 -1.5522
  392TMC3    H1 5915   2.831   3.789  10.785  1.9958 -0.4423 -0.5751
  392TMC3    H2 5916   2.916   3.791  10.371 -3.2235  5.2251 -0.3624
  392TMC3    C7 5917   3.031   3.818  10.611 -0.3082  0.1511  0.0799
  392TMC3    C8 5918   2.676   3.730  10.294  0.1368  0.0064 -0.8045
  392TMC3    O1 5919   3.071   3.820  10.724 -0.2362 -0.0981 -0.1523
  392TMC3    O2 5920   2.555   3.750  10.273  0.7639 -0.1992 -0.0322
  393TMC3    C1 5921   2.255   1.775  10.751 -0.1500  0.3671 -0.1223
  393TMC3    C2 5922   2.155   1.733  10.841 -0.3353 -0.1381 -0.5268
  393TMC3    C3 5923   2.165   1.605  10.882  0.1605  0.9857  0.6617
  393TMC3    C4 5924   2.348   1.689  10.695 -0.4009  0.7623 -0.2042
  393TMC3    C5 5925   2.351   1.560  10.736 -0.3560 -0.6901  0.3147
  393TMC3    C6 5926   2.253   1.513  10.821  0.0421  0.3510  0.0256
  393TMC3     C 5927   2.234   1.911  10.709  0.2055 -0.0422  0.0377
  393TMC3     O 5928   2.126   1.968  10.730 -0.0014 -0.4343 -0.2177
  393TMC3     H 5929   2.080   1.807  10.866 -1.4529 -1.7363  0.8745
  393TMC3    H1 5930   2.416   1.729  10.620 -1.1232 -2.0225 -2.3712
  393TMC3    H2 5931   2.239   1.406  10.830 -0.6919  0.4388 -0.0190
  393TMC3    C7 5932   2.414   1.463  10.644 -0.3835  0.2954 -0.1531
  393TMC3    C8 5933   2.140   1.593  11.023 -0.1428 -0.0209  0.2162
  393TMC3    O1 5934   2.359   1.353  10.636 -0.2744 -0.1506  0.2164
  393TMC3    O2 5935   2.161   1.697  11.090 -0.1629  0.0066 -0.1770
  394TMC3    C1 5936   3.701   2.041  10.472 -0.5804  0.2015 -0.2544
  394TMC3    C2 5937   3.620   1.943  10.422  0.1037 -0.4788 -0.1641
  394TMC3    C3 5938   3.592   1.943  10.284 -0.0470  0.1426 -0.4700
  394TMC3    C4 5939   3.751   2.142  10.388  0.0991  0.2090  0.2626
  394TMC3    C5 5940   3.721   2.132  10.249 -0.2865 -0.0899 -0.2358
  394TMC3    C6 5941   3.640   2.029  10.198  0.0512 -0.2845 -0.0769
  394TMC3     C 5942   3.721   2.040  10.613 -0.1591  0.1359 -0.2793
  394TMC3     O 5943   3.669   1.953  10.676 -0.1869 -0.2642 -0.0505
  394TMC3     H 5944   3.591   1.858  10.483 -0.5305 -0.0059  0.1949
  394TMC3    H1 5945   3.805   2.231  10.421  0.6628 -0.0351  0.0003
  394TMC3    H2 5946   3.619   2.023  10.091  0.4091 -0.3943 -0.1386
  394TMC3    C7 5947   3.809   2.214  10.165  0.0858 -0.4868 -0.4469
  394TMC3    C8 5948   3.544   1.811  10.231  0.1207  0.0702  0.7210
  394TMC3    O1 5949   3.762   2.277  10.075  0.3614  0.7907  0.6021
  394TMC3    O2 5950   3.444   1.815  10.159  0.4818 -0.2850  0.6736
  395TMC3    C1 5951   2.837   3.970  15.064 -0.2513  0.2798 -0.3667
  395TMC3    C2 5952   2.764   3.918  14.960 -0.2476 -0.2265 -0.2566
  395TMC3    C3 5953   2.812   3.941  14.835  0.6535  0.0219 -0.0405
  395TMC3    C4 5954   2.952   4.050  15.041  0.2534  0.3138 -0.4466
  395TMC3    C5 5955   2.985   4.074  14.910 -0.1972 -0.5306  0.6442
  395TMC3    C6 5956   2.925   4.014  14.806  0.0105  0.1678  0.5664
  395TMC3     C 5957   2.841   3.896  15.192 -0.2384 -0.2107  0.1992
  395TMC3     O 5958   2.921   3.943  15.273 -0.4932 -0.4879  0.5505
  395TMC3     H 5959   2.677   3.854  14.974  0.1840 -1.0136 -1.1691
  395TMC3    H1 5960   3.002   4.105  15.120  1.3193 -0.7956 -0.3597
  395TMC3    H2 5961   2.947   4.048  14.705 -1.0002 -1.3842 -0.1775
  395TMC3    C7 5962   3.092   4.174  14.877 -0.8399 -0.2990  0.2400
  395TMC3    C8 5963   2.731   3.886  14.727 -0.0092  0.4426  0.6686
  395TMC3    O1 5964   3.106   4.258  14.966 -0.2427  0.3163  0.6986
  395TMC3    O2 5965   2.611   3.908  14.729 -0.1303 -0.3671 -0.1367
  396MPD2     C 5966   2.804   0.081  16.647 -0.2645 -0.6575 -0.1729
  396MPD2    C1 5967   2.943   0.047  16.668 -0.2459 -0.7310  0.9299
  396MPD2    C2 5968   3.042   0.134  16.630 -0.3141  0.1007  0.1146
  396MPD2    C3 5969   3.009   0.252  16.568  0.2647  0.0215 -0.0727
  396MPD2    C4 5970   2.868   0.288  16.553 -0.1518  0.4254  0.5806
  396MPD2    C5 5971   2.768   0.203  16.601  0.2907 -0.2248  0.2473
  396MPD2     H 5972   3.143   0.094  16.626 -0.6463 -0.5732 -1.6768
  396MPD2    H1 5973   2.830   0.382  16.512 -0.2998  0.3982  0.6555
  396MPD2    H2 5974   2.724   0.018  16.683 -0.5821  0.4824  1.1108
  396MPD2    H3 5975   2.665   0.234  16.589  0.1155 -0.2667  1.6160
  396MPD2     N 5976   3.111   0.340  16.522 -0.0431  0.1779 -0.2981
  396MPD2    H5 5977   3.205   0.308  16.544  0.2862  0.7679 -0.8271
  396MPD2    N1 5978   2.962   4.655  16.723 -0.2586  0.0348 -0.4454
  396MPD2    H7 5979   2.877   4.602  16.737 -0.9866  1.4988  0.5525
  397TMC3    C1 5980   3.072   4.464  16.796  0.6381 -0.1695  0.6534
  397TMC3    C2 5981   3.129   4.375  16.715 -0.2954 -0.0714  0.1148
  397TMC3    C3 5982   3.068   4.262  16.665 -0.4538  0.0587  0.1667
  397TMC3    C4 5983   2.937   4.438  16.828  0.2630 -0.2474 -0.9001
  397TMC3    C5 5984   2.875   4.326  16.776 -0.6640 -0.0967  0.0488
  397TMC3    C6 5985   2.937   4.249  16.689  0.0919  0.0459  0.0399
  397TMC3     C 5986   3.085   4.595  16.753  0.7638 -0.1758 -0.9595
  397TMC3     O 5987   3.192   4.637  16.718 -0.4473 -0.3076  0.0609
  397TMC3     H 5988   3.206   4.418  16.652 -1.7913  1.5343 -0.6398
  397TMC3    H1 5989   2.887   4.499  16.902  2.0832 -0.8651  0.8599
  397TMC3    H2 5990   2.889   4.165  16.641  2.8786 -2.1633  1.1453
  397TMC3    C7 5991   2.747   4.283  16.824  0.1082  0.0473 -0.0561
  397TMC3    C8 5992   3.096   4.264  16.527  0.4395  0.0525 -0.5840
  397TMC3    O1 5993   2.687   4.191  16.766 -0.5230  0.0834 -0.5575
  397TMC3    O2 5994   3.202   4.215  16.488  0.6145 -0.0461  0.0648
  398MPD2     C 5995   1.148   1.836   0.096 -0.0900  0.4313 -0.4170
  398MPD2    C1 5996   1.199   1.739   0.177 -0.9065 -0.0728  0.1561
  398MPD2    C2 5997   1.315   1.762   0.241 -0.8033 -0.1739  0.0636
  398MPD2    C3 5998   1.390   1.877   0.221 -0.2612 -0.0906  0.1597
  398MPD2    C4 5999   1.337   1.970   0.127 -0.1524  0.4259 -0.3223
  398MPD2    C5 6000   1.221   1.944   0.061  0.5403 -0.3224 -0.3787
  398MPD2     H 6001   1.359   1.692   0.311 -0.1603  0.5265  0.3674
  398MPD2    H1 6002   1.382   2.065   0.101  2.0551 -0.9865 -1.6474
  398MPD2    H2 6003   1.052   1.821   0.049  0.2929 -1.4851 -0.5761
  398MPD2    H3 6004   1.170   2.008  17.738  0.8357 -1.9499 -2.0474
  398MPD2     N 6005   1.505   1.898   0.304 -0.5296 -0.2944  0.1147
  398MPD2    H5 6006   1.526   1.833   0.379  0.2974  0.6006  0.6608
  398MPD2    N1 6007   1.136   1.617   0.201  0.2152 -0.7471 -0.7951
  398MPD2    H7 6008   1.174   1.555   0.272 -0.5136 -3.0382 -2.4025
  399TMC3    C1 6009   0.991   1.424   0.172  0.7349 -0.9944  0.5399
  399TMC3    C2 6010   1.081   1.355   0.255  0.1917  0.6116  0.4233
  399TMC3    C3 6011   1.049   1.230   0.305  0.7024 -0.8488  0.1428
  399TMC3    C4 6012   0.873   1.364   0.144 -0.3168  0.4166 -0.7996
  399TMC3    C5 6013   0.838   1.242   0.189  0.1986  0.7111  0.2005
  399TMC3    C6 6014   0.925   1.169   0.265  0.0062 -0.4990  0.1271
  399TMC3     C 6015   1.015   1.569   0.141 -0.4313 -0.1328 -0.0263
  399TMC3     O 6016   0.938   1.627   0.059  0.7205 -0.1857 -0.0854
  399TMC3     H 6017   1.175   1.399   0.284  0.2172 -0.0591  1.3509
  399TMC3    H1 6018   0.811   1.412   0.069 -0.3518 -0.8315 -1.5744
  399TMC3    H2 6019   0.894   1.069   0.293  1.6747 -0.9176  0.4714
  399TMC3    C7 6020   0.720   1.177   0.127 -0.0396 -0.3027  0.3728
  399TMC3    C8 6021   1.147   1.162   0.380  0.1001 -0.0827  0.8645
  399TMC3    O1 6022   0.732   1.057   0.113 -0.4989 -0.9179 -0.1296
  399TMC3    O2 6023   1.244   1.229   0.408  0.7841 -0.5294  0.1928
  400TMC3    C1 6024   4.340   0.158  16.365 -1.2246  0.3658  0.3284
  400TMC3    C2 6025   4.211   0.125  16.325  0.7687  0.0554  0.3437
  400TMC3    C3 6026   4.161   0.191  16.215  0.0152 -0.1964  0.4044
  400TMC3    C4 6027   4.427   0.233  16.288  0.5382 -0.1539  0.4616
  400TMC3    C5 6028   4.370   0.293  16.175  0.5654 -0.9136 -0.0401
  400TMC3    C6 6029   4.236   0.277  16.142  0.3187  0.2740  0.5267
  400TMC3     C 6030   4.393   0.081  16.477 -0.6231 -0.1027 -0.2648
  400TMC3     O 6031   4.515   0.089  16.487  0.0499 -1.1266  0.2736
  400TMC3     H 6032   4.148   0.062  16.386 -2.3649  2.3066 -0.5555
  400TMC3    H1 6033   4.515   0.272  16.337  1.0478 -0.9401  0.1716
  400TMC3    H2 6034   4.187   0.334  16.064  0.5235 -1.9254 -1.2037
  400TMC3    C7 6035   4.443   0.408  16.115 -0.0195 -0.1613 -0.2646
  400TMC3    C8 6036   4.018   0.181  16.189 -0.0889 -0.2717  0.0865
  400TMC3    O1 6037   4.536   0.452  16.180 -0.0514 -0.8047 -0.2681
  400TMC3    O2 6038   3.959   0.283  16.154 -0.3891  0.0677 -0.8933
  401MPD2     C 6039   2.250   2.865   0.940 -1.2249  0.5983  0.3401
  401MPD2    C1 6040   2.347   2.790   0.875  0.1497 -0.0956 -0.2755
  401MPD2    C2 6041   2.334   2.654   0.901 -0.3892 -0.8771  0.0440
  401MPD2    C3 6042   2.247   2.600   0.986 -0.1324 -0.3475 -0.1031
  401MPD2    C4 6043   2.165   2.680   1.058 -0.4314 -0.9372 -0.5644
  401MPD2    C5 6044   2.165   2.810   1.039 -0.0927 -0.6910 -0.1708
  401MPD2     H 6045   2.389   2.584   0.840 -1.5260  0.1097 -2.0958
  401MPD2    H1 6046   2.097   2.643   1.134 -0.2999  0.5500  0.2678
  401MPD2    H2 6047   2.232   2.971   0.925 -0.4495  0.6392 -0.3282
  401MPD2    H3 6048   2.096   2.877   1.090  2.2007  1.5583 -0.0732
  401MPD2     N 6049   2.254   2.467   1.012 -0.0068  0.0915 -0.1189
  401MPD2    H5 6050   2.319   2.413   0.955 -0.7894 -0.8080 -0.1657
  401MPD2    N1 6051   2.449   2.832   0.791  0.5269  0.0548 -0.3726
  401MPD2    H7 6052   2.521   2.768   0.758  0.8106  0.7440 -1.0896
  402TMC3    C1 6053   2.206   2.254   1.097  0.4328 -0.4175 -0.3500
  402TMC3    C2 6054   2.252   2.185   1.206  0.5471  0.2415 -0.3818
  402TMC3    C3 6055   2.321   2.070   1.189 -0.0390 -0.3812 -0.1085
  402TMC3    C4 6056   2.213   2.203   0.970  0.9729 -0.2290 -0.7906
  402TMC3    C5 6057   2.263   2.075   0.962 -0.2180 -0.2386 -0.9964
  402TMC3    C6 6058   2.322   2.013   1.066 -0.5299 -0.1187 -0.2927
  402TMC3     C 6059   2.175   2.398   1.104  0.5925  0.6737  0.7178
  402TMC3     O 6060   2.113   2.433   1.203  0.1161 -0.2034  0.0348
  402TMC3     H 6061   2.240   2.231   1.303 -0.5294  0.6402 -0.6913
  402TMC3    H1 6062   2.177   2.261   0.885 -1.2341 -1.4068 -0.6701
  402TMC3    H2 6063   2.365   1.915   1.050 -0.5254 -0.0357 -0.8025
  402TMC3    C7 6064   2.306   2.043   0.826 -0.4541  0.0867 -0.0760
  402TMC3    C8 6065   2.424   2.027   1.280  0.4935  0.0928  0.2540
  402TMC3    O1 6066   2.229   2.078   0.734 -0.0739  0.1872  0.3079
  402TMC3    O2 6067   2.468   1.914   1.260  0.0844 -0.7576  0.2776
  403MPD2     C 6068   1.077   1.716  13.310 -0.2899 -0.0860  0.1807
  403MPD2    C1 6069   1.110   1.589  13.258 -0.2472 -0.2311  0.2994
  403MPD2    C2 6070   1.243   1.551  13.232 -0.0454 -0.0820  0.1814
  403MPD2    C3 6071   1.348   1.638  13.267  0.0672 -0.1541 -0.2239
  403MPD2    C4 6072   1.316   1.767  13.308 -0.4761 -0.2676 -0.5920
  403MPD2    C5 6073   1.182   1.800  13.327 -0.3306 -0.0216 -0.3357
  403MPD2     H 6074   1.265   1.447  13.210 -3.7674 -0.4175 -1.9073
  403MPD2    H1 6075   1.390   1.844  13.325  0.3639 -1.3575  0.7224
  403MPD2    H2 6076   0.974   1.746  13.321 -0.4063 -0.3617 -0.1563
  403MPD2    H3 6077   1.162   1.894  13.377 -0.4951  0.6835 -1.7344
  403MPD2     N 6078   1.477   1.593  13.250 -0.0066 -0.4573  0.3804
  403MPD2    H5 6079   1.487   1.507  13.198 -0.2757  0.1332 -0.6495
  403MPD2    N1 6080   0.999   1.503  13.232 -0.3250  0.7110 -0.3928
  403MPD2    H7 6081   0.913   1.542  13.269 -1.1384 -0.2715 -1.2512
  404TMC3    C1 6082   0.873   1.303  13.213 -0.4408 -0.3054 -0.0332
  404TMC3    C2 6083   0.826   1.306  13.340 -0.1019  0.2581 -0.1584
  404TMC3    C3 6084   0.742   1.212  13.381  0.6816 -0.2963  0.1749
  404TMC3    C4 6085   0.838   1.213  13.120 -0.1727 -0.3071 -0.1247
  404TMC3    C5 6086   0.747   1.122  13.163  0.7477  0.1574 -0.1075
  404TMC3    C6 6087   0.707   1.110  13.296  0.4629 -0.0772  0.1389
  404TMC3     C 6088   0.999   1.375  13.180  0.7164 -0.0199 -0.3243
  404TMC3     O 6089   1.085   1.319  13.114  0.3164 -0.5824 -0.7189
  404TMC3     H 6090   0.878   1.376  13.404 -1.6345 -0.6690  2.1168
  404TMC3    H1 6091   0.884   1.206  13.023  0.2728 -1.8015  0.1964
  404TMC3    H2 6092   0.652   1.025  13.333  2.9763 -1.7264  0.0437
  404TMC3    C7 6093   0.743   1.014  13.071 -0.6224 -0.6101 -0.1015
  404TMC3    C8 6094   0.769   1.186  13.520 -0.0422  0.1701 -0.6894
  404TMC3    O1 6095   0.727   0.902  13.125 -0.1925 -0.3210  0.0461
  404TMC3    O2 6096   0.889   1.190  13.546 -0.0807  0.3762  0.1380
  405MPD2     C 6097   1.678   2.636  14.616 -0.3233  0.2398 -0.8099
  405MPD2    C1 6098   1.731   2.574  14.511  0.0407  0.1029 -1.1654
  405MPD2    C2 6099   1.701   2.597  14.381 -0.1729  0.2920 -0.3404
  405MPD2    C3 6100   1.599   2.688  14.353  0.0106 -0.0176  0.7173
  405MPD2    C4 6101   1.533   2.747  14.458 -0.3259 -0.7019  0.7356
  405MPD2    C5 6102   1.579   2.727  14.588  0.4551 -0.8491  0.3500
  405MPD2     H 6103   1.754   2.542  14.304 -0.8384  1.1577 -1.4283
  405MPD2    H1 6104   1.452   2.817  14.446 -1.5867 -2.1600  0.7726
  405MPD2    H2 6105   1.703   2.615  14.719 -3.2638  2.2597  0.3122
  405MPD2    H3 6106   1.536   2.787  14.667 -0.4015  1.0431 -1.5358
  405MPD2     N 6107   1.556   2.690  14.222 -0.3024 -0.0625  0.0710
  405MPD2    H5 6108   1.607   2.636  14.152  1.6725  1.3987  0.4097
  405MPD2    N1 6109   1.815   2.465  14.527  0.2452  0.2414  0.0153
  405MPD2    H7 6110   1.840   2.406  14.447  1.9215 -1.8877  2.0922
  406TMC3    C1 6111   1.261   2.736  13.854  0.0147  0.4170 -0.3335
  406TMC3    C2 6112   1.297   2.612  13.808 -0.2606 -0.2704  0.5199
  406TMC3    C3 6113   1.410   2.551  13.865 -0.3643 -0.5485  0.6978
  406TMC3    C4 6114   1.322   2.796  13.960 -0.3300 -0.6362 -1.0318
  406TMC3    C5 6115   1.423   2.728  14.033 -0.4856  0.1640  0.0479
  406TMC3    C6 6116   1.463   2.600  13.984  0.7134  0.0144  0.6076
  406TMC3     C 6117   1.126   2.776  13.826  0.6700  0.0781 -0.1087
  406TMC3     O 6118   1.101   2.886  13.773 -0.0109  0.5695 -0.1520
  406TMC3     H 6119   1.232   2.556  13.742  2.4563 -1.0381 -1.5117
  406TMC3    H1 6120   1.275   2.880  14.008 -0.7535 -1.3408 -0.2039
  406TMC3    H2 6121   1.522   2.534  14.047  0.7951  1.5332  2.1191
  406TMC3    C7 6122   1.455   2.768  14.170  0.1876 -0.4154  0.3372
  406TMC3    C8 6123   1.444   2.419  13.828  0.1644 -0.5229 -0.4998
  406TMC3    O1 6124   1.381   2.858  14.216 -0.5932  0.1248 -0.1783
  406TMC3    O2 6125   1.354   2.353  13.775  0.0266  0.0517  0.4149
  407MPD2     C 6126   3.767   3.551   9.334  0.2877  0.1053  0.0166
  407MPD2    C1 6127   3.826   3.522   9.453  0.1339  0.5440 -0.3626
  407MPD2    C2 6128   3.811   3.615   9.552 -0.0282 -0.4631  0.0458
  407MPD2    C3 6129   3.739   3.735   9.537 -0.0362 -0.1460  0.1205
  407MPD2    C4 6130   3.698   3.764   9.412 -0.0244  0.1616 -0.3065
  407MPD2    C5 6131   3.699   3.667   9.314  0.4400  0.9429  0.0791
  407MPD2     H 6132   3.852   3.585   9.648  1.0294  0.0236 -0.2610
  407MPD2    H1 6133   3.636   3.852   9.397 -1.9870 -1.1265  0.2346
  407MPD2    H2 6134   3.785   3.486   9.249  0.4647 -0.4068  0.4404
  407MPD2    H3 6135   3.663   3.688   9.214  1.9095 -1.5096 -0.9547
  407MPD2     N 6136   3.727   3.843   9.634 -0.3391 -0.3767  0.1615
  407MPD2    H5 6137   3.692   3.929   9.592  2.3657  0.5568 -0.1835
  407MPD2    N1 6138   3.919   3.416   9.470  0.2272 -0.1707  0.0356
  407MPD2    H7 6139   3.971   3.424   9.557  1.2315  0.3369 -0.6109
  408TMC3    C1 6140   4.057   3.242   9.410 -0.6620 -0.5000 -0.1227
  408TMC3    C2 6141   4.157   3.321   9.429 -0.6518 -0.2537 -0.0994
  408TMC3    C3 6142   4.276   3.272   9.400  0.3969 -0.5381 -0.2578
  408TMC3    C4 6143   4.060   3.117   9.353  0.7903  0.3900  0.4595
  408TMC3    C5 6144   4.185   3.061   9.339 -0.2343 -0.4740  0.0882
  408TMC3    C6 6145   4.299   3.142   9.360 -0.4785 -0.2745  0.2319
  408TMC3     C 6146   3.926   3.303   9.393 -0.0239  0.0114  0.4704
  408TMC3     O 6147   3.840   3.254   9.322 -0.4602  0.3176 -0.4263
  408TMC3     H 6148   4.148   3.423   9.467 -3.5779  0.6723 -3.3083
  408TMC3    H1 6149   3.970   3.058   9.340 -0.0824  1.9035 -0.4173
  408TMC3    H2 6150   4.401   3.118   9.331 -0.3524 -0.8085  1.1205
  408TMC3    C7 6151   4.217   2.922   9.299 -0.2889 -0.1169  0.9196
  408TMC3    C8 6152   4.395   3.359   9.410 -0.2009 -0.3123 -0.1278
  408TMC3    O1 6153   4.338   2.904   9.297 -1.5597 -0.3071  0.0107
  408TMC3    O2 6154   4.501   3.295   9.424  0.5577  0.1825 -0.2660
  409MPD2     C 6155   3.534   4.191  16.795 -0.0834 -0.0074  0.2240
  409MPD2    C1 6156   3.665   4.245  16.801  0.6342  0.4481  0.1221
  409MPD2    C2 6157   3.698   4.363  16.733 -0.0973 -0.0786 -1.2393
  409MPD2    C3 6158   3.600   4.426  16.660 -0.0541 -0.0768 -0.3526
  409MPD2    C4 6159   3.472   4.366  16.646  0.4119  0.1391  0.0400
  409MPD2    C5 6160   3.441   4.251  16.718 -0.5099  0.2706 -0.1148
  409MPD2     H 6161   3.795   4.408  16.750 -0.9892  1.6871 -0.8019
  409MPD2    H1 6162   3.391   4.406  16.587  0.8801 -1.5480 -1.7580
  409MPD2    H2 6163   3.500   4.101  16.845 -0.8148 -0.6339 -1.4035
  409MPD2    H3 6164   3.343   4.203  16.718 -0.9047  1.0677  1.7039
  409MPD2     N 6165   3.618   4.558  16.614  0.1533  0.4396 -0.3073
  409MPD2    H5 6166   3.544   4.592  16.553  0.1408 -1.9583 -1.6336
  409MPD2    N1 6167   3.744   4.179  16.904  0.0637 -0.1872 -0.0602
  409MPD2    H7 6168   3.699   4.104  16.955  1.9234 -0.5299  1.0661
  410TMC3    C1 6169   3.724   0.033  16.584 -0.1157 -0.0846 -0.8899
  410TMC3    C2 6170   3.851   0.087  16.565  0.1443  0.6925 -0.1365
  410TMC3    C3 6171   3.840   0.223  16.545  0.4129  0.4894 -0.2551
  410TMC3    C4 6172   3.606   0.102  16.579  0.7366 -0.4679  0.3888
  410TMC3    C5 6173   3.606   0.238  16.552  0.1170 -0.4918 -0.0265
  410TMC3    C6 6174   3.723   0.296  16.520 -0.1142 -0.0512 -0.2103
  410TMC3     C 6175   3.727   4.641  16.643 -0.2445  0.1902 -0.0906
  410TMC3     O 6176   3.832   4.622  16.710  0.0325 -0.4212 -0.2423
  410TMC3     H 6177   3.947   0.035  16.565  1.0359  2.3440 -1.1012
  410TMC3    H1 6178   3.514   0.047  16.596 -0.2196  1.5472  1.8137
  410TMC3    H2 6179   3.723   0.404  16.511 -1.4770 -0.0284  0.0182
  410TMC3    C7 6180   3.476   0.283  16.495 -0.5765 -0.0646  0.6758
  410TMC3    C8 6181   3.968   0.292  16.532  0.1451 -0.3472 -0.4979
  410TMC3    O1 6182   3.376   0.230  16.542  0.2335  0.2146  0.3633
  410TMC3    O2 6183   4.062   0.234  16.579 -0.3507 -0.2473 -0.4485
  411MPD2     C 6184   3.462   0.343  14.326  0.3341  0.3824 -0.7863
  411MPD2    C1 6185   3.368   0.317  14.428 -0.0422 -0.1113  0.4104
  411MPD2    C2 6186   3.316   0.189  14.451  0.3419  0.0930  0.3772
  411MPD2    C3 6187   3.362   0.086  14.374  0.2642  0.2732  0.4245
  411MPD2    C4 6188   3.468   0.108  14.293  0.4117  0.0450  0.2616
  411MPD2    C5 6189   3.513   0.233  14.262 -0.8138  0.5747  0.2943
  411MPD2     H 6190   3.230   0.171  14.514  1.0577  0.4046  1.4266
  411MPD2    H1 6191   3.501   0.032  14.224 -2.0323 -1.2233  0.5138
  411MPD2    H2 6192   3.505   0.440  14.306  0.4116  0.1230 -1.8982
  411MPD2    H3 6193   3.594   0.237  14.190 -0.6965  1.4000  0.4710
  411MPD2     N 6194   3.315   4.686  14.379  0.1689 -0.2031  0.3289
  411MPD2    H5 6195   3.366   4.614  14.330 -0.5840 -0.8911  0.5452
  411MPD2    N1 6196   3.326   0.429  14.505  0.4214 -1.4205 -0.1398
  411MPD2    H7 6197   3.345   0.522  14.469  0.6317 -0.5945  2.0966
  412TMC3    C1 6198   3.194   4.512  14.437 -0.5711 -0.2167 -0.2489
  412TMC3    C2 6199   3.098   4.447  14.515  0.1376  0.7299 -1.0155
  412TMC3    C3 6200   3.073   4.320  14.505  0.8675  0.0619  0.3651
  412TMC3    C4 6201   3.261   4.444  14.335 -0.2902  0.2232 -0.3793
  412TMC3    C5 6202   3.238   4.310  14.330 -0.1425  0.1889 -0.6695
  412TMC3    C6 6203   3.145   4.243  14.411  0.0148 -0.2884 -0.0734
  412TMC3     C 6204   3.202   4.651  14.445  0.1975 -0.5451  0.0139
  412TMC3     O 6205   3.138   4.707  14.533 -0.3083  0.6595  0.3668
  412TMC3     H 6206   3.027   4.514  14.562 -2.0134  0.3238 -3.6801
  412TMC3    H1 6207   3.296   4.490  14.243 -0.8945  0.2940 -0.5715
  412TMC3    H2 6208   3.127   4.136  14.409 -1.4093 -0.0339 -1.3151
  412TMC3    C7 6209   3.223   4.264  14.202 -0.0031  0.4050 -0.2543
  412TMC3    C8 6210   2.933   4.290  14.501 -0.9837 -0.5353  0.3894
  412TMC3    O1 6211   3.117   4.211  14.175  0.5070  0.3371  0.4921
  412TMC3    O2 6212   2.851   4.304  14.591 -0.1491 -0.5313  0.3646
  413MPD2     C 6213   0.465   3.359  15.326  0.3003 -0.0979  1.0063
  413MPD2    C1 6214   0.408   3.283  15.223  0.2549  0.0017  0.0063
  413MPD2    C2 6215   0.495   3.223  15.135  0.3653  0.0447 -0.3863
  413MPD2    C3 6216   0.633   3.238  15.141 -0.2711  0.6856  0.1193
  413MPD2    C4 6217   0.685   3.316  15.245 -0.2836 -0.1196  0.0845
  413MPD2    C5 6218   0.598   3.365  15.340  0.3557 -0.0698 -0.2487
  413MPD2     H 6219   0.452   3.173  15.048 -1.3952  0.2287  0.3661
  413MPD2    H1 6220   0.790   3.336  15.260  0.0349 -1.3994 -0.3925
  413MPD2    H2 6221   0.405   3.401  15.406 -0.9851  1.5462 -0.8169
  413MPD2    H3 6222   0.641   3.430  15.415 -0.0310 -2.0448  1.6934
  413MPD2     N 6223   0.707   3.186  15.032 -0.0925 -0.4329  0.3636
  413MPD2    H5 6224   0.653   3.141  14.959 -1.6520  1.2503  0.4814
  413MPD2    N1 6225   0.265   3.277  15.218 -0.4063 -0.1704 -0.1779
  413MPD2    H7 6226   0.217   3.339  15.283 -1.7874 -0.9413 -0.4658
  414TMC3    C1 6227   0.856   3.096  14.887  0.5958  0.2756 -0.7834
  414TMC3    C2 6228   0.947   2.992  14.901 -0.2665  0.6960  0.0747
  414TMC3    C3 6229   0.942   2.885  14.815 -1.3054  0.0973  0.2163
  414TMC3    C4 6230   0.765   3.100  14.785 -0.1086  0.0132  0.5532
  414TMC3    C5 6231   0.782   3.004  14.684  0.1711  0.4958  0.8245
  414TMC3    C6 6232   0.856   2.887  14.705  0.3312  0.9855  0.2050
  414TMC3     C 6233   0.837   3.164  15.015  0.3007 -0.1381 -0.2214
  414TMC3     O 6234   0.936   3.185  15.084  0.2083 -0.5509 -0.4048
  414TMC3     H 6235   1.007   2.978  14.990  0.2395 -0.6100 -0.4803
  414TMC3    H1 6236   0.702   3.187  14.776  0.3263  0.0944 -1.7604
  414TMC3    H2 6237   0.860   2.819  14.620 -2.6476  2.4420 -1.1293
  414TMC3    C7 6238   0.691   3.019  14.562  0.1361  0.3328 -0.0749
  414TMC3    C8 6239   1.050   2.797  14.797  0.3384  0.1229 -0.2345
  414TMC3    O1 6240   0.586   3.076  14.593 -0.0885  0.0488  0.7217
  414TMC3    O2 6241   1.036   2.704  14.721 -0.3503 -0.1123 -0.0235
  415TMC3    C1 6242   1.456   1.278  10.313  0.1732  0.2711 -0.3718
  415TMC3    C2 6243   1.583   1.308  10.292 -0.6812  0.9194 -0.0408
  415TMC3    C3 6244   1.610   1.422  10.217 -0.3581 -0.2723 -0.0367
  415TMC3    C4 6245   1.356   1.357  10.278 -0.0602 -0.4834  0.2729
  415TMC3    C5 6246   1.385   1.466  10.197  0.5102  0.8377 -0.9692
  415TMC3    C6 6247   1.511   1.502  10.164  0.1866 -0.7733  0.3932
  415TMC3     C 6248   1.420   1.188  10.425 -0.0159 -0.2246 -0.1988
  415TMC3     O 6249   1.304   1.199  10.461  0.0957  0.1191  0.7565
  415TMC3     H 6250   1.665   1.247  10.329  0.3019  0.0318 -3.6781
  415TMC3    H1 6251   1.258   1.311  10.280 -0.2318 -0.1347 -0.0118
  415TMC3    H2 6252   1.538   1.595  10.115 -1.1354 -1.6688 -2.0145
  415TMC3    C7 6253   1.272   1.545  10.150 -0.2420  0.2456  0.2519
  415TMC3    C8 6254   1.745   1.445  10.169 -0.4972 -0.3086 -0.4064
  415TMC3    O1 6255   1.299   1.615  10.056 -0.6644 -0.0108  0.1923
  415TMC3    O2 6256   1.808   1.339  10.143 -0.3838  0.8277  0.3645
  416MPD2     C 6257   3.420   0.129  11.188  0.2038  0.0132  0.1829
  416MPD2    C1 6258   3.323   0.090  11.277 -0.0913  0.4968 -0.2857
  416MPD2    C2 6259   3.259   4.702  11.254  0.4955 -0.2190 -0.1724
  416MPD2    C3 6260   3.299   4.627  11.141 -0.2532  0.1886  0.3304
  416MPD2    C4 6261   3.398   4.668  11.057  0.7506  0.6589  0.1442
  416MPD2    C5 6262   3.466   0.048  11.087 -0.2247 -0.5544 -0.5156
  416MPD2     H 6263   3.190   4.673  11.333  0.6537 -1.8105 -0.6192
  416MPD2    H1 6264   3.440   4.606  10.979  2.3980  0.2783  1.3397
  416MPD2    H2 6265   3.461   0.229  11.192  0.1480  0.1303 -1.8035
  416MPD2    H3 6266   3.551   0.080  11.028  1.1748 -0.5922  1.5006
  416MPD2     N 6267   3.232   4.502  11.124  0.1445  0.6883  0.2783
  416MPD2    H5 6268   3.163   4.473  11.193  0.1630 -0.1567 -0.0589
  416MPD2    N1 6269   3.280   0.183  11.373  0.2415 -0.2801 -0.2636
  416MPD2    H7 6270   3.301   0.282  11.367 -1.9189  0.0379 -2.8037
  417TMC3    C1 6271   3.143   0.275  11.541  0.6637 -0.2053  0.2937
  417TMC3    C2 6272   3.103   0.262  11.674 -0.4283 -0.3427 -0.5082
  417TMC3    C3 6273   3.008   0.343  11.725 -0.7379 -0.1424  0.3583
  417TMC3    C4 6274   3.078   0.364  11.461  0.2018 -0.1952  0.8805
  417TMC3    C5 6275   2.980   0.443  11.519  0.2242 -0.1304 -0.0029
  417TMC3    C6 6276   2.936   0.424  11.647  0.1884  0.1140 -0.2455
  417TMC3     C 6277   3.191   0.158  11.477 -0.2755  0.0369  0.4337
  417TMC3     O 6278   3.161   0.049  11.523  0.4146  0.3763 -0.0949
  417TMC3     H 6279   3.147   0.181  11.731  2.4574  1.6740  0.0985
  417TMC3    H1 6280   3.105   0.384  11.358  2.0592 -0.4377  1.3174
  417TMC3    H2 6281   2.847   0.474  11.682  0.8348  0.9815  0.1565
  417TMC3    C7 6282   2.894   0.501  11.424 -0.0296  0.5913 -0.3212
  417TMC3    C8 6283   2.974   0.328  11.863  0.4256  0.0977 -0.6699
  417TMC3    O1 6284   2.940   0.567  11.330  0.4821 -0.2649  0.1159
  417TMC3    O2 6285   2.854   0.345  11.884  0.3600  0.3999  0.1337
  418TMC3    C1 6286   1.889   2.008   0.464 -0.6089 -0.0111  0.5895
  418TMC3    C2 6287   1.790   2.058   0.388  0.6069 -0.6157  0.3690
  418TMC3    C3 6288   1.664   2.018   0.406 -0.5222 -0.7482 -0.6407
  418TMC3    C4 6289   1.861   1.925   0.569 -0.0151  0.5033 -0.1926
  418TMC3    C5 6290   1.727   1.905   0.599 -0.1004  0.6988  0.4701
  418TMC3    C6 6291   1.620   1.956   0.526  0.1922 -0.6892  0.9079
  418TMC3     C 6292   2.023   1.996   0.417 -0.1729  0.1203 -0.1178
  418TMC3     O 6293   2.063   2.097   0.356 -0.0152  0.1967 -0.4371
  418TMC3     H 6294   1.831   2.110   0.302  0.1352 -1.7456 -0.5365
  418TMC3    H1 6295   1.945   1.876   0.616  0.5591  1.3062 -0.3805
  418TMC3    H2 6296   1.518   1.932   0.555 -0.4644 -2.5007 -2.8921
  418TMC3    C7 6297   1.692   1.813   0.712  0.6834  0.2167  0.3659
  418TMC3    C8 6298   1.573   2.015   0.300  0.3293 -0.6414 -0.1267
  418TMC3    O1 6299   1.583   1.760   0.700 -0.1492 -0.6656 -0.2922
  418TMC3    O2 6300   1.572   2.110   0.225  0.3776 -0.7225 -0.7367
  419MPD2     C 6301   0.045   0.173  12.101 -0.9695  0.5163  0.1449
  419MPD2    C1 6302   0.027   0.309  12.078 -0.6559  0.2794 -0.0480
  419MPD2    C2 6303   4.705   0.390  12.172 -0.3053 -0.1950 -0.0032
  419MPD2    C3 6304   4.689   0.344  12.303  0.2584  0.5736 -0.1870
  419MPD2    C4 6305   4.715   0.214  12.331 -0.9584 -0.7542 -0.2024
  419MPD2    C5 6306   0.026   0.131  12.231 -1.0268  0.1570 -0.8265
  419MPD2     H 6307   4.691   0.491  12.136  0.7058 -0.3404 -0.8164
  419MPD2    H1 6308   4.689   0.170  12.427 -1.2590 -0.3450 -0.0929
  419MPD2    H2 6309   0.082   0.102  12.028  1.5745  1.0805  0.9031
  419MPD2    H3 6310   0.057   0.030  12.254  0.3728  0.9756  0.8531
  419MPD2     N 6311   4.650   0.441  12.403  0.7591 -0.3354 -0.0568
  419MPD2    H5 6312   4.628   0.530  12.360 -1.3928 -0.4640  0.7968
  419MPD2    N1 6313   0.048   0.370  11.951  0.2039 -0.7589 -0.0328
  419MPD2    H7 6314   0.017   0.466  11.939 -0.3090 -0.9988 -0.6314
  420TMC3    C1 6315   4.622   0.545  12.626  0.2838 -0.3278  0.0879
  420TMC3    C2 6316   4.549   0.644  12.577  0.2019  0.4807 -1.0514
  420TMC3    C3 6317   4.500   0.745  12.658 -0.2254 -0.2219 -0.0791
  420TMC3    C4 6318   4.649   0.539  12.763  0.1885 -0.2590  0.6522
  420TMC3    C5 6319   4.605   0.644  12.841  0.3883 -0.6302 -0.2347
  420TMC3    C6 6320   4.530   0.748  12.793 -0.5452 -0.4021  0.4724
  420TMC3     C 6321   4.674   0.431  12.543 -0.5702 -0.1291 -0.8873
  420TMC3     O 6322   4.716   0.338  12.611  0.3078 -0.3553  0.5988
  420TMC3     H 6323   4.503   0.631  12.480 -0.3337 -1.5069 -0.5400
  420TMC3    H1 6324   4.695   0.450  12.802 -0.0060 -0.4093  0.5381
  420TMC3    H2 6325   4.503   0.823  12.867 -0.0763 -0.5481  0.7931
  420TMC3    C7 6326   4.579   0.606  12.971 -0.3213  0.7343  0.0031
  420TMC3    C8 6327   4.432   0.868  12.615  0.1269 -0.7535  0.4883
  420TMC3    O1 6328   4.664   0.537  13.022  0.8891  0.0574 -0.1565
  420TMC3    O2 6329   4.401   0.943  12.702 -0.4086  0.1500  0.5013
  421TMC3    C1 6330   1.710   1.579  13.284 -0.1977  0.2524 -0.3552
  421TMC3    C2 6331   1.822   1.648  13.256  0.1875  0.2170  0.0902
  421TMC3    C3 6332   1.946   1.604  13.291  0.6303 -0.4915 -0.2685
  421TMC3    C4 6333   1.722   1.467  13.362  0.8021 -0.6226  0.6340
  421TMC3    C5 6334   1.844   1.425  13.407  0.8289  0.5153 -0.3909
  421TMC3    C6 6335   1.958   1.489  13.365  0.6068  0.1609  0.4983
  421TMC3     C 6336   1.591   1.659  13.295  0.4302 -0.5127 -0.2699
  421TMC3     O 6337   1.608   1.772  13.328 -0.0562 -0.1436 -0.1569
  421TMC3     H 6338   1.813   1.736  13.194 -0.4511 -0.7447 -1.1886
  421TMC3    H1 6339   1.635   1.433  13.418 -0.2480  1.8244  0.4707
  421TMC3    H2 6340   2.055   1.460  13.403  1.2319  2.3620  0.5927
  421TMC3    C7 6341   1.851   1.345  13.530  0.3472  0.2377 -0.0869
  421TMC3    C8 6342   2.015   1.717  13.344 -0.5979 -0.1963 -0.0825
  421TMC3    O1 6343   1.747   1.283  13.554 -0.0138 -0.2721  0.2608
  421TMC3    O2 6344   1.950   1.781  13.425  0.6305 -0.0324 -0.0179
  422TMC3    C1 6345   3.939   3.190  12.606 -0.4611  0.2389 -0.2582
  422TMC3    C2 6346   3.855   3.298  12.622  0.5668 -0.9327 -0.4460
  422TMC3    C3 6347   3.756   3.290  12.721 -0.1468 -0.2303  0.0074
  422TMC3    C4 6348   3.918   3.078  12.673 -0.5990 -0.2540 -0.5353
  422TMC3    C5 6349   3.812   3.074  12.765  0.4514  0.0499 -0.0436
  422TMC3    C6 6350   3.728   3.180  12.790  0.3081  1.3268  0.3237
  422TMC3     C 6351   4.045   3.195  12.507  0.0470 -0.3811  0.1614
  422TMC3     O 6352   4.029   3.283  12.424 -0.2279  0.7818 -0.0464
  422TMC3     H 6353   3.893   3.389  12.575  2.6745 -0.8264  1.4480
  422TMC3    H1 6354   3.965   2.990  12.632 -1.6704 -1.4417  0.7950
  422TMC3    H2 6355   3.667   3.180  12.880 -0.5712 -1.7144 -0.2690
  422TMC3    C7 6356   3.765   2.938  12.812  0.0511  0.3030  0.1915
  422TMC3    C8 6357   3.703   3.421  12.750 -0.6501  0.5212 -0.1474
  422TMC3    O1 6358   3.846   2.847  12.788 -0.6776  0.1098  0.3302
  422TMC3    O2 6359   3.758   3.514  12.695  0.0887  0.0203  0.1452
  423MPD2     C 6360   0.400   4.234   0.471  0.2292 -0.4217 -0.0274
  423MPD2    C1 6361   0.353   4.109   0.488 -0.4381 -0.3692 -0.2538
  423MPD2    C2 6362   0.380   4.019   0.384 -0.1639 -0.4888  1.1234
  423MPD2    C3 6363   0.445   4.057   0.268 -0.3295 -0.2263 -0.0849
  423MPD2    C4 6364   0.475   4.189   0.255 -0.9253  0.5114  0.1420
  423MPD2    C5 6365   0.459   4.283   0.352 -0.2153  0.7431 -0.1296
  423MPD2     H 6366   0.352   3.916   0.396 -1.8142 -0.1632  0.1251
  423MPD2    H1 6367   0.529   4.215   0.165 -0.8606 -0.7203 -0.1797
  423MPD2    H2 6368   0.382   4.311   0.545  0.5480 -1.5283  1.2068
  423MPD2    H3 6369   0.493   4.385   0.338  3.2301 -0.7214 -2.5775
  423MPD2     N 6370   0.495   3.967   0.174 -0.1959 -0.2835  0.2218
  423MPD2    H5 6371   0.533   4.006   0.089 -1.3138 -0.4346 -0.3413
  423MPD2    N1 6372   0.296   4.059   0.608 -0.2150  1.1050  0.5437
  423MPD2    H7 6373   0.282   3.959   0.614  2.7630  0.7629  2.0638
  424TMC3    C1 6374   0.228   4.043   0.825 -0.2693  0.8894  0.4354
  424TMC3    C2 6375   0.301   3.928   0.841 -0.0705 -0.1041  0.5805
  424TMC3    C3 6376   0.279   3.852   0.954 -0.0666 -0.0500  0.2207
  424TMC3    C4 6377   0.150   4.105   0.924 -0.1628  0.1013  0.5271
  424TMC3    C5 6378   0.133   4.021   1.034 -0.0768 -0.0626 -0.5230
  424TMC3    C6 6379   0.196   3.902   1.051  0.6242 -0.9504 -0.1665
  424TMC3     C 6380   0.257   4.131   0.715  0.0913  0.6765 -0.2307
  424TMC3     O 6381   0.256   4.251   0.730  0.6310  0.1872  0.4706
  424TMC3     H 6382   0.360   3.887   0.759 -0.6871 -1.5377  0.8427
  424TMC3    H1 6383   0.080   4.185   0.903  1.5852  0.9413 -2.0667
  424TMC3    H2 6384   0.171   3.831   1.130  1.0365  0.0436  0.8572
  424TMC3    C7 6385   0.004   4.011   1.099  0.4501 -0.1026  0.1210
  424TMC3    C8 6386   0.370   3.752   0.990  0.1293 -0.7016 -0.1506
  424TMC3    O1 6387   0.005   3.990   1.220 -0.6197  0.0380  1.0414
  424TMC3    O2 6388   0.345   3.688   1.089 -0.1218  0.8804  0.3274
  425MPD2     C 6389   4.101   2.947  17.139  0.2461 -0.1853  0.2334
  425MPD2    C1 6390   4.019   2.840  17.162 -0.4395 -0.2749  0.1291
  425MPD2    C2 6391   3.915   2.856  17.253 -0.2461 -0.8874 -0.4320
  425MPD2    C3 6392   3.892   2.979  17.312  0.5687  0.0988  0.2201
  425MPD2    C4 6393   3.974   3.077  17.286 -0.2732 -0.0668  0.2754
  425MPD2    C5 6394   4.079   3.063  17.202 -0.2216 -0.5065  0.1629
  425MPD2     H 6395   3.853   2.772  17.280  1.4041 -1.5259  1.4352
  425MPD2    H1 6396   3.962   3.177  17.328 -0.1402 -0.0455  0.2641
  425MPD2    H2 6397   4.173   2.939  17.059  0.3428  0.9562  0.2085
  425MPD2    H3 6398   4.130   3.156  17.178  0.8121 -0.9511  0.6429
  425MPD2     N 6399   3.781   2.989  17.399 -0.3318  0.0371  0.3607
  425MPD2    H5 6400   3.749   2.896  17.420  2.0328 -0.9678 -0.4512
  425MPD2    N1 6401   4.059   2.724  17.089  0.0800 -0.1615 -0.0752
  425MPD2    H7 6402   4.140   2.744  17.031  0.6017 -2.0041  0.0293
  426TMC3    C1 6403   4.080   2.495  17.045 -0.2297  0.1096 -0.3786
  426TMC3    C2 6404   4.172   2.534  16.953  0.0768 -0.0498  0.3892
  426TMC3    C3 6405   4.280   2.445  16.937 -0.7200 -0.1659 -0.1126
  426TMC3    C4 6406   4.086   2.386  17.128 -0.1552  0.4676  0.4222
  426TMC3    C5 6407   4.203   2.315  17.119  0.6847 -0.1795  0.0472
  426TMC3    C6 6408   4.292   2.334  17.019  0.0782  0.6370 -0.6107
  426TMC3     C 6409   3.998   2.599  17.104 -0.3130  0.0039 -0.6473
  426TMC3     O 6410   3.896   2.569  17.166  0.2961  0.2836  0.7072
  426TMC3     H 6411   4.152   2.619  16.889  1.7378  0.9193  1.1568
  426TMC3    H1 6412   4.001   2.356  17.189  0.9277 -0.9896  1.2116
  426TMC3    H2 6413   4.382   2.274  17.018 -0.4008 -0.0758 -0.9568
  426TMC3    C7 6414   4.204   2.189  17.185 -0.7179 -0.1983 -0.4016
  426TMC3    C8 6415   4.350   2.439  16.813 -0.4409 -0.2411  0.6289
  426TMC3    O1 6416   4.263   2.094  17.137  0.3810  0.8491  0.4371
  426TMC3    O2 6417   4.381   2.323  16.787 -0.1420 -0.1274  0.0771
  427MPD2     C 6418   2.256   4.686  15.153 -0.6982  0.0804 -0.3901
  427MPD2    C1 6419   2.234   0.030  15.262  0.9333  0.0537  0.7198
  427MPD2    C2 6420   2.158   0.143  15.256 -0.1182 -0.0117  0.4944
  427MPD2    C3 6421   2.112   0.178  15.127  0.9246 -0.0202 -0.3483
  427MPD2    C4 6422   2.135   0.099  15.016  0.1687  0.0661  0.5351
  427MPD2    C5 6423   2.212   4.722  15.031  0.5680 -0.1579 -0.2265
  427MPD2     H 6424   2.157   0.207  15.343  0.9812  0.6403  0.0285
  427MPD2    H1 6425   2.101   0.121  14.915 -0.9170 -0.7969  0.7049
  427MPD2    H2 6426   2.297   4.585  15.160  0.8677  0.8010  0.8126
  427MPD2    H3 6427   2.224   4.663  14.941  1.1353 -2.7250  1.5493
  427MPD2     N 6428   2.054   0.309  15.116  0.0572  0.3444 -0.1261
  427MPD2    H5 6429   2.017   0.330  15.023  2.1189  2.0071 -0.5563
  427MPD2    N1 6430   2.307   0.001  15.375  0.7163  0.0675 -0.0775
  427MPD2    H7 6431   2.327   0.078  15.439 -1.1342  0.1467  0.4096
  428TMC3    C1 6432   2.433   4.627  15.534  0.5533 -0.3782 -0.5537
  428TMC3    C2 6433   2.430   4.514  15.607  0.2228 -0.2078  0.4293
  428TMC3    C3 6434   2.552   4.477  15.660 -0.4341 -0.6976 -0.0450
  428TMC3    C4 6435   2.552   4.706  15.514 -0.2140  0.4731 -0.3842
  428TMC3    C5 6436   2.667   4.653  15.560 -0.5261 -0.1387  0.0017
  428TMC3    C6 6437   2.672   4.544  15.638  0.6610 -0.3443 -0.8713
  428TMC3     C 6438   2.346   4.613  15.420  0.5235  0.3537  0.0232
  428TMC3     O 6439   2.325   4.502  15.370 -0.0840 -0.0894  0.2428
  428TMC3     H 6440   2.341   4.452  15.616  1.4983 -1.7570  2.3393
  428TMC3    H1 6441   2.548   0.059  15.455 -0.9724  0.4879 -0.3144
  428TMC3    H2 6442   2.762   4.518  15.693 -0.1545 -1.3638 -0.0183
  428TMC3    C7 6443   2.786   0.002  15.538  0.3087  0.6497 -0.6428
  428TMC3    C8 6444   2.554   4.353  15.740  0.0741  0.1323  0.0483
  428TMC3    O1 6445   2.873   4.729  15.620 -0.0691  0.0923  0.3110
  428TMC3    O2 6446   2.663   4.298  15.752  0.1446 -0.1678 -0.3876
  429MPD2     C 6447   4.121   0.744  17.053 -0.6900  0.4527  0.3715
  429MPD2    C1 6448   4.016   0.739  16.970 -0.8886 -0.0140 -0.2584
  429MPD2    C2 6449   4.030   0.785  16.840 -0.2450  0.2984 -0.3955
  429MPD2    C3 6450   4.153   0.830  16.784  0.0164 -0.5611  1.0493
  429MPD2    C4 6451   4.267   0.824  16.870 -0.5351  0.0325  0.5076
  429MPD2    C5 6452   4.244   0.791  17.005 -0.2699 -0.2415 -0.1899
  429MPD2     H 6453   3.943   0.780  16.775 -1.2459  0.2829  0.9517
  429MPD2    H1 6454   4.366   0.860  16.847 -0.4403  0.4530  1.5750
  429MPD2    H2 6455   4.113   0.712  17.156  1.1401  0.3256  0.4706
  429MPD2    H3 6456   4.317   0.802  17.084  0.2759 -0.7929 -0.6156
  429MPD2     N 6457   4.164   0.871  16.649 -0.2081 -0.1702 -0.2683
  429MPD2    H5 6458   4.078   0.875  16.594  0.2412  1.8024 -0.8378
  429MPD2    N1 6459   3.888   0.683  17.000  0.1415 -0.1228  0.0023
  429MPD2    H7 6460   3.824   0.679  16.922 -0.8970  0.5816  0.8197
  430TMC3    C1 6461   4.258   0.973  16.448 -1.0399  0.1914  0.5335
  430TMC3    C2 6462   4.130   0.992  16.399  0.3434  0.2680  0.0304
  430TMC3    C3 6463   4.123   1.042  16.275 -0.1390  0.6620  0.3359
  430TMC3    C4 6464   4.362   0.986  16.368 -0.3100  0.4409  0.1262
  430TMC3    C5 6465   4.350   1.020  16.233  0.2301  0.0153 -0.4084
  430TMC3    C6 6466   4.231   1.059  16.192 -0.3489 -0.3672 -0.0033
  430TMC3     C 6467   4.280   0.910  16.579  0.9229 -0.1049 -0.1187
  430TMC3     O 6468   4.396   0.890  16.617  0.1734  0.1126 -0.5641
  430TMC3     H 6469   4.044   0.984  16.465 -0.0588  0.8070 -0.4290
  430TMC3    H1 6470   4.461   0.973  16.408 -0.2586 -1.2547 -0.5523
  430TMC3    H2 6471   4.218   1.098  16.091  0.2176 -1.5447 -0.5270
  430TMC3    C7 6472   4.432   0.934  16.152 -0.4865 -0.1036 -0.8111
  430TMC3    C8 6473   3.993   1.051  16.207  0.3831 -0.1539 -1.1756
  430TMC3    O1 6474   4.518   0.868  16.210 -0.4981 -0.2492  0.3921
  430TMC3    O2 6475   3.926   0.948  16.198  0.1866  0.1486 -0.1132
  431MPD2     C 6476   4.704   1.088  12.054 -1.2683  0.2412  0.2890
  431MPD2    C1 6477   0.102   1.073  12.029 -0.3329 -0.7425  0.4367
  431MPD2    C2 6478   0.141   0.979  11.933 -0.9303  0.0551 -0.4100
  431MPD2    C3 6479   0.047   0.900  11.871  0.2206 -0.0235 -0.4381
  431MPD2    C4 6480   4.653   0.921  11.900  0.7094  0.4056 -0.6004
  431MPD2    C5 6481   4.615   1.011  11.991  0.4505 -0.2387 -0.0547
  431MPD2     H 6482   0.247   0.968  11.915 -0.3023  3.3224  1.4195
  431MPD2    H1 6483   4.574   0.869  11.847  1.7041 -1.0556 -0.6255
  431MPD2    H2 6484   4.663   1.157  12.126  0.8629  0.7166  1.0659
  431MPD2    H3 6485   4.513   1.039  12.015  1.1743  1.7695  0.7090
  431MPD2     N 6486   0.084   0.794  11.784  0.2422 -0.0404 -0.2148
  431MPD2    H5 6487   0.003   0.739  11.758 -0.4918  1.0840 -0.3091
  431MPD2    N1 6488   0.203   1.147  12.098  0.6059  0.3117  0.8209
  431MPD2    H7 6489   0.298   1.150  12.062  0.5326  0.0175  0.5927
  432TMC3    C1 6490   0.214   0.620  11.688  0.8230  0.6461 -0.4328
  432TMC3    C2 6491   0.332   0.583  11.642 -0.2322 -0.1322  0.6201
  432TMC3    C3 6492   0.372   0.455  11.648  0.4855 -0.0913  0.2767
  432TMC3    C4 6493   0.130   0.523  11.746 -0.0440 -0.3540 -0.3189
  432TMC3    C5 6494   0.172   0.397  11.752 -0.0535  0.3220  0.1358
  432TMC3    C6 6495   0.294   0.355  11.699  0.2811  0.2494  0.1989
  432TMC3     C 6496   0.209   0.758  11.738  0.2908  0.7694  0.2349
  432TMC3     O 6497   0.315   0.818  11.755 -0.2753  0.5153 -0.5640
  432TMC3     H 6498   0.412   0.654  11.625  0.4848 -1.1125 -0.1382
  432TMC3    H1 6499   0.035   0.551  11.790 -0.4822 -1.4808 -0.5237
  432TMC3    H2 6500   0.312   0.248  11.697  1.7591  0.4768  1.3411
  432TMC3    C7 6501   0.107   0.307  11.846  0.4178  0.3144 -0.0432
  432TMC3    C8 6502   0.506   0.424  11.601 -0.2953 -0.5486 -0.5840
  432TMC3    O1 6503   0.133   0.187  11.832 -0.1061  0.3380 -0.3947
  432TMC3    O2 6504   0.564   0.497  11.522  0.1534 -0.4321  0.6799
  433MPD2     C 6505   3.855   4.029  10.732 -0.2852  0.2178  0.1267
  433MPD2    C1 6506   3.788   3.933  10.802  0.2262  0.4101  0.1310
  433MPD2    C2 6507   3.792   3.940  10.941 -0.2542  0.1153  0.0497
  433MPD2    C3 6508   3.856   4.040  11.008  0.3745  0.0134 -0.3517
  433MPD2    C4 6509   3.927   4.136  10.935  0.3580  0.0254 -0.3979
  433MPD2    C5 6510   3.920   4.130  10.802 -0.3290  0.0545  0.6707
  433MPD2     H 6511   3.741   3.873  11.009 -1.7879  2.1685  0.9172
  433MPD2    H1 6512   3.969   4.224  10.983 -0.8873  0.7510 -0.6491
  433MPD2    H2 6513   3.864   4.026  10.624 -3.5380 -0.3207 -0.1301
  433MPD2    H3 6514   3.978   4.204  10.749 -0.0573 -0.2996  0.4699
  433MPD2     N 6515   3.854   4.041  11.149 -0.0172  0.1423  0.0971
  433MPD2    H5 6516   3.806   3.968  11.201  1.1498 -0.5986  0.1426
  433MPD2    N1 6517   3.739   3.817  10.730  0.0135  0.3740  0.0306
  433MPD2    H7 6518   3.774   3.803  10.636  1.4533 -2.1221  0.9604
  434TMC3    C1 6519   3.709   3.587  10.701  0.4462 -0.4052  0.3053
  434TMC3    C2 6520   3.764   3.488  10.776  0.2640  0.3294 -0.0394
  434TMC3    C3 6521   3.856   3.407  10.726  0.3231  0.3076 -0.7598
  434TMC3    C4 6522   3.740   3.605  10.568  0.3806  0.0452 -0.4116
  434TMC3    C5 6523   3.822   3.507  10.515 -0.4214  0.1055  0.0919
  434TMC3    C6 6524   3.889   3.413  10.590  0.1099 -0.2794 -0.2484
  434TMC3     C 6525   3.698   3.699  10.787 -0.3271  0.5995  0.2901
  434TMC3     O 6526   3.677   3.683  10.909 -0.3467  0.0311 -0.8966
  434TMC3     H 6527   3.728   3.466  10.876 -1.3661 -2.9710 -1.3788
  434TMC3    H1 6528   3.696   3.685  10.508  0.8885  0.1810 -0.5973
  434TMC3    H2 6529   3.964   3.346  10.550  0.2505 -1.0407  1.2824
  434TMC3    C7 6530   3.804   3.475  10.372 -0.0164 -0.7688 -0.0459
  434TMC3    C8 6531   3.955   3.365  10.815  0.3232 -0.1210  0.2905
  434TMC3    O1 6532   3.728   3.547  10.304  0.0423 -0.0291  0.2771
  434TMC3    O2 6533   3.917   3.330  10.925  0.3508  0.2926 -0.3149
  435MPD2     C 6534   1.021   3.907  15.110  0.1371  0.3910  0.2478
  435MPD2    C1 6535   0.988   3.929  15.241 -0.4900 -0.8459 -0.6878
  435MPD2    C2 6536   1.069   3.880  15.340  0.1124 -0.2654 -0.3782
  435MPD2    C3 6537   1.181   3.797  15.309  0.5800 -0.0540  0.0161
  435MPD2    C4 6538   1.206   3.774  15.174  0.6284 -0.7728  0.0059
  435MPD2    C5 6539   1.125   3.825  15.077  0.2288  0.4143  0.0019
  435MPD2     H 6540   1.045   3.907  15.442  0.3125  2.4257 -1.0485
  435MPD2    H1 6541   1.271   3.697  15.134  0.1422  0.0476 -2.3422
  435MPD2    H2 6542   0.960   3.943  15.028 -0.3629  2.8381  1.6899
  435MPD2    H3 6543   1.148   3.803  14.973 -0.5023  0.3078 -0.1361
  435MPD2     N 6544   1.271   3.768  15.412  0.0136 -0.0320 -0.3007
  435MPD2    H5 6545   1.238   3.781  15.507  0.5097 -1.2480  0.0405
  435MPD2    N1 6546   0.869   3.992  15.288  0.2697 -0.5319 -0.0660
  435MPD2    H7 6547   0.865   4.009  15.388  0.0226  1.4491 -0.4161
  436TMC3    C1 6548   0.553   4.186  15.484 -0.0553  0.2392  0.2844
  436TMC3    C2 6549   0.656   4.119  15.425  0.3348  0.1955 -1.4248
  436TMC3    C3 6550   0.651   4.099  15.289  0.1730  0.3088  0.1767
  436TMC3    C4 6551   0.441   4.213  15.417 -0.1125  0.8271 -0.3545
  436TMC3    C5 6552   0.440   4.199  15.278 -0.0494  0.3259  0.0731
  436TMC3    C6 6553   0.543   4.131  15.212  0.3203 -0.5901  0.7236
  436TMC3     C 6554   0.575   4.244  15.613 -1.0961 -0.5188  0.5085
  436TMC3     O 6555   0.692   4.267  15.651 -0.1934 -0.0772  0.1039
  436TMC3     H 6556   0.747   4.094  15.478 -0.2345 -0.7970 -0.9134
  436TMC3    H1 6557   0.374   4.286  15.463  0.0195  1.8204 -1.7335
  436TMC3    H2 6558   0.534   4.107  15.107  0.0197  0.1018  0.5895
  436TMC3    C7 6559   0.324   4.191  15.204  0.2335  0.3079 -0.8967
  436TMC3    C8 6560   0.759   4.029  15.213 -0.3264  0.6340  0.6663
  436TMC3    O1 6561   0.320   4.203  15.083 -0.0635  0.2239  0.2358
  436TMC3    O2 6562   0.727   3.984  15.106 -0.2992 -0.4942 -0.4958
  437TMC3    C1 6563   0.126   2.012  11.735  0.0032 -0.4884 -0.2458
  437TMC3    C2 6564   0.206   2.037  11.623 -0.6386  0.2800  0.5512
  437TMC3    C3 6565   0.231   1.934  11.544  0.1050  0.2312  0.7229
  437TMC3    C4 6566   0.084   1.885  11.773 -0.3442 -0.0944  0.2630
  437TMC3    C5 6567   0.120   1.788  11.683  0.4650 -0.3593  0.4638
  437TMC3    C6 6568   0.190   1.809  11.568 -0.0125  0.4031  0.3879
  437TMC3     C 6569   0.078   2.129  11.808 -0.4207 -0.2693 -0.6588
  437TMC3     O 6570   0.079   2.240  11.754  0.1331  0.0570  0.2984
  437TMC3     H 6571   0.247   2.136  11.611  1.8579 -0.8779 -0.5516
  437TMC3    H1 6572   4.737   1.860  11.836  0.0945 -2.3206 -0.0465
  437TMC3    H2 6573   0.195   1.733  11.491  0.0380  2.7098 -1.8774
  437TMC3    C7 6574   0.058   1.660  11.697  0.7584  0.0728 -0.1251
  437TMC3    C8 6575   0.324   1.968  11.440 -0.0864  0.4093 -0.4753
  437TMC3    O1 6576   4.712   1.614  11.619 -0.2551  0.4403  0.2146
  437TMC3    O2 6577   0.330   2.081  11.405 -0.2503 -0.3596 -0.2834
  438MPD2     C 6578   1.787   1.731  16.539  0.3365  0.1531 -0.1276
  438MPD2    C1 6579   1.860   1.641  16.615  0.0681 -0.3945  0.1245
  438MPD2    C2 6580   1.868   1.666  16.744  0.2520  0.2007 -0.5008
  438MPD2    C3 6581   1.811   1.782  16.804  0.3728 -0.3409 -0.0588
  438MPD2    C4 6582   1.738   1.865  16.726  0.2575  0.3215 -0.0209
  438MPD2    C5 6583   1.730   1.843  16.592  0.0240 -0.0199 -0.0692
  438MPD2     H 6584   1.914   1.594  16.811  0.5470  0.0130 -0.9017
  438MPD2    H1 6585   1.686   1.951  16.767 -0.6356  0.0612 -0.5950
  438MPD2    H2 6586   1.773   1.717  16.432  0.7362  0.7210 -0.2581
  438MPD2    H3 6587   1.678   1.905  16.519 -1.7833 -0.3977  0.8983
  438MPD2     N 6588   1.810   1.806  16.947 -0.0589 -0.4951  0.5990
  438MPD2    H5 6589   1.745   1.877  16.981  2.5414  2.6810 -0.9917
  438MPD2    N1 6590   1.926   1.527  16.568 -0.3212 -0.0153 -0.4543
  438MPD2    H7 6591   1.964   1.467  16.641  0.3768 -0.5223 -1.2361
  439TMC3    C1 6592   2.058   1.401  16.408  0.5344 -0.0917 -0.3332
  439TMC3    C2 6593   2.058   1.354  16.278  0.0702  0.4035 -0.0936
  439TMC3    C3 6594   2.149   1.253  16.254 -0.5140  0.6276  0.2384
  439TMC3    C4 6595   2.141   1.359  16.511 -0.0370  0.3619 -0.1251
  439TMC3    C5 6596   2.234   1.270  16.472 -0.0659  0.4295  0.5521
  439TMC3    C6 6597   2.231   1.204  16.354 -0.1370  0.4996 -0.1251
  439TMC3     C 6598   1.951   1.498  16.437  0.0940  0.0241 -0.3473
  439TMC3     O 6599   1.882   1.528  16.339  0.3933 -0.5286  0.4346
  439TMC3     H 6600   1.999   1.398  16.198 -1.2990 -2.3913 -0.6183
  439TMC3    H1 6601   2.147   1.391  16.614 -1.6029 -1.7079  0.6236
  439TMC3    H2 6602   2.303   1.127  16.328  0.7925  1.3307 -0.0492
  439TMC3    C7 6603   2.352   1.250  16.554 -0.0042 -0.8527  0.1026
  439TMC3    C8 6604   2.228   1.257  16.131 -0.2094  0.4782 -0.7228
  439TMC3    O1 6605   2.359   1.283  16.674 -0.7141 -0.2815  0.2363
  439TMC3    O2 6606   2.351   1.243  16.144  0.3432  0.0267  0.6742
  440MPD2     C 6607   0.842   2.455  14.343  0.1123  0.1270 -0.4637
  440MPD2    C1 6608   0.811   2.432  14.478  0.3562 -0.3054 -0.6722
  440MPD2    C2 6609   0.870   2.336  14.552  0.0423 -0.1982  0.8627
  440MPD2    C3 6610   0.965   2.258  14.490 -0.8701  0.5667 -0.1299
  440MPD2    C4 6611   1.010   2.287  14.363  0.0238 -0.0425  0.0628
  440MPD2    C5 6612   0.950   2.389  14.294 -0.4054 -0.7272 -0.3709
  440MPD2     H 6613   0.828   2.301  14.646 -0.8756 -2.0472 -0.2194
  440MPD2    H1 6614   1.088   2.233  14.311 -0.2249 -3.4724  3.2430
  440MPD2    H2 6615   0.800   2.536  14.285  3.2536  1.7515 -0.5197
  440MPD2    H3 6616   0.982   2.414  14.194  4.4508 -2.2620  0.8207
  440MPD2     N 6617   1.042   2.160  14.561  0.1361  0.5276  0.1315
  440MPD2    H5 6618   1.129   2.124  14.523  0.1327  1.1449 -0.4739
  440MPD2    N1 6619   0.721   2.515  14.544  0.0551 -0.6775 -0.7841
  440MPD2    H7 6620   0.717   2.501  14.645  2.1841 -1.3188 -0.7727
  441TMC3    C1 6621   1.151   2.066  14.753  0.1267  0.3694  0.1892
  441TMC3    C2 6622   1.261   2.145  14.750 -0.2777  0.0066 -0.1078
  441TMC3    C3 6623   1.365   2.140  14.845  0.0956 -0.2982  0.2458
  441TMC3    C4 6624   1.132   1.979  14.864  0.5732 -0.4369  0.3724
  441TMC3    C5 6625   1.232   1.976  14.957  0.0229 -0.5146  0.4209
  441TMC3    C6 6626   1.338   2.061  14.953 -0.0728 -0.5593 -0.1936
  441TMC3     C 6627   1.034   2.133  14.698 -0.7295  0.4394  0.0062
  441TMC3     O 6628   0.948   2.151  14.778  0.2702  0.2232  0.1762
  441TMC3     H 6629   1.275   2.216  14.669 -1.1371 -1.0277 -1.1543
  441TMC3    H1 6630   1.047   1.913  14.880  0.0228 -0.0104 -0.7467
  441TMC3    H2 6631   1.410   2.068  15.034 -1.1603 -0.3780  0.7487
  441TMC3    C7 6632   1.199   1.919  15.081 -0.0571  0.0393  0.2362
  441TMC3    C8 6633   1.435   2.266  14.871 -0.2587  0.3840  0.3259
  441TMC3    O1 6634   1.219   1.987  15.179 -0.3282 -0.1040 -0.2714
  441TMC3    O2 6635   1.529   2.269  14.948 -0.1015 -0.3586  0.0539
  442MPD2     C 6636   3.882   2.763  16.731 -0.9200  0.8666 -0.5292
  442MPD2    C1 6637   3.789   2.674  16.791  0.5907  0.3410  0.2905
  442MPD2    C2 6638   3.764   2.551  16.730  0.0601 -0.5546 -0.1250
  442MPD2    C3 6639   3.837   2.517  16.615  1.2247 -0.5661 -0.3894
  442MPD2    C4 6640   3.937   2.599  16.566 -0.1806  0.8880 -0.2514
  442MPD2    C5 6641   3.956   2.720  16.627  0.7933  0.7542  0.0553
  442MPD2     H 6642   3.686   2.490  16.775  0.6705 -0.0678  1.6000
  442MPD2    H1 6643   3.991   2.579  16.475 -1.0629  0.0294 -0.5957
  442MPD2    H2 6644   3.918   2.850  16.785  1.4810 -1.8055  2.2292
  442MPD2    H3 6645   4.031   2.784  16.584  0.2832  1.0884 -0.3373
  442MPD2     N 6646   3.815   2.389  16.555  0.1298 -0.7572 -0.2438
  442MPD2    H5 6647   3.882   2.364  16.483  1.6649  2.2354  0.1212
  442MPD2    N1 6648   3.730   2.696  16.915  0.3448 -0.2676 -1.1735
  442MPD2    H7 6649   3.672   2.622  16.951  1.6146  0.4429  2.2897
  443TMC3    C1 6650   3.618   2.822  17.080 -0.3087 -0.5727 -0.4673
  443TMC3    C2 6651   3.525   2.923  17.068 -0.3270 -0.1918 -0.3114
  443TMC3    C3 6652   3.399   2.892  17.112 -0.1801 -0.2784  0.7158
  443TMC3    C4 6653   3.589   2.700  17.137  0.0092 -0.2571  0.8893
  443TMC3    C5 6654   3.466   2.684  17.194  0.1561  0.5579  0.1260
  443TMC3    C6 6655   3.367   2.777  17.172  0.2394 -0.2773  0.3597
  443TMC3     C 6656   3.721   2.820  16.983 -0.2343 -0.3124  0.5284
  443TMC3     O 6657   3.736   2.930  16.932 -0.3769 -0.8065 -0.1481
  443TMC3     H 6658   3.543   3.024  17.034 -1.2839 -0.2787 -1.0694
  443TMC3    H1 6659   3.658   2.617  17.142 -0.7581 -0.8953  0.7829
  443TMC3    H2 6660   3.265   2.741  17.169 -0.7575  2.6711 -1.5614
  443TMC3    C7 6661   3.432   2.553  17.231 -0.4406  0.0616 -0.5238
  443TMC3    C8 6662   3.295   2.913  17.011  0.1711  0.1990 -0.1845
  443TMC3    O1 6663   3.511   2.462  17.217 -0.2166 -0.1285 -0.2947
  443TMC3    O2 6664   3.180   2.906  17.045  0.5269  0.1861 -0.6668
  444MPD2     C 6665   3.985   2.158  16.833 -0.0339 -0.2981 -0.0915
  444MPD2    C1 6666   3.944   2.030  16.867  0.2086  0.4200 -0.5012
  444MPD2    C2 6667   4.001   1.931  16.795 -0.4411 -0.0173 -0.1771
  444MPD2    C3 6668   4.092   1.948  16.691 -0.5374 -0.2114 -0.4324
  444MPD2    C4 6669   4.136   2.085  16.663  0.2371 -0.0569  0.0332
  444MPD2    C5 6670   4.081   2.187  16.732 -0.5264 -0.7772  0.2889
  444MPD2     H 6671   3.978   1.830  16.826 -1.9794  0.3559 -0.1435
  444MPD2    H1 6672   4.202   2.113  16.582  1.9865 -0.5572  1.2859
  444MPD2    H2 6673   3.951   2.244  16.888 -1.1132 -0.9366  0.2403
  444MPD2    H3 6674   4.106   2.292  16.720  0.7661 -1.3396 -2.0246
  444MPD2     N 6675   4.134   1.831  16.624 -0.2974 -0.3461  0.1366
  444MPD2    H5 6676   4.093   1.745  16.662 -0.6032 -0.6082 -0.7925
  444MPD2    N1 6677   3.844   2.003  16.966  0.8646 -0.5341 -0.0646
  444MPD2    H7 6678   3.819   1.905  16.970 -1.3962 -0.0026 -1.6216
  445TMC3    C1 6679   4.270   1.684  16.501  0.1240  0.2578 -0.4464
  445TMC3    C2 6680   4.166   1.593  16.524 -1.0789  0.9996 -0.5830
  445TMC3    C3 6681   4.198   1.464  16.512 -0.8191  0.3219  1.1289
  445TMC3    C4 6682   4.396   1.652  16.458  0.4176 -0.6159 -0.5294
  445TMC3    C5 6683   4.420   1.518  16.445  0.7577  0.0852 -0.2576
  445TMC3    C6 6684   4.322   1.420  16.473  0.1764 -0.1886 -0.0532
  445TMC3     C 6685   4.239   1.821  16.535  0.2882  0.1697 -0.7937
  445TMC3     O 6686   4.312   1.907  16.494 -0.2416 -0.6212 -0.2513
  445TMC3     H 6687   4.061   1.619  16.529 -1.6612 -1.5682  0.2408
  445TMC3    H1 6688   4.467   1.729  16.430  1.0144 -0.0218  2.6296
  445TMC3    H2 6689   4.339   1.313  16.468 -0.8906 -0.5407  3.9848
  445TMC3    C7 6690   4.552   1.488  16.393  0.1725  0.0618 -0.4179
  445TMC3    C8 6691   4.096   1.361  16.514  0.3416  0.4775  0.2128
  445TMC3    O1 6692   4.631   1.577  16.367  0.4816  0.4764  0.0243
  445TMC3    O2 6693   4.120   1.255  16.569 -0.2957 -0.4567  0.1121
  446MPD2     C 6694   3.628   3.337  11.341  0.4166 -0.1886 -0.0194
  446MPD2    C1 6695   3.594   3.366  11.208 -0.3694 -0.5002  0.5753
  446MPD2    C2 6696   3.669   3.466  11.139 -0.1502 -0.5828  0.2971
  446MPD2    C3 6697   3.788   3.511  11.193 -0.1368  0.8101 -0.4708
  446MPD2    C4 6698   3.817   3.481  11.322  0.5721 -0.7226  0.8048
  446MPD2    C5 6699   3.730   3.402  11.399  0.4167 -0.3097 -0.1180
  446MPD2     H 6700   3.641   3.485  11.036 -1.4942  0.0189  0.7641
  446MPD2    H1 6701   3.911   3.510  11.368  1.0000 -1.4270  0.3745
  446MPD2    H2 6702   3.584   3.264  11.407  2.0598 -0.5131  0.7038
  446MPD2    H3 6703   3.758   3.375  11.500  2.3711  1.0936 -0.2875
  446MPD2     N 6704   3.875   3.584  11.110 -0.8728 -0.1507  0.0346
  446MPD2    H5 6705   3.837   3.603  11.018  0.3242  0.7570 -0.2745
  446MPD2    N1 6706   3.493   3.293  11.145 -0.0386 -0.0133  1.0033
  446MPD2    H7 6707   3.462   3.322  11.053  2.3417 -1.5456 -0.2996
  447TMC3    C1 6708   4.093   3.660  11.023 -0.0462 -0.6032 -0.3027
  447TMC3    C2 6709   4.046   3.693  10.904  0.1516 -0.2749 -0.4811
  447TMC3    C3 6710   4.135   3.747  10.811 -0.9114  0.4908  0.4879
  447TMC3    C4 6711   4.230   3.671  11.052 -0.8743 -0.7229 -0.1240
  447TMC3    C5 6712   4.317   3.720  10.954 -0.2484 -0.3156  0.0886
  447TMC3    C6 6713   4.272   3.765  10.834  0.1426  0.2061  0.5028
  447TMC3     C 6714   4.010   3.604  11.135  0.0272  0.0055 -0.4913
  447TMC3     O 6715   4.077   3.572  11.232 -0.1225 -0.6601 -0.1844
  447TMC3     H 6716   3.941   3.679  10.883  0.3737 -0.7807 -1.2459
  447TMC3    H1 6717   4.261   3.634  11.149  3.0982  1.4812 -0.5683
  447TMC3    H2 6718   4.344   3.771  10.754 -1.4158 -2.9003 -1.1174
  447TMC3    C7 6719   4.454   3.721  10.975 -0.3742  0.5321  0.4222
  447TMC3    C8 6720   4.087   3.793  10.676 -0.1548  0.1767  0.4361
  447TMC3    O1 6721   4.527   3.733  10.878  0.7604  0.3956 -0.3472
  447TMC3    O2 6722   3.996   3.733  10.620  0.2764 -0.1064  0.4131
  448TMC3    C1 6723   1.455   2.317  17.671  0.0479  0.6351 -0.1664
  448TMC3    C2 6724   1.509   2.285  17.554  0.6175 -0.3745  0.0829
  448TMC3    C3 6725   1.648   2.303  17.538  0.3165  1.3084 -0.0863
  448TMC3    C4 6726   1.527   2.356   0.029  0.2471 -0.4545  0.3708
  448TMC3    C5 6727   1.666   2.362   0.011  0.4463  0.3187  0.0378
  448TMC3    C6 6728   1.727   2.352  17.636  0.5955 -0.8434  0.3643
  448TMC3     C 6729   1.310   2.300  17.690  0.0151  0.9325  0.2589
  448TMC3     O 6730   1.263   2.288   0.057  0.8029 -0.3210  0.1008
  448TMC3     H 6731   1.461   2.252  17.463  2.3244 -0.3552 -0.8205
  448TMC3    H1 6732   1.473   2.399   0.112  1.6054  1.0145  0.4829
  448TMC3    H2 6733   1.835   2.360  17.633  0.6478 -0.7179  2.4275
  448TMC3    C7 6734   1.751   2.409   0.116  0.2093 -0.5169 -0.2132
  448TMC3    C8 6735   1.718   2.281  17.413  1.1171 -0.7684  0.9475
  448TMC3    O1 6736   1.854   2.467   0.082  0.2508  0.3252 -0.6781
  448TMC3    O2 6737   1.836   2.265  17.420  0.1932 -0.2026  0.1325
  449MPD2     C 6738   3.535   1.636  14.125  0.0464 -0.1318 -0.8613
  449MPD2    C1 6739   3.412   1.620  14.058  0.0438  0.2098 -0.0718
  449MPD2    C2 6740   3.355   1.493  14.035 -0.0209  0.5122 -0.5265
  449MPD2    C3 6741   3.424   1.381  14.085 -0.2006  0.0747  0.0058
  449MPD2    C4 6742   3.535   1.396  14.163  0.2416  0.2127  0.0771
  449MPD2    C5 6743   3.595   1.523  14.175  0.3924 -0.0933 -0.2466
  449MPD2     H 6744   3.264   1.476  13.979 -0.6823 -0.9556  0.9954
  449MPD2    H1 6745   3.580   1.306  14.203 -1.9953 -1.2874 -0.8193
  449MPD2    H2 6746   3.589   1.729  14.135 -0.7979  0.2459  0.1705
  449MPD2    H3 6747   3.693   1.537  14.220  0.7287 -1.1628 -0.6368
  449MPD2     N 6748   3.362   1.255  14.063 -0.2530 -0.4229  0.4019
  449MPD2    H5 6749   3.286   1.257  13.996 -0.3531 -0.9735  0.4972
  449MPD2    N1 6750   3.337   1.728  14.006 -0.3652  0.0818 -0.2599
  449MPD2    H7 6751   3.243   1.698  13.983 -0.4216  0.4624 -0.5287
  450TMC3    C1 6752   3.235   1.939  13.973 -0.0322 -0.0422  0.4557
  450TMC3    C2 6753   3.261   1.997  13.852 -0.3243 -0.5386 -0.5448
  450TMC3    C3 6754   3.172   1.971  13.748 -0.6510  0.2563  0.3350
  450TMC3    C4 6755   3.125   1.868  13.998  0.2011  0.0512 -0.0790
  450TMC3    C5 6756   3.035   1.846  13.901 -0.1710  0.0466 -0.1174
  450TMC3    C6 6757   3.060   1.892  13.766  0.7286  0.8149 -0.4111
  450TMC3     C 6758   3.350   1.864  14.021 -0.3341  1.0633  0.8857
  450TMC3     O 6759   3.440   1.931  14.074  0.5430 -0.7960 -0.2465
  450TMC3     H 6760   3.337   2.075  13.853 -0.5316 -0.3362 -0.3903
  450TMC3    H1 6761   3.103   1.831  14.098 -1.0525  1.0822  0.0172
  450TMC3    H2 6762   2.989   1.873  13.686  0.8020  0.2900 -0.3532
  450TMC3    C7 6763   2.970   1.709  13.921 -0.2771 -0.0712  0.3273
  450TMC3    C8 6764   3.187   2.045  13.618  0.0042  0.0116 -0.2827
  450TMC3    O1 6765   3.025   1.637  14.003 -0.0899 -0.4624 -0.3406
  450TMC3    O2 6766   3.085   2.064  13.556  0.1425 -0.1183 -0.9137
  451MPD2     C 6767   4.598   0.099   0.801 -0.2461  0.2994 -0.1207
  451MPD2    C1 6768   4.599   0.197   0.697  0.3822 -0.1377  0.4092
  451MPD2    C2 6769   4.675   0.159   0.582 -0.3788 -0.5059  0.4335
  451MPD2    C3 6770   0.017   0.044   0.579 -0.0525 -0.5160  0.1947
  451MPD2    C4 6771   0.013   4.697   0.686 -0.2119  1.2597  0.3055
  451MPD2    C5 6772   4.671   4.724   0.791 -0.3332  0.1335 -0.1221
  451MPD2     H 6773   4.687   0.230   0.501 -0.9265  0.1847  0.9566
  451MPD2    H1 6774   0.057   4.598   0.684  1.1079  1.8366  0.6100
  451MPD2    H2 6775   4.552   0.127   0.894 -0.4497  2.7705 -0.9659
  451MPD2    H3 6776   4.661   4.655   0.874  0.1108  0.9703  0.6301
  451MPD2     N 6777   0.108   0.001   0.478 -0.3924 -0.5765  0.1971
  451MPD2    H5 6778   0.146   4.645   0.485  1.8290  0.3150  0.0378
  451MPD2    N1 6779   4.523   0.322   0.698  0.2407  0.2635  0.1779
  451MPD2    H7 6780   4.537   0.379   0.616  1.4057 -2.1013 -1.2672
  452TMC3    C1 6781   0.187   4.721   0.267 -0.3078  0.6900 -0.3886
  452TMC3    C2 6782   0.149   4.588   0.267 -0.8442 -0.1087  0.7722
  452TMC3    C3 6783   0.221   4.514   0.173  0.7625  0.2940 -0.3386
  452TMC3    C4 6784   0.290   0.038   0.191  0.0967  0.0304  0.3458
  452TMC3    C5 6785   0.351   4.701   0.102 -0.0806 -0.1036  0.5854
  452TMC3    C6 6786   0.316   4.568   0.090  0.5938 -0.4604 -0.9693
  452TMC3     C 6787   0.121   0.067   0.357 -0.0894 -0.8714  0.2214
  452TMC3     O 6788   0.104   0.184   0.325  0.6172 -0.4036  0.0078
  452TMC3     H 6789   0.056   4.555   0.311 -0.7024  0.1824  1.2884
  452TMC3    H1 6790   0.325   0.139   0.210  0.4935 -0.1690  0.6589
  452TMC3    H2 6791   0.360   4.503   0.014  1.6831  0.5940 -1.2307
  452TMC3    C7 6792   0.390   0.035  17.738  0.8641  0.4191  0.0961
  452TMC3    C8 6793   0.175   4.378   0.142 -0.4787  0.1609  0.1624
  452TMC3    O1 6794   0.422   0.149   0.003 -0.0487 -0.6002 -0.0466
  452TMC3    O2 6795   0.181   4.332   0.027 -0.0953 -0.1598 -0.0232
  453TMC3    C1 6796   1.226   2.264  11.834 -0.1077  0.0847  0.0792
  453TMC3    C2 6797   1.145   2.187  11.922 -0.8045  0.8853  0.2571
  453TMC3    C3 6798   1.009   2.195  11.909 -0.5655 -0.1085  0.2244
  453TMC3    C4 6799   1.173   2.356  11.745 -0.3498  0.7789  0.2405
  453TMC3    C5 6800   1.036   2.360  11.741  0.1445 -0.8458  0.2280
  453TMC3    C6 6801   0.952   2.283  11.821 -0.4874 -0.9886 -0.6926
  453TMC3     C 6802   1.374   2.271  11.857  0.2381  0.6054  0.4312
  453TMC3     O 6803   1.444   2.342  11.785 -0.4616 -0.4156  0.4413
  453TMC3     H 6804   1.190   2.120  11.994 -0.8235 -0.2978 -0.8246
  453TMC3    H1 6805   1.232   2.418  11.679  1.4049 -1.6861 -0.4942
  453TMC3    H2 6806   0.844   2.283  11.809 -0.4521 -2.3527 -1.0291
  453TMC3    C7 6807   0.965   2.460  11.655  0.1984 -0.3217 -0.2497
  453TMC3    C8 6808   0.929   2.129  12.009  0.8231 -0.1253  0.0359
  453TMC3    O1 6809   0.842   2.461  11.657  0.1015 -0.6132  0.2560
  453TMC3    O2 6810   0.827   2.187  12.037  0.7863 -0.0135  0.0154
  454MPD2     C 6811   0.165   1.701  15.968  0.1272 -0.4565 -0.6047
  454MPD2    C1 6812   0.096   1.820  15.942  0.4314 -0.1107 -0.5534
  454MPD2    C2 6813   0.110   1.927  16.031  0.7633  0.4795 -0.7753
  454MPD2    C3 6814   0.184   1.911  16.154 -0.3353  0.7338 -0.1567
  454MPD2    C4 6815   0.256   1.795  16.170 -0.5664 -0.0528 -0.5831
  454MPD2    C5 6816   0.254   1.701  16.074  0.0202 -0.0358  1.0080
  454MPD2     H 6817   0.050   2.013  16.005 -0.0941  0.3797  0.8755
  454MPD2    H1 6818   0.300   1.776  16.268  1.0660 -1.3671 -1.5774
  454MPD2    H2 6819   0.150   1.603  15.924 -1.9824 -0.3267 -0.1741
  454MPD2    H3 6820   0.315   1.612  16.085  1.0728  0.6192  0.3726
  454MPD2     N 6821   0.167   2.001  16.258 -0.1860  0.1524  0.1203
  454MPD2    H5 6822   0.224   1.995  16.342 -0.3689 -3.1531  0.0181
  454MPD2    N1 6823   4.732   1.821  15.840  0.1500 -0.3753  0.5186
  454MPD2    H7 6824   4.690   1.912  15.824  2.6369  0.5799 -0.6432
  455TMC3    C1 6825   4.668   2.070  16.217  0.0658  0.6162  0.2265
  455TMC3    C2 6826   4.589   2.179  16.203  0.0678  0.2692  0.7050
  455TMC3    C3 6827   4.465   2.175  16.154  0.4941  0.0940 -0.0916
  455TMC3    C4 6828   4.609   1.947  16.218  0.0722  0.2084 -0.0562
  455TMC3    C5 6829   4.478   1.945  16.159  0.6064 -0.8612  0.1385
  455TMC3    C6 6830   4.406   2.058  16.121 -0.3701 -0.7093 -0.0743
  455TMC3     C 6831   0.066   2.098  16.283  0.5995  0.0204  0.8804
  455TMC3     O 6832   0.072   2.195  16.358 -0.0506  0.5175 -0.1064
  455TMC3     H 6833   4.635   2.272  16.236  2.2262 -0.1559 -1.1835
  455TMC3    H1 6834   4.649   1.852  16.252  1.7168  1.6067  1.8795
  455TMC3    H2 6835   4.312   2.060  16.068  1.2322 -0.2138 -2.8557
  455TMC3    C7 6836   4.434   1.824  16.100 -0.7591  0.6346 -0.3342
  455TMC3    C8 6837   4.380   2.281  16.188  0.1930 -0.1844 -0.2191
  455TMC3    O1 6838   4.315   1.821  16.065  0.7115  0.8212  0.3744
  455TMC3    O2 6839   4.294   2.313  16.107 -0.6586 -0.0493  0.1624
  456MPD2     C 6840   2.398   1.629  16.280  0.7561 -0.1576 -0.6533
  456MPD2    C1 6841   2.501   1.612  16.366 -0.1611  0.4009 -0.2098
  456MPD2    C2 6842   2.498   1.652  16.499 -0.2962  0.6485 -0.3253
  456MPD2    C3 6843   2.381   1.702  16.550 -0.0863  0.3436 -0.1241
  456MPD2    C4 6844   2.271   1.712  16.463 -0.3264  0.6800 -0.1264
  456MPD2    C5 6845   2.282   1.676  16.333 -0.1640 -0.2594 -0.2559
  456MPD2     H 6846   2.588   1.657  16.560 -0.2470  0.7292 -0.4053
  456MPD2    H1 6847   2.167   1.720  16.493 -0.0229  0.7275  0.9121
  456MPD2    H2 6848   2.409   1.604  16.175  1.4055 -1.2192 -0.3352
  456MPD2    H3 6849   2.199   1.666  16.265  0.2127 -1.0709 -0.5996
  456MPD2     N 6850   2.367   1.733  16.688 -0.4507 -0.3987 -0.1291
  456MPD2    H5 6851   2.448   1.721  16.748 -1.2848 -0.8803  0.9044
  456MPD2    N1 6852   2.615   1.559  16.309  0.1268  0.4863  0.1199
  456MPD2    H7 6853   2.609   1.505  16.223 -0.4005  1.4821 -0.4709
  457TMC3    C1 6854   2.248   1.827  16.874  0.2412  0.3367 -1.4364
  457TMC3    C2 6855   2.150   1.916  16.906  0.5223 -0.4090  0.5839
  457TMC3    C3 6856   2.172   2.008  17.002  0.1335 -0.2782  0.0905
  457TMC3    C4 6857   2.361   1.813  16.957 -0.1083  0.5825  0.2727
  457TMC3    C5 6858   2.377   1.908  17.052 -0.4074  0.0239  0.0526
  457TMC3    C6 6859   2.290   2.009  17.071  0.6991  0.2024  0.5640
  457TMC3     C 6860   2.248   1.782  16.737  0.3273 -0.3888 -0.7675
  457TMC3     O 6861   2.149   1.825  16.679  0.3896  0.6988 -0.7849
  457TMC3     H 6862   2.055   1.918  16.854  2.2600  1.1428 -2.5277
  457TMC3    H1 6863   2.440   1.739  16.953  0.8106  1.5367  0.7431
  457TMC3    H2 6864   2.300   2.083  17.150  1.2909  0.9231 -0.1922
  457TMC3    C7 6865   2.445   1.869  17.176  0.6795  0.1729 -0.0199
  457TMC3    C8 6866   2.059   2.066  17.059 -0.8780  0.3723  0.6523
  457TMC3    O1 6867   2.443   1.755  17.214 -0.0572  0.4338  0.1121
  457TMC3    O2 6868   2.074   2.091  17.177  0.0310 -0.1466  0.7101
  458MPD2     C 6869   4.613   1.420  12.110  0.0826 -0.2402  0.2276
  458MPD2    C1 6870   4.735   1.486  12.143  0.4327 -0.0146  0.2395
  458MPD2    C2 6871   0.070   1.543  12.040 -0.3486 -0.6731  0.4215
  458MPD2    C3 6872   0.021   1.535  11.910  0.0545 -0.0737  0.5699
  458MPD2    C4 6873   4.636   1.483  11.880 -0.2806 -0.0641  0.3685
  458MPD2    C5 6874   4.566   1.423  11.979  0.0550 -0.5380 -0.4234
  458MPD2     H 6875   0.166   1.592  12.050  0.0442 -1.4973  0.7117
  458MPD2    H1 6876   4.589   1.488  11.782  1.6073 -0.9339 -0.5744
  458MPD2    H2 6877   4.558   1.377  12.194 -3.0633  1.6154 -0.8912
  458MPD2    H3 6878   4.477   1.364  11.956  0.0865 -1.1484  1.0492
  458MPD2     N 6879   0.093   1.612  11.819 -0.1404 -0.6898  0.1902
  458MPD2    H5 6880   0.174   1.653  11.865  0.4659 -2.7599  0.9663
  458MPD2    N1 6881   0.029   1.490  12.278  0.6158 -0.6942 -0.1982
  458MPD2    H7 6882   4.725   1.426  12.345 -1.4530  0.9063  0.0547
  459TMC3    C1 6883   0.164   1.549  12.463 -0.1655 -0.1852 -0.6984
  459TMC3    C2 6884   0.264   1.631  12.505  0.5676  0.2481 -0.0544
  459TMC3    C3 6885   0.351   1.592  12.602 -0.2886  0.0806 -0.0037
  459TMC3    C4 6886   0.154   1.421  12.515 -0.3595  0.5495 -0.2920
  459TMC3    C5 6887   0.241   1.383  12.618  0.3791  0.4904  0.1716
  459TMC3    C6 6888   0.342   1.465  12.656  0.9674  0.0715  0.3124
  459TMC3     C 6889   0.117   1.580  12.325 -0.3743 -0.2464  0.3685
  459TMC3     O 6890   0.151   1.686  12.275 -0.3203  0.4621  0.2659
  459TMC3     H 6891   0.270   1.729  12.458  0.5424  0.0276 -0.5143
  459TMC3    H1 6892   0.084   1.346  12.478 -0.9069  0.3746  1.0721
  459TMC3    H2 6893   0.413   1.428  12.730  0.6533 -0.3283  0.4139
  459TMC3    C7 6894   0.236   1.250  12.677  0.2875  0.5019  0.1918
  459TMC3    C8 6895   0.477   1.666  12.619 -0.2508 -0.4425  0.5587
  459TMC3    O1 6896   0.335   1.224  12.744  0.1688  0.1662  0.1348
  459TMC3    O2 6897   0.576   1.604  12.660  0.6456 -0.0942  0.2083
  460MPD2     C 6898   4.166   4.136  10.552 -1.4863 -0.2628 -0.0210
  460MPD2    C1 6899   4.114   4.005  10.538  0.3493 -0.0805  0.3143
  460MPD2    C2 6900   4.033   3.978  10.425  0.2010 -0.6794 -0.0586
  460MPD2    C3 6901   3.993   4.079  10.341 -0.4233  0.0021  0.5839
  460MPD2    C4 6902   4.057   4.201  10.357 -0.3398 -0.3718 -0.5991
  460MPD2    C5 6903   4.137   4.226  10.459 -0.9604  0.0697 -0.0215
  460MPD2     H 6904   3.980   3.884  10.418  1.8742 -1.6027 -0.4366
  460MPD2    H1 6905   4.044   4.285  10.289 -0.0897 -0.3672 -0.6411
  460MPD2    H2 6906   4.233   4.155  10.635 -0.5889 -1.5381 -0.4528
  460MPD2    H3 6907   4.175   4.327  10.468  0.4783 -0.3087 -1.9734
  460MPD2     N 6908   3.919   4.060  10.220 -0.2059  0.5183 -0.5094
  460MPD2    H5 6909   3.857   3.980  10.220  2.6901 -1.7304  0.8746
  460MPD2    N1 6910   4.140   3.913  10.650  0.2563 -0.0846 -0.2034
  460MPD2    H7 6911   4.203   3.947  10.723 -1.8353 -0.6083  1.8660
  461TMC3    C1 6912   3.810   4.106  10.013  0.3456  0.0383  0.3109
  461TMC3    C2 6913   3.821   3.979   9.956 -0.3302  0.1827  0.4117
  461TMC3    C3 6914   3.759   3.967   9.834 -0.1383 -0.0291 -0.6436
  461TMC3    C4 6915   3.728   4.206   9.957  0.5726 -0.0524 -0.1106
  461TMC3    C5 6916   3.667   4.181   9.843 -0.6440  0.5678  0.1750
  461TMC3    C6 6917   3.689   4.064   9.776 -0.0397 -0.5620 -0.2521
  461TMC3     C 6918   3.913   4.144  10.110 -0.5659 -0.3839 -0.1318
  461TMC3     O 6919   3.960   4.252  10.090  0.0560 -0.4819 -0.3915
  461TMC3     H 6920   3.896   3.907   9.985 -0.3955 -0.5184 -1.1795
  461TMC3    H1 6921   3.752   4.307   9.991 -0.0565 -0.0509  0.3328
  461TMC3    H2 6922   3.628   4.048   9.688  0.4134 -0.2560 -0.6185
  461TMC3    C7 6923   3.564   4.280   9.804  0.7310  0.2411  0.1561
  461TMC3    C8 6924   3.775   3.843   9.764  0.0583  0.7279 -0.1274
  461TMC3    O1 6925   3.538   4.302   9.685  0.6676 -0.0350  0.4810
  461TMC3    O2 6926   3.816   3.743   9.820  0.1579  0.6083 -0.0705
  462TMC3    C1 6927   4.077   4.671   0.165 -0.1692  0.3616  0.0015
  462TMC3    C2 6928   4.146   4.626   0.059  0.7586 -0.2038 -0.1566
  462TMC3    C3 6929   4.113   4.509   0.014  0.2860  0.4031  0.4433
  462TMC3    C4 6930   3.976   4.609   0.233 -0.4283  0.4525 -0.3521
  462TMC3    C5 6931   3.940   4.489   0.180 -0.2835  0.3593 -0.0467
  462TMC3    C6 6932   4.018   4.431   0.083  0.2749 -0.1135  0.9213
  462TMC3     C 6933   4.104   0.068   0.219 -0.0687  0.1901  0.3564
  462TMC3     O 6934   4.055   0.107   0.324 -0.8268  0.0810  0.1967
  462TMC3     H 6935   4.220   4.676  17.745  1.9697  0.0221  1.4685
  462TMC3    H1 6936   3.905   4.668   0.289 -1.2769 -1.1614  0.2801
  462TMC3    H2 6937   3.996   4.330   0.049  0.9910 -0.9296  2.8768
  462TMC3    C7 6938   3.856   4.401   0.254  0.0422  0.2711 -0.0931
  462TMC3    C8 6939   4.190   4.446  17.653 -0.2099 -0.3248 -0.1142
  462TMC3    O1 6940   3.824   4.296   0.193  0.7034 -0.2037  0.3699
  462TMC3    O2 6941   4.299   4.491  17.621 -0.3956 -0.3111 -0.0962
  463MPD2     C 6942   0.661   3.165   1.442 -0.6464 -0.9469  0.0376
  463MPD2    C1 6943   0.525   3.177   1.477  0.8326 -0.0992 -0.3452
  463MPD2    C2 6944   0.467   3.304   1.483  0.0776 -0.3881  0.4882
  463MPD2    C3 6945   0.538   3.414   1.447  0.1938  0.1736 -0.2891
  463MPD2    C4 6946   0.671   3.399   1.403  0.5448  0.4305 -0.4239
  463MPD2    C5 6947   0.729   3.275   1.396 -0.1843 -0.1964 -0.1957
  463MPD2     H 6948   0.363   3.310   1.511 -0.6059  0.6846 -2.3008
  463MPD2    H1 6949   0.739   3.479   1.374  1.2154  0.7367  2.0152
  463MPD2    H2 6950   0.710   3.069   1.434 -0.3709 -1.0475  2.9538
  463MPD2    H3 6951   0.836   3.283   1.380  0.1772 -1.1520  1.6532
  463MPD2     N 6952   0.490   3.547   1.456 -0.1333  0.5658  0.2706
  463MPD2    H5 6953   0.539   3.615   1.399  0.4647 -1.5313 -1.6803
  463MPD2    N1 6954   0.446   3.067   1.522 -1.2028 -0.0936  0.2554
  463MPD2    H7 6955   0.350   3.091   1.545 -1.2626 -0.4479  0.3877
  464TMC3    C1 6956   0.360   2.862   1.575 -0.1392  0.5108  0.5574
  464TMC3    C2 6957   0.266   2.923   1.647  0.9222  0.0186 -0.2972
  464TMC3    C3 6958   0.139   2.869   1.654 -0.1398 -0.2293  0.1003
  464TMC3    C4 6959   0.338   2.740   1.522  0.0680 -0.1065 -0.6764
  464TMC3    C5 6960   0.215   2.682   1.537 -0.4723 -0.6830  0.9066
  464TMC3    C6 6961   0.111   2.753   1.595  0.5678  0.7830  0.3343
  464TMC3     C 6962   0.478   2.935   1.535 -0.0252  0.3138 -0.2053
  464TMC3     O 6963   0.578   2.877   1.507  0.3398  0.0896  0.8960
  464TMC3     H 6964   0.293   3.008   1.709  1.6782  0.1394 -0.7905
  464TMC3    H1 6965   0.418   2.676   1.487  1.0283  1.6044 -1.6419
  464TMC3    H2 6966   0.019   2.698   1.614  0.3515  1.1427  0.3154
  464TMC3    C7 6967   0.194   2.563   1.458 -0.0954  0.1230 -0.0762
  464TMC3    C8 6968   0.035   2.968   1.662 -0.8639 -0.1545  0.0306
  464TMC3    O1 6969   0.284   2.481   1.455 -0.2033  0.1069 -0.0641
  464TMC3    O2 6970   0.067   3.085   1.647  0.3685 -0.2446 -0.0393
  465MPD2     C 6971   1.445   1.673  16.017 -0.0849 -0.2516  0.7051
  465MPD2    C1 6972   1.388   1.666  16.149 -0.4193 -1.3080  0.4846
  465MPD2    C2 6973   1.321   1.781  16.194  0.2699  0.2567 -1.0339
  465MPD2    C3 6974   1.287   1.892  16.117  0.3009  0.3135  0.1281
  465MPD2    C4 6975   1.326   1.885  15.984 -0.2454 -0.0482 -0.1917
  465MPD2    C5 6976   1.399   1.778  15.937 -0.0671 -0.5453 -0.2661
  465MPD2     H 6977   1.264   1.765  16.284 -0.8811  0.4253 -1.7237
  465MPD2    H1 6978   1.300   1.959  15.910  0.6726 -0.5471 -1.0126
  465MPD2    H2 6979   1.498   1.592  15.968 -0.6091  0.2998 -0.7692
  465MPD2    H3 6980   1.430   1.782  15.833  0.0386 -1.2272 -0.2594
  465MPD2     N 6981   1.215   1.995  16.183 -1.0753 -0.1242  0.3812
  465MPD2    H5 6982   1.184   1.979  16.278  1.2968  0.9335  1.3409
  465MPD2    N1 6983   1.422   1.563  16.242  0.8072  0.4373 -1.1007
  465MPD2    H7 6984   1.383   1.573  16.335  2.8641 -1.6673 -0.0307
  466TMC3    C1 6985   0.914   2.226  16.346  0.5412  0.2527  0.5988
  466TMC3    C2 6986   0.894   2.349  16.288 -0.4885 -0.8555  0.2227
  466TMC3    C3 6987   0.980   2.393  16.190  0.2920  0.1208 -0.5849
  466TMC3    C4 6988   1.018   2.152  16.309  0.2914 -0.1430  0.4206
  466TMC3    C5 6989   1.085   2.190  16.190 -0.8263  1.2915  0.0009
  466TMC3    C6 6990   1.068   2.311  16.128 -0.0292  0.0307  0.1725
  466TMC3     C 6991   0.849   2.202  16.472  0.4565  0.2051 -0.0080
  466TMC3     O 6992   0.793   2.299  16.525  0.4205  0.8993 -0.5582
  466TMC3     H 6993   0.812   2.411  16.324  0.2034 -0.3473  0.9229
  466TMC3    H1 6994   1.061   2.073  16.370  1.1092 -1.3851 -1.7807
  466TMC3    H2 6995   1.122   2.342  16.039  0.6808  2.5361  1.5025
  466TMC3    C7 6996   1.176   2.108  16.120  0.3236  0.2421 -0.4760
  466TMC3    C8 6997   0.950   2.520  16.129 -0.7869 -0.1436  0.3414
  466TMC3    O1 6998   1.207   2.140  16.006 -0.0168 -0.0534  0.7298
  466TMC3    O2 6999   0.957   2.528  16.007 -0.0684 -0.5299  0.1382
  467TMC3    C1 7000   2.152   1.160  13.358 -0.2402 -0.6017  0.2365
  467TMC3    C2 7001   2.236   1.244  13.285 -0.0320 -0.4806 -0.3876
  467TMC3    C3 7002   2.189   1.312  13.183 -0.1428  0.3812  0.1202
  467TMC3    C4 7003   2.028   1.130  13.313  0.2745 -0.0095 -0.6468
  467TMC3    C5 7004   1.994   1.187  13.193 -0.1818  0.5989  0.0748
  467TMC3    C6 7005   2.068   1.283  13.129  0.2680 -0.1611 -0.7328
  467TMC3     C 7006   2.196   1.097  13.487 -0.9368  0.8558 -0.1555
  467TMC3     O 7007   2.125   1.016  13.545 -0.5890  0.2043 -0.3362
  467TMC3     H 7008   2.338   1.276  13.307 -0.5493  0.3458  0.8312
  467TMC3    H1 7009   1.964   1.069  13.376 -0.0269  0.7694 -0.2036
  467TMC3    H2 7010   2.027   1.343  13.049 -2.2005  0.1058  0.7189
  467TMC3    C7 7011   1.851   1.209  13.167 -0.3447  0.3298  0.2483
  467TMC3    C8 7012   2.285   1.395  13.118 -0.3248 -0.3223  0.0687
  467TMC3    O1 7013   1.816   1.287  13.079  0.1549  0.2416  0.4145
  467TMC3    O2 7014   2.271   1.515  13.142 -0.6317  0.2174  0.5319
  468MPD2     C 7015   0.982   3.465  10.595  0.8899 -0.3398  0.1504
  468MPD2    C1 7016   1.096   3.448  10.674 -0.9018 -0.0040 -0.8242
  468MPD2    C2 7017   1.131   3.320  10.706 -0.1108 -0.2661  0.8886
  468MPD2    C3 7018   1.065   3.206  10.678  0.3242 -0.2195  0.0413
  468MPD2    C4 7019   0.945   3.215  10.610  0.2782  0.0344  0.0991
  468MPD2    C5 7020   0.915   3.350  10.568 -0.3329  0.6250  0.3930
  468MPD2     H 7021   1.220   3.297  10.765  0.0060  0.0135  0.8182
  468MPD2    H1 7022   0.880   3.132  10.585  0.1512 -0.0720  0.7808
  468MPD2    H2 7023   0.937   3.560  10.569  2.0733  0.0649 -0.3780
  468MPD2    H3 7024   0.819   3.372  10.521  0.1791  3.5453  0.6845
  468MPD2     N 7025   1.117   3.083  10.726  0.1562 -0.5913  0.2394
  468MPD2    H5 7026   1.204   3.087  10.778  1.5984 -1.3572 -2.1139
  468MPD2    N1 7027   1.171   3.549  10.726 -0.3458 -0.3089 -0.3463
  468MPD2    H7 7028   1.250   3.511  10.777  1.0492  1.0992 -1.4520
  469TMC3    C1 7029   1.244   3.756  10.782 -0.5384 -0.5051 -0.4410
  469TMC3    C2 7030   1.369   3.700  10.787 -1.2003  0.2621 -0.1266
  469TMC3    C3 7031   1.455   3.730  10.890  0.2518 -0.2237  0.4151
  469TMC3    C4 7032   1.204   3.848  10.873 -0.2929 -0.0083  0.0691
  469TMC3    C5 7033   1.293   3.868  10.978  0.0359  0.6910  0.4252
  469TMC3    C6 7034   1.421   3.817  10.993  0.6177  0.1505  0.1382
  469TMC3     C 7035   1.142   3.679  10.717  0.9908 -0.8049  0.6090
  469TMC3     O 7036   1.042   3.737  10.668 -0.1050 -0.3152 -0.2117
  469TMC3     H 7037   1.396   3.628  10.711 -2.6329 -0.2720 -0.1416
  469TMC3    H1 7038   1.110   3.901  10.860 -1.0324 -1.0947  0.9176
  469TMC3    H2 7039   1.473   3.815  11.088 -1.4356 -1.6083  1.2074
  469TMC3    C7 7040   1.234   3.941  11.091  0.2436 -0.8683  0.2132
  469TMC3    C8 7041   1.581   3.670  10.879 -0.0846  0.4527 -0.2599
  469TMC3    O1 7042   1.115   3.974  11.089  0.1541 -0.0082 -0.0551
  469TMC3    O2 7043   1.609   3.607  10.778  0.6008  0.1900  0.2200
  470TMC3    C1 7044   3.157   4.234   0.248  0.4138 -0.7945 -0.4038
  470TMC3    C2 7045   3.249   4.316   0.307 -0.0162 -0.2959  0.1107
  470TMC3    C3 7046   3.217   4.385   0.418  0.4195  0.5233  1.0217
  470TMC3    C4 7047   3.020   4.241   0.286 -0.8984 -0.4131  0.6726
  470TMC3    C5 7048   2.995   4.303   0.400 -0.6436  0.4238  0.5454
  470TMC3    C6 7049   3.092   4.382   0.463  0.1466 -0.8483  0.8170
  470TMC3     C 7050   3.197   4.149   0.142  1.2601  0.5800  1.0314
  470TMC3     O 7051   3.306   4.102   0.149 -0.0469  0.2167 -0.2336
  470TMC3     H 7052   3.355   4.293   0.297  0.2500 -0.0009  2.3193
  470TMC3    H1 7053   2.954   4.162   0.251  0.4440 -1.1231 -0.3132
  470TMC3    H2 7054   3.070   4.455   0.540 -1.9132 -1.8409  1.1799
  470TMC3    C7 7055   2.854   4.318   0.424 -1.1897  0.5976 -0.4172
  470TMC3    C8 7056   3.293   4.506   0.451  0.6346  0.0259  0.7691
  470TMC3    O1 7057   2.778   4.280   0.334  0.6546 -0.0714 -0.3106
  470TMC3    O2 7058   3.244   4.573   0.544 -0.1203  0.3609  0.5334
  471MPD2     C 7059   3.757   1.238  15.796 -0.4356  0.4693 -0.2062
  471MPD2    C1 7060   3.761   1.112  15.849 -0.7768 -0.3156 -0.5832
  471MPD2    C2 7061   3.838   1.095  15.962  0.0938 -0.5628  0.3468
  471MPD2    C3 7062   3.911   1.195  16.016 -0.7151  0.6654  0.5579
  471MPD2    C4 7063   3.902   1.322  15.957 -0.4116 -0.0502  0.2805
  471MPD2    C5 7064   3.834   1.340  15.839 -0.1266  0.2740  0.3720
  471MPD2     H 7065   3.843   0.993  15.998 -0.0835 -0.8874 -0.5459
  471MPD2    H1 7066   3.945   1.406  16.011  0.9063  1.3180 -2.8584
  471MPD2    H2 7067   3.704   1.259  15.704  1.6104 -0.1907 -1.5168
  471MPD2    H3 7068   3.821   1.436  15.790  2.8647  0.9961  1.0372
  471MPD2     N 7069   3.989   1.172  16.130 -0.5848 -0.8503 -0.2504
  471MPD2    H5 7070   4.049   1.248  16.162 -1.5049  0.3155 -1.3023
  471MPD2    N1 7071   3.679   1.001  15.809  0.4061 -0.1759  0.3666
  471MPD2    H7 7072   3.686   0.916  15.863 -1.9980 -1.1342 -0.8401
  472TMC3    C1 7073   3.497   0.890  15.707 -0.2568  0.2452 -0.9153
  472TMC3    C2 7074   3.375   0.903  15.654 -0.6239 -0.4422 -0.9547
  472TMC3    C3 7075   3.288   0.802  15.688  0.9934 -0.4048  0.2712
  472TMC3    C4 7076   3.536   0.774  15.772 -0.0384  0.4489 -0.7954
  472TMC3    C5 7077   3.445   0.682  15.795 -0.1555  0.1521  0.5199
  472TMC3    C6 7078   3.313   0.690  15.757  0.3486  0.5455  0.2253
  472TMC3     C 7079   3.580   1.011  15.715  0.0971 -0.4578 -1.1094
  472TMC3     O 7080   3.538   1.107  15.648 -0.5193  0.2415 -0.0495
  472TMC3     H 7081   3.347   0.992  15.599 -3.3743  0.0202  1.2301
  472TMC3    H1 7082   3.637   0.749  15.801 -1.2749 -2.7759  0.7549
  472TMC3    H2 7083   3.241   0.610  15.774  0.8774 -0.0176 -0.1804
  472TMC3    C7 7084   3.480   0.598  15.910 -0.2575 -0.3020 -0.1968
  472TMC3    C8 7085   3.147   0.851  15.694 -0.0941 -0.0047 -0.2739
  472TMC3    O1 7086   3.560   0.640  15.991  0.4399  0.3853 -0.2819
  472TMC3    O2 7087   3.112   0.939  15.613  0.3323  0.4256  0.0106
  473MPD2     C 7088   4.083   2.885  13.723 -0.1219 -0.1676  0.0303
  473MPD2    C1 7089   3.999   2.976  13.682 -0.4010 -0.1661 -0.5593
  473MPD2    C2 7090   3.998   3.098  13.745 -0.0887  0.2237  0.8868
  473MPD2    C3 7091   4.062   3.113  13.869 -0.2741 -0.0129 -0.8429
  473MPD2    C4 7092   4.138   3.006  13.920  0.2710 -0.1105  0.2536
  473MPD2    C5 7093   4.147   2.892  13.844 -0.0003 -0.8384 -0.4035
  473MPD2     H 7094   3.932   3.179  13.716  0.4395  0.5104  0.4592
  473MPD2    H1 7095   4.191   3.007  14.015  0.3172  1.7432  0.2216
  473MPD2    H2 7096   4.094   2.791  13.670 -1.9948 -0.1892 -0.3215
  473MPD2    H3 7097   4.200   2.804  13.880 -1.1944 -2.4366 -2.5866
  473MPD2     N 7098   4.041   3.225  13.952 -0.2697 -0.5450 -0.0138
  473MPD2    H5 7099   4.095   3.224  14.038  1.4974 -0.4714 -1.1454
  473MPD2    N1 7100   3.914   2.959  13.566 -0.0229 -0.2555  0.5116
  473MPD2    H7 7101   3.852   3.038  13.549 -0.0358 -0.2152  0.7478
  474TMC3    C1 7102   3.962   3.435  14.034 -1.1177 -0.0281  0.5061
  474TMC3    C2 7103   3.850   3.508  14.063  0.1082 -0.2388 -0.1285
  474TMC3    C3 7104   3.876   3.640  14.097  0.6878 -0.0420  0.0146
  474TMC3    C4 7105   4.092   3.478  14.074 -0.1482  0.7405 -0.1228
  474TMC3    C5 7106   4.102   3.600  14.133 -0.3964  0.2381 -1.4945
  474TMC3    C6 7107   3.997   3.689  14.132 -0.5282 -0.4920 -0.0149
  474TMC3     C 7108   3.951   3.327  13.937 -1.0511  0.5823 -0.0753
  474TMC3     O 7109   3.869   3.347  13.853  0.2283 -0.0750  0.7801
  474TMC3     H 7110   3.750   3.480  14.032  0.5694 -1.1894 -0.7642
  474TMC3    H1 7111   4.182   3.417  14.070  0.4197  1.1563  5.9864
  474TMC3    H2 7112   4.006   3.790  14.169 -1.1138 -0.4704  0.0630
  474TMC3    C7 7113   4.229   3.648  14.193 -0.3457 -0.7232 -0.1663
  474TMC3    C8 7114   3.760   3.712  14.146 -0.0071 -0.7030 -0.0012
  474TMC3    O1 7115   4.335   3.616  14.144  0.0242 -0.2023 -0.4093
  474TMC3    O2 7116   3.697   3.659  14.235  0.0333  0.3026  0.1068
  475MPD2     C 7117   2.819   1.296  10.370  0.9183  0.3257 -0.3818
  475MPD2    C1 7118   2.835   1.433  10.397  0.4287 -0.2711 -0.0660
  475MPD2    C2 7119   2.733   1.491  10.471 -0.5566  0.2406 -0.2080
  475MPD2    C3 7120   2.618   1.426  10.516 -0.6719  0.0586  0.2694
  475MPD2    C4 7121   2.605   1.295  10.491 -0.7057 -0.5187 -0.3139
  475MPD2    C5 7122   2.700   1.234  10.414 -0.2064  0.2065  0.0423
  475MPD2     H 7123   2.735   1.600  10.477 -1.5334  0.2194  0.5016
  475MPD2    H1 7124   2.524   1.238  10.536  0.3249 -0.2680  1.8411
  475MPD2    H2 7125   2.881   1.245  10.298  1.1118 -0.4484  0.3367
  475MPD2    H3 7126   2.693   1.134  10.373 -1.7249  0.8104 -1.1755
  475MPD2     N 7127   2.540   1.502  10.605  0.5854 -0.1190 -0.8563
  475MPD2    H5 7128   2.578   1.590  10.638 -3.2494  1.4564 -0.7009
  475MPD2    N1 7129   2.948   1.507  10.354  0.2930 -0.0551  0.7615
  475MPD2    H7 7130   2.952   1.601  10.392  0.4660 -0.6017  2.1155
  476TMC3    C1 7131   3.159   1.559  10.276  0.0457 -0.1295 -0.1385
  476TMC3    C2 7132   3.124   1.676  10.220 -0.2413  0.1563  0.0294
  476TMC3    C3 7133   3.145   1.794  10.287  0.9258 -0.9334 -0.3704
  476TMC3    C4 7134   3.200   1.558  10.408 -0.1089  0.2536  0.6368
  476TMC3    C5 7135   3.207   1.679  10.477 -0.0012 -0.3865  0.1920
  476TMC3    C6 7136   3.188   1.795  10.416 -0.0556 -0.2376 -0.5366
  476TMC3     C 7137   3.052   1.469  10.266  0.2178  0.0601 -0.1770
  476TMC3     O 7138   3.077   1.359  10.217  0.2269 -0.0172  0.6290
  476TMC3     H 7139   3.097   1.685  10.116 -0.7107  1.6408  0.2751
  476TMC3    H1 7140   3.192   1.461  10.456  0.4277 -0.5622 -0.9326
  476TMC3    H2 7141   3.210   1.885  10.472  2.0999 -0.1277 -1.5836
  476TMC3    C7 7142   3.134   1.667  10.603  0.6339  0.1579  0.4430
  476TMC3    C8 7143   3.024   1.875  10.289 -0.5011 -0.2725  0.4946
  476TMC3    O1 7144   3.147   1.566  10.668  0.7075 -0.1383  0.6198
  476TMC3    O2 7145   3.022   1.951  10.385 -0.3176  0.6142 -0.2217
  477MPD2     C 7146   0.162   2.938  11.626 -0.6470  0.3273 -0.1690
  477MPD2    C1 7147   0.044   2.936  11.698 -0.2417 -0.5015  0.3117
  477MPD2    C2 7148   0.041   2.883  11.827  0.1678 -0.2745  0.0149
  477MPD2    C3 7149   0.164   2.849  11.882 -0.5116 -0.2596  0.3001
  477MPD2    C4 7150   0.283   2.850  11.806  0.2716 -0.1365  0.0329
  477MPD2    C5 7151   0.277   2.890  11.679 -0.4621 -0.3255  0.3882
  477MPD2     H 7152   4.682   2.867  11.872 -1.0168 -1.8017 -3.0285
  477MPD2    H1 7153   0.377   2.816  11.847 -0.1308  1.0047  1.8551
  477MPD2    H2 7154   0.157   2.965  11.522  1.9722  2.6932  0.3263
  477MPD2    H3 7155   0.367   2.895  11.619 -0.0969 -1.2714  0.8550
  477MPD2     N 7156   0.189   2.814  12.022 -0.2938 -0.1176 -0.6838
  477MPD2    H5 7157   0.281   2.782  12.050 -0.7014 -2.2169 -1.7387
  477MPD2    N1 7158   4.668   2.974  11.628  0.2670  0.0997  0.1283
  477MPD2    H7 7159   4.681   2.982  11.528 -0.8581  0.2461 -0.0085
  478TMC3    C1 7160   4.430   3.027  11.583  0.6975  0.1913  0.1035
  478TMC3    C2 7161   4.301   3.026  11.630  0.3737  0.1894 -0.3381
  478TMC3    C3 7162   4.219   3.100  11.553 -0.0297 -0.3307 -0.6806
  478TMC3    C4 7163   4.471   3.080  11.464 -0.6545 -0.0688 -0.3092
  478TMC3    C5 7164   4.376   3.136  11.383 -0.5567  0.4202 -0.0030
  478TMC3    C6 7165   4.251   3.155  11.427 -0.1481 -1.3484 -0.1922
  478TMC3     C 7166   4.534   2.978  11.676 -0.3177  0.5281 -0.7103
  478TMC3     O 7167   4.483   2.958  11.787 -0.3366  0.6355 -0.1928
  478TMC3     H 7168   4.262   2.984  11.722 -1.6078  0.4949 -1.0413
  478TMC3    H1 7169   4.577   3.091  11.446 -0.5629  0.5356  0.5911
  478TMC3    H2 7170   4.177   3.217  11.377 -0.6607 -0.4250  1.7032
  478TMC3    C7 7171   4.417   3.182  11.252  0.4685  0.3017  0.2619
  478TMC3    C8 7172   4.110   3.160  11.626 -0.5227 -0.3337  0.1513
  478TMC3    O1 7173   4.537   3.195  11.231 -0.3289  0.0411  0.0930
  478TMC3    O2 7174   4.037   3.093  11.699  0.1728  0.3228  1.2272
  479MPD2     C 7175   2.883   0.163  15.234 -0.0886 -0.7900  0.1171
  479MPD2    C1 7176   2.877   0.144  15.366 -0.1788 -0.1720  0.1727
  479MPD2    C2 7177   2.965   0.208  15.452 -0.0914  0.8369 -0.5046
  479MPD2    C3 7178   3.064   0.299  15.409  0.2180  0.3034 -0.0292
  479MPD2    C4 7179   3.066   0.314  15.273 -0.6753 -0.8137 -0.2660
  479MPD2    C5 7180   2.981   0.246  15.190 -0.1033  0.1259 -0.1188
  479MPD2     H 7181   2.955   0.189  15.559 -3.0566 -0.1577 -0.9643
  479MPD2    H1 7182   3.145   0.374  15.231  0.1185 -2.1673 -0.7059
  479MPD2    H2 7183   2.815   0.110  15.167  0.2748  0.5408 -1.2950
  479MPD2    H3 7184   2.999   0.253  15.084  3.0213  0.5644  0.4472
  479MPD2     N 7185   3.157   0.369  15.486  0.2788  0.0230  0.1020
  479MPD2    H5 7186   3.243   0.384  15.434  0.7061 -0.8365  0.5538
  479MPD2    N1 7187   2.793   0.044  15.411  0.1854 -0.2025 -0.2165
  479MPD2    H7 7188   2.723   0.015  15.343 -0.7724 -0.2993  0.8181
  480TMC3    C1 7189   2.852   0.314  15.795  0.1597  0.1987 -0.7571
  480TMC3    C2 7190   2.756   0.370  15.718  0.0059 -0.2265  0.1566
  480TMC3    C3 7191   2.816   0.460  15.634  0.0496  0.2766  1.1554
  480TMC3    C4 7192   2.987   0.334  15.782  0.0700 -0.2505  0.6513
  480TMC3    C5 7193   3.029   0.419  15.683  0.1278 -0.5573 -0.2221
  480TMC3    C6 7194   2.944   0.496  15.616 -0.1540 -0.4258  0.0971
  480TMC3     C 7195   2.823   0.187  15.870  0.9083 -0.3298  0.1340
  480TMC3     O 7196   2.910   0.137  15.940 -0.2207  0.6955  0.1624
  480TMC3     H 7197   2.648   0.369  15.733  0.0255  0.4211  0.3179
  480TMC3    H1 7198   3.065   0.276  15.830  1.8405  1.5057 -0.1063
  480TMC3    H2 7199   2.976   0.573  15.547 -0.1575 -0.3424  0.1891
  480TMC3    C7 7200   3.158   0.384  15.626 -0.0546 -0.0387  0.8845
  480TMC3    C8 7201   2.725   0.505  15.530 -0.1687 -0.3184  1.1232
  480TMC3    O1 7202   3.249   0.384  15.706 -0.0256 -0.9477  0.6567
  480TMC3    O2 7203   2.604   0.491  15.536  0.2243 -0.2075  0.0437
  481MPD2     C 7204   0.047   0.280  13.636 -0.4338 -0.0360 -0.0563
  481MPD2    C1 7205   4.730   0.161  13.670  0.1044 -0.8500  0.1010
  481MPD2    C2 7206   0.005   0.122  13.798  0.2738 -1.1430  0.1335
  481MPD2    C3 7207   0.071   0.207  13.893  0.3296  0.0559 -0.2023
  481MPD2    C4 7208   0.116   0.331  13.857 -0.0321  0.0239 -0.7246
  481MPD2    C5 7209   0.102   0.364  13.724  0.6605  1.0297  1.1359
  481MPD2     H 7210   4.701   0.031  13.840  1.5826 -2.0081 -0.4394
  481MPD2    H1 7211   0.169   0.397  13.924 -1.5372  2.1701 -1.6540
  481MPD2    H2 7212   0.039   0.318  13.535  0.8321  1.3302  0.3518
  481MPD2    H3 7213   0.141   0.456  13.682 -1.7303  0.6776 -1.8120
  481MPD2     N 7214   0.088   0.176  14.032 -0.2480 -0.3898  0.5183
  481MPD2    H5 7215   0.143   0.240  14.088 -0.4017 -1.9911  2.4879
  481MPD2    N1 7216   4.678   0.083  13.567 -0.5875 -0.0143  0.0940
  481MPD2    H7 7217   4.665   0.134  13.480  3.2951 -1.2502 -1.2230
  482TMC3    C1 7218   4.535   4.654  13.473  0.1738  0.9340 -0.3904
  482TMC3    C2 7219   4.496   4.529  13.449 -0.0708  0.0045  0.9685
  482TMC3    C3 7220   4.390   4.504  13.362 -0.2736 -0.7352 -0.1093
  482TMC3    C4 7221   4.467   0.017  13.419 -0.1794 -0.4252  0.5047
  482TMC3    C5 7222   4.362   4.726  13.331 -0.1766 -0.1375 -0.7237
  482TMC3    C6 7223   4.316   4.600  13.306  0.3448  0.3135 -0.1209
  482TMC3     C 7224   4.626   4.693  13.580  0.4642  0.2787 -0.8756
  482TMC3     O 7225   4.654   4.616  13.672  0.0217  0.1803  0.6955
  482TMC3     H 7226   4.544   4.447  13.502 -0.2703 -0.3913  0.5292
  482TMC3    H1 7227   4.490   0.121  13.439  1.8840 -0.9089  0.6081
  482TMC3    H2 7228   4.239   4.587  13.231 -1.2150 -0.4041  1.5916
  482TMC3    C7 7229   4.293   0.103  13.267  0.4175  0.0817 -0.6865
  482TMC3    C8 7230   4.350   4.366  13.343  0.7656  0.4029 -0.2023
  482TMC3    O1 7231   4.197   0.074  13.205 -0.3049  0.1443  0.0194
  482TMC3    O2 7232   4.445   4.290  13.335  0.1193 -0.1474 -0.3689
  483TMC3    C1 7233   2.603   2.972   0.703  0.6182  1.1442 -0.3509
  483TMC3    C2 7234   2.624   3.085   0.636  0.2880  0.5348  0.7038
  483TMC3    C3 7235   2.752   3.112   0.599 -0.3500 -0.5191 -0.0861
  483TMC3    C4 7236   2.696   2.902   0.769  0.6460 -0.2330  0.9203
  483TMC3    C5 7237   2.818   2.949   0.753  0.3159 -0.3575 -1.0114
  483TMC3    C6 7238   2.859   3.050   0.665  0.5897 -0.4681  0.0529
  483TMC3     C 7239   2.472   2.964   0.771 -0.4006  0.4559  0.3761
  483TMC3     O 7240   2.401   3.061   0.789 -0.5870  0.2073  0.1673
  483TMC3     H 7241   2.540   3.132   0.586  0.7706 -1.0289 -1.5885
  483TMC3    H1 7242   2.680   2.810   0.825  1.8271 -0.3890  0.9906
  483TMC3    H2 7243   2.959   3.086   0.647  0.3276 -0.4088 -1.2746
  483TMC3    C7 7244   2.930   2.895   0.835  0.8945  0.5254 -0.5789
  483TMC3    C8 7245   2.768   3.242   0.539 -0.5101 -0.0041 -0.4088
  483TMC3    O1 7246   2.914   2.787   0.892 -0.2353 -0.3312  0.2171
  483TMC3    O2 7247   2.870   3.257   0.476 -0.0029 -0.2403 -0.2274
  484MPD2     C 7248   0.530   2.025  12.557 -0.1526  0.3105 -0.4025
  484MPD2    C1 7249   0.571   1.898  12.588  0.7789  0.6212 -0.5124
  484MPD2    C2 7250   0.705   1.863  12.571 -1.4782  0.2582 -0.2165
  484MPD2    C3 7251   0.794   1.962  12.539  0.1644 -0.0942  0.4202
  484MPD2    C4 7252   0.747   2.089  12.511 -0.1359  1.0641  0.4254
  484MPD2    C5 7253   0.618   2.122  12.526  0.3052  0.0801 -0.0237
  484MPD2     H 7254   0.729   1.759  12.585 -1.6888  0.0957 -1.0248
  484MPD2    H1 7255   0.818   2.163  12.473 -0.4329  0.6965 -0.8501
  484MPD2    H2 7256   0.425   2.051  12.565  0.2422  1.4547  1.0501
  484MPD2    H3 7257   0.593   2.224  12.497 -0.2936 -0.0354  0.0957
  484MPD2     N 7258   0.931   1.929  12.522  0.7044 -0.3691  0.2789
  484MPD2    H5 7259   0.991   2.003  12.486  3.5383 -2.9917 -0.4269
  484MPD2    N1 7260   0.465   1.807  12.602 -0.3213  0.5639 -0.3687
  484MPD2    H7 7261   0.369   1.841  12.602 -0.3521  0.4510  2.4340
  485TMC3    C1 7262   1.113   1.775  12.486 -0.4046 -0.6714 -0.5629
  485TMC3    C2 7263   1.201   1.686  12.543 -0.0119 -1.0344  0.2002
  485TMC3    C3 7264   1.341   1.701  12.535  0.5779 -1.1702 -0.2851
  485TMC3    C4 7265   1.170   1.863  12.389 -0.4241  0.5911 -0.6001
  485TMC3    C5 7266   1.302   1.864  12.360 -0.3410 -0.2610  0.7562
  485TMC3    C6 7267   1.388   1.788  12.436  0.2850 -0.1720  0.1493
  485TMC3     C 7268   0.986   1.806  12.554  0.4275  0.5741  0.1591
  485TMC3     O 7269   0.950   1.722  12.636  0.0676  0.7495  0.0300
  485TMC3     H 7270   1.155   1.601  12.594 -1.8998 -0.5385 -0.6662
  485TMC3    H1 7271   1.105   1.914  12.319  2.3372  0.8900 -2.9353
  485TMC3    H2 7272   1.494   1.808  12.424  0.1958  0.0577 -0.2434
  485TMC3    C7 7273   1.324   1.863  12.219 -0.2846  0.5201 -0.2651
  485TMC3    C8 7274   1.413   1.578  12.506  0.6789  0.1863  0.1746
  485TMC3    O1 7275   1.277   1.957  12.156  0.1122 -0.2680  0.2655
  485TMC3    O2 7276   1.426   1.556  12.387  0.2290  0.2142 -0.5677
  486MPD2     C 7277   2.772   0.533  12.878  0.0815 -0.4282  0.1407
  486MPD2    C1 7278   2.847   0.459  12.788 -1.0243 -0.2736  0.3920
  486MPD2    C2 7279   2.872   0.517  12.663  0.7261 -0.0643  0.3459
  486MPD2    C3 7280   2.808   0.640  12.638  0.1756 -0.4146 -0.1093
  486MPD2    C4 7281   2.738   0.705  12.737 -0.1740  0.2506 -0.7847
  486MPD2    C5 7282   2.713   0.655  12.856  0.7127 -0.3740  0.3233
  486MPD2     H 7283   2.938   0.476  12.588 -0.5564 -0.6479 -0.4620
  486MPD2    H1 7284   2.705   0.806  12.718  0.8487  0.5485 -0.9824
  486MPD2    H2 7285   2.755   0.491  12.976 -1.5698 -1.9822 -0.8204
  486MPD2    H3 7286   2.672   0.713  12.938 -2.0038 -0.2602 -1.1108
  486MPD2     N 7287   2.825   0.700  12.510  0.0384  0.3967 -0.1488
  486MPD2    H5 7288   2.904   0.667  12.455 -1.2630 -1.2548 -1.0540
  486MPD2    N1 7289   2.901   0.334  12.836 -0.1870  0.0605 -0.1260
  486MPD2    H7 7290   2.907   0.317  12.936 -1.6119  2.0086  0.2926
  487TMC3    C1 7291   3.001   0.121  12.831 -1.1719  0.2675  0.0214
  487TMC3    C2 7292   3.046   0.021  12.755  0.3132  0.2066  0.4142
  487TMC3    C3 7293   3.124   4.663  12.815  0.5568  0.0228 -0.2850
  487TMC3    C4 7294   3.021   0.137  12.968  0.4322  0.0073 -0.2138
  487TMC3    C5 7295   3.101   0.041  13.023  0.1556  0.3352 -0.2371
  487TMC3    C6 7296   3.166   4.691  12.942  0.2379 -0.0598 -0.3289
  487TMC3     C 7297   2.951   0.238  12.754 -0.5866 -0.6266  0.6681
  487TMC3     O 7298   2.923   0.226  12.636  0.6078  0.5812  0.2142
  487TMC3     H 7299   3.033   0.004  12.648  0.8169  0.0175  0.3808
  487TMC3    H1 7300   2.969   0.211  13.027 -0.6787 -0.5157 -0.5321
  487TMC3    H2 7301   3.206   4.609  13.001  0.8117  0.2829 -0.2353
  487TMC3    C7 7302   3.042   4.724  13.141  0.1588 -0.8342 -0.3606
  487TMC3    C8 7303   3.058   4.532  12.803 -0.0483  0.1719  0.4835
  487TMC3    O1 7304   3.119   4.664  13.211  0.0593 -0.8588 -0.4515
  487TMC3    O2 7305   2.954   4.533  12.739 -0.6714 -0.0623 -0.3359
  488MPD2     C 7306   3.479   2.064  16.294 -0.4581  0.6268  0.4467
  488MPD2    C1 7307   3.470   2.168  16.381 -0.4660  0.5865  0.2148
  488MPD2    C2 7308   3.410   2.145  16.502  0.1184  0.5017 -0.2111
  488MPD2    C3 7309   3.351   2.025  16.530  0.3701  0.4385  0.1174
  488MPD2    C4 7310   3.353   1.924  16.439  0.6680 -0.9101 -0.2902
  488MPD2    C5 7311   3.427   1.942  16.324  0.1651 -0.0306 -0.5638
  488MPD2     H 7312   3.412   2.224  16.576 -2.5110 -2.6083  3.2124
  488MPD2    H1 7313   3.307   1.828  16.461  3.1826 -1.3488  3.0456
  488MPD2    H2 7314   3.523   2.069  16.195 -1.8085 -1.7883 -0.2894
  488MPD2    H3 7315   3.433   1.870  16.243  0.9205  1.9722 -2.2889
  488MPD2     N 7316   3.305   1.996  16.663 -0.2852  0.0002  0.0675
  488MPD2    H5 7317   3.346   2.040  16.744  1.8325 -0.1957 -0.8929
  488MPD2    N1 7318   3.528   2.302  16.367  0.2850 -0.0765  0.2923
  488MPD2    H7 7319   3.509   2.374  16.435 -1.3548  1.0990 -1.3940
  489TMC3    C1 7320   3.197   1.872  16.839 -0.1971  0.2395  0.2188
  489TMC3    C2 7321   3.264   1.944  16.931  0.3891 -0.0320  0.2830
  489TMC3    C3 7322   3.227   1.928  17.065 -0.1633 -0.5073 -0.0343
  489TMC3    C4 7323   3.109   1.778  16.871 -0.0475 -0.2019 -0.3358
  489TMC3    C5 7324   3.073   1.759  17.005  0.5621  0.9436  0.4516
  489TMC3    C6 7325   3.126   1.846  17.101  0.6370 -0.5928  0.5672
  489TMC3     C 7326   3.210   1.898  16.694  0.0687  0.3994  0.3020
  489TMC3     O 7327   3.150   1.828  16.609 -0.2013  0.6370 -0.3385
  489TMC3     H 7328   3.348   2.001  16.893 -0.0121  0.1940 -0.2688
  489TMC3    H1 7329   3.068   1.715  16.793  0.6774 -0.7400 -0.2846
  489TMC3    H2 7330   3.115   1.825  17.207  1.2705  0.4113  0.8260
  489TMC3    C7 7331   2.956   1.676  17.027 -0.3642  0.1459 -0.9669
  489TMC3    C8 7332   3.266   2.045  17.145 -0.0817 -0.4740 -0.0328
  489TMC3    O1 7333   2.895   1.631  16.925 -0.0893  0.0327 -0.0144
  489TMC3    O2 7334   3.369   2.096  17.110 -0.1164 -0.5216  0.1529
  490MPD2     C 7335   4.185   1.562  16.957  0.2307 -0.4369  0.0014
  490MPD2    C1 7336   4.161   1.529  17.088  0.3371  0.1823 -0.4035
  490MPD2    C2 7337   4.216   1.609  17.187 -0.7414  0.4278  0.3600
  490MPD2    C3 7338   4.267   1.733  17.156 -0.3211 -0.1083 -0.0533
  490MPD2    C4 7339   4.274   1.772  17.026  0.5346 -1.2586  0.3405
  490MPD2    C5 7340   4.243   1.684  16.935  0.7062 -0.1501  0.2578
  490MPD2     H 7341   4.201   1.574  17.289  0.7931  0.0822  0.4545
  490MPD2    H1 7342   4.315   1.867  16.995  0.2605 -2.2184 -2.9587
  490MPD2    H2 7343   4.158   1.502  16.870  1.5433 -0.8268 -0.1328
  490MPD2    H3 7344   4.262   1.717  16.834  2.8823 -2.1155  0.0215
  490MPD2     N 7345   4.322   1.825  17.253 -0.0046 -0.0840 -0.4280
  490MPD2    H5 7346   4.358   1.911  17.213  0.4610 -0.5119 -0.9252
  490MPD2    N1 7347   4.107   1.403  17.122  0.0170 -0.6994 -0.1774
  490MPD2    H7 7348   4.122   1.372  17.217  0.0267 -0.0843  0.0248
  491TMC3    C1 7349   3.990   1.197  17.085  1.0250 -0.3604  0.3616
  491TMC3    C2 7350   4.018   1.160  17.213 -0.6004  0.2230  0.0302
  491TMC3    C3 7351   3.952   1.043  17.265 -0.7862  0.3710  0.3446
  491TMC3    C4 7352   3.895   1.125  17.020  0.8617 -0.2336  0.4666
  491TMC3    C5 7353   3.830   1.020  17.075 -0.0621  0.2183  0.3353
  491TMC3    C6 7354   3.842   0.987  17.208  0.0907 -0.4516 -0.1397
  491TMC3     C 7355   4.033   1.324  17.034  0.4469  0.5282  0.3948
  491TMC3     O 7356   3.985   1.358  16.924 -0.1607  0.0242  0.2757
  491TMC3     H 7357   4.063   1.216  17.294 -0.5814  0.1962  0.0380
  491TMC3    H1 7358   3.869   1.159  16.920 -0.7498 -0.5337  0.7926
  491TMC3    H2 7359   3.794   0.901  17.253  0.3067  0.5833  2.0428
  491TMC3    C7 7360   3.718   0.975  17.003 -0.5361 -0.3407 -0.0188
  491TMC3    C8 7361   3.937   1.033  17.410  0.1061  0.4338  0.3336
  491TMC3    O1 7362   3.724   0.975  16.881 -0.0457  0.1694 -0.5332
  491TMC3    O2 7363   3.832   1.072  17.449 -0.6137 -0.4142  0.4843
  492MPD2     C 7364   0.016   2.126  11.211 -0.0188 -0.3809 -0.4733
  492MPD2    C1 7365   4.725   1.991  11.190  0.2922  0.1484 -0.2469
  492MPD2    C2 7366   4.666   1.920  11.288 -0.1376 -0.2670 -0.0295
  492MPD2    C3 7367   4.632   1.967  11.418 -0.2873  0.4162 -0.1055
  492MPD2    C4 7368   4.668   2.097  11.440  0.5837  0.7827 -1.0326
  492MPD2    C5 7369   4.729   2.171  11.343 -0.4912  0.2927 -0.0074
  492MPD2     H 7370   4.660   1.812  11.279  0.4921 -0.4774  1.9935
  492MPD2    H1 7371   4.650   2.157  11.529  0.6665  0.4763 -0.8089
  492MPD2    H2 7372   0.059   2.188  11.133 -1.8650  0.7161 -0.6154
  492MPD2    H3 7373   0.013   2.275  11.367  1.0996 -0.4205  1.7222
  492MPD2     N 7374   4.556   1.894  11.515  0.7880  0.1597 -0.3990
  492MPD2    H5 7375   4.543   1.942  11.603 -1.8720  0.9911 -1.2468
  492MPD2    N1 7376   0.010   1.930  11.064 -0.1525  0.4505  0.1284
  492MPD2    H7 7377   4.719   1.833  11.063  1.8639 -0.1430 -1.0468
  493TMC3    C1 7378   0.001   1.909  10.827  0.0067 -0.7030 -0.0802
  493TMC3    C2 7379   0.001   1.991  10.709  0.4855 -0.0708  0.3812
  493TMC3    C3 7380   4.665   1.948  10.596  0.2112  0.8419 -0.1384
  493TMC3    C4 7381   4.658   1.797  10.842  0.5347  0.0170  0.0724
  493TMC3    C5 7382   4.600   1.761  10.722  0.1147 -0.1891 -0.2901
  493TMC3    C6 7383   4.598   1.831  10.604 -0.4210  0.0947  0.7351
  493TMC3     C 7384   0.045   1.986  10.943  0.0064 -0.0247 -0.2016
  493TMC3     O 7385   0.076   2.104  10.922 -0.0750 -0.0872 -0.1355
  493TMC3     H 7386   0.055   2.085  10.710 -0.1973  0.2862  2.1901
  493TMC3    H1 7387   4.665   1.730  10.927 -0.3792  0.5411  0.5610
  493TMC3    H2 7388   4.553   1.791  10.514  0.9865  0.2015 -0.0014
  493TMC3    C7 7389   4.516   1.644  10.716 -0.0838  0.1933 -0.4289
  493TMC3    C8 7390   4.674   1.996  10.459 -0.3193  0.3581  0.6928
  493TMC3    O1 7391   4.454   1.618  10.614 -0.3849  0.4007  0.2246
  493TMC3    O2 7392   4.672   1.922  10.361  0.2024 -0.0902 -0.1253
  494TMC3    C1 7393   4.295   3.367   0.294 -0.2123  0.0796  0.0003
  494TMC3    C2 7394   4.266   3.236   0.274 -0.5300  0.4109  0.4163
  494TMC3    C3 7395   4.326   3.169   0.172  0.2930  0.1239  0.3850
  494TMC3    C4 7396   4.393   3.430   0.223 -0.4308 -0.0048 -0.5248
  494TMC3    C5 7397   4.446   3.365   0.121 -0.5853  0.5855 -0.0973
  494TMC3    C6 7398   4.413   3.236   0.090  0.1089  0.9232 -0.1930
  494TMC3     C 7399   4.270   3.416   0.429  0.5024 -0.3254 -0.0415
  494TMC3     O 7400   4.357   3.486   0.488  0.0066  0.3415  0.1512
  494TMC3     H 7401   4.180   3.188   0.319  0.5343 -1.8144  0.0933
  494TMC3    H1 7402   4.419   3.530   0.254 -0.2528 -0.8806  2.1560
  494TMC3    H2 7403   4.473   3.191   0.012  0.4301 -0.4813  0.8773
  494TMC3    C7 7404   4.553   3.425   0.040  0.3031  0.1272 -0.3237
  494TMC3    C8 7405   4.323   3.018   0.158 -0.0296  0.7074  0.1537
  494TMC3    O1 7406   4.586   3.370  17.682 -0.4462 -0.0350  0.2600
  494TMC3    O2 7407   4.384   2.957   0.068  0.1317 -0.4601  0.3737
  495TMC3    C1 7408   3.203   0.551  14.654 -0.2801  1.0268 -0.5107
  495TMC3    C2 7409   3.127   0.585  14.546 -0.2846 -0.3393 -0.1878
  495TMC3    C3 7410   2.990   0.602  14.560  0.1733 -0.3223 -0.6359
  495TMC3    C4 7411   3.143   0.529  14.773 -0.3530 -0.0489  0.1527
  495TMC3    C5 7412   3.011   0.558  14.796  0.0766 -0.5151 -0.3530
  495TMC3    C6 7413   2.927   0.589  14.686  0.1908 -0.2758 -0.2325
  495TMC3     C 7414   3.266   0.426  14.630  0.3622  0.3130 -0.1272
  495TMC3     O 7415   3.249   0.332  14.709 -0.8371  0.0928  0.1835
  495TMC3     H 7416   3.177   0.634  14.464 -0.3112  3.7029  2.1748
  495TMC3    H1 7417   3.204   0.495  14.856  1.9976  0.7043 -1.2650
  495TMC3    H2 7418   2.821   0.606  14.695  0.0630 -1.7421  1.0046
  495TMC3    C7 7419   2.969   0.562  14.932 -0.6129 -0.2622 -0.2950
  495TMC3    C8 7420   2.920   0.527  14.460  0.8592  0.1356  0.1181
  495TMC3    O1 7421   3.052   0.542  15.020 -0.1625 -0.0289 -0.0779
  495TMC3    O2 7422   2.808   0.494  14.495 -0.8875 -0.2782  0.0064
  496MPD2     C 7423   0.407   0.775  14.658  0.2094 -0.0708  0.2528
  496MPD2    C1 7424   0.483   0.762  14.773 -0.5070  0.9065  0.8189
  496MPD2    C2 7425   0.418   0.709  14.881  0.1751 -0.1375 -0.4496
  496MPD2    C3 7426   0.278   0.700  14.890  0.8135  0.3910 -0.6484
  496MPD2    C4 7427   0.208   0.744  14.788 -0.2285  0.3278  0.6380
  496MPD2    C5 7428   0.269   0.767  14.669 -0.2610  0.3338  0.5367
  496MPD2     H 7429   0.479   0.693  14.969 -1.7439  0.8795  1.0877
  496MPD2    H1 7430   0.099   0.742  14.787 -0.2604  2.7477 -0.6791
  496MPD2    H2 7431   0.452   0.787  14.560  0.2949 -1.4727  0.1089
  496MPD2    H3 7432   0.211   0.778  14.578 -1.9748 -0.4613  1.5301
  496MPD2     N 7433   0.212   0.657  15.010 -0.7245  0.1735  0.3589
  496MPD2    H5 7434   0.112   0.677  15.016 -0.7219  0.6503 -1.3431
  496MPD2    N1 7435   0.624   0.768  14.782 -0.0128  0.4064 -0.0944
  496MPD2    H7 7436   0.659   0.734  14.871 -1.0441  2.2352  1.0147
  497TMC3    C1 7437   0.186   0.612  15.230 -1.0932 -0.5576  0.7382
  497TMC3    C2 7438   0.147   0.742  15.260  0.0591  0.0915 -0.5918
  497TMC3    C3 7439   0.148   0.788  15.386  0.3993 -0.0772 -0.3063
  497TMC3    C4 7440   0.219   0.533  15.342 -0.3257 -0.5028  0.5366
  497TMC3    C5 7441   0.219   0.589  15.472 -0.5658 -0.4446 -0.1726
  497TMC3    C6 7442   0.200   0.723  15.493  0.3818 -0.1847  0.5705
  497TMC3     C 7443   0.272   0.590  15.114  0.2285  0.1824 -0.1268
  497TMC3     O 7444   0.379   0.539  15.128 -0.2493 -0.2405  0.2230
  497TMC3     H 7445   0.124   0.805  15.175  2.2320 -1.8388 -2.6158
  497TMC3    H1 7446   0.252   0.429  15.338 -1.0897 -0.7812  1.5106
  497TMC3    H2 7447   0.181   0.768  15.589  1.0919  1.2539  0.0386
  497TMC3    C7 7448   0.251   0.517  15.587 -0.0355  1.0173  0.2376
  497TMC3    C8 7449   0.149   0.932  15.408 -0.9879 -0.4701  0.6300
  497TMC3    O1 7450   0.210   0.402  15.602 -0.0373  0.7479  0.2236
  497TMC3    O2 7451   0.204   0.973  15.505 -0.1572  0.0911 -0.3023
  498MPD2     C 7452   2.148   1.712  10.049  0.7493 -0.3614  0.1581
  498MPD2    C1 7453   2.065   1.795  10.125 -0.5256 -0.6814  0.7774
  498MPD2    C2 7454   1.939   1.754  10.162 -0.1259 -0.3812  0.2014
  498MPD2    C3 7455   1.908   1.618  10.132 -0.1434  0.2104 -0.2888
  498MPD2    C4 7456   1.989   1.533  10.059 -0.0249  0.7032  0.2415
  498MPD2    C5 7457   2.110   1.587  10.023 -0.9234  0.0500  0.2357
  498MPD2     H 7458   1.872   1.816  10.220  0.6857  0.3719  0.3498
  498MPD2    H1 7459   1.964   1.434  10.023  0.0690 -0.1132  2.4093
  498MPD2    H2 7460   2.237   1.746   9.998  1.5603  0.8843  2.4112
  498MPD2    H3 7461   2.178   1.538   9.954  0.0743  1.1403  0.4584
  498MPD2     N 7462   1.779   1.579  10.159 -0.6112  0.4383 -0.6140
  498MPD2    H5 7463   1.710   1.652  10.174 -1.6250 -0.9367  1.4205
  498MPD2    N1 7464   2.099   1.931  10.164 -0.1240 -0.2670 -0.0676
  498MPD2    H7 7465   2.026   1.979  10.216 -0.5118 -0.2994 -0.5794
  499TMC3    C1 7466   2.227   2.135  10.189 -0.0126  0.7360  0.1173
  499TMC3    C2 7467   2.352   2.180  10.211 -0.2116 -0.0443 -0.4232
  499TMC3    C3 7468   2.369   2.318  10.197 -0.5523  1.4421  0.0758
  499TMC3    C4 7469   2.119   2.213  10.166 -0.0123  0.1581  0.5002
  499TMC3    C5 7470   2.142   2.349  10.152  0.1023  0.2689  0.2636
  499TMC3    C6 7471   2.263   2.406  10.176 -0.2182  0.0159  0.9024
  499TMC3     C 7472   2.223   1.996  10.146  0.1984  0.5554 -1.1386
  499TMC3     O 7473   2.331   1.948  10.113 -0.1855 -0.3539  0.0630
  499TMC3     H 7474   2.420   2.103  10.246 -2.6548 -2.4719 -1.0106
  499TMC3    H1 7475   2.024   2.164  10.149 -1.0170  1.9654  0.8279
  499TMC3    H2 7476   2.280   2.513  10.173  2.2185 -0.4419 -1.2769
  499TMC3    C7 7477   2.032   2.443  10.146  0.3334  0.0252  0.4641
  499TMC3    C8 7478   2.501   2.374  10.218 -0.7070 -0.8645 -0.0510
  499TMC3    O1 7479   2.063   2.546  10.084 -0.4389 -0.1026 -0.7204
  499TMC3    O2 7480   2.513   2.494  10.230 -0.2314  0.1380  0.0719
  500MPD2     C 7481   3.236   2.517  10.547 -0.0298 -1.0263 -0.5300
  500MPD2    C1 7482   3.275   2.608  10.452 -0.3995  0.0504 -0.1189
  500MPD2    C2 7483   3.183   2.710  10.422 -0.0995  0.3793 -0.4940
  500MPD2    C3 7484   3.057   2.717  10.478 -0.8933 -0.4159  0.0863
  500MPD2    C4 7485   3.024   2.633  10.579 -0.7612  0.0370 -0.1111
  500MPD2    C5 7486   3.107   2.535  10.605 -0.2963  0.0889  0.3289
  500MPD2     H 7487   3.202   2.767  10.332  0.4111  0.7475 -0.1471
  500MPD2    H1 7488   2.931   2.641  10.635 -0.6928 -1.5164  0.2225
  500MPD2    H2 7489   3.288   2.429  10.582  0.5370  0.6738  2.8644
  500MPD2    H3 7490   3.072   2.462  10.677  1.8707  0.0786  1.3574
  500MPD2     N 7491   2.953   2.802  10.434  0.1231 -0.2621 -0.1738
  500MPD2    H5 7492   2.860   2.775  10.463  0.8021  0.3291  2.5441
  500MPD2    N1 7493   3.401   2.603  10.383 -0.5985 -0.2338 -0.3566
  500MPD2    H7 7494   3.419   2.682  10.322 -1.1608  0.3606  0.2497
  501TMC3    C1 7495   3.623   2.535  10.334  0.4790  0.8904  0.0331
  501TMC3    C2 7496   3.624   2.627  10.233 -0.6463 -0.1182  0.4376
  501TMC3    C3 7497   3.749   2.684  10.194 -0.3787  0.8831 -0.3462
  501TMC3    C4 7498   3.733   2.505  10.397 -0.6730  0.2373 -0.3957
  501TMC3    C5 7499   3.852   2.572  10.369  0.6232 -0.0877 -0.2829
  501TMC3    C6 7500   3.864   2.664  10.265 -0.0188 -0.0244  0.3192
  501TMC3     C 7501   3.498   2.505  10.403  0.1364 -0.2993  0.2575
  501TMC3     O 7502   3.496   2.412  10.482 -0.0897 -0.0834 -0.1824
  501TMC3     H 7503   3.535   2.629  10.172 -0.4106 -0.3167  0.0875
  501TMC3    H1 7504   3.720   2.439  10.483 -0.8750 -2.8252 -2.7805
  501TMC3    H2 7505   3.959   2.705  10.233 -0.2340  2.2017  2.4946
  501TMC3    C7 7506   3.969   2.517  10.431 -0.5396  0.8384  0.0497
  501TMC3    C8 7507   3.721   2.808  10.130 -0.3775 -0.2581 -0.0179
  501TMC3    O1 7508   3.949   2.430  10.512 -0.0131 -0.2920 -0.2098
  501TMC3    O2 7509   3.613   2.824  10.075  0.2866  0.5312 -0.1366
  502TMC3    C1 7510   2.994   1.411  14.750 -0.1127  0.6749 -0.3356
  502TMC3    C2 7511   2.998   1.544  14.771  0.1829  0.3582  0.7075
  502TMC3    C3 7512   2.881   1.612  14.786 -0.1759 -0.8623 -0.1038
  502TMC3    C4 7513   2.882   1.342  14.768  0.1199 -0.4058 -0.2621
  502TMC3    C5 7514   2.768   1.407  14.774  0.2328 -0.2271 -1.0323
  502TMC3    C6 7515   2.759   1.544  14.788  0.1341  0.6623 -0.1273
  502TMC3     C 7516   3.105   1.362  14.831  0.4849  0.2077 -0.4048
  502TMC3     O 7517   3.218   1.393  14.796  0.0435 -0.5562 -0.3409
  502TMC3     H 7518   3.092   1.593  14.751  0.7209 -0.4204  1.3158
  502TMC3    H1 7519   2.872   1.234  14.760 -0.8481 -0.4012  1.0049
  502TMC3    H2 7520   2.663   1.592  14.805 -0.4042  0.3475 -2.3059
  502TMC3    C7 7521   2.670   1.333  14.851  0.8611 -0.3794  0.0695
  502TMC3    C8 7522   2.887   1.750  14.832 -0.0423  0.4131 -0.1363
  502TMC3    O1 7523   2.702   1.243  14.928  0.0267 -0.3572  0.0965
  502TMC3    O2 7524   2.996   1.778  14.883 -0.4317 -0.0772  0.6421
  503MPD2     C 7525   0.313   2.388  16.670  0.0345  0.7350 -0.2855
  503MPD2    C1 7526   0.301   2.406  16.808  0.0646  0.4319  0.0801
  503MPD2    C2 7527   0.320   2.297  16.892 -0.1125  0.2656 -0.5328
  503MPD2    C3 7528   0.351   2.178  16.840 -0.2777  0.3480  0.7204
  503MPD2    C4 7529   0.360   2.157  16.704  0.8799 -0.7757  0.4525
  503MPD2    C5 7530   0.350   2.263  16.620  0.1395  0.2796 -0.2925
  503MPD2     H 7531   0.310   2.309  17.000 -1.0263  1.0938 -0.7129
  503MPD2    H1 7532   0.380   2.060  16.660 -0.5292 -0.8232 -0.1009
  503MPD2    H2 7533   0.294   2.464  16.595  1.3750 -0.6170 -1.9881
  503MPD2    H3 7534   0.367   2.255  16.513  0.6896  0.8944 -0.2549
  503MPD2     N 7535   0.371   2.075  16.931 -0.2752 -0.4936  0.3986
  503MPD2    H5 7536   0.357   2.097  17.029  0.1118 -0.4562  0.4429
  503MPD2    N1 7537   0.280   2.537  16.873  0.2714  0.3897 -0.1523
  503MPD2    H7 7538   0.271   2.551  16.973 -0.8533  0.2486 -0.2404
  504TMC3    C1 7539   0.444   1.863  17.008  0.1212  0.0597 -0.0104
  504TMC3    C2 7540   0.395   1.887  17.135  0.1559  0.5755 -0.8196
  504TMC3    C3 7541   0.432   1.797  17.230 -0.5492 -0.5718 -0.4084
  504TMC3    C4 7542   0.523   1.756  16.969  0.9296 -0.6949  0.3828
  504TMC3    C5 7543   0.572   1.679  17.079  0.9879 -0.1210  0.2716
  504TMC3    C6 7544   0.523   1.695  17.209 -0.2079 -0.7414  0.3446
  504TMC3     C 7545   0.399   1.941  16.897  0.7033 -0.2431  0.1000
  504TMC3     O 7546   0.417   1.889  16.790 -0.3764  0.6371 -0.4051
  504TMC3     H 7547   0.309   1.947  17.163  0.7458  2.6529 -3.4146
  504TMC3    H1 7548   0.566   1.751  16.869  0.0022 -2.9244  0.1011
  504TMC3    H2 7549   0.531   1.612  17.277 -2.7539 -1.7362 -0.5711
  504TMC3    C7 7550   0.698   1.609  17.052  0.5826 -0.4347 -0.4054
  504TMC3    C8 7551   0.349   1.791  17.348  0.3861 -0.1903  0.0935
  504TMC3    O1 7552   0.740   1.612  16.938  0.0593 -0.4257  0.1590
  504TMC3    O2 7553   0.236   1.835  17.337  0.1491  0.3197 -0.1188
  505MPD2     C 7554   0.765   1.610  10.897  0.1391 -0.1326 -0.1563
  505MPD2    C1 7555   0.688   1.497  10.875  0.1961 -0.3140 -0.2741
  505MPD2    C2 7556   0.733   1.373  10.929  0.0161 -0.0555  0.1062
  505MPD2    C3 7557   0.848   1.359  11.010  0.5300  1.0705  0.3707
  505MPD2    C4 7558   0.920   1.481  11.028  0.0577 -0.7855  0.3828
  505MPD2    C5 7559   0.880   1.597  10.968 -0.2231 -0.1450 -0.0547
  505MPD2     H 7560   0.675   1.282  10.912  1.2367 -0.4914 -1.7655
  505MPD2    H1 7561   1.020   1.480  11.068  0.1592  1.8615  0.1931
  505MPD2    H2 7562   0.734   1.702  10.849 -0.8341 -0.6695 -0.5764
  505MPD2    H3 7563   0.942   1.685  10.982  1.3824 -1.1177 -1.0907
  505MPD2     N 7564   0.881   1.227  11.034 -0.2602  0.4599  0.0925
  505MPD2    H5 7565   0.813   1.158  11.004  0.6364 -1.0417  1.4973
  505MPD2    N1 7566   0.578   1.512  10.787 -0.6603 -0.1750 -0.0678
  505MPD2    H7 7567   0.563   1.598  10.735 -2.7452 -0.5085 -0.0474
  506TMC3    C1 7568   0.443   1.410  10.622 -0.5794  0.0169 -0.1180
  506TMC3    C2 7569   0.509   1.479  10.523 -0.4911 -0.0821  0.3327
  506TMC3    C3 7570   0.490   1.439  10.396  0.6248 -0.5570  0.5205
  506TMC3    C4 7571   0.363   1.308  10.593  0.3853  0.1938 -0.0713
  506TMC3    C5 7572   0.345   1.266  10.466  0.1426  0.2055  0.4648
  506TMC3    C6 7573   0.406   1.335  10.364 -0.6415  0.8182  0.7649
  506TMC3     C 7574   0.505   1.401  10.751 -0.6608  0.1478  0.2932
  506TMC3     O 7575   0.472   1.310  10.829  0.1108 -0.3915  0.4901
  506TMC3     H 7576   0.584   1.555  10.537  0.0884 -0.7832  1.0651
  506TMC3    H1 7577   0.294   1.270  10.668 -1.0197  1.4638 -0.7222
  506TMC3    H2 7578   0.414   1.302  10.261 -0.5558 -0.5998  1.2275
  506TMC3    C7 7579   0.370   1.123  10.458 -0.3967 -0.0468  0.2669
  506TMC3    C8 7580   0.568   1.488  10.288 -0.5798  0.1038 -0.2466
  506TMC3    O1 7581   0.346   1.066  10.356 -0.2100  0.5206  0.2115
  506TMC3    O2 7582   0.511   1.504  10.181 -0.1439 -0.4436  0.0558
  507TMC3    C1 7583   1.763   2.079  14.589  0.0116 -1.2966 -0.4009
  507TMC3    C2 7584   1.799   2.070  14.455  0.2652  0.4507 -0.0355
  507TMC3    C3 7585   1.897   2.160  14.413  0.1515 -0.8656  0.1333
  507TMC3    C4 7586   1.800   2.178  14.678  0.0919 -0.1253 -0.0959
  507TMC3    C5 7587   1.884   2.268  14.625 -0.4355 -1.2202  0.0612
  507TMC3    C6 7588   1.943   2.253  14.498 -0.3652  0.2830  0.7352
  507TMC3     C 7589   1.636   2.015  14.623  0.6381  0.5827 -0.7749
  507TMC3     O 7590   1.625   1.983  14.744  0.6266 -0.1916 -0.2787
  507TMC3     H 7591   1.750   1.996  14.393  3.1786 -1.3232 -0.2616
  507TMC3    H1 7592   1.752   2.204  14.771  0.3891 -0.3301  0.1164
  507TMC3    H2 7593   2.000   2.336  14.457  0.0102 -0.5495 -0.4381
  507TMC3    C7 7594   1.837   2.402  14.649  0.3464  0.0273  0.3653
  507TMC3    C8 7595   1.853   2.212  14.282 -0.6410 -0.0737 -0.4171
  507TMC3    O1 7596   1.798   2.422  14.763 -0.3740 -0.2174  0.9496
  507TMC3    O2 7597   1.850   2.333  14.275 -0.2463  0.1910 -0.5597
  508MPD2     C 7598   2.121   3.660  15.817  0.1486 -0.0230  0.0078
  508MPD2    C1 7599   2.061   3.765  15.884  0.0432 -0.1820  0.5650
  508MPD2    C2 7600   2.035   3.876  15.808  0.4097 -0.0772  0.4748
  508MPD2    C3 7601   2.051   3.885  15.669  0.1105 -0.3774 -0.1523
  508MPD2    C4 7602   2.104   3.772  15.603 -0.0071 -0.0823  0.5359
  508MPD2    C5 7603   2.137   3.660  15.678 -0.7388 -0.6203  0.1108
  508MPD2     H 7604   1.977   3.953  15.859 -1.6863 -0.2824 -1.5847
  508MPD2    H1 7605   2.114   3.772  15.495  0.2261  1.4269  0.5565
  508MPD2    H2 7606   2.149   3.570  15.870  0.7006  0.5129  0.6396
  508MPD2    H3 7607   2.180   3.574  15.628  0.5593  1.0988 -1.7158
  508MPD2     N 7608   2.022   4.012  15.607 -0.1391 -0.1041 -0.2673
  508MPD2    H5 7609   1.993   4.084  15.672  2.2619  1.7303 -1.2271
  508MPD2    N1 7610   2.039   3.739  16.022 -0.1420 -0.4350  0.3911
  508MPD2    H7 7611   2.095   3.664  16.061 -0.2022 -1.8137 -2.1653
  509TMC3    C1 7612   2.009   4.319  15.259  0.3439 -0.6381 -0.4141
  509TMC3    C2 7613   2.031   4.427  15.346  0.3582 -0.2415 -0.2727
  509TMC3    C3 7614   2.037   4.393  15.477  0.4412 -0.4756 -0.3626
  509TMC3    C4 7615   1.982   4.192  15.301  0.5641 -0.4331  0.1020
  509TMC3    C5 7616   2.002   4.168  15.436 -0.4097  0.2555 -0.7091
  509TMC3    C6 7617   2.039   4.261  15.523  0.0657 -1.5641 -0.4855
  509TMC3     C 7618   2.005   4.351  15.114  0.1182 -0.1521 -0.6201
  509TMC3     O 7619   2.059   4.283  15.026  0.3495  0.2325 -0.2488
  509TMC3     H 7620   2.057   4.526  15.309  1.9581  0.1929  2.0691
  509TMC3    H1 7621   1.958   4.112  15.232  0.4013  0.4764 -0.8955
  509TMC3    H2 7622   2.056   4.239  15.628  0.7964  0.9523 -0.0809
  509TMC3    C7 7623   2.025   4.033  15.476  0.5517 -0.7259  0.6683
  509TMC3    C8 7624   2.053   4.492  15.581 -0.2830 -0.5579  0.3281
  509TMC3    O1 7625   2.040   3.952  15.383  0.1470 -0.5771  0.4943
  509TMC3    O2 7626   2.068   4.453  15.691  0.2742  0.0611 -0.1157
  510MPD2     C 7627   4.233   1.088  14.089 -0.8404 -0.5559  0.1871
  510MPD2    C1 7628   4.296   1.085  14.213 -0.2750 -0.1524  0.3934
  510MPD2    C2 7629   4.409   1.164  14.232  0.8767 -0.2808 -0.4954
  510MPD2    C3 7630   4.454   1.243  14.127  0.1892 -0.2679 -0.3113
  510MPD2    C4 7631   4.385   1.254  14.009  0.3588  1.2949  0.8172
  510MPD2    C5 7632   4.270   1.178  13.999 -0.1589  0.4161 -0.0284
  510MPD2     H 7633   4.475   1.158  14.318 -0.4260  0.8577  0.5881
  510MPD2    H1 7634   4.407   1.329  13.935  0.5545 -2.9346 -3.4280
  510MPD2    H2 7635   4.141   1.040  14.060 -0.2316  0.0231 -2.7868
  510MPD2    H3 7636   4.200   1.183  13.917  3.0141 -2.0984 -2.8990
  510MPD2     N 7637   4.574   1.315  14.142  0.4178 -0.4265  0.7593
  510MPD2    H5 7638   4.617   1.307  14.234 -0.1701  1.0068  1.1536
  510MPD2    N1 7639   4.253   0.991  14.312 -0.3901  0.2345  0.4057
  510MPD2    H7 7640   4.196   0.913  14.280  1.0834 -0.3766 -0.7070
  511TMC3    C1 7641   4.213   0.906  14.539  0.3516 -0.4479 -0.3906
  511TMC3    C2 7642   4.222   0.926  14.674  0.1415  0.2384 -0.0892
  511TMC3    C3 7643   4.196   0.822  14.768  0.2538  0.2878  0.3433
  511TMC3    C4 7644   4.210   0.778  14.493 -0.3365 -0.1443 -0.3814
  511TMC3    C5 7645   4.195   0.678  14.579 -0.4451  0.8108 -0.3039
  511TMC3    C6 7646   4.173   0.696  14.717 -0.0774 -0.0820 -0.0307
  511TMC3     C 7647   4.270   1.012  14.448  0.1514 -0.2947 -0.4589
  511TMC3     O 7648   4.294   1.120  14.494  0.2462 -0.2837 -0.0888
  511TMC3     H 7649   4.248   1.027  14.703  0.2593 -0.5837  2.6890
  511TMC3    H1 7650   4.228   0.758  14.388 -0.4728  0.2560 -0.4790
  511TMC3    H2 7651   4.161   0.617  14.790  0.8949  2.3051  2.7164
  511TMC3    C7 7652   4.220   0.541  14.537 -0.0523 -0.1340 -0.1117
  511TMC3    C8 7653   4.158   0.858  14.905 -0.4464  0.2652 -0.7071
  511TMC3    O1 7654   4.297   0.526  14.440 -0.3002 -0.1184  0.3698
  511TMC3    O2 7655   4.118   0.972  14.927 -0.4100  0.0099 -0.8452
  512TMC3    C1 7656   3.305   0.443  13.476 -0.4821  0.0870 -0.1171
  512TMC3    C2 7657   3.422   0.436  13.550  0.6585 -0.3866  0.0367
  512TMC3    C3 7658   3.527   0.361  13.498  0.6827  0.3453 -0.3061
  512TMC3    C4 7659   3.297   0.375  13.356  0.0434  0.1885 -0.1722
  512TMC3    C5 7660   3.396   0.293  13.320 -0.3403  0.2402 -0.5317
  512TMC3    C6 7661   3.516   0.282  13.391  0.3732  0.2296 -0.1885
  512TMC3     C 7662   3.189   0.511  13.527  0.5091 -0.0962  0.2546
  512TMC3     O 7663   3.208   0.608  13.600 -0.1298 -0.5293 -0.3720
  512TMC3     H 7664   3.424   0.483  13.648 -0.6619 -2.9249  1.2897
  512TMC3    H1 7665   3.217   0.400  13.288  0.5409 -2.7145 -1.8111
  512TMC3    H2 7666   3.595   0.218  13.352  1.4667  0.4736  1.6455
  512TMC3    C7 7667   3.407   0.279  13.176  0.0659 -0.1267 -0.8993
  512TMC3    C8 7668   3.654   0.360  13.562  0.4167 -0.2389  0.0806
  512TMC3    O1 7669   3.382   0.378  13.111  0.0277  0.1158 -0.2214
  512TMC3    O2 7670   3.716   0.260  13.551 -0.0052  0.4845 -0.3424
  513MPD2     C 7671   0.296   0.021  13.545 -0.1568  0.2055 -0.0645
  513MPD2    C1 7672   0.369   0.049  13.433 -0.1402  0.1270  0.2148
  513MPD2    C2 7673   0.469   0.144  13.444 -0.4686  0.8526  0.0729
  513MPD2    C3 7674   0.496   0.213  13.562 -0.0206  0.0860 -0.3106
  513MPD2    C4 7675   0.425   0.183  13.670  0.2857  0.0796  0.2263
  513MPD2    C5 7676   0.326   0.087  13.661 -0.2527 -0.5993 -0.0110
  513MPD2     H 7677   0.526   0.174  13.356 -1.5909  1.3647 -0.4847
  513MPD2    H1 7678   0.451   0.223  13.767 -0.8848  1.6437 -0.0929
  513MPD2    H2 7679   0.210   4.692  13.545 -1.4970  1.9144 -1.9499
  513MPD2    H3 7680   0.266   0.079  13.752 -1.5320  0.0163 -0.7988
  513MPD2     N 7681   0.610   0.300  13.568  0.3288  0.7905  0.6235
  513MPD2    H5 7682   0.672   0.315  13.489  0.7294  1.0099  0.9810
  513MPD2    N1 7683   0.339   4.722  13.313  0.1461  0.4013 -0.5421
  513MPD2    H7 7684   0.265   4.652  13.311 -1.7234  2.2811  1.6612
  514TMC3    C1 7685   0.397   4.609  13.121  0.4923  0.1992 -0.0980
  514TMC3    C2 7686   0.335   4.622  13.002  0.5556 -0.4864  0.5241
  514TMC3    C3 7687   0.394   4.566  12.886 -0.1755  0.6974 -0.0388
  514TMC3    C4 7688   0.506   4.530  13.132  0.1970  0.0243  1.3565
  514TMC3    C5 7689   0.572   4.494  13.020 -0.0733 -0.2107  0.0157
  514TMC3    C6 7690   0.512   4.503  12.898 -0.0508 -0.4324  0.1618
  514TMC3     C 7691   0.413   4.729  13.196  0.3410 -0.0391  0.3040
  514TMC3     O 7692   0.501   0.065  13.157 -0.0577  0.6976  0.2654
  514TMC3     H 7693   0.255   4.694  12.988 -0.4505 -2.0564 -1.7702
  514TMC3    H1 7694   0.566   4.531  13.223 -0.8445  0.1411  2.0410
  514TMC3    H2 7695   0.564   4.467  12.810  0.6974  0.7651  0.1110
  514TMC3    C7 7696   0.711   4.528  13.018 -0.8165  0.0317 -0.1217
  514TMC3    C8 7697   0.344   4.606  12.750  0.1772 -0.3414 -0.0878
  514TMC3    O1 7698   0.783   4.482  12.924 -0.1220 -0.0770  0.1606
  514TMC3    O2 7699   0.231   4.652  12.740 -0.4755  0.5897 -0.1436
  515MPD2     C 7700   4.171   1.380  14.720  0.0382  0.6096  0.4352
  515MPD2    C1 7701   4.085   1.485  14.723 -0.5525 -0.0583 -0.8682
  515MPD2    C2 7702   4.136   1.601  14.785  0.6640  0.8136  1.0700
  515MPD2    C3 7703   4.264   1.602  14.836 -0.0037 -0.1067 -0.3384
  515MPD2    C4 7704   4.346   1.493  14.841 -0.0517 -0.4368 -0.2889
  515MPD2    C5 7705   4.292   1.386  14.774 -0.1174 -0.1934  0.3570
  515MPD2     H 7706   4.065   1.683  14.794  1.9153  2.3733 -3.3658
  515MPD2    H1 7707   4.446   1.495  14.881  0.2496 -0.8926 -1.0303
  515MPD2    H2 7708   4.157   1.288  14.664  0.5911  1.3802 -0.9612
  515MPD2    H3 7709   4.354   1.297  14.762  1.0710  0.8385 -1.1927
  515MPD2     N 7710   4.311   1.716  14.899 -0.1703  0.2502  0.0827
  515MPD2    H5 7711   4.406   1.703  14.931 -0.6297 -0.5629  1.1302
  515MPD2    N1 7712   3.958   1.477  14.661  0.3424 -0.3859 -0.2315
  515MPD2    H7 7713   3.894   1.556  14.671 -0.2010 -1.0340  1.4469
  516TMC3    C1 7714   3.760   1.397  14.574 -0.5512 -0.5016  0.6956
  516TMC3    C2 7715   3.714   1.511  14.528  0.4096 -0.1021  0.4140
  516TMC3    C3 7716   3.578   1.517  14.508  0.6274  0.2643  0.4328
  516TMC3    C4 7717   3.686   1.287  14.569 -0.2724  0.2853 -0.7971
  516TMC3    C5 7718   3.552   1.298  14.543 -0.0334  0.4554  0.7309
  516TMC3    C6 7719   3.491   1.414  14.510  0.6982 -0.0351  0.3416
  516TMC3     C 7720   3.899   1.369  14.610 -0.1465 -0.2368 -0.5634
  516TMC3     O 7721   3.947   1.254  14.592  0.1741  0.1044 -0.4461
  516TMC3     H 7722   3.777   1.599  14.519 -1.4295  1.3035  1.2095
  516TMC3    H1 7723   3.727   1.191  14.601 -1.4646  0.4834  1.3116
  516TMC3    H2 7724   3.385   1.423  14.489  0.3973  1.5025  2.4399
  516TMC3    C7 7725   3.466   1.194  14.599  0.9641  0.1492 -0.9111
  516TMC3    C8 7726   3.512   1.648  14.486 -0.0569  0.3875  0.2727
  516TMC3    O1 7727   3.505   1.118  14.690 -0.2015  0.1099 -0.1736
  516TMC3    O2 7728   3.390   1.656  14.502  0.2729 -0.5072 -0.1167
  517MPD2     C 7729   3.630   3.252   0.375  0.0363 -0.4161 -0.4572
  517MPD2    C1 7730   3.577   3.301   0.264  0.1190  0.8508  0.3742
  517MPD2    C2 7731   3.507   3.418   0.270  0.4695 -0.2177 -0.1726
  517MPD2    C3 7732   3.509   3.493   0.384  1.3772 -0.4692  0.2196
  517MPD2    C4 7733   3.566   3.445   0.496  0.4158  0.2201 -0.5202
  517MPD2    C5 7734   3.623   3.322   0.494 -0.2122 -0.0095  0.1633
  517MPD2     H 7735   3.464   3.447   0.175  3.0553  1.0412 -0.9655
  517MPD2    H1 7736   3.568   3.511   0.582 -1.4735  0.5564 -0.7200
  517MPD2    H2 7737   3.674   3.153   0.380 -2.5305 -1.5237  0.1125
  517MPD2    H3 7738   3.660   3.275   0.584  0.4530 -0.6354 -0.4326
  517MPD2     N 7739   3.459   3.620   0.393 -0.6152 -0.0134  0.0617
  517MPD2    H5 7740   3.466   3.666   0.483 -0.7486 -0.8386  0.4943
  517MPD2    N1 7741   3.572   3.228   0.139  0.6584  0.2478  0.3775
  517MPD2    H7 7742   3.574   3.278   0.051 -0.6524  0.3987  0.4303
  518TMC3    C1 7743   3.558   3.046  17.745  0.0905  0.0812  0.2054
  518TMC3    C2 7744   3.494   2.928  17.718  0.2658 -1.1017  0.6306
  518TMC3    C3 7745   3.483   2.889  17.583  0.3295 -0.6129  0.7500
  518TMC3    C4 7746   3.619   3.116  17.644 -0.2489  0.3229 -0.7526
  518TMC3    C5 7747   3.605   3.079  17.514 -0.1123 -0.0564  0.4740
  518TMC3    C6 7748   3.536   2.963  17.484 -0.9843 -0.1971 -0.0354
  518TMC3     C 7749   3.573   3.094   0.129  0.2558 -0.0477  0.1778
  518TMC3     O 7750   3.549   3.015   0.217 -0.2941 -0.1837 -0.0842
  518TMC3     H 7751   3.448   2.881   0.055 -4.4138 -0.0394 -1.3216
  518TMC3    H1 7752   3.685   3.198  17.667  1.9446 -1.1898 -1.6965
  518TMC3    H2 7753   3.521   2.926  17.383 -0.6761  1.7809 -0.8072
  518TMC3    C7 7754   3.726   3.109  17.439 -0.5996  0.8251 -0.6562
  518TMC3    C8 7755   3.506   2.742  17.565  0.1407  0.0403  0.1338
  518TMC3    O1 7756   3.757   3.224  17.429  0.1607 -0.6460 -0.2572
  518TMC3    O2 7757   3.597   2.720  17.483 -0.4866  0.0655 -0.3389
  519MPD2     C 7758   0.406   1.799  14.369 -0.3110  0.0702  0.7951
  519MPD2    C1 7759   0.379   1.858  14.249  0.3926  0.1273 -0.3614
  519MPD2    C2 7760   0.448   1.814  14.137  0.2139  0.1193  0.6279
  519MPD2    C3 7761   0.535   1.701  14.150  0.1252  0.4058 -0.4475
  519MPD2    C4 7762   0.557   1.637  14.268  0.5287  0.1476 -0.2295
  519MPD2    C5 7763   0.489   1.690  14.375 -0.3431  0.0239  0.3612
  519MPD2     H 7764   0.436   1.858  14.039  0.9328 -0.4777  0.2703
  519MPD2    H1 7765   0.619   1.549  14.283  1.7185  0.9874 -0.2265
  519MPD2    H2 7766   0.367   1.838  14.462  2.7673  1.4692  1.5131
  519MPD2    H3 7767   0.504   1.650  14.475 -1.5294  2.8919  1.7031
  519MPD2     N 7768   0.599   1.639  14.037 -0.1562 -0.3287 -0.1228
  519MPD2    H5 7769   0.654   1.556  14.054  1.6095  0.9905  0.6915
  519MPD2    N1 7770   0.274   1.949  14.245 -0.1385 -0.2076  0.2891
  519MPD2    H7 7771   0.202   1.954  14.317 -0.3999 -1.6919  0.1364
  520TMC3    C1 7772   0.642   1.602  13.799  0.5433 -0.5946 -0.3460
  520TMC3    C2 7773   0.622   1.650  13.675  0.5459 -0.8136  0.5262
  520TMC3    C3 7774   0.715   1.613  13.579 -0.4470  0.1086  1.0002
  520TMC3    C4 7775   0.755   1.544  13.839 -0.1089 -0.1411  0.2036
  520TMC3    C5 7776   0.852   1.524  13.747  0.0577 -0.2314 -0.3911
  520TMC3    C6 7777   0.836   1.560  13.614  0.2002  0.3896  0.1471
  520TMC3     C 7778   0.567   1.665  13.905 -0.5560 -0.3436  0.2114
  520TMC3     O 7779   0.471   1.730  13.859 -0.3313  0.2662  0.0392
  520TMC3     H 7780   0.531   1.707  13.655  0.1306 -1.6955 -0.1064
  520TMC3    H1 7781   0.769   1.510  13.941 -0.6292 -1.6146 -0.2171
  520TMC3    H2 7782   0.910   1.525  13.542  0.1115  2.5980 -1.0125
  520TMC3    C7 7783   0.977   1.462  13.789  0.1657  0.2406 -0.6157
  520TMC3    C8 7784   0.679   1.620  13.437  0.1171  0.0325 -0.7460
  520TMC3    O1 7785   0.985   1.395  13.893 -0.0144  0.0089  0.2783
  520TMC3    O2 7786   0.767   1.612  13.355 -0.4088 -0.4263 -0.5291
  521MPD2     C 7787   1.026   0.297  17.275  0.1582 -0.3515  0.3945
  521MPD2    C1 7788   1.028   0.160  17.279 -0.1832  0.0614 -0.3403
  521MPD2    C2 7789   1.115   0.087  17.192  0.7974 -0.1924  0.1705
  521MPD2    C3 7790   1.199   0.146  17.102  0.3963 -0.4741  0.2421
  521MPD2    C4 7791   1.203   0.282  17.110 -0.0675 -0.5692 -0.6843
  521MPD2    C5 7792   1.112   0.352  17.191 -0.1790  0.2240 -0.2067
  521MPD2     H 7793   1.107   4.716  17.193  0.9329 -0.2168 -2.3593
  521MPD2    H1 7794   1.261   0.339  17.038  0.5724  0.0794  0.3588
  521MPD2    H2 7795   0.973   0.353  17.351 -1.2131 -0.5842 -0.3956
  521MPD2    H3 7796   1.115   0.460  17.182  1.5362  0.1985 -0.0260
  521MPD2     N 7797   1.289   0.067  17.024  0.2341 -0.4789 -0.5086
  521MPD2    H5 7798   1.283   4.706  17.045  1.2798 -0.1627  1.2828
  521MPD2    N1 7799   0.928   0.105  17.363 -0.8904  0.4832  0.4727
  521MPD2    H7 7800   0.851   0.154  17.407 -2.5534 -1.1463 -0.6324
  522TMC3    C1 7801   1.427   4.734  16.844 -0.0033  0.8738 -0.6108
  522TMC3    C2 7802   1.492   4.630  16.912  0.3346  0.1004  0.1851
  522TMC3    C3 7803   1.547   4.535  16.832  0.7801  0.8055 -0.6740
  522TMC3    C4 7804   1.431   0.002  16.705 -0.5239 -0.0235  0.1806
  522TMC3    C5 7805   1.494   4.641  16.631 -0.3116  0.2542  0.1759
  522TMC3    C6 7806   1.565   4.544  16.697  0.1252 -0.0109 -0.6403
  522TMC3     C 7807   1.362   0.107  16.916  0.6179  0.2970  0.7189
  522TMC3     O 7808   1.342   0.213  16.856 -0.3086 -0.3099 -0.4531
  522TMC3     H 7809   1.483   4.617  17.019 -0.4851 -0.3997  0.0542
  522TMC3    H1 7810   1.405   0.091  16.649  0.1550 -1.1580 -1.9362
  522TMC3    H2 7811   1.647   4.493  16.647 -0.0753 -0.8580 -0.0946
  522TMC3    C7 7812   1.504   4.644  16.487  0.7308 -0.1739 -0.6844
  522TMC3    C8 7813   1.610   4.420  16.895 -0.6315 -0.2291 -0.0764
  522TMC3    O1 7814   1.601   4.596  16.431 -0.2640 -0.4485 -0.1431
  522TMC3    O2 7815   1.613   4.414  17.019  0.1497 -0.2163 -0.1909
  523MPD2     C 7816   3.362   4.443  10.065 -0.1664 -0.9711  0.3846
  523MPD2    C1 7817   3.414   4.424   9.933  0.4989 -0.2496  0.3023
  523MPD2    C2 7818   3.350   4.491   9.825 -0.7440 -0.6143  0.8755
  523MPD2    C3 7819   3.250   4.581   9.857 -0.0705 -0.2228  0.2754
  523MPD2    C4 7820   3.211   4.601   9.986  0.2735  0.1702 -0.1384
  523MPD2    C5 7821   3.258   4.526  10.087 -0.2547  0.3420 -0.2704
  523MPD2     H 7822   3.386   4.480   9.724  0.5816 -1.1541  1.4102
  523MPD2    H1 7823   3.130   4.671  10.005 -0.0355 -0.1630 -0.2276
  523MPD2    H2 7824   3.397   4.376  10.142 -1.0997  0.2866  1.8901
  523MPD2    H3 7825   3.217   4.533  10.187  1.3112  0.1626  0.3777
  523MPD2     N 7826   3.186   4.662   9.762  0.1531  0.2892 -0.4905
  523MPD2    H5 7827   3.105   4.715   9.792  1.5858  0.9356  2.2073
  523MPD2    N1 7828   3.513   4.328   9.919 -0.0298  0.1374 -0.3603
  523MPD2    H7 7829   3.549   4.276   9.999 -2.7105 -0.5164  0.4098
  524TMC3    C1 7830   3.122   0.007   9.556 -0.0089 -0.4182 -0.0395
  524TMC3    C2 7831   3.086   4.704   9.426 -0.5697 -1.3447  0.0784
  524TMC3    C3 7832   2.987   0.040   9.360 -0.3138  0.3657  0.0413
  524TMC3    C4 7833   3.090   0.124   9.614  0.4285  0.0783 -0.2847
  524TMC3    C5 7834   2.994   0.190   9.541 -0.5361  0.4616 -0.4088
  524TMC3    C6 7835   2.941   0.158   9.418 -0.3437  0.2633  0.2768
  524TMC3     C 7836   3.216   4.663   9.627 -0.2171 -1.3530  0.1600
  524TMC3     O 7837   3.306   4.607   9.563 -0.1267  0.1737  0.1599
  524TMC3     H 7838   3.098   4.599   9.403  1.8290 -0.6747 -1.7741
  524TMC3    H1 7839   3.119   0.167   9.709 -0.6039 -0.9299  0.5062
  524TMC3    H2 7840   2.878   0.235   9.377 -3.2316 -1.3573  1.6648
  524TMC3    C7 7841   2.945   0.315   9.593 -0.9467 -0.1599  0.0012
  524TMC3    C8 7842   2.905   4.713   9.265 -0.1901 -0.2858 -0.2016
  524TMC3    O1 7843   2.826   0.335   9.600  0.2754  0.4591  0.4202
  524TMC3    O2 7844   2.790   0.017   9.254 -0.2920 -0.4320  0.6740
  525MPD2     C 7845   2.699   1.150  14.484  0.3367  0.0227 -0.3318
  525MPD2    C1 7846   2.572   1.203  14.502  0.1796  0.3672 -0.1258
  525MPD2    C2 7847   2.551   1.333  14.469  0.4151 -0.5734 -0.0687
  525MPD2    C3 7848   2.658   1.419  14.434 -0.0959 -0.4762 -0.3482
  525MPD2    C4 7849   2.782   1.363  14.431 -0.4205  0.0929 -0.1349
  525MPD2    C5 7850   2.800   1.233  14.455 -1.0254  0.1987  0.2636
  525MPD2     H 7851   2.462   1.394  14.482 -0.4585 -2.1436  1.2012
  525MPD2    H1 7852   2.872   1.412  14.397 -0.4335 -0.3065 -0.7307
  525MPD2    H2 7853   2.729   1.046  14.495 -0.9760 -0.3704 -0.4663
  525MPD2    H3 7854   2.899   1.191  14.440 -0.3176  1.9491  0.0092
  525MPD2     N 7855   2.651   1.562  14.406  0.2549  0.0675 -0.1566
  525MPD2    H5 7856   2.743   1.606  14.408 -0.9851  2.5810  0.9398
  525MPD2    N1 7857   2.466   1.122  14.552  0.2963  0.2894 -0.7367
  525MPD2    H7 7858   2.378   1.166  14.574  0.7734 -0.7280  3.1605
  526TMC3    C1 7859   2.349   0.918  14.603 -0.0390 -0.2851 -0.2592
  526TMC3    C2 7860   2.230   0.992  14.621 -0.1885  0.4417  0.4879
  526TMC3    C3 7861   2.137   0.954  14.712  0.6572  0.1819 -0.0821
  526TMC3    C4 7862   2.359   0.800  14.677  0.5359 -0.2222  0.3550
  526TMC3    C5 7863   2.272   0.782  14.776 -0.1274 -0.5794  0.8761
  526TMC3    C6 7864   2.160   0.852  14.797  0.0626  0.6530 -0.0202
  526TMC3     C 7865   2.471   0.987  14.551  0.7372  0.8191  0.1577
  526TMC3     O 7866   2.563   0.907  14.530 -0.2218  0.2995  0.5680
  526TMC3     H 7867   2.201   1.081  14.566  1.4001 -0.6088 -2.0435
  526TMC3    H1 7868   2.450   0.742  14.667  0.6302 -0.2335  1.2578
  526TMC3    H2 7869   2.083   0.820  14.867  2.1023 -0.3990  1.7645
  526TMC3    C7 7870   2.292   0.674  14.875  0.3182  0.9006 -0.4438
  526TMC3    C8 7871   2.006   1.016  14.690  0.2227  0.1561 -0.2161
  526TMC3    O1 7872   2.250   0.709  14.986  0.2909 -0.1069  0.2841
  526TMC3    O2 7873   1.977   1.055  14.575 -0.1400  0.1790  0.6349
  527MPD2     C 7874   4.247   3.876   1.120 -0.2618  0.0034 -0.6630
  527MPD2    C1 7875   4.275   3.904   0.990 -0.0443 -1.1009  0.1241
  527MPD2    C2 7876   4.407   3.945   0.961  0.1045  0.0131 -0.3083
  527MPD2    C3 7877   4.505   3.969   1.052 -0.2555  0.1206 -0.1698
  527MPD2    C4 7878   4.467   3.950   1.184 -0.8043 -0.4580 -0.0716
  527MPD2    C5 7879   4.338   3.905   1.212 -0.3452  0.4168 -0.9115
  527MPD2     H 7880   4.431   3.960   0.856 -1.7989  0.1803 -0.7268
  527MPD2    H1 7881   4.532   3.962   1.269 -0.6349 -3.0508  0.1785
  527MPD2    H2 7882   4.151   3.845   1.157  0.0121  1.4548  1.2969
  527MPD2    H3 7883   4.295   3.886   1.310 -0.5533  1.0056 -0.8932
  527MPD2     N 7884   4.632   4.007   1.015 -0.2476  0.6141 -0.6144
  527MPD2    H5 7885   4.656   4.010   0.916 -2.8493 -0.1548 -1.2632
  527MPD2    N1 7886   4.177   3.890   0.885 -0.1241 -0.4288  0.2020
  527MPD2    H7 7887   4.214   3.925   0.798 -1.4445 -0.2076 -0.2667
  528TMC3    C1 7888   3.967   3.821   0.785 -0.3884 -0.4556  0.5227
  528TMC3    C2 7889   4.031   3.796   0.667  0.6174  0.9044  1.4004
  528TMC3    C3 7890   3.945   3.770   0.562  0.0061  0.8881  0.8024
  528TMC3    C4 7891   3.835   3.837   0.812  0.0460 -0.0918  0.4266
  528TMC3    C5 7892   3.758   3.802   0.699  0.7400  0.2646 -0.2446
  528TMC3    C6 7893   3.805   3.771   0.576 -0.5494  0.7240 -0.3003
  528TMC3     C 7894   4.046   3.847   0.903  1.1300  1.0425  0.2228
  528TMC3     O 7895   3.984   3.809   1.002 -0.2044 -0.2263 -0.1546
  528TMC3     H 7896   4.137   3.789   0.645  0.3262 -1.7354  0.8816
  528TMC3    H1 7897   3.797   3.855   0.913 -1.4526  0.7227 -0.2824
  528TMC3    H2 7898   3.737   3.768   0.492  0.2538  0.4568 -0.9418
  528TMC3    C7 7899   3.611   3.825   0.707  0.3413 -0.2553  0.2611
  528TMC3    C8 7900   4.005   3.744   0.436  0.4604 -0.8053 -0.6457
  528TMC3    O1 7901   3.539   3.771   0.624 -0.3236  0.0555  0.9841
  528TMC3    O2 7902   4.118   3.793   0.419 -0.3474 -0.6569 -0.5473
  529MPD2     C 7903   2.130   2.153   1.636 -0.2405 -0.4260  0.6760
  529MPD2    C1 7904   2.123   2.034   1.574 -0.1616 -0.2969  0.0409
  529MPD2    C2 7905   2.034   2.029   1.471 -0.4403  0.4665  0.3809
  529MPD2    C3 7906   1.978   2.143   1.422  0.6197  0.3376 -0.3899
  529MPD2    C4 7907   1.996   2.265   1.484  0.1023  0.6539  0.2433
  529MPD2    C5 7908   2.066   2.266   1.598  1.3005 -0.0142 -0.2458
  529MPD2     H 7909   2.015   1.935   1.421 -1.3953  1.5326 -1.2546
  529MPD2    H1 7910   1.924   2.345   1.466  0.1624  0.5542 -0.4052
  529MPD2    H2 7911   2.209   2.177   1.707  0.8433  0.1990 -0.7440
  529MPD2    H3 7912   2.078   2.359   1.652  3.7694 -0.1045 -0.6405
  529MPD2     N 7913   1.883   2.152   1.317  0.0106  0.0280 -0.2803
  529MPD2    H5 7914   1.857   2.243   1.282  0.0621 -0.8681 -2.6643
  529MPD2    N1 7915   2.204   1.919   1.599 -0.1158 -0.4368 -0.0931
  529MPD2    H7 7916   2.179   1.839   1.542 -1.1013  0.4404 -0.8928
  530TMC3    C1 7917   2.380   1.795   1.677  0.8002  0.1437 -0.1450
  530TMC3    C2 7918   2.477   1.776   1.772  0.5630  0.0741  0.1666
  530TMC3    C3 7919   2.564   1.678   1.748 -0.3200  0.2174 -0.4095
  530TMC3    C4 7920   2.351   1.696   1.581 -0.4664 -0.0146  0.2681
  530TMC3    C5 7921   2.441   1.592   1.573  0.4211  0.5058  0.4870
  530TMC3    C6 7922   2.546   1.578   1.656  0.1331  0.1094  0.0921
  530TMC3     C 7923   2.294   1.906   1.701  0.2670  1.1495  0.3927
  530TMC3     O 7924   2.307   1.977   1.798 -0.0373  0.4554 -0.5921
  530TMC3     H 7925   2.502   1.848   1.849 -0.0702  0.5577 -0.0784
  530TMC3    H1 7926   2.262   1.709   1.521  0.0177  1.5404 -0.1004
  530TMC3    H2 7927   2.604   1.487   1.648  0.4641  0.2888  0.5059
  530TMC3    C7 7928   2.397   1.475   1.495  0.2824 -0.0730 -0.1125
  530TMC3    C8 7929   2.672   1.673   1.841 -1.0126 -0.3781 -0.0409
  530TMC3    O1 7930   2.485   1.398   1.470  0.0133 -0.6814  0.7744
  530TMC3    O2 7931   2.657   1.712   1.959  0.7232 -0.0276  0.1599
  531MPD2     C 7932   1.070   0.145  13.126  0.5216  0.1597 -0.3483
  531MPD2    C1 7933   0.959   0.170  13.198  0.2161 -0.4219 -0.5354
  531MPD2    C2 7934   0.845   0.095  13.181 -0.0962  0.4452  0.5183
  531MPD2    C3 7935   0.853   4.712  13.107  0.3520 -0.1660 -0.3981
  531MPD2    C4 7936   0.966   4.693  13.029 -0.4072 -0.3751  0.1957
  531MPD2    C5 7937   1.070   0.044  13.035 -0.7026  0.4332 -1.0947
  531MPD2     H 7938   0.759   0.120  13.243  0.0142  1.4167  0.2894
  531MPD2    H1 7939   0.977   4.606  12.966 -0.8825 -1.9662  2.3019
  531MPD2    H2 7940   1.154   0.212  13.141  1.7258 -1.5029  0.3586
  531MPD2    H3 7941   1.153   0.026  12.968 -0.5059 -1.2830 -0.3999
  531MPD2     N 7942   0.737   4.637  13.099 -0.6925 -0.9564 -0.2889
  531MPD2    H5 7943   0.653   4.668  13.147 -2.0345 -0.6753 -2.7764
  531MPD2    N1 7944   0.962   0.293  13.266 -0.0111 -1.2248 -0.1802
  531MPD2    H7 7945   1.045   0.350  13.272  0.2624 -1.4810 -1.4390
  532TMC3    C1 7946   0.893   0.451  13.418  0.5916 -0.1177  0.1861
  532TMC3    C2 7947   0.769   0.471  13.493  0.7923  0.0189  0.6018
  532TMC3    C3 7948   0.766   0.457  13.626 -0.8147  0.4917 -0.9498
  532TMC3    C4 7949   1.000   0.413  13.492  0.5336  0.0341  0.2529
  532TMC3    C5 7950   0.993   0.395  13.624  0.0566  0.1192 -0.2782
  532TMC3    C6 7951   0.880   0.424  13.692 -0.1659  0.0766 -0.4615
  532TMC3     C 7952   0.854   0.359  13.315 -0.2230  0.8281 -0.2349
  532TMC3     O 7953   0.735   0.340  13.309 -0.4797  0.5854 -0.3949
  532TMC3     H 7954   0.678   0.495  13.438  0.0150 -1.3331  1.2916
  532TMC3    H1 7955   1.093   0.388  13.442  0.9532 -1.5019  1.8182
  532TMC3    H2 7956   0.876   0.395  13.796 -1.2166 -2.8768 -1.3401
  532TMC3    C7 7957   1.109   0.330  13.685  0.2574 -0.0291  0.1640
  532TMC3    C8 7958   0.653   0.378  13.672 -0.0335 -0.7132 -0.0351
  532TMC3    O1 7959   1.124   0.357  13.802 -0.1809  0.0926  0.5592
  532TMC3    O2 7960   0.610   0.393  13.785 -0.2771 -0.3160 -0.0674
  533TMC3    C1 7961   2.542   1.770  14.370  0.9386 -0.6092 -0.7134
  533TMC3    C2 7962   2.649   1.826  14.432  0.0195 -0.0193 -1.0228
  533TMC3    C3 7963   2.641   1.958  14.449  0.0539 -0.0879 -0.0976
  533TMC3    C4 7964   2.431   1.837  14.327 -0.4005 -0.0983  0.1212
  533TMC3    C5 7965   2.419   1.967  14.369 -0.0528 -0.3228 -0.0473
  533TMC3    C6 7966   2.530   2.031  14.414  0.3635  0.2750  0.3691
  533TMC3     C 7967   2.532   1.623  14.366 -0.1592 -0.2786  0.7908
  533TMC3     O 7968   2.447   1.566  14.301  0.0241 -0.2214  0.0396
  533TMC3     H 7969   2.733   1.767  14.468 -0.2800 -1.6225 -2.8985
  533TMC3    H1 7970   2.346   1.783  14.288 -0.3403  0.8487 -1.3239
  533TMC3    H2 7971   2.525   2.139  14.422  2.7988  0.2285  2.4982
  533TMC3    C7 7972   2.297   1.981  14.446 -0.0010 -0.3326 -0.2351
  533TMC3    C8 7973   2.745   2.035  14.516 -0.3804 -0.5521  1.2147
  533TMC3    O1 7974   2.214   1.890  14.443 -0.0237 -0.4701  0.3738
  533TMC3    O2 7975   2.711   2.144  14.561 -0.1527  0.1506  0.0222
  534MPD2     C 7976   0.059   2.321   1.315 -0.6030 -0.0145  0.1479
  534MPD2    C1 7977   4.730   2.432   1.364  0.1950 -0.4243 -0.2469
  534MPD2    C2 7978   4.591   2.436   1.347 -0.0135  0.3793  0.0235
  534MPD2    C3 7979   4.526   2.326   1.300 -0.6542  0.0587 -1.1748
  534MPD2    C4 7980   4.594   2.216   1.261 -0.3990 -0.5940  0.2145
  534MPD2    C5 7981   4.730   2.216   1.256 -0.2580 -0.0126  0.0590
  534MPD2     H 7982   4.538   2.528   1.365 -0.8898 -0.3137  1.0050
  534MPD2    H1 7983   4.549   2.131   1.211 -0.3402 -1.3682  1.4910
  534MPD2    H2 7984   0.167   2.315   1.327 -0.5652  1.5249  0.4675
  534MPD2    H3 7985   0.040   2.128   1.213  1.0577  0.1740  1.1148
  534MPD2     N 7986   4.385   2.318   1.287 -0.4395  0.1417  0.0155
  534MPD2    H5 7987   4.345   2.233   1.250 -0.0686 -0.4929  1.0392
  534MPD2    N1 7988   0.059   2.545   1.429  0.2138  0.5757 -0.5103
  534MPD2    H7 7989   4.732   2.619   1.455  1.4364  0.9369  1.4742
  535TMC3    C1 7990   4.156   2.376   1.284  0.2604 -0.2327  0.4328
  535TMC3    C2 7991   4.109   2.251   1.322  0.3980 -0.1359 -0.2774
  535TMC3    C3 7992   3.996   2.213   1.256 -0.1307  0.5525  0.5486
  535TMC3    C4 7993   4.100   2.455   1.185  0.6578 -0.0805  0.6142
  535TMC3    C5 7994   3.987   2.404   1.123 -0.1326 -0.1250  0.2838
  535TMC3    C6 7995   3.932   2.285   1.152  0.0657  0.5115 -0.1265
  535TMC3     C 7996   4.291   2.408   1.326 -0.2965 -0.1975 -0.2321
  535TMC3     O 7997   4.302   2.525   1.367 -0.1067 -0.5789 -0.6844
  535TMC3     H 7998   4.155   2.201   1.406 -2.0360 -1.4433  0.2665
  535TMC3    H1 7999   4.156   2.545   1.160  1.4649 -0.0548  2.5651
  535TMC3    H2 8000   3.844   2.249   1.101  1.1296 -0.4986 -1.2470
  535TMC3    C7 8001   3.947   2.476   1.007  1.1931  0.6762 -0.3596
  535TMC3    C8 8002   3.905   2.118   1.320  0.2770 -0.0396 -0.7352
  535TMC3    O1 8003   3.891   2.408   0.922  0.2038  0.0777 -0.5112
  535TMC3    O2 8004   3.812   2.078   1.252  0.0227 -0.8493  0.7889
  536MPD2     C 8005   3.493   1.093  16.089  0.7071 -0.3450  0.1599
  536MPD2    C1 8006   3.387   1.008  16.101  0.1538 -0.6402 -0.4236
  536MPD2    C2 8007   3.272   1.050  16.027 -0.0748 -0.6835  0.3689
  536MPD2    C3 8008   3.276   1.164  15.953  0.5031 -0.0423 -0.0172
  536MPD2    C4 8009   3.386   1.245  15.953  0.0263 -0.1099 -0.4880
  536MPD2    C5 8010   3.492   1.206  16.025  0.5382  0.4970 -1.0527
  536MPD2     H 8011   3.178   0.997  16.036 -0.7313  0.8239  2.5033
  536MPD2    H1 8012   3.388   1.345  15.912  1.3918  0.3235  0.6507
  536MPD2    H2 8013   3.586   1.052  16.127  0.0417 -0.7604  1.3302
  536MPD2    H3 8014   3.579   1.270  16.026 -0.1825  1.4647 -0.9319
  536MPD2     N 8015   3.164   1.205  15.885  0.2412 -0.0363  0.1957
  536MPD2    H5 8016   3.177   1.277  15.814 -0.4609 -0.3369 -0.2342
  536MPD2    N1 8017   3.397   0.892  16.177  0.2820 -0.0321 -0.2102
  536MPD2    H7 8018   3.484   0.888  16.228 -0.1592 -3.7245  0.2794
  537TMC3    C1 8019   3.309   0.702  16.306 -0.2316 -0.2969 -0.3106
  537TMC3    C2 8020   3.398   0.727  16.406  0.0473 -0.4843  0.5296
  537TMC3    C3 8021   3.378   0.662  16.528  0.5247  0.2377 -0.0250
  537TMC3    C4 8022   3.213   0.609  16.317  0.4168 -0.0820  0.6632
  537TMC3    C5 8023   3.203   0.543  16.439  0.1574  0.2875 -0.0524
  537TMC3    C6 8024   3.282   0.573  16.545  0.2264  0.7425  0.0745
  537TMC3     C 8025   3.304   0.784  16.188 -0.3016  0.0490  0.3602
  537TMC3     O 8026   3.207   0.776  16.115  1.1676 -0.2824  0.2699
  537TMC3     H 8027   3.470   0.808  16.402 -0.0247 -0.4051  0.8117
  537TMC3    H1 8028   3.149   0.588  16.232 -0.3912  1.8370  0.7973
  537TMC3    H2 8029   3.262   0.514  16.633  1.1383 -0.4169 -0.5006
  537TMC3    C7 8030   3.090   0.457  16.455 -0.2925 -0.6252 -0.4555
  537TMC3    C8 8031   3.426   0.737  16.641  0.1299 -0.4142  0.2919
  537TMC3    O1 8032   2.984   0.515  16.424  0.0360  0.3001 -0.6179
  537TMC3    O2 8033   3.527   0.798  16.624  0.5968 -0.3777  0.2398
  538TMC3    C1 8034   4.681   4.191  11.000 -0.0422 -0.0084 -0.2393
  538TMC3    C2 8035   0.021   4.201  10.889 -0.3961  0.1513 -0.3864
  538TMC3    C3 8036   4.707   4.286  10.787 -0.5986  0.3110  0.5212
  538TMC3    C4 8037   4.569   4.263  11.010  0.2508  0.4525 -0.5924
  538TMC3    C5 8038   4.522   4.345  10.913 -0.0140 -0.3920 -0.7440
  538TMC3    C6 8039   4.583   4.344  10.789  0.6192 -0.3637 -0.3612
  538TMC3     C 8040   0.001   4.138  11.121 -0.4157  0.2629 -0.5864
  538TMC3     O 8041   4.679   4.159  11.227  0.2161 -0.3061  0.0117
  538TMC3     H 8042   0.122   4.163  10.890 -0.8241 -0.9213  0.8804
  538TMC3    H1 8043   4.521   4.253  11.107 -0.6310 -0.8118 -1.1599
  538TMC3    H2 8044   4.556   4.408  10.706  2.0816  2.1068  1.0762
  538TMC3    C7 8045   4.381   4.398  10.914 -0.1499  0.6110  0.0609
  538TMC3    C8 8046   0.058   4.314  10.671  0.3667 -0.2011  0.0785
  538TMC3    O1 8047   4.312   4.358  11.007  0.0032  0.4392  0.6901
  538TMC3    O2 8048   0.160   4.247  10.671  0.2995  0.1976  0.1527
  539MPD2     C 8049   3.945   3.359  11.791 -0.9780  0.5573  0.4525
  539MPD2    C1 8050   4.016   3.380  11.671 -0.5015  0.0979  0.3531
  539MPD2    C2 8051   4.011   3.508  11.627 -0.1388 -0.0428 -0.3650
  539MPD2    C3 8052   3.952   3.615  11.691 -0.3099 -0.6373  0.1575
  539MPD2    C4 8053   3.890   3.581  11.810 -0.6267 -0.3787  0.0917
  539MPD2    C5 8054   3.892   3.458  11.863 -0.5638 -0.4100 -0.3515
  539MPD2     H 8055   4.059   3.524  11.531  0.2750 -0.5831 -0.2468
  539MPD2    H1 8056   3.840   3.658  11.868  0.3156  1.8280 -2.0491
  539MPD2    H2 8057   3.936   3.256  11.825 -0.7530  0.3524 -0.1138
  539MPD2    H3 8058   3.840   3.440  11.956  0.0565  1.4724  0.3587
  539MPD2     N 8059   3.940   3.748  11.653  0.4685  0.3691  0.0917
  539MPD2    H5 8060   3.887   3.805  11.719  2.7296  1.1981  1.1843
  539MPD2    N1 8061   4.089   3.288  11.595 -0.2630  0.1484 -0.3554
  539MPD2    H7 8062   4.146   3.325  11.520 -1.6730  1.7405 -0.6376
  540TMC3    C1 8063   3.962   3.943  11.522 -0.0525 -0.5832  0.3306
  540TMC3    C2 8064   3.948   3.974  11.393 -0.4182  0.0010 -0.5061
  540TMC3    C3 8065   3.909   4.104  11.365 -0.1839 -0.5547  0.3083
  540TMC3    C4 8066   3.937   4.029  11.622  0.7910  0.4055 -0.0307
  540TMC3    C5 8067   3.923   4.164  11.588  0.4827  0.5555 -0.4034
  540TMC3    C6 8068   3.897   4.206  11.461  0.3085  0.5952 -0.9772
  540TMC3     C 8069   4.005   3.811  11.549 -0.1686  0.0111  0.5128
  540TMC3     O 8070   4.077   3.753  11.468  0.7901 -0.1090  0.3969
  540TMC3     H 8071   3.978   3.903  11.317  1.0019 -0.4966  0.4960
  540TMC3    H1 8072   3.931   4.003  11.728 -1.1035 -1.2827 -0.5618
  540TMC3    H2 8073   3.878   4.310  11.438  1.1191  0.5922 -1.6456
  540TMC3    C7 8074   3.882   4.251  11.698  0.0621  0.7295 -0.2393
  540TMC3    C8 8075   3.902   4.143  11.225  0.4675 -0.8228  1.0186
  540TMC3    O1 8076   3.858   4.196  11.804  0.8465  0.5931 -0.2809
  540TMC3    O2 8077   3.921   4.262  11.196  0.6527 -0.0626 -0.1303
  541MPD2     C 8078   2.296   0.286  13.227 -0.0164  0.9166  0.2041
  541MPD2    C1 8079   2.331   0.176  13.148 -0.0538  0.2119 -0.0357
  541MPD2    C2 8080   2.393   0.203  13.030 -0.7714  0.3626 -0.0738
  541MPD2    C3 8081   2.414   0.333  12.986  0.2395 -0.4081 -0.5353
  541MPD2    C4 8082   2.380   0.433  13.065  0.4734  0.1370 -0.0097
  541MPD2    C5 8083   2.325   0.411  13.191 -0.1013 -0.1524 -0.1022
  541MPD2     H 8084   2.422   0.127  12.958 -0.2561 -0.0939  0.6127
  541MPD2    H1 8085   2.404   0.537  13.043  2.3554 -0.0057  1.3917
  541MPD2    H2 8086   2.239   0.279  13.319  2.0123  2.0651  1.5472
  541MPD2    H3 8087   2.296   0.502  13.243 -1.5758 -0.3793 -0.5199
  541MPD2     N 8088   2.457   0.370  12.857  0.6659  0.3999 -0.5118
  541MPD2    H5 8089   2.468   0.470  12.847  0.4619  0.3414 -1.3196
  541MPD2    N1 8090   2.318   0.045  13.198 -0.2927  0.3037 -0.3340
  541MPD2    H7 8091   2.292   0.033  13.296  3.3774 -1.2406  0.4203
  542TMC3    C1 8092   2.515   0.373  12.634 -0.4286  0.2529 -0.4423
  542TMC3    C2 8093   2.613   0.339  12.543  0.5444 -0.1687 -0.0549
  542TMC3    C3 8094   2.633   0.418  12.433 -0.8079 -0.5490  0.5103
  542TMC3    C4 8095   2.440   0.485  12.617 -0.1594  0.5215  0.5906
  542TMC3    C5 8096   2.464   0.555  12.501 -0.0124  0.9072 -0.5252
  542TMC3    C6 8097   2.557   0.524  12.403 -0.2729 -0.1944  0.3242
  542TMC3     C 8098   2.499   0.293  12.746 -1.1392 -0.1531 -0.0686
  542TMC3     O 8099   2.513   0.171  12.742 -0.1317  0.0015 -0.5766
  542TMC3     H 8100   2.679   0.255  12.562  1.6354  0.7838  0.3625
  542TMC3    H1 8101   2.357   0.507  12.683 -2.0273 -1.2499 -1.1484
  542TMC3    H2 8102   2.581   0.590  12.321 -1.5723 -2.0126 -1.5461
  542TMC3    C7 8103   2.366   0.660  12.472  0.2237  0.1972 -0.5655
  542TMC3    C8 8104   2.714   0.370  12.320 -0.5815  0.2759  1.0905
  542TMC3    O1 8105   2.330   0.715  12.576  0.2823 -0.0590  0.2395
  542TMC3    O2 8106   2.676   0.409  12.208  0.0775 -0.3817  0.4472
  543TMC3    C1 8107   1.819   1.769  17.179 -0.4452  0.2637 -0.4987
  543TMC3    C2 8108   1.853   1.674  17.273  0.1077 -0.4240 -0.2198
  543TMC3    C3 8109   1.766   1.653  17.377 -0.1924  0.0242  0.3927
  543TMC3    C4 8110   1.702   1.847  17.187  0.1106  0.3127  0.0604
  543TMC3    C5 8111   1.623   1.819  17.295 -0.3288 -0.2079  0.3326
  543TMC3    C6 8112   1.647   1.721  17.392  0.6275  0.0651  0.0473
  543TMC3     C 8113   1.869   1.735  17.045  0.8208  0.0263  0.0406
  543TMC3     O 8114   1.928   1.627  17.040 -0.1297  0.3414  0.1087
  543TMC3     H 8115   1.944   1.616  17.261  0.9665  0.3579  2.2707
  543TMC3    H1 8116   1.679   1.923  17.113 -1.3196  0.5342  0.7326
  543TMC3    H2 8117   1.576   1.693  17.470  1.3746  2.4833  1.5780
  543TMC3    C7 8118   1.496   1.893  17.298 -0.1309  0.3838 -0.4029
  543TMC3    C8 8119   1.768   1.518  17.434  0.1085 -0.4210 -0.9195
  543TMC3    O1 8120   1.480   1.987  17.221  0.0173  0.4462  0.7495
  543TMC3    O2 8121   1.814   1.442  17.350 -0.0665 -0.0746  0.0064
  544MPD2     C 8122   1.733   1.159   0.044 -0.1234 -0.0804  0.0593
  544MPD2    C1 8123   1.749   1.146  17.660  0.3709  0.2874 -0.0057
  544MPD2    C2 8124   1.744   1.255  17.576 -0.1680 -0.4234  0.5716
  544MPD2    C3 8125   1.733   1.380  17.635 -0.1293 -0.1230  0.5084
  544MPD2    C4 8126   1.719   1.388   0.025 -1.0094  0.1618  0.1647
  544MPD2    C5 8127   1.728   1.282   0.100  0.4035 -0.2124  0.2111
  544MPD2     H 8128   1.760   1.240  17.470 -0.4416 -0.8350  0.5865
  544MPD2    H1 8129   1.695   1.473   0.087  0.1760 -0.0290  0.9013
  544MPD2    H2 8130   1.746   1.072   0.107 -0.1157  1.2025  1.8079
  544MPD2    H3 8131   1.717   1.292   0.207  0.0683  0.3016  0.1280
  544MPD2     N 8132   1.723   1.503  17.564  0.2438  0.2567 -0.3988
  544MPD2    H5 8133   1.706   1.590  17.612  0.4099  0.3795 -0.5636
  544MPD2    N1 8134   1.756   1.011  17.611  0.2090  0.9564  0.9896
  544MPD2    H7 8135   1.757   0.937  17.681  0.4949 -0.7635 -0.8172
  545TMC3    C1 8136   1.760   0.836  17.467  0.4146 -0.1535 -0.4760
  545TMC3    C2 8137   1.881   0.792  17.506 -0.2272 -0.2829  0.0218
  545TMC3    C3 8138   1.944   0.690  17.438  0.1390  0.6051 -0.3676
  545TMC3    C4 8139   1.677   0.765  17.382  0.0371  0.3551 -0.2076
  545TMC3    C5 8140   1.733   0.642  17.332 -0.4412  0.2364 -0.6041
  545TMC3    C6 8141   1.865   0.607  17.360 -0.3712  0.4848 -0.3798
  545TMC3     C 8142   1.734   0.976  17.482  0.3727 -0.0583  0.2624
  545TMC3     O 8143   1.710   1.046  17.384 -0.1895 -0.0183 -0.0405
  545TMC3     H 8144   1.947   0.846  17.572  2.7331 -2.6735 -0.9880
  545TMC3    H1 8145   1.576   0.802  17.369 -0.7152 -2.1502 -1.4667
  545TMC3    H2 8146   1.916   0.527  17.307 -1.4297  0.4821 -1.3842
  545TMC3    C7 8147   1.644   0.530  17.314 -0.2426 -0.2352 -0.2001
  545TMC3    C8 8148   2.081   0.657  17.458  0.3741 -0.5817 -0.7362
  545TMC3    O1 8149   1.530   0.552  17.283 -0.4378 -0.3474  0.2008
  545TMC3    O2 8150   2.105   0.534  17.461 -0.3124  0.5913  1.1002
  546MPD2     C 8151   3.435   1.262  16.954  0.0875 -0.6144  0.2380
  546MPD2    C1 8152   3.363   1.329  17.044 -0.0955  0.3080  0.6079
  546MPD2    C2 8153   3.416   1.439  17.116 -0.0117  0.2514  0.8398
  546MPD2    C3 8154   3.548   1.489  17.083  0.2721 -0.0638 -0.1197
  546MPD2    C4 8155   3.617   1.418  16.993  0.4603  0.6437  0.4977
  546MPD2    C5 8156   3.561   1.308  16.928  0.1984 -0.3667  0.2193
  546MPD2     H 8157   3.347   1.498  17.176 -0.5991 -0.4375  0.8445
  546MPD2    H1 8158   3.722   1.443  16.982 -0.3597  4.8068  2.2302
  546MPD2    H2 8159   3.405   1.167  16.910 -0.1858 -0.4429  0.0489
  546MPD2    H3 8160   3.626   1.253  16.861 -0.0958 -0.2714 -0.1397
  546MPD2     N 8161   3.601   1.616  17.125  0.5158  0.2549  0.3162
  546MPD2    H5 8162   3.688   1.653  17.087  0.0277  0.2695 -0.7920
  546MPD2    N1 8163   3.227   1.293  17.056  0.5397 -0.2970  0.2970
  546MPD2    H7 8164   3.189   1.228  16.988  1.8551 -1.8018  0.9830
  547TMC3    C1 8165   3.024   1.253  17.157  0.6051 -0.2137 -0.0287
  547TMC3    C2 8166   2.966   1.235  17.037  0.4398  0.1752  0.6423
  547TMC3    C3 8167   2.877   1.133  17.030  0.8935  0.9588 -0.0857
  547TMC3    C4 8168   2.981   1.202  17.272 -0.0245 -0.2453  0.3975
  547TMC3    C5 8169   2.890   1.106  17.268 -0.4481 -0.1246  0.2593
  547TMC3    C6 8170   2.841   1.067  17.145 -0.5694 -0.2503 -0.1599
  547TMC3     C 8171   3.147   1.332  17.159  0.4106 -0.1864  0.2747
  547TMC3     O 8172   3.178   1.378  17.268 -0.1616  0.2862 -0.1510
  547TMC3     H 8173   2.977   1.307  16.957 -0.1788 -0.0929  0.3093
  547TMC3    H1 8174   3.022   1.238  17.365 -1.4052  1.4476  0.3401
  547TMC3    H2 8175   2.764   0.992  17.159  0.3585 -1.3113 -0.7383
  547TMC3    C7 8176   2.930   0.989  17.354  0.7514  0.1908 -0.2739
  547TMC3    C8 8177   2.787   1.123  16.924 -0.4547 -0.1413  0.6170
  547TMC3    O1 8178   2.996   1.013  17.454  0.0817 -0.5699  0.1403
  547TMC3    O2 8179   2.670   1.091  16.946  0.2296  0.1716  0.2794
  548MPD2     C 8180   3.275   2.037  12.530 -0.2533  0.3016  0.0654
  548MPD2    C1 8181   3.188   1.946  12.582  0.2128  0.3881 -0.9026
  548MPD2    C2 8182   3.245   1.859  12.672 -0.5359  0.2800  0.4262
  548MPD2    C3 8183   3.379   1.845  12.700 -0.1943  0.5068 -0.3550
  548MPD2    C4 8184   3.466   1.927  12.632  0.3333 -0.5746  0.3940
  548MPD2    C5 8185   3.409   2.022  12.552 -0.0188  0.2339  0.4543
  548MPD2     H 8186   3.181   1.785  12.719 -0.6052  0.1538  0.1318
  548MPD2    H1 8187   3.574   1.930  12.644  0.3653 -1.6137  0.3646
  548MPD2    H2 8188   3.236   2.118  12.469 -0.9038 -0.2145 -0.2025
  548MPD2    H3 8189   3.474   2.094  12.504 -0.0032 -0.9314 -1.2871
  548MPD2     N 8190   3.429   1.743  12.789  0.1537  0.3579 -0.0235
  548MPD2    H5 8191   3.363   1.684  12.840  0.5309  0.4818  0.5989
  548MPD2    N1 8192   3.053   1.966  12.553 -0.6131 -0.1399 -0.4423
  548MPD2    H7 8193   3.024   2.054  12.512  2.2389  0.9066 -0.1939
  549TMC3    C1 8194   2.826   1.902  12.568  0.1715  0.1611 -0.0049
  549TMC3    C2 8195   2.784   2.032  12.550 -0.4105  0.1279  0.3711
  549TMC3    C3 8196   2.663   2.045  12.496 -0.5203 -0.2161 -0.2118
  549TMC3    C4 8197   2.743   1.795  12.545  0.8274  0.2617 -0.1882
  549TMC3    C5 8198   2.617   1.825  12.503  0.0920 -0.2671 -0.7942
  549TMC3    C6 8199   2.576   1.948  12.471  0.5505 -0.6839  0.5498
  549TMC3     C 8200   2.967   1.870  12.587  0.3603  0.3816  0.3183
  549TMC3     O 8201   2.990   1.759  12.637 -0.3273 -0.0566 -0.1158
  549TMC3     H 8202   2.845   2.113  12.587  2.0111 -0.7586 -1.6193
  549TMC3    H1 8203   2.775   1.692  12.556 -1.0209 -0.6347 -3.0890
  549TMC3    H2 8204   2.474   1.964  12.439 -0.1161 -0.9366  2.5199
  549TMC3    C7 8205   2.532   1.720  12.466  0.4884 -0.2209  0.3116
  549TMC3    C8 8206   2.616   2.175  12.456  0.3629 -0.5206 -0.4015
  549TMC3    O1 8207   2.412   1.752  12.478  0.1058  0.2900 -0.2510
  549TMC3    O2 8208   2.493   2.183  12.434 -0.8557 -0.3924 -0.4320
  550TMC3    C1 8209   2.157   0.060  12.250  0.9166  0.2964 -0.2770
  550TMC3    C2 8210   2.206   0.130  12.356 -0.6324  0.0761 -0.7995
  550TMC3    C3 8211   2.150   0.252  12.383 -1.1150 -0.1063 -0.4800
  550TMC3    C4 8212   2.056   0.111  12.166 -0.4178 -0.0055 -0.4265
  550TMC3    C5 8213   1.988   0.219  12.215  0.0787  0.1433 -0.3071
  550TMC3    C6 8214   2.034   0.293  12.321  0.0646 -0.7239  0.1199
  550TMC3     C 8215   2.238   4.687  12.205  0.3540  0.2600 -0.5329
  550TMC3     O 8216   2.327   4.655  12.284  0.3224  0.6418 -0.3245
  550TMC3     H 8217   2.295   0.096  12.409  0.0461 -0.7605 -2.4617
  550TMC3    H1 8218   2.019   0.055  12.081 -0.4192  1.5664 -1.4606
  550TMC3    H2 8219   1.991   0.388  12.352 -0.5947 -0.3806 -1.8385
  550TMC3    C7 8220   1.841   0.206  12.226  0.1575  0.7257  0.4092
  550TMC3    C8 8221   2.157   0.303  12.519  1.0412  0.3161  0.2615
  550TMC3    O1 8222   1.790   0.147  12.130 -0.3567  0.0814  0.3230
  550TMC3    O2 8223   2.124   0.417  12.542 -1.0465 -0.5867 -0.1693
  551TMC3    C1 8224   4.562   2.637  13.027 -0.8853  0.3515  0.3021
  551TMC3    C2 8225   4.679   2.657  12.964 -0.7426 -0.0177  0.0270
  551TMC3    C3 8226   0.039   2.736  13.025 -0.2018 -1.4395  0.2679
  551TMC3    C4 8227   4.538   2.703  13.142  0.4997 -0.6068  0.5465
  551TMC3    C5 8228   4.640   2.783  13.195  0.4524  0.1761  0.3859
  551TMC3    C6 8229   0.017   2.805  13.134  0.5241 -0.0931 -0.6302
  551TMC3     C 8230   4.447   2.637  12.933  0.4800  0.1623 -0.1975
  551TMC3     O 8231   4.338   2.674  12.984  0.0448  0.2855 -0.2829
  551TMC3     H 8232   4.698   2.622  12.863  0.9480 -1.7474  0.9333
  551TMC3    H1 8233   4.436   2.706  13.179 -0.1268  0.1516 -1.2418
  551TMC3    H2 8234   0.101   2.855  13.182 -0.2479  1.4129 -0.8370
  551TMC3    C7 8235   4.609   2.865  13.314 -0.4505  0.2673 -0.5425
  551TMC3    C8 8236   0.167   2.749  12.965 -0.4174  0.0553  0.6163
  551TMC3    O1 8237   4.538   2.806  13.394  0.0301 -0.0795 -0.1474
  551TMC3    O2 8238   0.241   2.839  12.998 -0.1170  0.2361  0.3375
  552MPD2     C 8239   1.040   0.062  13.945  0.3806 -0.2728 -0.4834
  552MPD2    C1 8240   1.016   4.663  13.963 -0.1807  0.0130  0.6602
  552MPD2    C2 8241   1.113   4.585  14.026 -0.1870  0.0676 -0.1280
  552MPD2    C3 8242   1.228   4.643  14.081 -0.7999  0.1921  0.4800
  552MPD2    C4 8243   1.248   0.043  14.069 -0.2179 -0.0145 -0.9852
  552MPD2    C5 8244   1.153   0.113  14.001 -0.4157 -0.1638  0.2389
  552MPD2     H 8245   1.088   4.480  14.035 -2.3000  0.7045  1.4795
  552MPD2    H1 8246   1.321   0.107  14.117  0.0287 -0.4650 -0.7613
  552MPD2    H2 8247   0.973   0.125  13.889  0.4118  1.5494  1.5057
  552MPD2    H3 8248   1.160   0.221  13.990  1.0955 -0.2788  0.0826
  552MPD2     N 8249   1.327   4.555  14.133  0.1743 -0.3603  0.6247
  552MPD2    H5 8250   1.302   4.457  14.145  0.4959 -0.7721 -2.2770
  552MPD2    N1 8251   0.889   4.602  13.928  0.6527 -0.2770 -0.6868
  552MPD2    H7 8252   0.875   4.506  13.958  1.9506  0.0269  0.8859
  553TMC3    C1 8253   0.672   4.570  13.854 -0.4756 -0.6584  0.0572
  553TMC3    C2 8254   0.585   4.601  13.756 -0.1953 -1.0188  0.1117
  553TMC3    C3 8255   0.532   4.501  13.683  0.0561  0.1303 -0.1856
  553TMC3    C4 8256   0.688   4.442  13.900 -0.7307 -0.8532 -0.2185
  553TMC3    C5 8257   0.642   4.336  13.831  0.7493 -1.0157 -0.1811
  553TMC3    C6 8258   0.562   4.374  13.724 -0.4458  0.8560 -0.1016
  553TMC3     C 8259   0.786   4.663  13.860  0.1611  0.1393  0.0024
  553TMC3     O 8260   0.783   0.032  13.800  0.1380  0.1145 -0.2436
  553TMC3     H 8261   0.571   4.700  13.716  0.8206 -1.1875 -0.6735
  553TMC3    H1 8262   0.724   4.430  14.001 -0.6705 -0.0322 -0.1404
  553TMC3    H2 8263   0.519   4.288  13.673  1.8480  0.7439 -1.8193
  553TMC3    C7 8264   0.756   4.258  13.786 -0.4300  0.1328 -0.1658
  553TMC3    C8 8265   0.579   4.515  13.541  0.0560  1.0762 -0.4538
  553TMC3    O1 8266   0.769   4.233  13.666 -0.3331 -0.5279  0.1603
  553TMC3    O2 8267   0.670   4.596  13.520 -0.0642  0.3405 -0.6279
  554TMC3    C1 8268   2.882   3.852  11.670 -0.5453 -0.0716 -0.1119
  554TMC3    C2 8269   2.808   3.780  11.589  0.3124 -1.1844 -0.5109
  554TMC3    C3 8270   2.885   3.736  11.474  0.0390 -0.5264 -0.0404
  554TMC3    C4 8271   3.016   3.883  11.644  0.0202 -0.0332 -0.6262
  554TMC3    C5 8272   3.079   3.832  11.533 -0.2410  0.5358 -0.7090
  554TMC3    C6 8273   3.015   3.751  11.454 -0.6729 -0.7374  0.2490
  554TMC3     C 8274   2.854   3.843  11.813  0.1055  0.1989 -0.0028
  554TMC3     O 8275   2.741   3.859  11.858  0.0992  0.6670  0.0044
  554TMC3     H 8276   2.702   3.787  11.608  0.2090  3.1162 -2.6357
  554TMC3    H1 8277   3.065   3.956  11.708  0.6631  0.3454 -1.5610
  554TMC3    H2 8278   3.063   3.705  11.369 -0.3338 -1.4693  0.8406
  554TMC3    C7 8279   3.190   3.901  11.471  0.0183  0.0872 -0.1794
  554TMC3    C8 8280   2.812   3.669  11.368 -0.1970 -0.1730  0.3527
  554TMC3    O1 8281   3.206   3.880  11.352 -0.0909  0.0521 -0.6610
  554TMC3    O2 8282   2.884   3.602  11.297  0.7922  0.1050  0.0616
  555TMC3    C1 8283   1.856   3.320  15.037 -0.5449 -0.1075  0.1518
  555TMC3    C2 8284   1.840   3.381  15.160 -0.5550 -0.2121  0.4680
  555TMC3    C3 8285   1.915   3.334  15.270  0.4387  0.1120 -0.5536
  555TMC3    C4 8286   1.920   3.201  15.024  0.2507 -0.4681 -0.0811
  555TMC3    C5 8287   1.996   3.155  15.133 -0.1545 -0.2094  0.6028
  555TMC3    C6 8288   1.991   3.217  15.258 -0.7657 -0.2392 -0.7251
  555TMC3     C 8289   1.782   3.378  14.921  0.3767  0.5417  0.5398
  555TMC3     O 8290   1.701   3.465  14.955  0.0972  0.5199 -0.2101
  555TMC3     H 8291   1.784   3.474  15.167 -1.1323 -0.5307  0.0610
  555TMC3    H1 8292   1.895   3.147  14.933 -0.1844  1.1840 -0.9366
  555TMC3    H2 8293   2.028   3.162  15.344 -1.8404  1.7841  1.0144
  555TMC3    C7 8294   2.032   3.010  15.144 -0.4363 -0.4048  0.1390
  555TMC3    C8 8295   1.872   3.381  15.407 -0.1138  0.1569  0.3848
  555TMC3    O1 8296   2.030   2.958  15.259  0.3766 -1.1528 -0.0671
  555TMC3    O2 8297   1.792   3.477  15.409  0.5533 -0.3778 -0.0686
  556MPD2     C 8298   0.120   0.939  10.680  0.1421  0.6038  0.0095
  556MPD2    C1 8299   0.125   0.805  10.724 -0.9073 -0.4461  0.3000
  556MPD2    C2 8300   0.114   0.704  10.633  0.4657 -0.0281 -1.0463
  556MPD2    C3 8301   0.081   0.720  10.500 -0.4334  0.2518  0.2796
  556MPD2    C4 8302   0.064   0.852  10.458 -0.3936  0.3501  0.4367
  556MPD2    C5 8303   0.084   0.956  10.549 -0.1479  0.1336 -0.2770
  556MPD2     H 8304   0.107   0.603  10.669 -1.2949  0.2516 -0.6168
  556MPD2    H1 8305   0.043   0.878  10.355  0.4139  2.4161  0.8097
  556MPD2    H2 8306   0.134   1.027  10.741  1.9466  0.5541 -0.3457
  556MPD2    H3 8307   0.072   1.053  10.504 -0.4387  0.4807  0.5444
  556MPD2     N 8308   0.080   0.605  10.409  0.3615  0.0304 -0.0554
  556MPD2    H5 8309   0.099   0.515  10.451 -1.1458 -0.0028  0.5556
  556MPD2    N1 8310   0.143   0.767  10.856 -0.6430 -0.5086 -0.0649
  556MPD2    H7 8311   0.135   0.669  10.882 -0.6368 -0.6623 -0.6428
  557TMC3    C1 8312   0.024   0.479  10.220 -0.7187 -0.6924 -0.1302
  557TMC3    C2 8313   0.033   0.472  10.085  0.6556  0.0333  0.2270
  557TMC3    C3 8314   0.030   0.351  10.027 -0.4174  0.0013  0.5850
  557TMC3    C4 8315   0.033   0.362  10.296  0.7568  1.1378  2.0414
  557TMC3    C5 8316   0.034   0.241  10.230 -0.5567  0.4612 -0.6603
  557TMC3    C6 8317   0.037   0.228  10.094  0.1816 -0.4884  1.2889
  557TMC3     C 8318   0.054   0.612  10.277 -0.3021 -0.6605 -0.2545
  557TMC3     O 8319   0.045   0.713  10.204  0.5514 -0.6239  0.0482
  557TMC3     H 8320   0.036   0.564  10.027 -0.1997 -1.1280 -1.6442
  557TMC3    H1 8321   0.032   0.366  10.404 -3.6868 -1.5192  2.0798
  557TMC3    H2 8322   0.038   0.132  10.045 -2.5466 -0.2729  0.7727
  557TMC3    C7 8323   0.065   0.129  10.316 -0.0694 -0.1224 -0.5423
  557TMC3    C8 8324   0.014   0.347   9.882  0.3679  0.0275  0.5776
  557TMC3    O1 8325   0.028   0.142  10.432 -0.2588 -0.3582 -0.1842
  557TMC3    O2 8326   4.717   0.456   9.839  0.1865  0.1450  0.0474
  558TMC3    C1 8327   2.829   2.980  10.341 -0.8820  0.3269  0.1608
  558TMC3    C2 8328   2.743   2.968  10.444  0.0125 -0.1789 -0.6712
  558TMC3    C3 8329   2.625   3.041  10.440 -0.8224 -0.3263 -0.5958
  558TMC3    C4 8330   2.797   3.050  10.228  0.0467 -0.2911  0.3566
  558TMC3    C5 8331   2.671   3.106  10.217 -0.2214 -0.6723  0.1289
  558TMC3    C6 8332   2.586   3.100  10.322  0.0109 -0.7620 -0.0299
  558TMC3     C 8333   2.962   2.913  10.353 -0.1060 -0.3206 -0.0451
  558TMC3     O 8334   3.056   2.960  10.297  1.2187 -0.1198 -0.0544
  558TMC3     H 8335   2.781   2.933  10.539  0.5638 -0.4280 -0.9857
  558TMC3    H1 8336   2.868   3.062  10.147  0.3363 -2.1339  0.3440
  558TMC3    H2 8337   2.503   3.171  10.324  0.4625 -0.1737 -1.8052
  558TMC3    C7 8338   2.622   3.148  10.080 -0.2002  0.3466  0.1964
  558TMC3    C8 8339   2.513   3.002  10.520  0.0733  0.0452  0.4426
  558TMC3    O1 8340   2.698   3.163   9.982  0.0273 -0.3226 -0.6172
  558TMC3    O2 8341   2.407   3.058  10.488  0.2850  0.6389  0.5064
  559MPD2     C 8342   2.748   3.367  10.550  0.3372 -0.0804  0.3435
  559MPD2    C1 8343   2.701   3.351  10.669 -0.2476 -0.1069 -0.4711
  559MPD2    C2 8344   2.787   3.329  10.776 -0.2996  0.1437  0.2089
  559MPD2    C3 8345   2.922   3.322  10.748 -0.1696 -0.2885  0.6471
  559MPD2    C4 8346   2.966   3.333  10.612 -1.3771  0.1512  0.1138
  559MPD2    C5 8347   2.875   3.358  10.511  0.6557 -0.1705 -0.6239
  559MPD2     H 8348   2.754   3.324  10.879 -0.2125 -2.4231  0.0911
  559MPD2    H1 8349   3.073   3.331  10.595 -1.1982  2.1786  0.9779
  559MPD2    H2 8350   2.679   3.396  10.471  0.5224 -0.1806  0.1449
  559MPD2    H3 8351   2.904   3.369  10.407 -0.5129  3.0860 -0.6293
  559MPD2     N 8352   3.004   3.286  10.853 -0.1292 -0.7050 -0.2456
  559MPD2    H5 8353   2.956   3.284  10.943  0.5394 -2.1029  0.0889
  559MPD2    N1 8354   2.562   3.345  10.677 -0.4998 -0.4459  0.4028
  559MPD2    H7 8355   2.518   3.366  10.588  0.7943 -0.9384 -0.3543
  560TMC3    C1 8356   3.177   3.202  10.977 -0.4220  0.1090  0.4570
  560TMC3    C2 8357   3.104   3.107  11.041  0.2729  0.1972 -0.1197
  560TMC3    C3 8358   3.152   3.013  11.121 -0.6697 -0.6282  0.7658
  560TMC3    C4 8359   3.310   3.202  11.006  0.0327 -0.6343  0.5705
  560TMC3    C5 8360   3.361   3.113  11.095  0.4507  0.0331 -0.5661
  560TMC3    C6 8361   3.281   3.011  11.151 -0.1795  0.3892 -0.4271
  560TMC3     C 8362   3.134   3.249  10.849 -0.1327  0.4877 -0.4295
  560TMC3     O 8363   3.219   3.249  10.759  0.2168 -0.2968  0.3075
  560TMC3     H 8364   3.004   3.081  11.007  0.0669  2.2043 -1.0750
  560TMC3    H1 8365   3.370   3.260  10.937 -0.6783  0.1224  0.5925
  560TMC3    H2 8366   3.320   2.940  11.222 -0.9331 -0.3216 -0.7197
  560TMC3    C7 8367   3.453   3.171  11.186 -0.3600  0.1871 -0.2745
  560TMC3    C8 8368   3.093   2.881  11.103  0.3673  0.8270  0.1596
  560TMC3    O1 8369   3.487   3.095  11.280  0.1315 -0.1879  0.7902
  560TMC3    O2 8370   2.968   2.878  11.105  0.5074  0.0093 -0.5290
  561TMC3    C1 8371   0.800   1.993  11.577  0.2932  0.4643  0.2890
  561TMC3    C2 8372   0.730   1.948  11.681 -0.0542  0.0778 -0.8950
  561TMC3    C3 8373   0.624   2.022  11.730  0.1405 -0.1184  0.4943
  561TMC3    C4 8374   0.760   2.102  11.503  0.1618  0.6726  0.2961
  561TMC3    C5 8375   0.647   2.166  11.548  0.1670 -0.3968 -0.5945
  561TMC3    C6 8376   0.571   2.127  11.656  0.0979  0.1167  0.6919
  561TMC3     C 8377   0.943   1.963  11.582  0.1954  0.5674  0.6359
  561TMC3     O 8378   0.965   1.872  11.662 -0.2797  0.1568 -0.1163
  561TMC3     H 8379   0.764   1.867  11.745 -0.2714  1.4004  0.9033
  561TMC3    H1 8380   0.824   2.131  11.420  0.0337  0.4034  0.1021
  561TMC3    H2 8381   0.489   2.190  11.689 -0.0545  0.8430 -1.1061
  561TMC3    C7 8382   0.603   2.282  11.485  0.5103  0.5690  0.2606
  561TMC3    C8 8383   0.560   1.983  11.857  0.0418  0.3274  0.1976
  561TMC3    O1 8384   0.491   2.323  11.520  0.1856  0.2641  0.1868
  561TMC3    O2 8385   0.571   1.860  11.886 -0.1868  0.3330  0.2624
  562TMC3    C1 8386   1.535   3.750  16.403  0.0263  0.3871  0.0694
  562TMC3    C2 8387   1.515   3.875  16.348  0.0367 -0.3985 -0.8121
  562TMC3    C3 8388   1.530   3.877  16.210  0.1512 -0.4113 -0.0167
  562TMC3    C4 8389   1.584   3.637  16.339 -0.8629  0.0774 -0.7134
  562TMC3    C5 8390   1.608   3.657  16.208  0.6967 -0.1063  0.1507
  562TMC3    C6 8391   1.594   3.778  16.138  0.2994  0.6053 -0.0061
  562TMC3     C 8392   1.541   3.741  16.549  0.0013 -0.2765  0.8187
  562TMC3     O 8393   1.597   3.644  16.601  0.1781  0.2440  0.2055
  562TMC3     H 8394   1.467   3.958  16.397  1.3191 -1.4034  2.1637
  562TMC3    H1 8395   1.614   3.547  16.392 -0.8804  0.7862  0.4975
  562TMC3    H2 8396   1.612   3.781  16.031 -2.3042 -0.1557 -0.4763
  562TMC3    C7 8397   1.590   3.541  16.129 -0.4697 -0.4056  0.0483
  562TMC3    C8 8398   1.533   4.014  16.152  0.2668 -0.2178  0.0120
  562TMC3    O1 8399   1.535   3.555  16.020 -0.1235  0.1219  0.2342
  562TMC3    O2 8400   1.533   4.106  16.232  0.5531 -0.0706 -0.4734
  563MPD2     C 8401   4.112   0.292  15.081 -0.8295 -0.3626 -0.6991
  563MPD2    C1 8402   4.118   0.236  15.204 -0.5260  0.8467  0.3341
  563MPD2    C2 8403   4.231   0.164  15.238  0.0790 -0.3206 -0.4945
  563MPD2    C3 8404   4.337   0.159  15.149 -0.2869  0.2021  0.1271
  563MPD2    C4 8405   4.335   0.228  15.028  0.6359  0.0293  0.3676
  563MPD2    C5 8406   4.223   0.298  14.998  0.1519 -0.5364  0.2509
  563MPD2     H 8407   4.231   0.099  15.325 -0.3936 -0.2534 -0.4426
  563MPD2    H1 8408   4.422   0.242  14.964  0.4277  1.0949  0.3185
  563MPD2    H2 8409   4.026   0.352  15.052 -0.0707  0.4924 -1.1495
  563MPD2    H3 8410   4.206   0.346  14.903 -2.2506  1.8331  1.8514
  563MPD2     N 8411   4.454   0.095  15.189 -1.3410 -0.1936  0.3660
  563MPD2    H5 8412   4.448   0.049  15.279  0.2642 -0.2608  0.4459
  563MPD2    N1 8413   4.007   0.241  15.296 -0.5079  0.3572  0.1922
  563MPD2    H7 8414   3.919   0.280  15.266 -0.9511 -1.2559 -0.6383
  564TMC3    C1 8415   3.915   0.228  15.500  0.1009  0.0696 -0.0766
  564TMC3    C2 8416   3.817   0.135  15.470 -0.1542  0.2851 -0.5026
  564TMC3    C3 8417   3.746   0.091  15.576 -0.1827 -0.2459  0.2524
  564TMC3    C4 8418   3.943   0.263  15.631  0.3263  0.1297  0.6906
  564TMC3    C5 8419   3.871   0.211  15.735 -0.6108 -0.1254 -0.5988
  564TMC3    C6 8420   3.767   0.131  15.707 -0.0502  0.6412 -0.5934
  564TMC3     C 8421   4.034   0.223  15.429  0.0888 -0.1921  0.8041
  564TMC3     O 8422   4.137   0.227  15.497 -0.1178  0.1629 -0.6615
  564TMC3     H 8423   3.794   0.100  15.370 -0.4414 -2.6340  0.5915
  564TMC3    H1 8424   4.020   0.333  15.661 -0.1218  1.4569 -1.2779
  564TMC3    H2 8425   3.697   0.107  15.785  1.3189  1.0710  0.7738
  564TMC3    C7 8426   3.954   0.150  15.835 -0.3157  0.3740  0.6270
  564TMC3    C8 8427   3.677   4.703  15.577 -0.3543  0.5076  0.6468
  564TMC3    O1 8428   4.059   0.211  15.854  0.2231  0.3164 -0.4912
  564TMC3    O2 8429   3.608   4.686  15.680 -0.3588  0.1599 -0.1681
  565TMC3    C1 8430   0.535   2.483   9.780 -0.1246  0.0967 -0.1586
  565TMC3    C2 8431   0.620   2.418   9.868  0.7579  0.1210  0.3091
  565TMC3    C3 8432   0.582   2.296   9.911  0.7354 -0.0265  0.3629
  565TMC3    C4 8433   0.425   2.421   9.736  0.0838 -0.0865  0.5698
  565TMC3    C5 8434   0.398   2.297   9.780 -0.0952  0.3708 -0.3225
  565TMC3    C6 8435   0.473   2.229   9.872 -0.0407 -0.1491 -0.9887
  565TMC3     C 8436   0.553   2.622   9.752 -0.4958 -0.5877  0.0280
  565TMC3     O 8437   0.464   2.684   9.704 -0.1032 -0.4606 -0.1356
  565TMC3     H 8438   0.713   2.452   9.913  0.7619 -1.0295  1.1748
  565TMC3    H1 8439   0.360   2.473   9.666  0.3599  0.2664  0.5832
  565TMC3    H2 8440   0.476   2.121   9.864  0.8778 -0.0544 -1.8461
  565TMC3    C7 8441   0.322   2.214   9.685  0.3069 -0.0778  1.1496
  565TMC3    C8 8442   0.660   2.245  10.019 -0.0365  0.1950  0.6857
  565TMC3    O1 8443   0.287   2.266   9.579 -0.0353  0.2748 -0.1608
  565TMC3    O2 8444   0.766   2.299  10.050 -0.1273 -0.2534 -0.2487
  566MPD2     C 8445   1.336   2.411  13.431  0.4927  0.2262  0.1669
  566MPD2    C1 8446   1.342   2.549  13.419 -0.1790  0.2397 -0.2328
  566MPD2    C2 8447   1.239   2.610  13.347  0.6878  0.3033  0.5306
  566MPD2    C3 8448   1.136   2.537  13.292  0.1160 -0.5234 -0.5620
  566MPD2    C4 8449   1.121   2.405  13.332  0.1192  0.6617  0.3071
  566MPD2    C5 8450   1.217   2.346  13.405 -0.3733  1.0022 -0.5956
  566MPD2     H 8451   1.238   2.718  13.338  0.6665  0.3121  0.6404
  566MPD2    H1 8452   1.031   2.345  13.323  1.2147 -1.1094  1.1487
  566MPD2    H2 8453   1.407   2.354  13.490  1.4874  0.5200 -0.7627
  566MPD2    H3 8454   1.200   2.247  13.446  2.1022  1.0996  0.6577
  566MPD2     N 8455   1.027   2.592  13.219  0.4063  0.0894  0.2702
  566MPD2    H5 8456   0.947   2.530  13.212  0.1888  0.6239 -2.1075
  566MPD2    N1 8457   1.454   2.622  13.459  0.6636  0.6251  0.2319
  566MPD2    H7 8458   1.526   2.572  13.511  1.0131 -0.6644 -1.5193
  567TMC3    C1 8459   1.620   2.786  13.478  0.5589  0.0756  0.5608
  567TMC3    C2 8460   1.696   2.872  13.405 -0.1229 -0.0749 -0.4290
  567TMC3    C3 8461   1.807   2.926  13.461 -0.7339 -0.0805 -0.4048
  567TMC3    C4 8462   1.656   2.756  13.611 -0.5692  0.4430 -0.5319
  567TMC3    C5 8463   1.767   2.819  13.660 -0.0692 -0.5351  0.2247
  567TMC3    C6 8464   1.849   2.898  13.588  0.4334 -0.0228  0.2914
  567TMC3     C 8465   1.491   2.748  13.420 -0.0709  0.3139 -0.0318
  567TMC3     O 8466   1.431   2.831  13.352 -0.2745 -0.5198 -0.0574
  567TMC3     H 8467   1.664   2.892  13.304 -2.0695 -0.4991  0.1018
  567TMC3    H1 8468   1.599   2.687  13.672  1.2646 -0.1739  0.4764
  567TMC3    H2 8469   1.922   2.967  13.631 -1.7331  0.2960  3.4478
  567TMC3    C7 8470   1.779   2.806  13.805 -0.3879  0.2027 -0.7562
  567TMC3    C8 8471   1.834   3.054  13.414  0.3900  0.3191  0.1501
  567TMC3    O1 8472   1.688   2.769  13.875 -0.2353 -0.0049 -0.1277
  567TMC3    O2 8473   1.731   3.116  13.394 -0.3922 -0.5879 -0.4941
  568MPD2     C 8474   3.588   3.461  16.457 -0.4210 -0.8346  0.0890
  568MPD2    C1 8475   3.695   3.514  16.390 -0.2480 -0.3379  0.3702
  568MPD2    C2 8476   3.681   3.620  16.301 -0.6980  0.2200  0.5287
  568MPD2    C3 8477   3.556   3.681  16.278 -0.3200  0.3609  0.7812
  568MPD2    C4 8478   3.446   3.621  16.336  0.0879  0.2709 -0.3796
  568MPD2    C5 8479   3.467   3.514  16.426 -0.1793  0.4810 -0.3930
  568MPD2     H 8480   3.767   3.658  16.248 -0.5300 -0.0642  0.5988
  568MPD2    H1 8481   3.344   3.645  16.310 -0.9002 -3.2928  0.2135
  568MPD2    H2 8482   3.599   3.383  16.532  1.2685 -0.8200 -0.1406
  568MPD2    H3 8483   3.383   3.469  16.477 -0.7935  2.2559  0.1560
  568MPD2     N 8484   3.548   3.795  16.193 -0.2311  0.1466  0.1603
  568MPD2    H5 8485   3.629   3.817  16.136 -1.0451  1.5434 -0.4500
  568MPD2    N1 8486   3.827   3.463  16.424 -0.0637 -0.6441 -0.0798
  568MPD2    H7 8487   3.832   3.397  16.502  0.7038  0.6617  0.9749
  569TMC3    C1 8488   3.490   4.009  16.124 -0.1204  0.1460 -0.7766
  569TMC3    C2 8489   3.487   4.128  16.192  0.3283  0.4266 -0.2267
  569TMC3    C3 8490   3.572   4.228  16.162 -0.0873  0.0862  0.3211
  569TMC3    C4 8491   3.566   3.997  16.014  0.6192  0.3164 -0.9864
  569TMC3    C5 8492   3.645   4.106  15.981 -0.0215 -0.1772 -0.1555
  569TMC3    C6 8493   3.655   4.212  16.055  0.6792 -0.2140  0.1319
  569TMC3     C 8494   3.448   3.892  16.204 -0.0438 -0.0119  0.5377
  569TMC3     O 8495   3.349   3.896  16.274 -0.3501  0.5797 -0.4373
  569TMC3     H 8496   3.435   4.139  16.286  2.4350 -1.8481  1.2085
  569TMC3    H1 8497   3.564   3.902  15.962  0.8242 -1.0730  1.5556
  569TMC3    H2 8498   3.720   4.291  16.020 -0.6842  1.3397  1.1329
  569TMC3    C7 8499   3.688   4.122  15.843 -0.2016  0.1260 -1.0578
  569TMC3    C8 8500   3.551   4.362  16.208  0.4919 -0.3003 -0.7505
  569TMC3    O1 8501   3.744   4.028  15.793 -0.6877 -0.3619 -0.0873
  569TMC3    O2 8502   3.441   4.397  16.233 -0.2786  0.1534  0.1635
  570TMC3    C1 8503   3.639   2.486  16.265  0.3185  0.3673  0.4537
  570TMC3    C2 8504   3.765   2.523  16.233  0.1156 -0.3564  0.7485
  570TMC3    C3 8505   3.800   2.651  16.238  0.4983  0.2243 -0.2048
  570TMC3    C4 8506   3.548   2.578  16.304  0.6564  0.2209  0.0608
  570TMC3    C5 8507   3.590   2.710  16.320 -0.4293  0.0700 -0.0335
  570TMC3    C6 8508   3.715   2.745  16.288  0.5358  0.1454 -0.0935
  570TMC3     C 8509   3.603   2.344  16.260  0.0620 -0.1582 -0.8109
  570TMC3     O 8510   3.679   2.283  16.188  0.1169  0.2424  0.2450
  570TMC3     H 8511   3.839   2.448  16.205  1.7068  0.7938  1.8318
  570TMC3    H1 8512   3.447   2.558  16.338  1.1285  0.2060  1.4719
  570TMC3    H2 8513   3.757   2.845  16.296  1.2909 -0.0647 -1.6382
  570TMC3    C7 8514   3.521   2.795  16.421  0.1991  0.3085 -0.0279
  570TMC3    C8 8515   3.912   2.708  16.163  0.1268 -0.2249  0.0100
  570TMC3    O1 8516   3.597   2.861  16.491  0.1473 -0.1995 -0.2965
  570TMC3    O2 8517   3.928   2.828  16.145 -0.1330  0.2212 -0.0368
  571MPD2     C 8518   1.163   4.407   0.225  0.0672  0.8354 -0.5519
  571MPD2    C1 8519   1.136   4.472   0.338 -0.5291 -0.5592  0.3656
  571MPD2    C2 8520   1.204   4.583   0.368 -0.6791  0.3541  0.1283
  571MPD2    C3 8521   1.295   4.631   0.274 -0.4215  0.3466  0.6330
  571MPD2    C4 8522   1.328   4.559   0.163  0.3616 -0.1263  0.0251
  571MPD2    C5 8523   1.273   4.436   0.141 -0.0059 -0.8704 -0.2155
  571MPD2     H 8524   1.187   4.639   0.459 -0.9659 -0.4231  0.5491
  571MPD2    H1 8525   1.402   4.598   0.094  0.5073  0.6875  0.6324
  571MPD2    H2 8526   1.110   4.323   0.181 -0.5955  1.0494 -0.1584
  571MPD2    H3 8527   1.307   4.384   0.053  0.4141 -1.1926  0.1373
  571MPD2     N 8528   1.356   0.017   0.286  0.0010  0.1330  0.0509
  571MPD2    H5 8529   1.413   0.042   0.206 -0.1060  0.3209  0.0321
  571MPD2    N1 8530   1.050   4.413   0.427 -0.2562  0.3196  0.6970
  571MPD2    H7 8531   1.037   4.313   0.420  2.3249  0.1186 -1.0230
  572TMC3    C1 8532   1.472   0.204   0.376  0.6143  0.3929  0.5062
  572TMC3    C2 8533   1.546   0.219   0.487  0.4913  0.5214 -0.5442
  572TMC3    C3 8534   1.592   0.348   0.508 -0.3724  0.2595  0.7112
  572TMC3    C4 8535   1.451   0.305   0.288  0.2366 -0.4424  0.5725
  572TMC3    C5 8536   1.487   0.434   0.316 -0.1411 -0.2540  0.3783
  572TMC3    C6 8537   1.574   0.453   0.423 -0.6799 -0.0639  0.3917
  572TMC3     C 8538   1.362   0.104   0.395  0.9977 -0.3141  0.3421
  572TMC3     O 8539   1.320   0.093   0.508  0.5712  0.2126  0.2427
  572TMC3     H 8540   1.582   0.139   0.550 -0.3585  0.9324  0.4723
  572TMC3    H1 8541   1.379   0.287   0.209 -0.4488  0.8172  0.9075
  572TMC3    H2 8542   1.596   0.551   0.463  0.6930 -0.7818  1.4157
  572TMC3    C7 8543   1.431   0.545   0.235 -0.5682  0.3745  0.3137
  572TMC3    C8 8544   1.574   0.382   0.646  0.0811 -0.2434 -0.7667
  572TMC3    O1 8545   1.333   0.520   0.168 -0.2033 -0.3720  0.1475
  572TMC3    O2 8546   1.662   0.460   0.686  0.2568 -0.3867 -0.7498
  573MPD2     C 8547   1.413   4.354   0.620  0.4489 -0.2140 -0.5190
  573MPD2    C1 8548   1.508   4.452   0.624 -0.7213 -0.9140  0.1653
  573MPD2    C2 8549   1.587   4.462   0.514  0.2346  0.3977  0.5634
  573MPD2    C3 8550   1.570   4.379   0.399  0.0667  0.2547  0.0226
  573MPD2    C4 8551   1.458   4.292   0.398  0.1020 -0.0461 -0.1156
  573MPD2    C5 8552   1.390   4.273   0.515  0.3613 -0.6420  0.0753
  573MPD2     H 8553   1.672   4.529   0.505 -0.2310  0.6660 -1.9728
  573MPD2    H1 8554   1.439   4.222   0.317  1.2497 -2.4014  1.6648
  573MPD2    H2 8555   1.360   4.341   0.715 -3.8307  1.7089 -2.6233
  573MPD2    H3 8556   1.306   4.205   0.511  1.2139 -1.8069  2.1721
  573MPD2     N 8557   1.653   4.385   0.280 -0.0555 -0.5218  1.1486
  573MPD2    H5 8558   1.622   4.326   0.204  0.0469  3.4852 -1.9560
  573MPD2    N1 8559   1.502   4.543   0.732 -0.3738  0.2395 -0.1717
  573MPD2    H7 8560   1.434   4.515   0.801 -1.3346  0.7661 -0.9131
  574TMC3    C1 8561   1.824   4.440   0.126 -0.2910  0.4013 -0.2059
  574TMC3    C2 8562   1.744   4.456   0.013  0.4298 -0.4491 -0.1752
  574TMC3    C3 8563   1.802   4.510  17.646  0.7921  0.5492 -0.4820
  574TMC3    C4 8564   1.956   4.487   0.120 -0.5822 -0.7102 -0.0193
  574TMC3    C5 8565   2.009   4.547   0.009  0.4171  0.2450 -0.1635
  574TMC3    C6 8566   1.934   4.558  17.645  0.2607  0.4001 -0.0386
  574TMC3     C 8567   1.769   4.457   0.258 -0.7053  0.3972 -0.1203
  574TMC3     O 8568   1.851   4.516   0.331 -0.6670  0.1660  0.4651
  574TMC3     H 8569   1.637   4.443   0.008 -0.0799  3.1625  1.1658
  574TMC3    H1 8570   2.022   4.459   0.202 -0.7186  0.6279  0.5538
  574TMC3    H2 8571   1.978   4.592  17.552 -0.6424 -1.7227 -1.2417
  574TMC3    C7 8572   2.144   4.610   0.008 -0.1560  0.1167  0.0377
  574TMC3    C8 8573   1.707   4.573  17.556  0.3045 -1.0220  0.0101
  574TMC3    O1 8574   2.182   4.664  17.652  0.1353 -0.2723 -0.8817
  574TMC3    O2 8575   1.601   4.519  17.530 -0.4584  0.2909 -0.3260
  575TMC3    C1 8576   1.406   1.890  10.286 -0.6032 -0.2790 -0.8921
  575TMC3    C2 8577   1.416   1.792  10.384  0.5479  0.5025  0.1419
  575TMC3    C3 8578   1.300   1.754  10.447 -0.0593  0.8882  0.3468
  575TMC3    C4 8579   1.295   1.956  10.256  0.8006  0.0327  0.4702
  575TMC3    C5 8580   1.179   1.908  10.309 -0.0839 -0.5224 -0.1281
  575TMC3    C6 8581   1.179   1.808  10.409 -0.3507  0.2827 -0.2134
  575TMC3     C 8582   1.525   1.908  10.209  0.2071  0.7680  0.1226
  575TMC3     O 8583   1.593   1.805  10.213 -0.0009  0.2076 -0.4428
  575TMC3     H 8584   1.510   1.744  10.409  0.2218  0.4386  1.2432
  575TMC3    H1 8585   1.287   2.026  10.173  0.6076 -2.2032 -1.3871
  575TMC3    H2 8586   1.095   1.759  10.457 -0.7063  0.7603 -0.3364
  575TMC3    C7 8587   1.056   1.940  10.238 -0.5081  0.1555 -0.3640
  575TMC3    C8 8588   1.308   1.638  10.530 -0.0899 -0.5140  0.0443
  575TMC3    O1 8589   1.072   1.999  10.131  0.4449 -0.0330  0.3996
  575TMC3    O2 8590   1.212   1.558  10.533 -0.5197 -0.2459  0.7666
  576MPD2     C 8591   4.631   2.970  12.799  0.4877  0.1342 -0.1591
  576MPD2    C1 8592   0.020   2.987  12.742 -0.3367  0.1676  0.2627
  576MPD2    C2 8593   0.085   3.102  12.787 -0.2965 -0.5676 -0.8170
  576MPD2    C3 8594   0.031   3.190  12.876 -0.0010 -0.2715 -0.2818
  576MPD2    C4 8595   4.642   3.169  12.917  0.2122  0.0881  0.3179
  576MPD2    C5 8596   4.574   3.059  12.884 -0.3802 -0.1436  0.1779
  576MPD2     H 8597   0.186   3.122  12.753 -0.7804  2.1360 -0.6584
  576MPD2    H1 8598   4.584   3.241  12.973 -1.5442 -0.5407 -0.6884
  576MPD2    H2 8599   4.571   2.886  12.764 -0.7260  1.3813 -1.0547
  576MPD2    H3 8600   4.473   3.045  12.921 -0.8007 -0.2101 -0.9756
  576MPD2     N 8601   0.118   3.302  12.919  0.5801  0.1471  0.1206
  576MPD2    H5 8602   0.213   3.297  12.882  0.1352  0.5311 -1.0850
  576MPD2    N1 8603   0.081   2.917  12.630  0.4995  0.0499 -0.0221
  576MPD2    H7 8604   0.164   2.950  12.583  0.9209  0.8649  1.2757
  577TMC3    C1 8605   0.111   2.743  12.474 -0.3238 -0.7006  0.8418
  577TMC3    C2 8606   0.146   2.610  12.463  0.5795  0.2660  0.7658
  577TMC3    C3 8607   0.199   2.567  12.346  0.1552  0.2032  0.2525
  577TMC3    C4 8608   0.115   2.820  12.363  0.0262  0.5510  0.1764
  577TMC3    C5 8609   0.153   2.770  12.244  0.6057  0.6770  0.7803
  577TMC3    C6 8610   0.192   2.646  12.237 -0.6371 -0.8099 -0.8170
  577TMC3     C 8611   0.045   2.790  12.595 -0.5275 -0.0386 -0.3336
  577TMC3     O 8612   4.720   2.712  12.664  0.0025  0.5756  0.1489
  577TMC3     H 8613   0.146   2.543  12.548  0.6780 -1.0135 -0.2596
  577TMC3    H1 8614   0.061   2.914  12.369  0.6027  0.9086 -0.1566
  577TMC3    H2 8615   0.222   2.609  12.139 -0.2668  0.7260 -1.2806
  577TMC3    C7 8616   0.101   2.826  12.121  0.4990  0.1277  0.2645
  577TMC3    C8 8617   0.237   2.427  12.338 -0.2792 -0.1877 -0.4347
  577TMC3    O1 8618   4.718   2.858  12.129  0.0917 -0.2200  0.1130
  577TMC3    O2 8619   0.235   2.358  12.440 -0.1367  0.1639  0.4970
  578MPD2     C 8620   2.536   2.155   1.606  0.9829 -0.5166  0.3705
  578MPD2    C1 8621   2.536   2.081   1.489 -0.4873  0.0949 -0.8337
  578MPD2    C2 8622   2.649   2.004   1.464  0.1920 -0.8029  0.6738
  578MPD2    C3 8623   2.747   1.984   1.559 -0.4247  0.3524  0.7481
  578MPD2    C4 8624   2.741   2.056   1.680 -0.4904 -0.7895 -0.6332
  578MPD2    C5 8625   2.637   2.142   1.694  0.5294 -0.3689  0.1746
  578MPD2     H 8626   2.663   1.950   1.371  0.7677  0.6532 -0.0843
  578MPD2    H1 8627   2.812   2.045   1.761  0.1393 -0.1028 -1.0952
  578MPD2    H2 8628   2.455   2.223   1.626  3.0232  1.9964  0.1279
  578MPD2    H3 8629   2.613   2.178   1.794  1.9377  1.1274 -0.0230
  578MPD2     N 8630   2.857   1.891   1.542 -0.0793  1.2043  0.5769
  578MPD2    H5 8631   2.874   1.848   1.452  0.8021 -0.2200  1.4156
  578MPD2    N1 8632   2.435   2.102   1.394 -0.3410 -0.2169 -0.2605
  578MPD2    H7 8633   2.386   2.190   1.401 -2.2841 -1.3195  0.0751
  579TMC3    C1 8634   3.077   1.794   1.568  0.7641  0.6828 -0.5270
  579TMC3    C2 8635   3.189   1.789   1.640 -0.1431 -0.5648  0.1239
  579TMC3    C3 8636   3.306   1.762   1.578  0.4016 -0.3797  0.3386
  579TMC3    C4 8637   3.084   1.748   1.436 -0.1099 -0.3021  0.9143
  579TMC3    C5 8638   3.200   1.722   1.376  0.3617 -0.9389 -0.1419
  579TMC3    C6 8639   3.321   1.728   1.447  0.5435  0.9609  0.0209
  579TMC3     C 8640   2.957   1.860   1.635 -0.2576  0.2607 -0.3705
  579TMC3     O 8641   2.971   1.883   1.755 -0.6712  0.4998  0.2877
  579TMC3     H 8642   3.191   1.821   1.744 -0.8628 -0.0119 -0.0343
  579TMC3    H1 8643   2.994   1.733   1.378  1.9526 -1.2624 -2.0746
  579TMC3    H2 8644   3.413   1.698   1.397  0.2254 -0.5049  0.3403
  579TMC3    C7 8645   3.198   1.615   1.282 -0.6533 -0.4638 -0.3052
  579TMC3    C8 8646   3.428   1.805   1.653 -0.2526  0.7750  0.4723
  579TMC3    O1 8647   3.288   1.534   1.284  0.3538 -0.0237 -0.2563
  579TMC3    O2 8648   3.418   1.828   1.774 -0.5669  0.3730  0.2941
  580TMC3    C1 8649   2.822   2.031  12.150  0.2626 -0.7170  0.3931
  580TMC3    C2 8650   2.928   2.122  12.139  0.6740  0.0371  0.2727
  580TMC3    C3 8651   3.057   2.086  12.180 -0.2755  0.2918 -0.3697
  580TMC3    C4 8652   2.841   1.905  12.206  0.7172  0.3287 -0.0474
  580TMC3    C5 8653   2.967   1.875  12.256  0.2829 -0.5506  0.1835
  580TMC3    C6 8654   3.074   1.961  12.238  0.0252  0.8850 -0.9232
  580TMC3     C 8655   2.710   2.052  12.074 -0.3595 -0.7309 -0.1208
  580TMC3     O 8656   2.613   1.991  12.104  0.3629  0.0122  0.0735
  580TMC3     H 8657   2.906   2.227  12.126 -0.4829 -0.4467 -1.6977
  580TMC3    H1 8658   2.756   1.844  12.234  1.5650 -1.3685 -1.1787
  580TMC3    H2 8659   3.176   1.924  12.248  0.1329  1.3549 -0.2683
  580TMC3    C7 8660   2.993   1.735  12.283  0.2913 -0.2378  0.0630
  580TMC3    C8 8661   3.169   2.161  12.132  0.3255  0.1106  0.3524
  580TMC3    O1 8662   2.897   1.657  12.266  0.2534  0.0486 -0.0000
  580TMC3    O2 8663   3.258   2.179  12.215  0.5792 -0.2497 -0.5180
  581MPD2     C 8664   0.244   1.157  14.820  0.3561 -0.6320 -0.5176
  581MPD2    C1 8665   0.244   1.293  14.852  0.6436 -0.2602 -0.0691
  581MPD2    C2 8666   0.137   1.371  14.813  0.6333 -0.4166 -0.1427
  581MPD2    C3 8667   0.045   1.323  14.721 -0.2482  0.1551  0.4114
  581MPD2    C4 8668   0.046   1.184  14.699 -0.1715 -0.3757 -0.2180
  581MPD2    C5 8669   0.139   1.101  14.751  0.2134 -0.3867  0.1860
  581MPD2     H 8670   0.151   1.476  14.833 -1.4783  0.0167 -0.9714
  581MPD2    H1 8671   4.714   1.143  14.626 -1.1016 -0.8450  0.9283
  581MPD2    H2 8672   0.321   1.084  14.843  0.4121 -0.9177 -1.5945
  581MPD2    H3 8673   0.122   0.995  14.738 -1.0417 -0.6170  3.4612
  581MPD2     N 8674   4.678   1.411  14.680 -0.3803  0.1566  1.0573
  581MPD2    H5 8675   4.667   1.498  14.730  0.1235  1.8551 -1.7982
  581MPD2    N1 8676   0.361   1.358  14.908 -0.0827  0.2015 -0.3747
  581MPD2    H7 8677   0.355   1.459  14.916  0.0505  0.1365  0.5230
  582TMC3    C1 8678   0.586   1.370  14.989 -0.8045  0.5312 -0.5911
  582TMC3    C2 8679   0.636   1.361  15.113 -0.6500 -0.3048  0.1383
  582TMC3    C3 8680   0.685   1.476  15.168 -0.3748 -0.2953 -0.3429
  582TMC3    C4 8681   0.599   1.487  14.920 -0.1253  0.7940  0.4887
  582TMC3    C5 8682   0.663   1.590  14.979  0.7022 -0.5379 -0.2535
  582TMC3    C6 8683   0.710   1.591  15.105 -0.0665  0.1951 -0.2908
  582TMC3     C 8684   0.467   1.291  14.963 -0.3949  0.9757 -0.4939
  582TMC3     O 8685   0.471   1.176  15.008  0.1812 -0.2363 -0.5137
  582TMC3     H 8686   0.625   1.274  15.177 -1.7123 -0.1715  0.1313
  582TMC3    H1 8687   0.574   1.480  14.814 -1.0385  2.3073  0.6131
  582TMC3    H2 8688   0.754   1.677  15.154  1.4057 -0.8395  0.1914
  582TMC3    C7 8689   0.663   1.709  14.900  0.7401  0.4049 -0.9593
  582TMC3    C8 8690   0.692   1.477  15.312  0.1116 -0.4403  0.3254
  582TMC3    O1 8691   0.652   1.694  14.780 -0.3571 -0.5462 -0.2042
  582TMC3    O2 8692   0.728   1.373  15.366 -0.2073 -0.2787  0.1464
  583MPD2     C 8693   0.547   3.123  16.621 -0.5590  0.0364 -0.4480
  583MPD2    C1 8694   0.502   3.254  16.581  0.0297 -0.3983 -0.9720
  583MPD2    C2 8695   0.475   3.347  16.679  0.5332  0.2959 -0.3086
  583MPD2    C3 8696   0.460   3.303  16.809  0.1890  0.2709  0.1471
  583MPD2    C4 8697   0.505   3.176  16.845  0.5392  0.2954 -0.1863
  583MPD2    C5 8698   0.539   3.091  16.752  0.6919  1.2479 -0.0810
  583MPD2     H 8699   0.456   3.451  16.657 -1.6594  0.6173  3.0458
  583MPD2    H1 8700   0.499   3.137  16.946  1.2381  3.0404  0.9358
  583MPD2    H2 8701   0.583   3.047  16.552 -1.5645  1.7046 -2.7869
  583MPD2    H3 8702   0.575   2.990  16.768  0.6506  1.6669  2.5753
  583MPD2     N 8703   0.410   3.394  16.902  0.6941 -0.0922  0.2740
  583MPD2    H5 8704   0.398   3.491  16.874 -0.7057 -0.2282  0.3858
  583MPD2    N1 8705   0.515   3.291  16.441  0.3374 -0.6710  0.5436
  583MPD2    H7 8706   0.495   3.386  16.413  0.2617 -0.4291  1.4186
  584TMC3    C1 8707   0.318   3.489  17.099  0.6034 -0.8789  0.1120
  584TMC3    C2 8708   0.354   3.610  17.050  0.0339  0.4791  0.4272
  584TMC3    C3 8709   0.343   3.721  17.128  0.3244  0.3828  0.0219
  584TMC3    C4 8710   0.270   3.482  17.225 -0.1673  0.0400 -0.0742
  584TMC3    C5 8711   0.240   3.598  17.298 -0.2082 -0.7800 -0.3172
  584TMC3    C6 8712   0.273   3.721  17.249  0.1480  0.0509  0.2322
  584TMC3     C 8713   0.360   3.366  17.028  0.1242 -0.0648 -0.2344
  584TMC3     O 8714   0.337   3.258  17.075  0.2681 -0.0627 -0.4063
  584TMC3     H 8715   0.408   3.622  16.956  0.6038  0.8807  0.8064
  584TMC3    H1 8716   0.234   3.389  17.268  1.0286 -0.3822  0.0344
  584TMC3    H2 8717   0.235   3.812  17.292 -1.8750 -0.2303 -0.9578
  584TMC3    C7 8718   0.177   3.575  17.431  0.7466  0.8338  0.1439
  584TMC3    C8 8719   0.379   3.850  17.076 -0.3554  0.0230  0.3346
  584TMC3    O1 8720   0.137   3.465  17.463 -0.0544  0.9559  0.1006
  584TMC3    O2 8721   0.429   3.861  16.966 -0.3728 -0.5435 -0.2987
  585MPD2     C 8722   3.945   2.251   0.344 -0.1349  0.1730  0.4021
  585MPD2    C1 8723   3.953   2.339   0.238 -0.4880 -0.3533 -0.7199
  585MPD2    C2 8724   4.032   2.300   0.131  0.3457  1.4748 -0.1400
  585MPD2    C3 8725   4.101   2.177   0.127 -0.6124  0.0797 -0.2432
  585MPD2    C4 8726   4.090   2.092   0.235 -0.2574 -0.4755 -0.5652
  585MPD2    C5 8727   4.015   2.131   0.341  0.0209 -0.3402 -0.4469
  585MPD2     H 8728   4.046   2.369   0.049  0.6150  0.4588 -0.9369
  585MPD2    H1 8729   4.146   1.999   0.238  1.7634  0.7944  0.5478
  585MPD2    H2 8730   3.882   2.286   0.425  1.4066  1.1782  1.1613
  585MPD2    H3 8731   4.015   2.060   0.423  0.0619 -0.3343 -0.4421
  585MPD2     N 8732   4.189   2.138   0.028  0.0692 -0.3797 -0.3597
  585MPD2    H5 8733   4.252   2.062   0.049 -2.3520 -1.6457  2.3682
  585MPD2    N1 8734   3.896   2.467   0.238 -0.3349 -0.0278  0.0475
  585MPD2    H7 8735   3.882   2.514   0.327  0.4763 -0.3046  0.3216
  586TMC3    C1 8736   4.305   2.140  17.568  0.1721 -0.7024 -0.5128
  586TMC3    C2 8737   4.387   2.217  17.492  0.3145 -0.2183 -0.7348
  586TMC3    C3 8738   4.462   2.164  17.397 -0.1429  0.0214  0.2882
  586TMC3    C4 8739   4.301   2.006  17.552 -1.5983  0.1860 -0.6402
  586TMC3    C5 8740   4.370   1.954  17.446  0.0134  0.0854 -0.6064
  586TMC3    C6 8741   4.450   2.029  17.367  0.6664  0.0019 -0.5153
  586TMC3     C 8742   4.213   2.203  17.660 -0.3521  0.1248 -0.5486
  586TMC3     O 8743   4.190   2.318  17.625 -0.3030 -0.0425  0.2384
  586TMC3     H 8744   4.392   2.326  17.496  0.6220 -0.2547 -0.0938
  586TMC3    H1 8745   4.230   1.950  17.612 -1.2061 -0.3457 -0.6731
  586TMC3    H2 8746   4.491   1.982  17.278 -2.0465  0.3827 -1.9815
  586TMC3    C7 8747   4.316   1.829  17.389  0.4457  0.1016 -1.0446
  586TMC3    C8 8748   4.534   2.245  17.300  0.2096  0.4330 -0.1343
  586TMC3    O1 8749   4.278   1.745  17.474 -0.5827  0.2187  0.4690
  586TMC3    O2 8750   4.499   2.357  17.262 -0.5573 -0.2221 -0.5231
  587TMC3    C1 8751   1.934   0.563  16.124  0.4878  0.4759  0.4284
  587TMC3    C2 8752   1.906   0.536  16.255  0.6512  0.3883  0.3774
  587TMC3    C3 8753   2.010   0.523  16.340  0.3742 -0.7243  0.2771
  587TMC3    C4 8754   2.061   0.578  16.082  0.4248 -0.8297 -0.2389
  587TMC3    C5 8755   2.163   0.568  16.169  0.3130 -0.3374 -0.4739
  587TMC3    C6 8756   2.139   0.538  16.301 -0.1308  1.1169 -0.0950
  587TMC3     C 8757   1.825   0.549  16.027 -0.7079  0.5835  0.2348
  587TMC3     O 8758   1.856   0.512  15.914  0.3518  0.0730  0.4357
  587TMC3     H 8759   1.808   0.495  16.277  1.3926 -1.7612 -0.3456
  587TMC3    H1 8760   2.078   0.590  15.975 -0.5704  1.8585 -0.1102
  587TMC3    H2 8761   2.217   0.538  16.376 -2.1885 -0.6319  2.0450
  587TMC3    C7 8762   2.281   0.643  16.136 -0.3938  0.0832  0.0408
  587TMC3    C8 8763   1.978   0.555  16.481  0.7434  0.2884 -0.3454
  587TMC3    O1 8764   2.270   0.712  16.034 -0.6461  0.3027 -0.1437
  587TMC3    O2 8765   2.072   0.541  16.556  0.3123 -0.1794 -0.4368
  588TMC3    C1 8766   4.249   3.817   9.788 -0.1546  0.3179 -0.1755
  588TMC3    C2 8767   4.251   3.689   9.751  0.3479  0.7920 -0.4996
  588TMC3    C3 8768   4.351   3.601   9.804 -0.0601  0.1711 -0.0136
  588TMC3    C4 8769   4.360   3.871   9.847  0.1997  0.1674 -0.2268
  588TMC3    C5 8770   4.463   3.790   9.883  0.2634  0.7565  0.0558
  588TMC3    C6 8771   4.459   3.654   9.872  0.0441 -0.7282  0.1721
  588TMC3     C 8772   4.168   3.913   9.718  0.2216  0.0101  0.0989
  588TMC3     O 8773   4.097   3.876   9.628 -0.0203  0.1998  0.1938
  588TMC3     H 8774   4.161   3.650   9.704 -0.1503  0.4985  0.7063
  588TMC3    H1 8775   4.363   3.975   9.876 -0.9257 -0.5734  2.5307
  588TMC3    H2 8776   4.543   3.603   9.915  1.6223  1.6157 -0.1175
  588TMC3    C7 8777   4.569   3.841   9.968 -0.5210 -0.4151  0.0871
  588TMC3    C8 8778   4.326   3.461   9.773 -0.5928 -0.1349 -0.3266
  588TMC3    O1 8779   4.628   3.774  10.045  0.2261  0.2883 -0.1520
  588TMC3    O2 8780   4.222   3.419   9.722  0.6398 -0.1487 -0.0860
  589TMC3    C1 8781   3.115   0.530   0.740 -0.8570  0.3164  0.1818
  589TMC3    C2 8782   3.207   0.577   0.832  0.0382  0.5149  0.1010
  589TMC3    C3 8783   3.336   0.538   0.820 -0.2882 -0.1103 -0.2649
  589TMC3    C4 8784   3.152   0.428   0.656  0.2569  0.1000 -0.3374
  589TMC3    C5 8785   3.285   0.390   0.647 -0.0373 -0.9848  0.1101
  589TMC3    C6 8786   3.383   0.443   0.728  0.1315 -0.0072 -0.2572
  589TMC3     C 8787   2.981   0.575   0.741 -0.3836 -0.5828  0.2020
  589TMC3     O 8788   2.907   0.502   0.678 -0.8081 -0.2728 -0.0371
  589TMC3     H 8789   3.173   0.633   0.919 -0.5002 -2.0798  1.5620
  589TMC3    H1 8790   3.079   0.383   0.590 -0.1453  1.0367 -0.5324
  589TMC3    H2 8791   3.475   0.388   0.748  0.4029  0.2997 -0.6724
  589TMC3    C7 8792   3.315   0.278   0.566  0.3101  0.3396  0.9154
  589TMC3    C8 8793   3.431   0.584   0.924 -0.9687 -0.6029 -0.3039
  589TMC3    O1 8794   3.219   0.201   0.554 -0.1339  0.2846 -0.0745
  589TMC3    O2 8795   3.377   0.627   1.026 -0.3134 -0.2139  0.5157
  590MPD2     C 8796   2.501   3.648  16.534 -1.0185 -0.2207 -0.0068
  590MPD2    C1 8797   2.441   3.731  16.436 -0.2921 -0.6937  0.1939
  590MPD2    C2 8798   2.518   3.819  16.366  0.3217  0.0024  0.2377
  590MPD2    C3 8799   2.652   3.825  16.397  0.0251 -0.4648 -0.1175
  590MPD2    C4 8800   2.714   3.741  16.489  0.1775 -0.5822  0.1780
  590MPD2    C5 8801   2.636   3.652  16.552 -0.8472 -0.0756 -0.7499
  590MPD2     H 8802   2.477   3.891  16.296  0.5613 -2.0090 -1.9729
  590MPD2    H1 8803   2.822   3.738  16.496  0.2690 -2.3901 -1.6322
  590MPD2    H2 8804   2.442   3.575  16.590  0.0263  0.0838  1.4798
  590MPD2    H3 8805   2.683   3.593  16.630  1.6680  2.3573 -0.4026
  590MPD2     N 8806   2.723   3.935  16.343 -0.7050 -0.3964 -0.0290
  590MPD2    H5 8807   2.676   4.016  16.304 -0.1842 -0.0937 -0.0390
  590MPD2    N1 8808   2.306   3.726  16.398 -0.1565 -0.7898 -0.0690
  590MPD2    H7 8809   2.278   3.789  16.323 -1.2823 -1.8424 -0.5371
  591TMC3    C1 8810   2.900   4.067  16.288  0.0960  0.2090 -0.4191
  591TMC3    C2 8811   3.001   4.039  16.200 -0.3497  1.0461  0.0981
  591TMC3    C3 8812   3.003   4.119  16.089 -0.3756 -0.7471  0.8684
  591TMC3    C4 8813   2.802   4.167  16.266  0.3175 -0.2562  0.6427
  591TMC3    C5 8814   2.819   4.244  16.155 -0.1671  0.1516 -0.6181
  591TMC3    C6 8815   2.915   4.218  16.059 -0.3912  0.5340 -0.8004
  591TMC3     C 8816   2.859   3.957  16.363  0.1733 -0.0908 -0.0307
  591TMC3     O 8817   2.955   3.882  16.388 -0.2648 -0.0497 -0.0942
  591TMC3     H 8818   3.057   3.946  16.203 -2.5407 -0.2413  1.6474
  591TMC3    H1 8819   2.714   4.175  16.329 -1.0003 -0.6718 -1.1428
  591TMC3    H2 8820   2.908   4.261  15.960 -2.0906 -2.1025 -1.8258
  591TMC3    C7 8821   2.704   4.319  16.117  0.6890  0.4180  0.0246
  591TMC3    C8 8822   3.110   4.085  15.999  0.7758  0.7322 -0.2180
  591TMC3    O1 8823   2.595   4.297  16.169 -0.1700  0.4272 -0.5147
  591TMC3    O2 8824   3.135   3.965  15.997  0.1938  0.2856 -0.0015
  592MPD2     C 8825   3.909   0.899  11.502 -0.0143  0.2342  0.5130
  592MPD2    C1 8826   3.793   0.963  11.536 -0.8718 -0.0347  0.0980
  592MPD2    C2 8827   3.748   0.938  11.669 -0.0691  0.1540 -0.2383
  592MPD2    C3 8828   3.804   0.848  11.759 -0.4684 -0.5106  0.5821
  592MPD2    C4 8829   3.918   0.776  11.718 -0.3848  0.1334  0.3332
  592MPD2    C5 8830   3.966   0.805  11.593 -0.3028  0.5826 -0.7452
  592MPD2     H 8831   3.656   0.985  11.702  0.9367  2.7816 -1.2420
  592MPD2    H1 8832   3.960   0.697  11.779  0.7411  0.5755  0.1285
  592MPD2    H2 8833   3.964   0.924  11.412 -1.6659 -2.4108 -1.2545
  592MPD2    H3 8834   4.055   0.761  11.551  0.0608  1.2567 -0.6859
  592MPD2     N 8835   3.742   0.824  11.884  0.3222  0.3065  0.0841
  592MPD2    H5 8836   3.648   0.856  11.902  0.8378  1.9717 -0.2463
  592MPD2    N1 8837   3.746   1.056  11.446 -0.1539  0.3896 -0.5124
  592MPD2    H7 8838   3.805   1.090  11.371 -0.2533  1.2360 -0.2023
  593TMC3    C1 8839   3.613   1.248  11.423 -0.3044  0.1911  0.3101
  593TMC3    C2 8840   3.540   1.323  11.505  0.2565  0.5894 -0.3718
  593TMC3    C3 8841   3.570   1.458  11.523 -0.1206 -0.1373  0.2224
  593TMC3    C4 8842   3.716   1.304  11.352  0.0396  0.4273 -0.4564
  593TMC3    C5 8843   3.741   1.440  11.369 -0.1576  0.0641  0.2683
  593TMC3    C6 8844   3.667   1.516  11.450 -1.0429  0.1315 -0.7101
  593TMC3     C 8845   3.620   1.109  11.458  0.0768 -0.1811  0.2830
  593TMC3     O 8846   3.528   1.080  11.533  0.2265  0.0998 -0.1441
  593TMC3     H 8847   3.447   1.290  11.549  1.2600 -1.3923  0.2912
  593TMC3    H1 8848   3.778   1.243  11.288  3.0359  3.0891 -0.0961
  593TMC3    H2 8849   3.680   1.624  11.441 -1.8506  0.3274  0.4529
  593TMC3    C7 8850   3.807   1.514  11.258  0.0509  0.3075 -0.1188
  593TMC3    C8 8851   3.475   1.535  11.605 -0.3838 -0.0427 -0.5606
  593TMC3    O1 8852   3.837   1.626  11.277  0.1885 -0.3116  0.5442
  593TMC3    O2 8853   3.366   1.481  11.640 -0.9907  0.3596 -0.4215
  594MPD2     C 8854   2.067   4.621  14.073 -0.0715  0.3296  0.8019
  594MPD2    C1 8855   2.048   4.535  14.177  0.2495  0.7029  0.0300
  594MPD2    C2 8856   2.150   4.500  14.261 -0.3525  0.0275 -0.8171
  594MPD2    C3 8857   2.277   4.532  14.230  0.8636 -0.2248  0.1416
  594MPD2    C4 8858   2.301   4.605  14.115  0.2266 -0.2357  0.2036
  594MPD2    C5 8859   2.196   4.650  14.046 -0.7695  0.1431  0.2568
  594MPD2     H 8860   2.129   4.458  14.359  1.6034 -0.2216 -0.4897
  594MPD2    H1 8861   2.400   4.644  14.095  0.3214 -0.1802  0.7764
  594MPD2    H2 8862   1.989   4.644  14.001 -1.3175 -0.7939  1.8016
  594MPD2    H3 8863   2.215   4.699  13.951  0.6020  0.7991  0.8705
  594MPD2     N 8864   2.381   4.496  14.322 -0.0556  0.8609 -0.0535
  594MPD2    H5 8865   2.341   4.453  14.405  0.3164 -0.4955 -0.5793
  594MPD2    N1 8866   1.918   4.492  14.194 -0.1437 -0.4698  0.2591
  594MPD2    H7 8867   1.849   4.540  14.137 -0.1749 -1.3971 -0.4971
  595TMC3    C1 8868   2.751   4.662  14.554 -0.1230  0.0116 -0.7155
  595TMC3    C2 8869   2.700   4.597  14.442 -0.8750  0.3111  0.3638
  595TMC3    C3 8870   2.569   4.562  14.448  0.0481 -0.1440 -0.0662
  595TMC3    C4 8871   2.669   4.697  14.657  0.3573  0.4075 -0.1525
  595TMC3    C5 8872   2.530   4.684  14.643 -0.2211 -0.6252  0.9224
  595TMC3    C6 8873   2.479   4.621  14.537 -0.1796 -0.4438 -0.6973
  595TMC3     C 8874   2.828   0.039  14.517 -0.2585 -0.0026 -0.8481
  595TMC3     O 8875   2.810   0.135  14.590 -0.0278  0.1459 -0.1134
  595TMC3     H 8876   2.759   4.544  14.369  0.5820  2.8575 -0.3021
  595TMC3    H1 8877   2.714   0.016  14.738 -0.1759  0.5785  0.0307
  595TMC3    H2 8878   2.373   4.600  14.527 -0.5109  0.1015  1.7013
  595TMC3    C7 8879   2.450   0.055  14.696 -0.1776 -0.3013 -0.2949
  595TMC3    C8 8880   2.509   4.532  14.317 -0.6099  0.4577  0.1557
  595TMC3    O1 8881   2.367   0.106  14.622  0.2900  0.0255 -0.1551
  595TMC3    O2 8882   2.555   4.579  14.213 -0.6146 -0.4182  0.1849
  596MPD2     C 8883   1.357   3.268  16.663  0.3880  0.0611 -0.8205
  596MPD2    C1 8884   1.280   3.343  16.580 -0.1237  0.7769 -0.5670
  596MPD2    C2 8885   1.242   3.291  16.452  0.1271  0.8059  0.7495
  596MPD2    C3 8886   1.287   3.165  16.412  0.3513  0.3652  0.3947
  596MPD2    C4 8887   1.368   3.090  16.500  0.3218  0.0154  0.0630
  596MPD2    C5 8888   1.407   3.146  16.615 -0.3330  1.0982  0.2074
  596MPD2     H 8889   1.178   3.354  16.391  0.2443  0.2640  0.0636
  596MPD2    H1 8890   1.387   2.988  16.470  1.4992 -0.3458  2.0624
  596MPD2    H2 8891   1.402   3.297  16.757  0.2297 -1.1650 -0.3629
  596MPD2    H3 8892   1.461   3.084  16.685  0.2849  1.1811 -0.2010
  596MPD2     N 8893   1.245   3.110  16.292 -0.2157  0.5648 -0.4404
  596MPD2    H5 8894   1.286   3.019  16.275  1.5998  1.5475 -1.3652
  596MPD2    N1 8895   1.236   3.475  16.617  0.3602  0.2994  0.4031
  596MPD2    H7 8896   1.205   3.537  16.543 -1.1478  0.8103  1.4727
  597TMC3    C1 8897   1.171   3.657  16.753  0.3850  0.4300  0.2727
  597TMC3    C2 8898   1.157   3.734  16.640 -0.3106 -0.1465  0.0903
  597TMC3    C3 8899   1.086   3.849  16.647  0.0551  0.2372 -0.4180
  597TMC3    C4 8900   1.107   3.693  16.869  0.8620 -0.2239  0.5299
  597TMC3    C5 8901   1.026   3.804  16.873 -0.4339  0.2641 -0.1293
  597TMC3    C6 8902   1.014   3.892  16.765  0.0110  0.3032 -0.8343
  597TMC3     C 8903   1.231   3.523  16.745  0.8297  0.6270  0.3480
  597TMC3     O 8904   1.252   3.471  16.854  0.3752 -0.4098 -0.3289
  597TMC3     H 8905   1.205   3.712  16.545  0.4220 -1.9087  0.8893
  597TMC3    H1 8906   1.120   3.641  16.963 -2.5655  1.3404  1.8988
  597TMC3    H2 8907   0.962   3.986  16.774  0.4355  0.4134  0.4727
  597TMC3    C7 8908   0.950   3.815  16.999 -0.3224  0.5832  0.2352
  597TMC3    C8 8909   1.123   3.952  16.553 -0.9820 -0.1138 -0.3313
  597TMC3    O1 8910   0.944   3.719  17.076  0.2243 -0.3069 -0.3268
  597TMC3    O2 8911   1.232   3.932  16.505  0.5863 -0.2449  0.4920
  598TMC3    C1 8912   3.987   4.558  15.086  0.5402  0.2861 -0.4956
  598TMC3    C2 8913   3.958   4.430  15.087 -0.0250 -0.1117  0.5426
  598TMC3    C3 8914   3.884   4.371  14.979  0.0002  0.3839 -0.6884
  598TMC3    C4 8915   3.963   4.640  14.980  0.0025 -0.8093  0.0202
  598TMC3    C5 8916   3.892   4.586  14.872  0.2349 -0.4530 -0.8239
  598TMC3    C6 8917   3.853   4.457  14.874 -0.6034 -0.2505  0.0128
  598TMC3     C 8918   4.024   4.612  15.215 -0.2135  0.3409 -0.2374
  598TMC3     O 8919   3.940   4.672  15.279 -1.2060 -0.5845  0.5867
  598TMC3     H 8920   3.986   4.368  15.171 -3.2473 -0.9407  1.0147
  598TMC3    H1 8921   3.985   0.008  14.993 -0.6180 -0.6732 -0.0498
  598TMC3    H2 8922   3.808   4.419  14.783  0.0689  0.0441 -0.4442
  598TMC3    C7 8923   3.929   4.641  14.740 -0.3456  0.7666  0.1854
  598TMC3    C8 8924   3.864   4.230  14.961  0.4334  0.0632 -0.1515
  598TMC3    O1 8925   3.901   4.579  14.639  0.2895 -0.0271 -0.0026
  598TMC3    O2 8926   3.861   4.164  15.068 -0.1987 -0.3512  0.5712
  599MPD2     C 8927   4.022   2.081  15.779  0.2160 -0.6761  0.3969
  599MPD2    C1 8928   4.079   1.993  15.867  0.1405  0.3077 -0.3159
  599MPD2    C2 8929   4.040   1.992  15.998 -0.0175 -0.3768  0.6703
  599MPD2    C3 8930   3.936   2.076  16.036  0.0458 -0.6516  0.0964
  599MPD2    C4 8931   3.888   2.171  15.946  0.5250  0.5397  0.5634
  599MPD2    C5 8932   3.935   2.174  15.819 -0.0104 -0.1323 -0.3753
  599MPD2     H 8933   4.086   1.933  16.076  0.3867  0.3761  1.0009
  599MPD2    H1 8934   3.805   2.237  15.969 -0.1450 -0.3810  0.7848
  599MPD2    H2 8935   4.052   2.100  15.677  0.6169 -2.1376  0.2379
  599MPD2    H3 8936   3.905   2.251  15.748 -0.0726  0.1865 -0.0009
  599MPD2     N 8937   3.874   2.073  16.162  0.0324 -0.6845 -0.2885
  599MPD2    H5 8938   3.803   2.141  16.189  0.7110  0.6414 -1.7999
  599MPD2    N1 8939   4.186   1.912  15.834 -0.8746  0.3163 -0.2971
  599MPD2    H7 8940   4.235   1.866  15.910 -0.2802  1.2298 -0.1266
  600TMC3    C1 8941   3.809   1.999  16.371 -0.0303  0.3644 -0.2265
  600TMC3    C2 8942   3.765   1.896  16.453 -0.0650 -0.6011  0.7981
  600TMC3    C3 8943   3.713   1.921  16.577 -0.7243 -0.7308  0.4135
  600TMC3    C4 8944   3.805   2.125  16.421 -0.0556  0.1632 -0.3048
  600TMC3    C5 8945   3.763   2.146  16.550  0.4830 -0.5409  0.1907
  600TMC3    C6 8946   3.719   2.046  16.629 -0.3163 -0.5307 -0.4421
  600TMC3     C 8947   3.881   1.968  16.248  1.0180  0.1361 -0.5488
  600TMC3     O 8948   3.937   1.860  16.254 -0.3439  0.7150 -0.5150
  600TMC3     H 8949   3.776   1.795  16.415  1.9975 -0.0074 -0.1693
  600TMC3    H1 8950   3.838   2.209  16.360 -0.9640  0.1321 -0.8321
  600TMC3    H2 8951   3.652   2.067  16.712 -0.2202 -1.1244 -0.2163
  600TMC3    C7 8952   3.739   2.282  16.606  0.4821 -0.3046 -1.0139
  600TMC3    C8 8953   3.630   1.828  16.648  0.5072 -0.2599  0.0716
  600TMC3    O1 8954   3.663   2.283  16.703 -0.3513  0.7083 -0.1132
  600TMC3    O2 8955   3.629   1.844  16.771 -0.3567  0.7232  0.3826
  601MPD2     C 8956   1.398   1.070   0.184 -0.3795 -0.3735  0.3972
  601MPD2    C1 8957   1.320   0.974   0.129  0.9390 -0.0135  0.0553
  601MPD2    C2 8958   1.337   0.842   0.164 -0.4643 -0.4170 -0.4278
  601MPD2    C3 8959   1.445   0.801   0.238 -0.0789 -0.1746 -0.2289
  601MPD2    C4 8960   1.531   0.901   0.279  1.0262 -0.3935  0.1156
  601MPD2    C5 8961   1.510   1.030   0.246 -0.2658 -0.5909 -0.4949
  601MPD2     H 8962   1.270   0.767   0.124 -1.4015  0.3203 -0.2343
  601MPD2    H1 8963   1.618   0.884   0.342  1.6782 -0.7033 -0.8783
  601MPD2    H2 8964   1.383   1.175   0.165 -0.1618 -0.2695  0.7951
  601MPD2    H3 8965   1.583   1.105   0.274 -2.1049  0.6233  0.9692
  601MPD2     N 8966   1.497   0.667   0.265  0.0638 -0.3574 -0.2234
  601MPD2    H5 8967   1.585   0.657   0.315 -0.0316 -2.7826 -0.5171
  601MPD2    N1 8968   1.207   0.996   0.051 -0.4603 -0.8009  0.1335
  601MPD2    H7 8969   1.151   0.913   0.038 -0.7137 -0.5325 -0.4808
  602TMC3    C1 8970   1.072   1.094  17.642 -0.4961  0.0962 -0.0709
  602TMC3    C2 8971   0.996   1.197  17.602 -0.1753  0.7758 -0.2338
  602TMC3    C3 8972   0.888   1.172  17.514  0.2467  0.6684 -0.2116
  602TMC3    C4 8973   1.039   0.960  17.616 -0.0613 -0.2151 -0.3511
  602TMC3    C5 8974   0.936   0.939  17.528  0.1756  0.2698  0.1842
  602TMC3    C6 8975   0.857   1.045  17.479 -1.3273 -0.2456  0.3867
  602TMC3     C 8976   1.172   1.111  17.738 -0.5267  0.0307 -0.8944
  602TMC3     O 8977   1.225   1.221  17.740 -0.1651 -0.2845 -0.0499
  602TMC3     H 8978   1.020   1.300  17.629  1.5466 -0.2277  2.1020
  602TMC3    H1 8979   1.099   0.872  17.637  2.1610  1.2449 -0.5061
  602TMC3    H2 8980   0.765   1.028  17.426 -0.3117 -2.9635 -0.5254
  602TMC3    C7 8981   0.939   0.813  17.449 -0.1809 -0.2715 -0.9961
  602TMC3    C8 8982   0.798   1.280  17.476  0.6086 -0.7759  0.2741
  602TMC3    O1 8983   0.975   0.712  17.505  0.5713  0.2032  0.0524
  602TMC3    O2 8984   0.790   1.380  17.545  0.3672  0.0535  0.8522
  603TMC3    C1 8985   4.516   0.961  10.735  0.4406  0.4533  0.2166
  603TMC3    C2 8986   4.563   0.967  10.863 -0.6379  0.5192 -0.3646
  603TMC3    C3 8987   4.631   1.081  10.918 -0.1450 -0.1270 -0.3275
  603TMC3    C4 8988   4.532   1.072  10.654  0.3521  0.7222  0.3705
  603TMC3    C5 8989   4.597   1.176  10.708  0.3806  0.3057 -0.3049
  603TMC3    C6 8990   4.628   1.198  10.839 -0.2647 -0.3879 -0.6300
  603TMC3     C 8991   4.410   0.868  10.707 -0.2229  0.9240  0.0468
  603TMC3     O 8992   4.345   0.896  10.607  0.4519 -0.5896 -0.0125
  603TMC3     H 8993   4.547   0.876  10.921  1.2120  1.3527  1.4615
  603TMC3    H1 8994   4.491   1.080  10.554 -1.6443 -2.1168  0.9966
  603TMC3    H2 8995   4.711   1.265  10.858 -3.0696  3.2476 -1.3315
  603TMC3    C7 8996   4.666   1.267  10.610  0.1687  0.9393  0.0891
  603TMC3    C8 8997   4.630   1.093  11.063 -0.3328 -0.3673  0.1874
  603TMC3    O1 8998   0.024   1.332  10.652 -0.2358 -0.0848 -0.1140
  603TMC3    O2 8999   4.581   0.998  11.127  0.0268 -0.4402  0.5434
  604MPD2     C 9000   0.405   4.431  16.064  0.0938  0.3187 -0.3005
  604MPD2    C1 9001   0.297   4.383  15.998 -0.0520  0.4355  0.9918
  604MPD2    C2 9002   0.321   4.309  15.881 -0.0963 -0.1016 -0.0626
  604MPD2    C3 9003   0.443   4.311  15.821 -0.2562  0.1693  0.2123
  604MPD2    C4 9004   0.548   4.381  15.881 -0.0957 -0.4627  0.2894
  604MPD2    C5 9005   0.531   4.439  16.003  0.7115  0.0290  0.3413
  604MPD2     H 9006   0.236   4.261  15.835 -0.3927  0.6737 -0.3228
  604MPD2    H1 9007   0.641   4.395  15.828 -1.5820  1.6298 -1.7675
  604MPD2    H2 9008   0.397   4.474  16.163 -0.1778  0.3291 -0.3285
  604MPD2    H3 9009   0.609   4.487  16.059  1.4927  0.2925 -0.9797
  604MPD2     N 9010   0.461   4.244  15.691  0.4769 -0.5677 -0.0606
  604MPD2    H5 9011   0.386   4.187  15.651  0.7291  0.4178 -1.9232
  604MPD2    N1 9012   0.167   4.405  16.056 -0.1375 -0.6331  0.2998
  604MPD2    H7 9013   0.161   4.464  16.138 -0.6513  0.4970 -0.5648
  605TMC3    C1 9014   4.670   4.405  16.080  0.2342 -0.6185  0.2737
  605TMC3    C2 9015   4.694   4.432  16.215  0.9408 -0.3789  0.3195
  605TMC3    C3 9016   4.645   4.556  16.264 -0.6149 -0.2754  0.1907
  605TMC3    C4 9017   4.577   4.473  16.008  0.0596  0.1789 -0.2597
  605TMC3    C5 9018   4.527   4.591  16.068  0.1494 -0.7820 -0.0336
  605TMC3    C6 9019   4.562   4.633  16.191 -0.0554  0.3450  0.0564
  605TMC3     C 9020   0.047   4.368  15.996  0.1354  0.3697  0.1797
  605TMC3     O 9021   0.022   4.361  15.875  0.0731 -0.2812 -0.2692
  605TMC3     H 9022   0.020   4.365  16.272 -1.9492 -3.6892 -0.2672
  605TMC3    H1 9023   4.569   4.456  15.902 -0.1804 -1.9969  0.1094
  605TMC3    H2 9024   4.531   4.730  16.229 -1.4482 -0.1565  0.2041
  605TMC3    C7 9025   4.397   4.638  16.020  0.3757 -0.4549  0.0404
  605TMC3    C8 9026   0.023   4.634  16.310 -0.0100 -0.1576  0.3231
  605TMC3    O1 9027   4.376   0.019  16.004 -0.2581  0.1907  0.1087
  605TMC3    O2 9028   0.125   4.566  16.307  0.0100  0.1073  0.3234
  606TMC3    C1 9029   0.669   2.431   0.540 -0.4156 -1.0999  0.1096
  606TMC3    C2 9030   0.739   2.369   0.634 -0.3320  0.1531 -0.3022
  606TMC3    C3 9031   0.794   2.244   0.615  0.1219  0.2371  0.5431
  606TMC3    C4 9032   0.629   2.371   0.425  0.3784  0.3222  0.3030
  606TMC3    C5 9033   0.685   2.247   0.401 -0.0821  0.0543 -0.2093
  606TMC3    C6 9034   0.767   2.185   0.492  0.7011 -0.7120 -0.3436
  606TMC3     C 9035   0.591   2.540   0.592  0.1421 -0.0759  0.5326
  606TMC3     O 9036   0.599   2.565   0.715  0.0608 -0.3056 -0.4589
  606TMC3     H 9037   0.768   2.410   0.730  3.1462  0.6049 -1.5381
  606TMC3    H1 9038   0.551   2.413   0.363  2.0542 -0.9679 -2.6864
  606TMC3    H2 9039   0.797   2.081   0.482  1.1045 -0.6423  0.1445
  606TMC3    C7 9040   0.637   2.175   0.296  0.2341 -0.4814  0.0563
  606TMC3    C8 9041   0.917   2.209   0.691  0.1055 -0.0289  0.0973
  606TMC3    O1 9042   0.649   2.053   0.302 -0.3438  0.5259  0.2580
  606TMC3    O2 9043   0.991   2.296   0.738  0.0112  0.0374  0.3280
  607MPD2     C 9044   3.867   1.366  11.724  0.0838 -0.5846 -0.5989
  607MPD2    C1 9045   3.905   1.486  11.783  0.1525  0.4860 -0.0014
  607MPD2    C2 9046   3.839   1.546  11.885  0.4015  0.5527  0.0563
  607MPD2    C3 9047   3.724   1.483  11.938  0.8989  0.1536  0.7575
  607MPD2    C4 9048   3.676   1.367  11.880  0.3937  0.0611 -0.0699
  607MPD2    C5 9049   3.758   1.309  11.774  0.0919  0.3377  0.0717
  607MPD2     H 9050   3.889   1.631  11.929 -1.5573  0.5240  2.3303
  607MPD2    H1 9051   3.586   1.314  11.911 -1.1684  1.3683 -2.3648
  607MPD2    H2 9052   3.929   1.313  11.653  1.3434  0.3848 -0.2307
  607MPD2    H3 9053   3.726   1.211  11.740  0.1119  0.1157  0.7084
  607MPD2     N 9054   3.665   1.538  12.052  0.4379  0.2850 -0.6443
  607MPD2    H5 9055   3.727   1.610  12.088 -0.3005  1.3163 -1.4370
  607MPD2    N1 9056   4.026   1.548  11.744  0.1240 -0.3013 -0.3677
  607MPD2    H7 9057   4.043   1.636  11.792  0.2794 -1.5117  1.7986
  608TMC3    C1 9058   4.230   1.595  11.674 -0.1878 -0.3181 -0.5645
  608TMC3    C2 9059   4.252   1.648  11.800 -0.6455  0.8460 -0.7383
  608TMC3    C3 9060   4.358   1.734  11.828  0.4159 -0.0610  0.1408
  608TMC3    C4 9061   4.314   1.634  11.572  0.0455 -0.1482 -0.1349
  608TMC3    C5 9062   4.419   1.720  11.605  0.3038 -0.4961 -0.0520
  608TMC3    C6 9063   4.438   1.776  11.725 -0.3151  0.6241 -0.2504
  608TMC3     C 9064   4.112   1.514  11.651  0.5388  0.4010  0.8021
  608TMC3     O 9065   4.112   1.437  11.556  0.0777  0.2572  0.4612
  608TMC3     H 9066   4.197   1.600  11.880  1.7489  0.2110  0.5093
  608TMC3    H1 9067   4.300   1.586  11.476 -0.9501 -1.1066  0.4951
  608TMC3    H2 9068   4.528   1.834  11.743  0.7557 -0.7079 -1.3781
  608TMC3    C7 9069   4.491   1.773  11.487 -0.4317 -0.3793  0.8471
  608TMC3    C8 9070   4.368   1.808  11.948  0.4495 -0.2087 -0.0748
  608TMC3    O1 9071   4.471   1.720  11.377  0.0414  0.2143  0.1612
  608TMC3    O2 9072   4.470   1.881  11.963  0.1435  0.5537 -0.6408
  609TMC3    C1 9073   1.600   0.712   8.972  0.4571 -0.2020 -0.6182
  609TMC3    C2 9074   1.510   0.685   8.876  0.0502 -0.1213 -0.3730
  609TMC3    C3 9075   1.539   0.593   8.776  0.8579 -0.6029  0.3246
  609TMC3    C4 9076   1.724   0.645   8.965  0.1629  1.3151  0.0596
  609TMC3    C5 9077   1.743   0.561   8.864 -0.4100 -1.2853 -0.0053
  609TMC3    C6 9078   1.658   0.540   8.762 -0.6095 -0.5028 -0.9487
  609TMC3     C 9079   1.589   0.823   9.062 -0.0407  0.1002 -0.9553
  609TMC3     O 9080   1.491   0.841   9.125  0.2899  0.4886 -0.1887
  609TMC3     H 9081   1.408   0.720   8.882 -0.1244 -0.4186 -1.5415
  609TMC3    H1 9082   1.802   0.667   9.037  0.7862  1.3828 -0.6370
  609TMC3    H2 9083   1.691   0.491   8.671 -0.2393  2.2745 -2.2800
  609TMC3    C7 9084   1.872   0.496   8.868 -0.0820  0.1763 -0.2470
  609TMC3    C8 9085   1.463   0.587   8.653  0.5949  0.0725  0.2410
  609TMC3    O1 9086   1.944   0.492   8.765 -0.3766 -0.4864  0.5599
  609TMC3    O2 9087   1.518   0.534   8.559  0.2156 -0.7037  0.0684
  610TMC3    C1 9088   4.006   1.587  12.839 -0.4019 -1.0463  0.3030
  610TMC3    C2 9089   4.067   1.690  12.789 -0.2081  0.0041 -0.3010
  610TMC3    C3 9090   4.150   1.677  12.684  0.3645 -0.3690  0.8915
  610TMC3    C4 9091   4.014   1.460  12.783 -0.2578 -0.3148 -0.9081
  610TMC3    C5 9092   4.091   1.445  12.670  0.4076  0.2119 -0.4641
  610TMC3    C6 9093   4.158   1.558  12.613  0.5174 -0.2467 -0.0782
  610TMC3     C 9094   3.946   1.606  12.970  0.0533 -0.5432 -1.4105
  610TMC3     O 9095   3.923   1.720  12.994  0.5879 -0.2556  0.1435
  610TMC3     H 9096   4.053   1.793  12.820 -1.6178  0.1407 -1.3738
  610TMC3    H1 9097   3.970   1.368  12.819  0.4518 -0.7119 -1.0514
  610TMC3    H2 9098   4.236   1.542  12.539  0.1119 -0.5952 -0.4280
  610TMC3    C7 9099   4.135   1.311  12.618 -0.6379 -0.5191  0.8734
  610TMC3    C8 9100   4.259   1.773  12.690 -0.5764  0.4155  0.1643
  610TMC3    O1 9101   4.130   1.224  12.703 -0.1796 -0.0006 -0.0032
  610TMC3    O2 9102   4.258   1.849  12.788 -0.0353  0.0341 -0.0752
  611MPD2     C 9103   3.943   0.811  10.252  0.0308  0.5239  0.0789
  611MPD2    C1 9104   3.857   0.885  10.180  0.1624 -0.2825  0.2786
  611MPD2    C2 9105   3.906   0.989  10.103  0.4667 -0.6039  0.0850
  611MPD2    C3 9106   4.042   1.022  10.104  1.1287 -0.2232  0.1491
  611MPD2    C4 9107   4.123   0.940  10.178 -0.7309  0.0948  0.5165
  611MPD2    C5 9108   4.077   0.833  10.251 -0.1814 -0.2035  0.5588
  611MPD2     H 9109   3.833   1.047  10.046 -0.3995  0.2622  2.0875
  611MPD2    H1 9110   4.229   0.959  10.176 -1.5624  4.5888 -0.8551
  611MPD2    H2 9111   3.899   0.731  10.310 -1.4895 -1.3032 -3.5665
  611MPD2    H3 9112   4.150   0.766  10.295 -1.1210 -1.2315  0.5618
  611MPD2     N 9113   4.099   1.119  10.030 -0.6301 -0.3387  0.2070
  611MPD2    H5 9114   4.200   1.132  10.032 -0.5165 -1.1317 -0.5098
  611MPD2    N1 9115   3.720   0.846  10.194  0.5228 -0.3441  0.0527
  611MPD2    H7 9116   3.694   0.765  10.250  1.8436 -1.8036 -1.4197
  612TMC3    C1 9117   4.129   1.327   9.904 -0.2669  0.2731  0.4486
  612TMC3    C2 9118   4.263   1.330   9.926  0.2803 -0.0285 -0.0800
  612TMC3    C3 9119   4.331   1.445   9.895  0.3035  0.3690 -0.0990
  612TMC3    C4 9120   4.064   1.431   9.845  0.1792  0.4178  0.1846
  612TMC3    C5 9121   4.142   1.539   9.817  0.0138  0.3928 -0.3123
  612TMC3    C6 9122   4.274   1.550   9.834 -0.3243  0.5012 -0.7156
  612TMC3     C 9123   4.039   1.216   9.952 -0.0322 -0.3090 -0.4851
  612TMC3     O 9124   3.922   1.225   9.920  0.3990 -0.0640 -0.1180
  612TMC3     H 9125   4.315   1.239   9.955  0.5527 -0.0219 -0.5353
  612TMC3    H1 9126   3.958   1.429   9.822  0.2062  3.5024 -0.1667
  612TMC3    H2 9127   4.324   1.644   9.816 -0.2015  0.4439 -0.6749
  612TMC3    C7 9128   4.077   1.643   9.736  0.1168 -0.1114 -0.4368
  612TMC3    C8 9129   4.464   1.467   9.945 -0.3570 -0.0092  0.7060
  612TMC3    O1 9130   3.954   1.639   9.733  0.4850 -0.0040 -0.3214
  612TMC3    O2 9131   4.530   1.559   9.900 -0.2016 -0.1122 -0.1511
  613MPD2     C 9132   2.285   3.093  16.813  0.2948  0.6088  0.0155
  613MPD2    C1 9133   2.206   3.125  16.705  0.2761 -0.0690 -0.5616
  613MPD2    C2 9134   2.070   3.084  16.705  0.3751  0.3370  0.7025
  613MPD2    C3 9135   2.025   2.998  16.798 -0.1820  0.0744  0.2524
  613MPD2    C4 9136   2.107   2.965  16.902 -0.1044 -0.9280 -0.1855
  613MPD2    C5 9137   2.239   3.009  16.907  0.4799  0.4684 -0.2516
  613MPD2     H 9138   2.003   3.110  16.624 -0.0828  1.9320  1.6004
  613MPD2    H1 9139   2.076   2.887  16.969 -1.1084  1.1711  1.7738
  613MPD2    H2 9140   2.391   3.113  16.822  0.6108 -2.1278  2.1514
  613MPD2    H3 9141   2.306   2.966  16.980  0.8255  0.3229 -0.6528
  613MPD2     N 9142   1.907   2.921  16.777 -0.6439  0.4363 -0.0515
  613MPD2    H5 9143   1.885   2.842  16.836  0.7322  0.0743 -0.0146
  613MPD2    N1 9144   2.276   3.203  16.606 -0.0668  0.4610 -0.2366
  613MPD2    H7 9145   2.374   3.218  16.623 -0.4945  2.1653  0.7326
  614TMC3    C1 9146   2.311   3.280  16.390 -0.3225 -0.4281 -0.3295
  614TMC3    C2 9147   2.372   3.161  16.350  0.0374 -0.5903  0.9625
  614TMC3    C3 9148   2.335   3.102  16.238 -0.4746  0.4963  1.1012
  614TMC3    C4 9149   2.226   3.336  16.302  0.1369  0.1589  0.5625
  614TMC3    C5 9150   2.204   3.290  16.177  0.2380  0.3296  0.0205
  614TMC3    C6 9151   2.254   3.165  16.145 -0.1214  0.2190  0.1993
  614TMC3     C 9152   2.221   3.249  16.493  0.8063 -0.4028  0.4619
  614TMC3     O 9153   2.098   3.253  16.469 -0.0070  0.4767  0.2572
  614TMC3     H 9154   2.432   3.098  16.415 -0.2646  0.5263  2.3326
  614TMC3    H1 9155   2.174   3.428  16.327  1.2173  1.1087 -0.7035
  614TMC3    H2 9156   2.217   3.109  16.060 -1.2862  1.0179  0.1821
  614TMC3    C7 9157   2.084   3.337  16.105 -0.3369 -0.0194 -0.6085
  614TMC3    C8 9158   2.318   2.958  16.253  0.2366  0.0059 -0.3501
  614TMC3    O1 9159   2.003   3.410  16.162 -0.2644 -0.7910 -0.1195
  614TMC3    O2 9160   2.321   2.911  16.367 -0.2083 -0.4249 -0.7758
  615MPD2     C 9161   1.715   4.455  15.519  0.2198 -0.0968  0.4358
  615MPD2    C1 9162   1.653   4.568  15.471 -0.6231  0.1030  0.4906
  615MPD2    C2 9163   1.603   4.565  15.340  0.3240  0.3318 -0.9591
  615MPD2    C3 9164   1.602   4.455  15.260  0.3840 -0.0893  0.1890
  615MPD2    C4 9165   1.662   4.341  15.314 -0.2351 -0.1720 -0.7016
  615MPD2    C5 9166   1.713   4.343  15.440  0.0056 -0.1668 -0.7143
  615MPD2     H 9167   1.543   4.649  15.308  0.7566  1.0277  0.0350
  615MPD2    H1 9168   1.667   4.248  15.259  1.0960 -0.3992 -0.1976
  615MPD2    H2 9169   1.774   4.455  15.610 -0.9073 -2.3052  1.1440
  615MPD2    H3 9170   1.750   4.255  15.491  0.0338 -1.3209 -2.7127
  615MPD2     N 9171   1.541   4.461  15.134 -0.5523  0.0821 -0.0909
  615MPD2    H5 9172   1.490   4.544  15.107 -0.6357 -0.1140 -0.5264
  615MPD2    N1 9173   1.638   4.691  15.538 -0.1335 -0.1567 -1.0868
  615MPD2    H7 9174   1.604   0.037  15.491  2.2733  0.8818 -0.9823
  616TMC3    C1 9175   1.656   0.103  15.708 -0.2815 -0.1276 -0.4719
  616TMC3    C2 9176   1.718   0.130  15.828  0.3051 -0.5310  0.3051
  616TMC3    C3 9177   1.665   0.215  15.916 -0.7309  0.1645 -0.2401
  616TMC3    C4 9178   1.526   0.144  15.689  1.0210 -0.1687  0.2411
  616TMC3    C5 9179   1.475   0.216  15.792 -0.1516  0.2419  0.0197
  616TMC3    C6 9180   1.540   0.249  15.912 -0.6803  0.8053 -0.4579
  616TMC3     C 9181   1.685   4.710  15.660  0.3064 -0.4176 -0.2698
  616TMC3     O 9182   1.730   4.633  15.747  0.7202  0.4793  0.3116
  616TMC3     H 9183   1.820   0.092  15.834  0.2601 -1.0893 -2.2077
  616TMC3    H1 9184   1.461   0.112  15.609 -1.3583  0.8877  1.7369
  616TMC3    H2 9185   1.490   0.319  15.978  0.0651  0.5135  0.4049
  616TMC3    C7 9186   1.341   0.260  15.769 -0.4648  0.4607  0.0486
  616TMC3    C8 9187   1.717   0.202  16.046 -0.4012 -0.0435  0.0772
  616TMC3    O1 9188   1.305   0.276  15.654  0.2996 -0.1559 -0.3088
  616TMC3    O2 9189   1.638   0.196  16.139 -0.2557  0.8231  0.0635
  617MPD2     C 9190   0.362   2.660  13.616 -0.5283 -0.1075 -0.4089
  617MPD2    C1 9191   0.331   2.553  13.702 -0.7844 -1.1300 -0.2261
  617MPD2    C2 9192   0.214   2.554  13.769 -0.3255  0.0809 -0.3021
  617MPD2    C3 9193   0.121   2.655  13.754  0.4367 -0.0737  0.3055
  617MPD2    C4 9194   0.151   2.752  13.655  0.1388  0.1268  1.0646
  617MPD2    C5 9195   0.273   2.753  13.596 -0.1012  0.8551  0.0546
  617MPD2     H 9196   0.204   2.486  13.852 -0.0286  0.8315  0.3484
  617MPD2    H1 9197   0.084   2.830  13.622 -0.3342 -1.6472 -2.1969
  617MPD2    H2 9198   0.459   2.674  13.569 -1.5326  1.1127 -2.1059
  617MPD2    H3 9199   0.298   2.838  13.533 -0.4800  0.4023 -0.6941
  617MPD2     N 9200   4.731   2.648  13.819  0.2760  0.6363  0.4455
  617MPD2    H5 9201   4.667   2.723  13.797 -0.2199  0.6974  2.1104
  617MPD2    N1 9202   0.430   2.449  13.711  0.7701 -0.3004 -0.7135
  617MPD2    H7 9203   0.513   2.447  13.654  0.0405  0.8325 -1.8093
  618TMC3    C1 9204   0.510   2.229  13.749  0.1479  0.0545 -0.0093
  618TMC3    C2 9205   0.568   2.140  13.840 -0.8553 -0.0918 -0.3880
  618TMC3    C3 9206   0.645   2.041  13.782 -0.0308  0.3495 -0.3869
  618TMC3    C4 9207   0.530   2.222  13.609  0.2497 -0.0389 -0.3648
  618TMC3    C5 9208   0.611   2.124  13.564  0.1313 -0.1632 -0.0246
  618TMC3    C6 9209   0.671   2.031  13.649 -0.2774 -0.0135  0.0802
  618TMC3     C 9210   0.431   2.339  13.796 -0.8384  0.7818 -0.3306
  618TMC3     O 9211   0.381   2.326  13.905 -0.2380  0.1295 -0.6078
  618TMC3     H 9212   0.543   2.143  13.946 -2.3581  0.8795 -0.7701
  618TMC3    H1 9213   0.469   2.284  13.545  1.0647 -0.0081 -1.1122
  618TMC3    H2 9214   0.728   1.947  13.611 -0.9923 -1.3187  1.9020
  618TMC3    C7 9215   0.619   2.114  13.421 -0.1589  0.4979  0.5211
  618TMC3    C8 9216   0.730   1.950  13.869  0.3266 -0.9276  0.1110
  618TMC3    O1 9217   0.528   2.153  13.360 -0.0293 -0.0839 -0.6306
  618TMC3    O2 9218   0.698   1.945  13.986 -0.2923 -0.1182 -0.4691
  619MPD2     C 9219   1.232   3.973  13.791 -1.0383 -0.0587 -0.3713
  619MPD2    C1 9220   1.162   4.001  13.672  0.3715 -0.2242 -0.3723
  619MPD2    C2 9221   1.024   3.993  13.676 -0.1628 -0.1272 -0.3246
  619MPD2    C3 9222   0.955   3.963  13.789  0.4435  0.2234  0.1994
  619MPD2    C4 9223   1.027   3.944  13.909 -0.5982  0.8915  0.0771
  619MPD2    C5 9224   1.159   3.951  13.904  0.1747  0.3105 -0.3938
  619MPD2     H 9225   0.964   4.009  13.587 -1.1710 -1.9525  0.0292
  619MPD2    H1 9226   0.988   3.909  14.004 -1.1753  0.1925 -0.4178
  619MPD2    H2 9227   1.339   3.986  13.801 -1.5116  1.5201  2.7085
  619MPD2    H3 9228   1.208   3.924  13.997  0.3037  0.1293 -0.5139
  619MPD2     N 9229   0.812   3.933  13.781 -0.5179  0.0068 -0.2566
  619MPD2    H5 9230   0.770   3.924  13.689 -0.1395 -0.7255 -0.3541
  619MPD2    N1 9231   1.222   4.044  13.553  0.2955  0.1965  0.4880
  619MPD2    H7 9232   1.148   4.054  13.485  0.2520  0.1138  0.5234
  620TMC3    C1 9233   1.359   4.175  13.411  0.3414 -0.6243  0.3790
  620TMC3    C2 9234   1.257   4.144  13.318 -0.5880 -0.1187  0.1233
  620TMC3    C3 9235   1.204   4.245  13.243  0.1027 -0.0035  0.1254
  620TMC3    C4 9236   1.393   4.304  13.431  0.0154 -0.7992 -0.1343
  620TMC3    C5 9237   1.338   4.402  13.348 -0.4836 -0.2715 -0.5484
  620TMC3    C6 9238   1.242   4.375  13.252 -1.6102 -0.0551 -0.2258
  620TMC3     C 9239   1.350   4.097  13.533  0.3678 -0.2149 -0.4925
  620TMC3     O 9240   1.455   4.068  13.591  0.1642 -0.0338 -0.0674
  620TMC3     H 9241   1.228   4.044  13.288  1.3268 -0.7848  0.4841
  620TMC3    H1 9242   1.447   4.326  13.522 -0.0532 -0.8069 -0.0924
  620TMC3    H2 9243   1.199   4.449  13.185  0.8577  0.4521 -1.2238
  620TMC3    C7 9244   1.345   4.542  13.381 -0.0611  0.0512  0.1977
  620TMC3    C8 9245   1.068   4.212  13.199  0.7392 -0.2033  0.6418
  620TMC3    O1 9246   1.296   4.630  13.307  0.1739 -0.2179  0.3880
  620TMC3    O2 9247   1.056   4.105  13.134 -0.9259 -0.2187  0.8039
  621MPD2     C 9248   1.960   0.638   9.351  0.0855 -0.4352 -0.2665
  621MPD2    C1 9249   1.930   0.595   9.479  0.1047  0.0301 -0.5053
  621MPD2    C2 9250   2.042   0.586   9.570  0.9583  0.2910 -0.1974
  621MPD2    C3 9251   2.170   0.591   9.523 -0.0673 -0.1725  0.0012
  621MPD2    C4 9252   2.200   0.603   9.392 -0.2229  0.1897 -0.0052
  621MPD2    C5 9253   2.097   0.639   9.305 -0.5685 -0.2312  0.0280
  621MPD2     H 9254   2.026   0.568   9.676  1.1601  0.9547 -0.0576
  621MPD2    H1 9255   2.301   0.607   9.353  0.0774  1.3362  0.9013
  621MPD2    H2 9256   1.882   0.672   9.283  3.9026  3.4429 -2.6958
  621MPD2    H3 9257   2.109   0.660   9.199 -0.0105 -2.8450 -0.4453
  621MPD2     N 9258   2.270   0.584   9.623 -0.4864 -0.7821  0.0763
  621MPD2    H5 9259   2.244   0.561   9.718 -0.4673 -1.4974 -0.0857
  621MPD2    N1 9260   1.791   0.580   9.521 -0.2944  0.3515 -0.7804
  621MPD2    H7 9261   1.774   0.577   9.621  0.0820 -2.1925 -0.7725
  622TMC3    C1 9262   1.559   0.591   9.499  0.1706 -0.5344  0.1199
  622TMC3    C2 9263   1.538   0.612   9.633  0.1679 -0.4736  0.4492
  622TMC3    C3 9264   1.424   0.663   9.680 -0.0708 -0.8723  0.3222
  622TMC3    C4 9265   1.452   0.624   9.415 -0.1329 -0.5400  0.2490
  622TMC3    C5 9266   1.341   0.676   9.464 -0.3800  0.8064 -0.2367
  622TMC3    C6 9267   1.325   0.705   9.594  0.0019 -0.3989  0.1207
  622TMC3     C 9268   1.684   0.572   9.432  0.6588 -0.5683 -0.6194
  622TMC3     O 9269   1.684   0.560   9.310  0.3133  0.1736  0.4394
  622TMC3     H 9270   1.613   0.577   9.704 -1.5828 -0.9329  2.0844
  622TMC3    H1 9271   1.469   0.606   9.310 -0.0738 -0.0847  0.1829
  622TMC3    H2 9272   1.242   0.761   9.634  1.7314  2.1543  0.1110
  622TMC3    C7 9273   1.253   0.752   9.379 -0.6377  0.7897 -0.4707
  622TMC3    C8 9274   1.418   0.703   9.815  0.2497 -0.5363  0.1657
  622TMC3    O1 9275   1.222   0.865   9.421  0.0550 -0.1195  0.7875
  622TMC3    O2 9276   1.527   0.744   9.859  0.4998 -0.4993 -0.7778
  623MPD2     C 9277   0.539   4.546  15.269  0.4294  0.4491 -0.4807
  623MPD2    C1 9278   0.438   4.561  15.359  0.7598 -0.4044 -0.1426
  623MPD2    C2 9279   0.469   4.596  15.489 -0.3871 -0.6651 -1.1221
  623MPD2    C3 9280   0.599   4.603  15.529 -0.6562  0.0197 -0.3563
  623MPD2    C4 9281   0.698   4.579  15.434 -0.0270 -0.2001  0.2470
  623MPD2    C5 9282   0.669   4.542  15.306  0.8025  0.2072  0.1854
  623MPD2     H 9283   0.389   4.602  15.562  1.2136 -1.1317  0.6770
  623MPD2    H1 9284   0.799   4.560  15.470 -1.3489 -0.7611  3.6852
  623MPD2    H2 9285   0.521   4.524  15.164  1.0334 -0.9966 -0.2795
  623MPD2    H3 9286   0.753   4.518  15.242  1.5444  0.3220  1.1173
  623MPD2     N 9287   0.620   4.654  15.660  0.2938  0.7351 -0.2558
  623MPD2    H5 9288   0.537   4.665  15.718  0.8735  0.2430  0.6706
  623MPD2    N1 9289   0.302   4.546  15.338 -0.4921  0.1000  0.2531
  623MPD2    H7 9290   0.252   4.536  15.425 -1.5719 -0.9619 -0.4917
  624TMC3    C1 9291   0.843   0.026  16.044  0.1670 -0.4756  0.4491
  624TMC3    C2 9292   0.718   0.027  16.107  0.5757 -0.3010 -0.3590
  624TMC3    C3 9293   0.604   0.044  16.033  0.1835  0.2248 -1.1357
  624TMC3    C4 9294   0.853   0.031  15.909  0.2190  0.4738  0.8696
  624TMC3    C5 9295   0.735   0.026  15.842  0.0337 -0.5529 -0.0430
  624TMC3    C6 9296   0.610   0.040  15.897  0.8348  0.2309 -0.1975
  624TMC3     C 9297   0.959   0.008  16.132  0.0371  1.1631 -0.6241
  624TMC3     O 9298   0.940   4.735  16.251  0.6066 -0.0758  0.3241
  624TMC3     H 9299   0.712   0.023  16.215 -3.1980  0.3611 -0.5475
  624TMC3    H1 9300   0.947   0.034  15.856  0.0824  0.3038  0.6181
  624TMC3    H2 9301   0.518   0.050  15.841 -0.8153 -1.5235  2.2052
  624TMC3    C7 9302   0.742   4.698  15.706  0.9464  0.7273 -0.5534
  624TMC3    C8 9303   0.472   0.059  16.092  0.3775 -0.4768  0.8963
  624TMC3    O1 9304   0.849   4.696  15.644 -0.0668 -0.0137  0.2219
  624TMC3    O2 9305   0.382   0.028  16.017  0.1522 -0.3711 -0.2597
  625MPD2     C 9306   0.758   1.132   0.609 -0.6413  0.5270  0.5447
  625MPD2    C1 9307   0.831   1.246   0.634  0.9435 -0.1104  0.2325
  625MPD2    C2 9308   0.953   1.239   0.694 -0.5446 -0.2488 -0.0622
  625MPD2    C3 9309   0.998   1.123   0.739 -0.1873 -0.2304  0.3997
  625MPD2    C4 9310   0.921   1.013   0.724 -0.4661 -0.4799  0.7433
  625MPD2    C5 9311   0.803   1.014   0.656 -0.2774  0.4834 -0.3971
  625MPD2     H 9312   0.998   1.333   0.726  0.0165 -0.7185  0.5153
  625MPD2    H1 9313   0.960   0.918   0.759  3.7393  1.7356  2.0255
  625MPD2    H2 9314   0.672   1.145   0.545 -0.4135 -0.5569  0.0187
  625MPD2    H3 9315   0.754   0.923   0.622 -0.3559  0.7219 -0.9231
  625MPD2     N 9316   1.117   1.130   0.807 -0.2190  0.3889 -0.0794
  625MPD2    H5 9317   1.180   1.208   0.791  0.2069  0.3651  1.5143
  625MPD2    N1 9318   0.779   1.362   0.571  0.6208  0.1889 -0.1058
  625MPD2    H7 9319   0.695   1.346   0.515 -0.8888 -0.3284  2.2706
  626TMC3    C1 9320   0.738   1.584   0.513  0.0874  0.3052  0.1427
  626TMC3    C2 9321   0.691   1.559   0.389 -0.6871 -0.8057 -0.7035
  626TMC3    C3 9322   0.595   1.650   0.334  0.6161  0.3697 -0.0156
  626TMC3    C4 9323   0.702   1.703   0.576  0.8955 -0.6479 -0.2659
  626TMC3    C5 9324   0.618   1.792   0.520 -0.2807  0.0600  0.3360
  626TMC3    C6 9325   0.561   1.765   0.400 -0.2167 -0.4051 -0.2515
  626TMC3     C 9326   0.825   1.490   0.587 -0.0276  0.0956  0.1532
  626TMC3     O 9327   0.886   1.529   0.686 -0.1934  0.1904 -0.4085
  626TMC3     H 9328   0.726   1.473   0.333 -1.0773  0.2614 -2.5994
  626TMC3    H1 9329   0.745   1.726   0.672  1.3386  0.0206 -0.6240
  626TMC3    H2 9330   0.484   1.829   0.358 -0.8412 -1.2651 -0.4156
  626TMC3    C7 9331   0.578   1.909   0.592 -0.1861  0.3723  0.3664
  626TMC3    C8 9332   0.554   1.615   0.196  0.0115 -0.6867  0.0885
  626TMC3    O1 9333   0.672   1.956   0.658  0.1461  0.4291  0.0614
  626TMC3    O2 9334   0.626   1.545   0.125  0.0613  0.2558  0.0907
  627MPD2     C 9335   4.021   1.472  14.145  0.2305 -0.0264 -0.0845
  627MPD2    C1 9336   4.062   1.390  14.246  0.6623  0.0014 -0.3417
  627MPD2    C2 9337   4.015   1.253  14.250 -0.3454 -0.2450  0.0279
  627MPD2    C3 9338   3.928   1.201  14.155 -0.2390  0.1651 -0.3482
  627MPD2    C4 9339   3.884   1.291  14.054 -0.2821 -0.3480  0.3014
  627MPD2    C5 9340   3.931   1.423  14.054  0.3918  0.9964  0.0632
  627MPD2     H 9341   4.059   1.183  14.319 -2.5577  0.5140  2.1955
  627MPD2    H1 9342   3.802   1.270  13.987 -0.4666  1.6112 -0.0790
  627MPD2    H2 9343   4.041   1.579  14.142  0.7830 -0.1321 -0.0983
  627MPD2    H3 9344   3.887   1.491  13.983 -0.8548 -0.7529 -0.8446
  627MPD2     N 9345   3.876   1.065  14.173  0.0457  0.0108  0.9406
  627MPD2    H5 9346   3.901   1.012  14.256 -1.1353  0.6635  1.7220
  627MPD2    N1 9347   4.158   1.430  14.341  0.3472  0.5649  0.0968
  627MPD2    H7 9348   4.199   1.360  14.403 -0.9719  1.0545  1.5135
  628TMC3    C1 9349   4.320   1.581  14.441  0.0885 -0.3658 -0.5653
  628TMC3    C2 9350   4.401   1.475  14.479  0.2294 -0.0325  0.0483
  628TMC3    C3 9351   4.509   1.501  14.552  0.7257 -0.0785 -0.6952
  628TMC3    C4 9352   4.347   1.714  14.480  0.0465 -0.1281 -0.3414
  628TMC3    C5 9353   4.464   1.731  14.547  1.0085  0.4613  0.3281
  628TMC3    C6 9354   4.536   1.626  14.601 -0.0527  0.5761 -0.1055
  628TMC3     C 9355   4.203   1.556  14.360  0.1663  0.2986 -0.1359
  628TMC3     O 9356   4.161   1.660  14.307  0.0420  0.6843  0.2228
  628TMC3     H 9357   4.375   1.374  14.447  1.5778  0.3229 -2.1738
  628TMC3    H1 9358   4.282   1.791  14.441  0.0254  0.1418  0.2302
  628TMC3    H2 9359   4.631   1.661  14.638  0.4637 -2.6470  1.5362
  628TMC3    C7 9360   4.485   1.856  14.613  0.1422  0.3135  0.1633
  628TMC3    C8 9361   4.600   1.391  14.569  0.0890  0.5757  0.2960
  628TMC3    O1 9362   4.529   1.849  14.729  0.3113  0.1329 -0.0614
  628TMC3    O2 9363   4.595   1.301  14.489 -0.1219  0.5630 -0.1884
  629MPD2     C 9364   2.104   0.174  16.382  0.0454  0.3306  0.0685
  629MPD2    C1 9365   2.164   0.194  16.258 -0.0031 -0.7226  0.0949
  629MPD2    C2 9366   2.080   0.197  16.146  0.1805 -0.5946 -0.2617
  629MPD2    C3 9367   1.938   0.190  16.161  0.7040  0.1364  0.1138
  629MPD2    C4 9368   1.886   0.188  16.290  0.1588  1.0137  0.2535
  629MPD2    C5 9369   1.969   0.171  16.401 -0.1935  0.8419 -0.0720
  629MPD2     H 9370   2.122   0.218  16.048  0.4184  0.9225  0.1684
  629MPD2    H1 9371   1.787   0.220  16.320 -0.7887 -2.3795  0.8148
  629MPD2    H2 9372   2.158   0.177  16.476 -1.0677 -0.5864  0.7374
  629MPD2    H3 9373   1.931   0.181  16.502  2.2380  2.6630  0.6635
  629MPD2     N 9374   1.855   0.196  16.042 -1.0004 -0.0874  0.7575
  629MPD2    H5 9375   1.904   0.217  15.956 -0.8929 -0.5452  0.7047
  629MPD2    N1 9376   2.309   0.211  16.254  0.4161  0.0729  0.5274
  629MPD2    H7 9377   2.362   0.195  16.339  0.1124  1.0291  0.9046
  630TMC3    C1 9378   2.520   0.260  16.181  0.6925  0.1431  0.2203
  630TMC3    C2 9379   2.589   0.363  16.127 -0.2542  0.7269 -0.2203
  630TMC3    C3 9380   2.721   0.373  16.163  0.2864 -0.2178  0.1689
  630TMC3    C4 9381   2.580   0.159  16.251 -0.2900  0.4826 -0.0436
  630TMC3    C5 9382   2.715   0.168  16.266 -0.1364  0.1254  0.5396
  630TMC3    C6 9383   2.794   0.272  16.222 -0.5583  0.4511  0.3331
  630TMC3     C 9384   2.377   0.251  16.145  0.8495  0.0259 -0.0897
  630TMC3     O 9385   2.342   0.297  16.035 -0.0466 -0.4175  0.2520
  630TMC3     H 9386   2.532   0.421  16.055 -0.4617  0.0226 -0.6232
  630TMC3    H1 9387   2.537   0.059  16.259  0.2969  0.3029  1.0009
  630TMC3    H2 9388   2.898   0.283  16.250  0.1646  2.3329 -3.0355
  630TMC3    C7 9389   2.776   0.044  16.294  0.4412  0.2109 -0.5957
  630TMC3    C8 9390   2.800   0.478  16.100 -0.5156  0.0652  0.2352
  630TMC3    O1 9391   2.707   4.693  16.348 -0.0970 -0.0790 -0.7452
  630TMC3    O2 9392   2.919   0.450  16.095 -0.0386  0.0880 -0.3571
  631MPD2     C 9393   0.856   0.226  15.067  0.3342 -0.4041  0.2627
  631MPD2    C1 9394   0.931   0.257  14.956  0.8905 -0.0251  0.1850
  631MPD2    C2 9395   1.015   0.159  14.905 -0.2615  0.2284 -0.4374
  631MPD2    C3 9396   1.019   0.030  14.958  0.2725  0.1541 -0.2719
  631MPD2    C4 9397   0.935   0.002  15.064  0.1800  0.6725 -0.4825
  631MPD2    C5 9398   0.858   0.101  15.121  0.2843 -0.6149  0.7187
  631MPD2     H 9399   1.073   0.183  14.816 -0.0399  0.8568 -0.1202
  631MPD2    H1 9400   0.925   4.642  15.111 -1.3144  0.8880 -0.3642
  631MPD2    H2 9401   0.792   0.297  15.118  0.9019  1.3770 -1.4848
  631MPD2    H3 9402   0.794   0.087  15.207  0.5251 -1.3214  0.7858
  631MPD2     N 9403   1.106   4.674  14.894 -0.6184  0.3839  0.1358
  631MPD2    H5 9404   1.151   4.697  14.806 -1.0949  2.4027  0.4321
  631MPD2    N1 9405   0.927   0.395  14.919  0.2972  0.6881  0.0765
  631MPD2    H7 9406   0.888   0.472  14.972  0.7363  1.2355 -0.4004
  632TMC3    C1 9407   0.989   0.582  14.793 -0.1080 -0.1614  0.3749
  632TMC3    C2 9408   0.866   0.631  14.778 -0.1321  0.4324  0.1759
  632TMC3    C3 9409   0.851   0.751  14.718  0.0202 -0.5900  0.0481
  632TMC3    C4 9410   1.101   0.634  14.738  0.0920  0.3155  0.4145
  632TMC3    C5 9411   1.086   0.756  14.676 -0.0218 -0.6327 -0.0854
  632TMC3    C6 9412   0.961   0.817  14.667 -0.0202 -0.5516  0.1309
  632TMC3     C 9413   0.999   0.436  14.814  0.1109  0.3746  0.0019
  632TMC3     O 9414   1.059   0.384  14.719 -0.4074  0.2534 -0.1562
  632TMC3     H 9415   0.774   0.580  14.806  0.3389 -1.9423 -2.5786
  632TMC3    H1 9416   1.195   0.582  14.753 -1.3771 -2.1400  1.0949
  632TMC3    H2 9417   0.950   0.908  14.608  0.5083  0.1113  1.0658
  632TMC3    C7 9418   1.176   0.785  14.563 -0.1546  0.2577  0.6128
  632TMC3    C8 9419   0.713   0.792  14.677  0.8445 -0.3356 -0.5146
  632TMC3    O1 9420   1.133   0.863  14.480  0.8538  0.2076  0.9663
  632TMC3    O2 9421   0.697   0.849  14.572  0.8098  0.2263 -0.4583
  633MPD2     C 9422   0.756   3.194  17.220 -0.0406  0.3169  0.5083
  633MPD2    C1 9423   0.760   3.113  17.108  0.0846 -0.9615  0.0316
  633MPD2    C2 9424   0.720   2.980  17.116  0.2338 -0.2946 -0.1531
  633MPD2    C3 9425   0.688   2.917  17.237 -0.2554  0.1333  0.8676
  633MPD2    C4 9426   0.699   3.000  17.348  0.0669  0.5738 -0.4934
  633MPD2    C5 9427   0.728   3.137  17.341  1.1596 -0.0190  0.0379
  633MPD2     H 9428   0.713   2.924  17.024  0.6286  1.2740 -1.1432
  633MPD2    H1 9429   0.685   2.961  17.448 -0.9233  1.2540 -0.3597
  633MPD2    H2 9430   0.787   3.297  17.225 -0.0162  0.3623 -0.7712
  633MPD2    H3 9431   0.727   3.194  17.433 -0.2747 -1.1066  0.6870
  633MPD2     N 9432   0.656   2.781  17.260  0.1551  0.2066 -0.3312
  633MPD2    H5 9433   0.657   2.745  17.354 -0.7183  2.0052  0.3617
  633MPD2    N1 9434   0.791   3.153  16.973 -0.5284 -0.0342 -0.7269
  633MPD2    H7 9435   0.794   3.082  16.901 -0.0234 -1.4383  0.6679
  634TMC3    C1 9436   0.813   3.287  16.787  0.2607  0.3010  0.0235
  634TMC3    C2 9437   0.859   3.177  16.710 -0.5941  0.1272 -0.2003
  634TMC3    C3 9438   0.897   3.190  16.575  0.3799  0.5692  0.0943
  634TMC3    C4 9439   0.822   3.412  16.733  0.5728 -0.1614  0.6410
  634TMC3    C5 9440   0.855   3.416  16.601  0.0082 -0.7282  1.0587
  634TMC3    C6 9441   0.895   3.309  16.516 -0.3431 -0.1042  0.0758
  634TMC3     C 9442   0.801   3.280  16.930  0.0873 -0.1279 -0.5295
  634TMC3     O 9443   0.796   3.384  16.999  0.4579  0.6766 -0.2050
  634TMC3     H 9444   0.850   3.075  16.745  1.8295  0.0157  0.1088
  634TMC3    H1 9445   0.812   3.501  16.794  1.2471 -0.3654  1.0511
  634TMC3    H2 9446   0.919   3.334  16.413  0.6125 -0.9605  0.1025
  634TMC3    C7 9447   0.816   3.536  16.527  0.0028  0.2156  0.2259
  634TMC3    C8 9448   0.903   3.077  16.492  0.7929 -0.7753 -1.0114
  634TMC3    O1 9449   0.834   3.526  16.407  0.1292  0.0725 -0.1429
  634TMC3    O2 9450   0.903   2.971  16.553  0.3088 -0.4413  0.3014
  635TMC3    C1 9451   0.874   4.406   0.588  0.0074  0.2041  0.4121
  635TMC3    C2 9452   0.872   4.269   0.586  0.2907 -0.3755 -0.4555
  635TMC3    C3 9453   0.764   4.198   0.632 -0.3351  0.1070  0.5863
  635TMC3    C4 9454   0.763   4.476   0.634 -0.9073  0.5726  0.3715
  635TMC3    C5 9455   0.662   4.398   0.689 -0.2039 -0.3919 -0.1197
  635TMC3    C6 9456   0.654   4.261   0.682 -0.2780  0.1009 -0.1210
  635TMC3     C 9457   0.981   4.479   0.524 -0.2054 -0.2159  0.0831
  635TMC3     O 9458   0.990   4.597   0.559  0.9086 -0.1104 -0.0391
  635TMC3     H 9459   0.962   4.214   0.561 -1.0299 -3.1365  0.9722
  635TMC3    H1 9460   0.760   4.584   0.639  1.6578  0.6773 -0.2463
  635TMC3    H2 9461   0.565   4.207   0.713  1.4370 -1.6824  1.7355
  635TMC3    C7 9462   0.569   4.476   0.763  0.8209  0.4017 -0.3180
  635TMC3    C8 9463   0.749   4.055   0.607  0.4348 -0.5303 -0.3033
  635TMC3    O1 9464   0.558   4.596   0.742  0.2582  0.3130  0.9217
  635TMC3    O2 9465   0.645   4.006   0.646 -0.2670  0.9450 -0.2379
  636MPD2     C 9466   1.519   3.256  16.037  0.6063  0.1004  0.6712
  636MPD2    C1 9467   1.583   3.294  16.152 -0.8083  0.7702  1.2396
  636MPD2    C2 9468   1.627   3.190  16.234 -0.3434  0.3631 -0.5721
  636MPD2    C3 9469   1.598   3.055  16.204  0.2727  0.3661  0.1576
  636MPD2    C4 9470   1.535   3.029  16.088 -0.7832  0.0619 -0.4008
  636MPD2    C5 9471   1.493   3.128  16.005  0.7650  0.2022 -0.4197
  636MPD2     H 9472   1.694   3.213  16.316 -1.1901 -0.3959  0.3408
  636MPD2    H1 9473   1.494   2.932  16.064  2.0581 -0.9204 -1.1770
  636MPD2    H2 9474   1.489   3.327  15.961 -0.3503 -0.1195  0.8345
  636MPD2    H3 9475   1.453   3.111  15.905  1.6906 -0.0981 -0.7357
  636MPD2     N 9476   1.622   2.965  16.304  0.1274  0.1722  0.0274
  636MPD2    H5 9477   1.674   3.002  16.383  2.2568  0.9640 -1.7426
  636MPD2    N1 9478   1.617   3.427  16.198 -0.8505  0.1357 -0.0089
  636MPD2    H7 9479   1.656   3.434  16.292  0.6471 -1.4989 -0.4902
  637TMC3    C1 9480   1.637   2.762  16.425 -0.1042  0.6652  0.4468
  637TMC3    C2 9481   1.650   2.839  16.536  0.4193  0.2253  0.6637
  637TMC3    C3 9482   1.755   2.817  16.627 -1.3887 -0.1870 -0.2686
  637TMC3    C4 9483   1.727   2.658  16.410  0.5659 -0.2637  0.2439
  637TMC3    C5 9484   1.827   2.628  16.502 -0.7984  0.0966  0.6809
  637TMC3    C6 9485   1.833   2.705  16.618  0.2163  0.3707  0.2269
  637TMC3     C 9486   1.610   2.828  16.297 -0.4316 -0.1960  0.7122
  637TMC3     O 9487   1.594   2.754  16.200 -0.2784  0.4919  0.3733
  637TMC3     H 9488   1.586   2.927  16.542 -0.1148 -0.1702  0.7735
  637TMC3    H1 9489   1.717   2.596  16.322  1.0669  0.2704 -0.1956
  637TMC3    H2 9490   1.905   2.682  16.695  0.5218  2.7174  0.6522
  637TMC3    C7 9491   1.962   2.610  16.451 -0.1485  0.1125  0.3867
  637TMC3    C8 9492   1.824   2.934  16.666 -0.6395 -0.3682  0.3581
  637TMC3    O1 9493   2.058   2.651  16.515  0.1011 -0.2430 -0.9529
  637TMC3    O2 9494   1.803   3.030  16.594  0.4406  0.6537 -0.3777
  638MPD2     C 9495   2.251   2.213  14.723 -0.2552 -0.2543  0.3880
  638MPD2    C1 9496   2.227   2.101  14.650 -0.3146  0.2369  0.0026
  638MPD2    C2 9497   2.129   2.006  14.696  0.5552 -0.0570  0.2680
  638MPD2    C3 9498   2.059   2.024  14.815 -0.1623  0.1725  0.4510
  638MPD2    C4 9499   2.078   2.148  14.876  0.0249 -0.2904  0.2299
  638MPD2    C5 9500   2.176   2.237  14.830 -0.2083 -0.8875  0.4580
  638MPD2     H 9501   2.128   1.905  14.659  0.0114 -0.0252  0.1947
  638MPD2    H1 9502   2.026   2.159  14.970 -2.5130  2.8372 -1.5471
  638MPD2    H2 9503   2.327   2.284  14.692 -1.3284  1.3680  1.5545
  638MPD2    H3 9504   2.202   2.327  14.885 -0.3870 -1.0922  0.8823
  638MPD2     N 9505   1.967   1.923  14.864  0.0455  0.6328 -0.5443
  638MPD2    H5 9506   1.901   1.945  14.938  0.5223 -0.5174  0.2287
  638MPD2    N1 9507   2.304   2.086  14.534 -0.6169  0.1784 -1.1020
  638MPD2    H7 9508   2.379   2.151  14.516 -0.0307 -0.0867  0.3293
  639TMC3    C1 9509   1.864   1.706  14.875  0.1302  0.4429  0.0130
  639TMC3    C2 9510   1.759   1.660  14.801  0.3008  0.4091 -0.4299
  639TMC3    C3 9511   1.687   1.549  14.841  0.4582 -0.2062  0.0536
  639TMC3    C4 9512   1.919   1.630  14.975 -0.4468 -0.4182  0.7824
  639TMC3    C5 9513   1.858   1.511  14.996 -0.2330 -0.1991  0.3192
  639TMC3    C6 9514   1.742   1.476  14.941  0.2140 -0.6489  0.0846
  639TMC3     C 9515   1.960   1.795  14.815  0.5500 -0.4071  0.0431
  639TMC3     O 9516   2.009   1.732  14.720 -0.5098 -0.2096 -0.2329
  639TMC3     H 9517   1.722   1.732  14.728  0.4676  0.6104 -0.3167
  639TMC3    H1 9518   2.017   1.656  15.014 -0.8048 -0.7201  1.8725
  639TMC3    H2 9519   1.724   1.370  14.928 -1.5104 -0.2368 -0.8830
  639TMC3    C7 9520   1.952   1.404  15.022 -0.5181 -0.7051  0.4479
  639TMC3    C8 9521   1.619   1.462  14.747 -0.3864 -0.0120  0.9727
  639TMC3    O1 9522   1.902   1.300  15.066 -0.5477 -0.7793 -0.1115
  639TMC3    O2 9523   1.692   1.409  14.664  0.0582 -0.1034 -0.4313
  640MPD2     C 9524   2.348   0.920   9.580 -0.2288 -0.0641 -0.0989
  640MPD2    C1 9525   2.454   0.970   9.648  0.4671  0.7532  0.5109
  640MPD2    C2 9526   2.438   1.036   9.766  0.1785  0.3423  0.3367
  640MPD2    C3 9527   2.307   1.052   9.817 -0.5088 -0.1827  0.8446
  640MPD2    C4 9528   2.198   1.001   9.750 -0.1572  0.0742 -0.0523
  640MPD2    C5 9529   2.220   0.935   9.635 -0.2689 -1.2776 -0.9775
  640MPD2     H 9530   2.523   1.081   9.817 -0.9534  2.1100  0.6556
  640MPD2    H1 9531   2.100   1.018   9.791 -0.2313 -1.0346  0.2140
  640MPD2    H2 9532   2.361   0.855   9.494  0.3958 -1.6403  1.1801
  640MPD2    H3 9533   2.133   0.903   9.579  0.0655  1.2096 -2.9517
  640MPD2     N 9534   2.275   1.122   9.936 -0.0402  0.5272  0.4844
  640MPD2    H5 9535   2.182   1.117   9.978 -1.0614  1.5275 -1.6906
  640MPD2    N1 9536   2.578   0.941   9.592 -0.5115  0.3416  0.6173
  640MPD2    H7 9537   2.580   0.888   9.505  1.0212 -1.3403  1.6520
  641TMC3    C1 9538   2.812   0.926   9.573 -0.0061 -0.5708 -0.4123
  641TMC3    C2 9539   2.810   0.805   9.521 -1.0221 -0.2116 -0.0389
  641TMC3    C3 9540   2.915   0.759   9.446  0.4605 -0.1817 -0.1928
  641TMC3    C4 9541   2.928   1.001   9.568 -0.3101 -0.1612 -0.1251
  641TMC3    C5 9542   3.037   0.956   9.496 -0.7085 -0.3301  0.4057
  641TMC3    C6 9543   3.030   0.838   9.433  0.4743 -0.1964  0.0300
  641TMC3     C 9544   2.701   0.984   9.639 -0.2699 -0.6071  0.2650
  641TMC3     O 9545   2.718   1.080   9.710  0.0124 -0.3242  0.9227
  641TMC3     H 9546   2.714   0.755   9.509 -0.3120 -1.1552 -1.8624
  641TMC3    H1 9547   2.940   1.099   9.612  0.7695 -0.3415 -0.0093
  641TMC3    H2 9548   3.096   0.814   9.350 -0.1743  1.0707 -0.8578
  641TMC3    C7 9549   3.160   1.035   9.497 -0.7568 -0.1099 -0.5361
  641TMC3    C8 9550   2.877   0.647   9.363 -0.3083  0.3561  0.7275
  641TMC3    O1 9551   3.170   1.149   9.549 -0.1641  0.1051  0.1889
  641TMC3    O2 9552   2.759   0.627   9.339 -0.0076  0.4558 -0.1341
  642TMC3    C1 9553   3.571   1.585  12.882  0.2348 -0.1162  0.4593
  642TMC3    C2 9554   3.478   1.566  12.977  0.8663  1.2359 -0.0380
  642TMC3    C3 9555   3.470   1.436  13.023  1.1122  0.2625 -1.1112
  642TMC3    C4 9556   3.638   1.480  12.825 -0.3069 -0.4507  0.7916
  642TMC3    C5 9557   3.628   1.352  12.878  0.0290 -0.5305 -0.0090
  642TMC3    C6 9558   3.534   1.324  12.976  0.4356  0.3159  0.3530
  642TMC3     C 9559   3.560   1.694  12.793 -0.1986  0.4411 -0.0310
  642TMC3     O 9560   3.656   1.724  12.727  0.6096 -0.0942  0.1696
  642TMC3     H 9561   3.432   1.656  13.016  2.3767  1.1645  1.9188
  642TMC3    H1 9562   3.707   1.492  12.743 -0.8368  0.9637  0.5496
  642TMC3    H2 9563   3.512   1.226  13.016  2.4616 -0.1314  0.3696
  642TMC3    C7 9564   3.664   1.230  12.806 -0.0575 -0.3201 -0.0279
  642TMC3    C8 9565   3.350   1.407  13.097 -0.1220  0.2464 -0.5266
  642TMC3    O1 9566   3.694   1.237  12.686  0.1279  0.3842  0.3426
  642TMC3    O2 9567   3.302   1.294  13.085  0.1220 -0.5177 -0.1487
  643TMC3    C1 9568   2.903   0.628   0.347  0.0515 -0.5321  0.2517
  643TMC3    C2 9569   2.777   0.583   0.353  0.8819 -0.0240  0.1795
  643TMC3    C3 9570   2.720   0.528   0.241  0.0050 -0.2357 -0.1122
  643TMC3    C4 9571   2.975   0.643   0.232  1.1016  0.2524  0.8880
  643TMC3    C5 9572   2.922   0.584   0.124 -0.0904 -0.4600  0.1170
  643TMC3    C6 9573   2.804   0.513   0.124  0.0224 -0.7058  0.5797
  643TMC3     C 9574   2.931   0.737   0.441  0.7805  0.2668  0.0521
  643TMC3     O 9575   2.831   0.798   0.477 -0.0394 -0.3283 -0.2220
  643TMC3     H 9576   2.721   0.601   0.444 -0.7399 -0.1517 -0.8005
  643TMC3    H1 9577   3.072   0.691   0.224  1.8300 -1.1405  1.2550
  643TMC3    H2 9578   2.761   0.481   0.030 -1.9770 -0.9075  1.5615
  643TMC3    C7 9579   2.963   0.641  17.744  0.1577  0.1885 -0.5719
  643TMC3    C8 9580   2.589   0.586   0.200 -0.5111  0.5442  0.5550
  643TMC3    O1 9581   3.019   0.749  17.744 -0.0683  0.0567  0.2177
  643TMC3    O2 9582   2.532   0.523   0.113 -0.4680 -0.2489 -0.5353
  644MPD2     C 9583   3.386   1.555   9.842 -0.2894  1.0235 -0.2384
  644MPD2    C1 9584   3.504   1.502   9.812 -0.0473 -0.1419  0.3807
  644MPD2    C2 9585   3.611   1.588   9.809  0.2363 -0.5872  0.4316
  644MPD2    C3 9586   3.597   1.724   9.825  0.2918  0.8650 -0.0720
  644MPD2    C4 9587   3.474   1.778   9.839  0.7115  0.4463  0.9411
  644MPD2    C5 9588   3.372   1.694   9.841  0.0512  0.8798  0.3358
  644MPD2     H 9589   3.708   1.540   9.814 -0.5830 -2.1834  1.3649
  644MPD2    H1 9590   3.451   1.879   9.870 -1.4683  0.0683  0.5131
  644MPD2    H2 9591   3.296   1.499   9.863  1.2517 -1.2495  0.3174
  644MPD2    H3 9592   3.275   1.742   9.848 -0.5747 -0.3306 -0.1657
  644MPD2     N 9593   3.720   1.801   9.825 -0.0876 -0.0204 -0.4490
  644MPD2    H5 9594   3.803   1.745   9.810  1.1833  1.7543 -0.0340
  644MPD2    N1 9595   3.509   1.362   9.792 -0.0962  0.4239  0.0084
  644MPD2    H7 9596   3.431   1.306   9.826 -1.7636  2.3985 -0.6137
  645TMC3    C1 9597   3.852   1.995   9.840  0.5797  0.8049  0.5860
  645TMC3    C2 9598   3.856   2.126   9.793 -0.2100 -0.0760  0.1235
  645TMC3    C3 9599   3.980   2.187   9.801 -0.1419  0.1830 -0.7303
  645TMC3    C4 9600   3.951   1.918   9.897 -0.1657 -0.6464 -0.1737
  645TMC3    C5 9601   4.063   1.986   9.910  0.3479  0.0332  0.3645
  645TMC3    C6 9602   4.078   2.110   9.864  0.3754 -0.5607 -0.7883
  645TMC3     C 9603   3.720   1.938   9.832 -0.3285 -0.1935 -0.1377
  645TMC3     O 9604   3.631   2.025   9.830  0.2954  0.0392 -0.0368
  645TMC3     H 9605   3.774   2.173   9.741 -0.0442  0.4176  0.3166
  645TMC3    H1 9606   3.937   1.817   9.931  0.8967 -0.2670  1.3694
  645TMC3    H2 9607   4.180   2.146   9.870 -0.4306  0.9019  4.1857
  645TMC3    C7 9608   4.180   1.921   9.970 -0.4887  0.1702 -0.1443
  645TMC3    C8 9609   4.017   2.313   9.740  0.2499 -0.0465 -0.3889
  645TMC3    O1 9610   4.287   1.977   9.947 -0.3215 -0.1504 -0.1129
  645TMC3    O2 9611   3.923   2.372   9.692  0.4388 -0.1283 -0.1256
  646MPD2     C 9612   2.061   0.624  14.553 -0.1450  0.2221 -0.1297
  646MPD2    C1 9613   1.937   0.631  14.610 -0.3092  0.3715  0.0265
  646MPD2    C2 9614   1.835   0.692  14.539 -0.5465 -0.5635  0.0052
  646MPD2    C3 9615   1.863   0.761  14.422 -0.3757 -0.0388  0.5208
  646MPD2    C4 9616   1.990   0.757  14.374 -0.6745 -0.2821 -0.2509
  646MPD2    C5 9617   2.094   0.687  14.434  0.6545  0.5547 -0.4999
  646MPD2     H 9618   1.736   0.692  14.581 -0.1441 -2.6695  0.9861
  646MPD2    H1 9619   2.014   0.804  14.280 -1.6770 -2.0976 -1.4022
  646MPD2    H2 9620   2.138   0.574  14.610  1.4076  0.8914 -1.6281
  646MPD2    H3 9621   2.193   0.670  14.395  1.1922  0.8646  0.7401
  646MPD2     N 9622   1.757   0.824  14.344 -0.4031  0.1169  0.1980
  646MPD2    H5 9623   1.666   0.814  14.388 -1.0836  2.5862 -0.6184
  646MPD2    N1 9624   1.914   0.557  14.733 -0.8652  0.6920 -0.7529
  646MPD2    H7 9625   1.993   0.508  14.774 -1.5577  0.0404 -0.2000
  647TMC3    C1 9626   1.813   0.473  14.924 -0.7994  0.3235  0.0223
  647TMC3    C2 9627   1.715   0.382  14.927 -0.3451 -0.0627  0.1170
  647TMC3    C3 9628   1.696   0.323  15.049 -0.2269  0.2885 -0.2920
  647TMC3    C4 9629   1.900   0.508  15.023 -0.1376 -0.4997 -0.4797
  647TMC3    C5 9630   1.875   0.452  15.143 -0.1111  0.3825  0.0417
  647TMC3    C6 9631   1.762   0.376  15.157 -0.2328 -0.4312 -0.5615
  647TMC3     C 9632   1.794   0.556  14.804  0.2029  0.1502 -0.0981
  647TMC3     O 9633   1.681   0.582  14.763  0.2780 -0.2381  0.6249
  647TMC3     H 9634   1.644   0.367  14.847  2.0205 -2.8191 -1.4617
  647TMC3    H1 9635   1.982   0.576  15.004 -1.6768  1.9417  1.7256
  647TMC3    H2 9636   1.745   0.340  15.258 -3.0418  0.0514 -0.8700
  647TMC3    C7 9637   1.984   0.383  15.212  0.2272 -0.3441  0.0028
  647TMC3    C8 9638   1.711   0.173  15.052 -0.5081 -0.4631 -0.5875
  647TMC3    O1 9639   1.955   0.351  15.328 -0.3816 -0.0892 -0.5017
  647TMC3    O2 9640   1.709   0.130  15.166 -0.0219 -0.3900  0.5122
  648TMC3    C1 9641   1.162   3.073  16.082  0.0934 -0.7175  0.6202
  648TMC3    C2 9642   1.206   2.946  16.086 -0.2651 -0.4308 -0.2101
  648TMC3    C3 9643   1.209   2.881  15.965  0.2881 -0.6656  0.7791
  648TMC3    C4 9644   1.128   3.127  15.964 -0.4375 -0.6311  0.0936
  648TMC3    C5 9645   1.130   3.060  15.840  0.4116  0.6792  1.1387
  648TMC3    C6 9646   1.186   2.934  15.839  0.6417 -0.1692 -0.5467
  648TMC3     C 9647   1.160   3.163  16.198  0.3027 -0.0235 -1.0141
  648TMC3     O 9648   1.106   3.275  16.189 -0.5643 -0.8204  0.1789
  648TMC3     H 9649   1.236   2.901  16.179  0.8808 -0.7413 -0.7258
  648TMC3    H1 9650   1.103   3.233  15.961  2.0212 -0.0496  0.2546
  648TMC3    H2 9651   1.181   2.884  15.743 -2.9206 -1.3518  0.2513
  648TMC3    C7 9652   1.114   3.142  15.717 -0.1303 -0.0424 -0.7479
  648TMC3    C8 9653   1.263   2.752  15.972  0.5947  0.2930 -0.0297
  648TMC3    O1 9654   1.168   3.105  15.614 -0.1501 -0.5768 -0.0088
  648TMC3    O2 9655   1.274   2.712  16.088 -0.3570 -0.4719 -0.1505
  649TMC3    C1 9656   0.142   4.389  12.413 -0.1586  0.0502 -0.2806
  649TMC3    C2 9657   0.259   4.344  12.357  0.6336 -0.1954 -0.2425
  649TMC3    C3 9658   0.349   4.287  12.444 -0.0139  0.7311  0.3594
  649TMC3    C4 9659   0.102   4.361  12.541 -0.1388  0.5990 -0.0934
  649TMC3    C5 9660   0.193   4.302  12.627  0.1585 -0.6376 -0.5498
  649TMC3    C6 9661   0.316   4.275  12.575 -0.3133 -1.2096  0.4316
  649TMC3     C 9662   0.041   4.448  12.317  0.1973 -0.2744  0.2588
  649TMC3     O 9663   4.691   4.513  12.370  0.2987  0.5337  0.4109
  649TMC3     H 9664   0.293   4.393  12.267  0.2461  0.3332 -0.0988
  649TMC3    H1 9665   0.004   4.389  12.576 -0.2231  0.5826 -0.3174
  649TMC3    H2 9666   0.379   4.211  12.634  1.7541  1.9894  1.7118
  649TMC3    C7 9667   0.145   4.242  12.742 -0.2644  0.3910  0.8103
  649TMC3    C8 9668   0.476   4.242  12.397 -0.7066  0.6934 -0.1376
  649TMC3    O1 9669   0.026   4.240  12.764 -0.6198  0.4012 -0.0021
  649TMC3    O2 9670   0.564   4.248  12.480  0.3568 -0.6503  0.4002
  650TMC3    C1 9671   2.838   0.890  12.372  0.1369  0.0784 -0.2782
  650TMC3    C2 9672   2.756   0.952  12.277  0.7650 -0.1648  0.1815
  650TMC3    C3 9673   2.827   1.037  12.195 -0.5681  0.0875  0.0117
  650TMC3    C4 9674   2.971   0.902  12.384  0.7956 -0.7585  0.0911
  650TMC3    C5 9675   3.033   0.989  12.296  0.1254  0.2271  1.2830
  650TMC3    C6 9676   2.968   1.042  12.189 -0.1815  0.7775 -0.4304
  650TMC3     C 9677   2.762   0.816  12.467 -0.5799 -0.8959  0.0490
  650TMC3     O 9678   2.654   0.865  12.507 -0.0050  0.2811 -0.8528
  650TMC3     H 9679   2.650   0.936  12.270  0.5509  1.3064  0.1033
  650TMC3    H1 9680   3.013   0.867  12.477  0.0496 -0.1510  0.6489
  650TMC3    H2 9681   3.016   1.106  12.116 -0.9331 -0.7207 -2.2612
  650TMC3    C7 9682   3.121   1.090  12.362 -0.4093  1.0845 -0.8353
  650TMC3    C8 9683   2.769   1.171  12.177 -0.4190  0.9490  0.5520
  650TMC3    O1 9684   3.187   1.047  12.460 -0.2085  0.0650 -0.1265
  650TMC3    O2 9685   2.845   1.267  12.165  0.0151 -0.0668  0.2147
  651MPD2     C 9686   1.719   2.722  10.950  0.4297  0.1652  0.0445
  651MPD2    C1 9687   1.661   2.834  10.897  0.1263 -0.0832 -0.0041
  651MPD2    C2 9688   1.733   2.947  10.868 -0.0287 -0.0949 -0.1311
  651MPD2    C3 9689   1.874   2.953  10.880  0.3573  0.1871  0.2611
  651MPD2    C4 9690   1.937   2.842  10.935  0.2269  0.6059  0.0859
  651MPD2    C5 9691   1.860   2.733  10.968 -0.0288  0.6128  0.0176
  651MPD2     H 9692   1.680   3.038  10.842  0.3491  0.9581  2.7844
  651MPD2    H1 9693   2.045   2.836  10.940  0.2514  0.4713 -0.5823
  651MPD2    H2 9694   1.671   2.629  10.975 -1.2060  1.2910  1.1034
  651MPD2    H3 9695   1.918   2.650  11.005 -0.4676  1.7292  3.2060
  651MPD2     N 9696   1.949   3.070  10.848 -0.1384  0.6235  0.0132
  651MPD2    H5 9697   1.895   3.150  10.816  0.7173  1.5243  0.8196
  651MPD2    N1 9698   1.519   2.843  10.875 -0.0068  0.5389 -0.2758
  651MPD2    H7 9699   1.483   2.930  10.838 -1.1937 -0.3049 -1.0997
  652TMC3    C1 9700   2.360   3.314  10.775  0.5878 -0.6805 -0.3359
  652TMC3    C2 9701   2.285   3.218  10.843  0.9208  0.3416  0.0698
  652TMC3    C3 9702   2.154   3.194  10.800  0.5283  0.4160 -0.6738
  652TMC3    C4 9703   2.297   3.399  10.683 -0.1759 -0.2202 -0.7930
  652TMC3    C5 9704   2.163   3.385  10.668  0.1353  0.4576 -0.4107
  652TMC3    C6 9705   2.094   3.281  10.720  0.5632  0.9159  0.2041
  652TMC3     C 9706   2.500   3.320  10.795 -0.0150  0.4770  0.4572
  652TMC3     O 9707   2.530   3.256  10.895 -0.0489 -0.1158  0.1005
  652TMC3     H 9708   2.327   3.142  10.908 -0.3001 -0.6977 -0.3650
  652TMC3    H1 9709   2.349   3.492  10.662  1.4814 -1.7208 -3.2691
  652TMC3    H2 9710   1.988   3.274  10.697  1.0257 -0.1120 -1.5968
  652TMC3    C7 9711   2.090   3.483  10.593 -0.0961  0.1954 -0.5465
  652TMC3    C8 9712   2.090   3.081  10.856  0.1668 -0.4282 -0.4342
  652TMC3    O1 9713   1.976   3.495  10.622 -0.5592  0.6051  0.2062
  652TMC3    O2 9714   2.169   3.007  10.909  0.1058  0.6025  0.0569
  653MPD2     C 9715   0.486   3.112  17.639 -0.1103  0.3157  0.1469
  653MPD2    C1 9716   0.438   3.213  17.552 -0.2812  0.2422 -0.0729
  653MPD2    C2 9717   0.386   3.174  17.435 -0.4996 -0.2860 -0.6839
  653MPD2    C3 9718   0.363   3.042  17.399  0.1298 -0.1453  0.0446
  653MPD2    C4 9719   0.403   2.939  17.486 -0.0967 -0.0830  0.0919
  653MPD2    C5 9720   0.467   2.983  17.607  0.4310  0.3053 -0.1301
  653MPD2     H 9721   0.361   3.255  17.367  0.4081 -0.7990 -1.6490
  653MPD2    H1 9722   0.409   2.833  17.465  1.9214  0.7508 -3.5674
  653MPD2    H2 9723   0.547   3.135  17.726  1.4675  2.2183 -1.4362
  653MPD2    H3 9724   0.514   2.915  17.677  1.9999 -0.2832 -1.7396
  653MPD2     N 9725   0.321   3.014  17.263  0.0863  0.9063  0.4669
  653MPD2    H5 9726   0.312   3.098  17.207 -2.0119  0.4868  0.1724
  653MPD2    N1 9727   0.463   3.350  17.577 -0.3168  0.5078 -0.6485
  653MPD2    H7 9728   0.446   3.414  17.499  1.7538  1.5930 -0.2151
  654TMC3    C1 9729   0.286   2.899  17.061 -0.1002  0.0036  0.4198
  654TMC3    C2 9730   0.211   2.995  17.007  0.8998  0.4968  0.0317
  654TMC3    C3 9731   0.196   3.001  16.873  0.0962  0.5444  0.1353
  654TMC3    C4 9732   0.312   2.785  16.991  0.1123  0.1159  0.6868
  654TMC3    C5 9733   0.270   2.773  16.863  0.3283 -0.3114  0.7743
  654TMC3    C6 9734   0.231   2.892  16.797 -0.4609 -0.0890  0.6344
  654TMC3     C 9735   0.307   2.892  17.206  0.5836  0.1834  0.6478
  654TMC3     O 9736   0.311   2.783  17.255 -0.2408 -0.1545  0.0224
  654TMC3     H 9737   0.181   3.078  17.070 -0.0209  0.5535 -0.4802
  654TMC3    H1 9738   0.368   2.705  17.038 -0.0611  0.0058  0.7078
  654TMC3    H2 9739   0.200   2.892  16.693  0.2272  0.6827  0.4322
  654TMC3    C7 9740   0.259   2.651  16.794 -0.4812  0.3499  0.0959
  654TMC3    C8 9741   0.121   3.102  16.805  0.5004  0.1222 -0.3554
  654TMC3    O1 9742   0.227   2.656  16.675 -0.8758  0.2699  0.3539
  654TMC3    O2 9743   0.048   3.164  16.881  0.0922  0.2685  0.7151
  655MPD2     C 9744   1.646   3.060  15.265 -0.2955 -0.6520  0.2959
  655MPD2    C1 9745   1.565   3.162  15.226  0.3654 -0.8789  0.0529
  655MPD2    C2 9746   1.538   3.181  15.090  0.1698 -0.1892 -0.3720
  655MPD2    C3 9747   1.600   3.095  15.000  0.2155 -0.2595  0.0917
  655MPD2    C4 9748   1.680   2.988  15.043  0.3996 -0.5227 -0.0160
  655MPD2    C5 9749   1.709   2.976  15.174  0.9796 -0.4300  0.0858
  655MPD2     H 9750   1.478   3.265  15.058  0.6083  0.1330 -0.3511
  655MPD2    H1 9751   1.726   2.916  14.977  2.5390 -0.2472  1.1677
  655MPD2    H2 9752   1.661   3.047  15.372 -2.0952  3.4090  1.0578
  655MPD2    H3 9753   1.777   2.896  15.200  0.3460 -0.3558  2.0087
  655MPD2     N 9754   1.564   3.116  14.864  0.1317  0.7548 -0.3661
  655MPD2    H5 9755   1.482   3.173  14.846  2.0322  2.7518 -2.7064
  655MPD2    N1 9756   1.498   3.250  15.316  0.1808 -0.0911 -0.6647
  655MPD2    H7 9757   1.436   3.319  15.276  0.4865 -0.9437 -2.6392
  656TMC3    C1 9758   1.439   3.374  15.506 -0.2495 -0.4863  0.0887
  656TMC3    C2 9759   1.405   3.380  15.638  0.0500  0.3832  0.3138
  656TMC3    C3 9760   1.365   3.496  15.691  0.4921  0.6123 -0.1967
  656TMC3    C4 9761   1.456   3.488  15.429  0.0956  0.3139  0.2192
  656TMC3    C5 9762   1.427   3.609  15.487 -0.0962 -0.0381 -0.4930
  656TMC3    C6 9763   1.377   3.613  15.610  0.3485 -0.1120  0.2708
  656TMC3     C 9764   1.513   3.260  15.450 -0.0799  0.4685 -0.3759
  656TMC3     O 9765   1.579   3.196  15.531 -0.3800  0.3602 -0.1288
  656TMC3     H 9766   1.377   3.288  15.689 -1.5265 -0.0419 -1.3046
  656TMC3    H1 9767   1.484   3.483  15.324 -0.1892  2.4473  0.0544
  656TMC3    H2 9768   1.350   3.713  15.643 -0.2248  0.4409 -1.8736
  656TMC3    C7 9769   1.392   3.709  15.387  0.1498  0.0010 -0.2283
  656TMC3    C8 9770   1.284   3.501  15.811 -0.5406 -0.9982 -1.0111
  656TMC3    O1 9771   1.453   3.717  15.280 -0.1113  0.1935 -0.0609
  656TMC3    O2 9772   1.262   3.391  15.860  0.5264 -0.6184  0.3475
  657TMC3    C1 9773   0.534   2.659  14.586 -0.5345 -0.1668  0.2539
  657TMC3    C2 9774   0.586   2.691  14.710  1.2033 -0.0985 -0.0030
  657TMC3    C3 9775   0.543   2.803  14.772  0.2704 -0.6933  0.3988
  657TMC3    C4 9776   0.422   2.724  14.540  0.5854  0.2994  0.1386
  657TMC3    C5 9777   0.371   2.820  14.614  0.2400 -0.2774 -0.0803
  657TMC3    C6 9778   0.428   2.858  14.729 -0.6031 -0.1260 -0.1876
  657TMC3     C 9779   0.620   2.593  14.487  0.0454  0.0600 -0.1197
  657TMC3     O 9780   0.594   2.609  14.371  0.2926  0.3900 -0.5456
  657TMC3     H 9781   0.680   2.647  14.742  2.5344  1.5713 -1.6535
  657TMC3    H1 9782   0.377   2.699  14.445  0.2122 -3.0367  1.2012
  657TMC3    H2 9783   0.383   2.936  14.790 -1.7252 -0.6711 -0.3202
  657TMC3    C7 9784   0.264   2.902  14.574  0.6967  0.1975  0.3816
  657TMC3    C8 9785   0.582   2.835  14.908 -0.3130  0.0274  1.0399
  657TMC3    O1 9786   0.203   2.965  14.659  0.0789  0.0013 -0.4353
  657TMC3    O2 9787   0.540   2.944  14.952  0.1654  0.1346  0.1075
  658MPD2     C 9788   2.004   2.897  14.257  0.1826  1.1513  0.0193
  658MPD2    C1 9789   1.878   2.936  14.215  0.6049 -0.0917 -0.3836
  658MPD2    C2 9790   1.839   2.911  14.084 -0.3497 -0.0858  0.4241
  658MPD2    C3 9791   1.934   2.866  13.994  0.0926 -0.9351 -0.3160
  658MPD2    C4 9792   2.069   2.865  14.037 -0.3208  0.1852 -0.0771
  658MPD2    C5 9793   2.100   2.861  14.168  0.6281 -0.1448  0.3101
  658MPD2     H 9794   1.734   2.921  14.057  0.3796  1.0844 -1.9652
  658MPD2    H1 9795   2.143   2.843  13.961  0.8798 -2.4975  1.8907
  658MPD2    H2 9796   2.033   2.912  14.360  0.1213 -2.4926  0.5607
  658MPD2    H3 9797   2.205   2.858  14.196  0.7708 -4.1352 -0.6525
  658MPD2     N 9798   1.900   2.857  13.852  0.5981  0.3215  0.3076
  658MPD2    H5 9799   1.973   2.873  13.784  0.3216 -1.1785 -0.3491
  658MPD2    N1 9800   1.790   2.993  14.309 -0.0519  0.2105  1.4671
  658MPD2    H7 9801   1.818   2.989  14.407  0.8955 -0.8997  1.1589
  659TMC3    C1 9802   1.583   3.068  14.397  0.1511  0.3009  0.1233
  659TMC3    C2 9803   1.643   3.079  14.527 -0.0618  0.2646 -0.0813
  659TMC3    C3 9804   1.563   3.081  14.637 -0.1525 -0.6259  0.0775
  659TMC3    C4 9805   1.444   3.083  14.387 -0.0028 -0.0808  0.7532
  659TMC3    C5 9806   1.370   3.086  14.503 -0.0821 -0.6900 -0.0898
  659TMC3    C6 9807   1.424   3.078  14.628 -0.0052 -0.4619  0.0841
  659TMC3     C 9808   1.667   3.048  14.284 -0.3961  0.0609  0.0773
  659TMC3     O 9809   1.625   3.078  14.175  0.5126  0.0659 -0.1289
  659TMC3     H 9810   1.751   3.079  14.531 -0.1612 -1.2425  2.2466
  659TMC3    H1 9811   1.402   3.086  14.287 -0.2370  0.8820  0.8826
  659TMC3    H2 9812   1.360   3.075  14.716 -1.2520 -0.4142 -0.8256
  659TMC3    C7 9813   1.231   3.058  14.494  0.3838  0.5135 -0.5470
  659TMC3    C8 9814   1.632   3.058  14.762  0.0809  0.3859 -1.1495
  659TMC3    O1 9815   1.165   3.088  14.594  0.4078 -0.1599  0.3648
  659TMC3    O2 9816   1.746   3.017  14.763  0.0295 -0.4804 -0.5549
  660MPD2     C 9817   4.304   2.270  12.532  0.1309 -0.6928  0.0222
  660MPD2    C1 9818   4.172   2.246  12.546  0.2936  0.4147  0.6861
  660MPD2    C2 9819   4.109   2.204  12.662  0.5355  0.6985  0.0230
  660MPD2    C3 9820   4.192   2.183  12.769 -0.8655 -0.7201 -0.5896
  660MPD2    C4 9821   4.328   2.212  12.755 -0.6069 -0.1551 -0.1754
  660MPD2    C5 9822   4.388   2.263  12.638 -0.7331  0.2115  0.7140
  660MPD2     H 9823   4.001   2.195  12.668  0.5561  0.3315 -0.1739
  660MPD2    H1 9824   4.387   2.177  12.838 -0.0372 -0.2962 -0.6381
  660MPD2    H2 9825   4.352   2.301  12.440  0.0287  1.5409  0.7023
  660MPD2    H3 9826   4.494   2.284  12.643 -0.5002 -0.8529  0.2985
  660MPD2     N 9827   4.153   2.130  12.891 -0.0858 -0.3493  0.1415
  660MPD2    H5 9828   4.220   2.100  12.961  0.7270 -1.9221 -1.3312
  660MPD2    N1 9829   4.098   2.252  12.418  0.1304 -0.4609  0.2868
  660MPD2    H7 9830   4.156   2.278  12.339  0.5751 -0.4228  0.6196
  661TMC3    C1 9831   3.933   2.209  12.250  0.0503 -0.5898  0.7558
  661TMC3    C2 9832   3.974   2.297  12.158 -0.4725 -0.2155  0.4985
  661TMC3    C3 9833   3.912   2.293  12.031 -0.2602  0.0632 -0.2177
  661TMC3    C4 9834   3.825   2.135  12.227  0.3938 -0.2639  0.4826
  661TMC3    C5 9835   3.758   2.140  12.109 -0.5246 -0.0869 -0.0494
  661TMC3    C6 9836   3.804   2.220  12.011 -0.1287 -0.3586  0.2520
  661TMC3     C 9837   3.970   2.221  12.394  0.5543 -0.3303 -0.2400
  661TMC3     O 9838   3.884   2.197  12.480 -0.0166 -0.6284 -0.2122
  661TMC3     H 9839   4.058   2.363  12.179 -1.8621  1.0856  2.0054
  661TMC3    H1 9840   3.795   2.056  12.295 -0.2488 -0.0387  0.4576
  661TMC3    H2 9841   3.746   2.233  11.920  0.2835 -1.6647 -0.1990
  661TMC3    C7 9842   3.647   2.046  12.092 -0.3979 -0.3404  0.2752
  661TMC3    C8 9843   3.927   2.399  11.930 -0.0077 -0.1955 -0.3260
  661TMC3    O1 9844   3.594   2.014  12.199  0.0713  0.1617  0.3870
  661TMC3    O2 9845   3.824   2.438  11.877  0.1892  0.3177 -0.4417
  662MPD2     C 9846   0.001   2.179  16.833  0.1880  0.2081  0.5283
  662MPD2    C1 9847   4.721   2.055  16.900  1.0233 -0.0046  0.2258
  662MPD2    C2 9848   4.696   2.056  17.036  0.1245  0.8816 -0.6377
  662MPD2    C3 9849   4.660   2.176  17.097 -0.4433  0.0307  0.6856
  662MPD2    C4 9850   4.669   2.297  17.027  0.6341 -0.1735  0.2702
  662MPD2    C5 9851   4.714   2.297  16.900  0.7041  0.3364  0.3718
  662MPD2     H 9852   4.680   1.962  17.089  0.0881  0.2554 -1.7532
  662MPD2    H1 9853   4.646   2.391  17.076 -2.5080  1.2354 -3.8723
  662MPD2    H2 9854   0.044   2.184  16.734 -0.5563 -0.4360  0.1760
  662MPD2    H3 9855   0.003   2.387  16.845  1.2037 -0.5599 -0.8474
  662MPD2     N 9856   4.619   2.162  17.228  0.2263  0.4964  1.1666
  662MPD2    H5 9857   4.636   2.070  17.268 -0.0199  0.4305  1.1213
  662MPD2    N1 9858   4.726   1.933  16.833 -0.3864  0.2227 -0.1965
  662MPD2    H7 9859   4.712   1.851  16.891 -0.6047  1.0619  0.9340
  663TMC3    C1 9860   4.646   1.787  16.673 -0.6263  0.4374 -0.1818
  663TMC3    C2 9861   4.570   1.751  16.776  0.0393  0.0617  0.5499
  663TMC3    C3 9862   4.571   1.630  16.837 -0.1712  0.4238  0.7648
  663TMC3    C4 9863   4.735   1.696  16.629 -0.0320  0.7232  0.0148
  663TMC3    C5 9864   4.732   1.569  16.680 -0.1953 -0.8485  0.2809
  663TMC3    C6 9865   4.642   1.533  16.779  0.3687  0.0305  0.4491
  663TMC3     C 9866   4.711   1.915  16.692  0.3127 -0.2874 -0.7739
  663TMC3     O 9867   0.022   1.979  16.597 -1.2206  0.3962 -0.1175
  663TMC3     H 9868   4.520   1.830  16.830  0.8418  0.2746  0.9792
  663TMC3    H1 9869   0.080   1.728  16.567  1.1464 -0.2075  1.1243
  663TMC3    H2 9870   4.671   1.450  16.842  1.3078  0.5000  0.6388
  663TMC3    C7 9871   0.090   1.477  16.621  0.9723  0.2469  0.5815
  663TMC3    C8 9872   4.616   1.639  16.977 -0.6117 -0.1348 -0.2503
  663TMC3    O1 9873   0.195   1.527  16.591  1.0147 -0.0174  0.0237
  663TMC3    O2 9874   4.695   1.730  17.002 -0.4750  0.3868  0.3917
  664MPD2     C 9875   2.495   4.286  16.956  0.1118  0.3750 -0.5157
  664MPD2    C1 9876   2.615   4.302  17.025 -0.7518  0.2681 -0.5074
  664MPD2    C2 9877   2.606   4.333  17.159 -0.7525 -0.3555 -0.2689
  664MPD2    C3 9878   2.487   4.316  17.229 -0.2322  0.3621 -0.2709
  664MPD2    C4 9879   2.370   4.288  17.163  0.1470  0.0564 -0.1269
  664MPD2    C5 9880   2.376   4.282  17.027  0.1026  0.2270 -0.3148
  664MPD2     H 9881   2.693   4.373  17.209  0.2591  0.1500 -2.4792
  664MPD2    H1 9882   2.278   4.273  17.219 -0.7137 -0.5269 -1.7260
  664MPD2    H2 9883   2.478   4.290  16.849 -0.6165  1.7535 -0.3467
  664MPD2    H3 9884   2.287   4.259  16.969 -0.0849  1.4438 -0.5227
  664MPD2     N 9885   2.486   4.347  17.361  0.9721  0.0774  0.5432
  664MPD2    H5 9886   2.565   4.397  17.401  2.5154 -3.4423  1.9087
  664MPD2    N1 9887   2.729   4.321  16.957 -0.5305 -0.2799 -0.1889
  664MPD2    H7 9888   2.809   4.357  17.008 -0.3613 -0.4673 -0.3228
  665TMC3    C1 9889   2.418   4.337  17.596 -0.5025  0.3790  0.2802
  665TMC3    C2 9890   2.346   4.274  17.693 -0.0054  0.1228  0.1361
  665TMC3    C3 9891   2.383   4.298   0.074  0.1873 -0.2617  0.1925
  665TMC3    C4 9892   2.516   4.432  17.627  0.0758 -0.4450 -0.1775
  665TMC3    C5 9893   2.540   4.456   0.003  0.3539 -0.4877  0.3356
  665TMC3    C6 9894   2.479   4.390   0.104  0.4500  0.8796 -0.6455
  665TMC3     C 9895   2.388   4.320  17.453  0.4333 -0.9168 -0.3081
  665TMC3     O 9896   2.288   4.252  17.437 -0.4621 -0.2280  0.2515
  665TMC3     H 9897   2.269   4.204  17.662 -0.4271  0.4671  0.4079
  665TMC3    H1 9898   2.543   4.503  17.549  0.5435  0.0896  0.4713
  665TMC3    H2 9899   2.491   4.412   0.210  0.1240  1.7040 -0.7820
  665TMC3    C7 9900   2.667   4.510   0.028  0.5177  0.5098  0.4950
  665TMC3    C8 9901   2.270   4.275   0.170  1.2618  0.4250 -0.5834
  665TMC3    O1 9902   2.742   4.518  17.680  0.2090 -0.2391 -0.2782
  665TMC3    O2 9903   2.264   4.348   0.268 -0.8579 -0.3536  0.1942
  666TMC3    C1 9904   2.487   0.543   9.713 -0.2363 -0.8047 -0.3756
  666TMC3    C2 9905   2.521   0.410   9.721 -0.3900  0.6067  0.4837
  666TMC3    C3 9906   2.512   0.361   9.850 -0.2715  0.4942  0.0627
  666TMC3    C4 9907   2.432   0.607   9.820  0.5758  0.3104 -0.2280
  666TMC3    C5 9908   2.423   0.550   9.947  0.9448 -0.6574 -0.1806
  666TMC3    C6 9909   2.467   0.425   9.962 -0.6246 -0.1298  0.5194
  666TMC3     C 9910   2.405   0.565   9.595  0.8426 -0.0177  0.5007
  666TMC3     O 9911   2.472   0.551   9.493  0.1523  0.1707 -0.1925
  666TMC3     H 9912   2.534   0.350   9.632  0.6785  0.1393  0.9509
  666TMC3    H1 9913   2.393   0.707   9.803  0.5536  0.1916 -0.8925
  666TMC3    H2 9914   2.458   0.377  10.059  1.5082 -0.2920  0.6415
  666TMC3    C7 9915   2.306   0.595  10.024 -0.2463  0.2241  0.1731
  666TMC3    C8 9916   2.520   0.218   9.852  0.8053  0.8815  0.4068
  666TMC3    O1 9917   2.284   0.538  10.130 -0.4004 -0.7192  0.5287
  666TMC3    O2 9918   2.452   0.161   9.939  0.3300 -0.0043  0.0822
  667MPD2     C 9919   3.520   4.345  14.649 -0.0746 -0.0505  0.3178
  667MPD2    C1 9920   3.424   4.411  14.725 -0.3644 -0.6553  0.1982
  667MPD2    C2 9921   3.315   4.346  14.774  0.4322  0.1261  0.1607
  667MPD2    C3 9922   3.287   4.213  14.739 -0.0766 -0.1331  0.3861
  667MPD2    C4 9923   3.379   4.154  14.653  0.9809 -0.6499  0.1992
  667MPD2    C5 9924   3.495   4.216  14.609  0.0925 -0.7962  0.2846
  667MPD2     H 9925   3.246   4.398  14.839  3.5474  1.3684  2.5086
  667MPD2    H1 9926   3.366   4.052  14.618  1.0410 -0.4880 -0.3027
  667MPD2    H2 9927   3.611   4.391  14.613  0.4191  1.3895  3.3923
  667MPD2    H3 9928   3.574   4.160  14.562  0.4614 -0.3408  0.3655
  667MPD2     N 9929   3.175   4.138  14.780 -0.1273  0.0809 -0.4491
  667MPD2    H5 9930   3.161   4.047  14.738  1.1090  0.3970 -1.5406
  667MPD2    N1 9931   3.438   4.548  14.761 -0.3464 -0.1191  0.2529
  667MPD2    H7 9932   3.370   4.573  14.832 -1.5200 -1.8409 -0.2548
  668TMC3    C1 9933   3.518   0.032  14.776  0.4221 -0.5926 -0.4687
  668TMC3    C2 9934   3.573   0.131  14.709 -0.2389 -0.1319  0.0789
  668TMC3    C3 9935   3.570   0.255  14.754  0.0937 -0.4556  0.0514
  668TMC3    C4 9936   3.470   0.052  14.900  0.7685 -0.1414  0.2016
  668TMC3    C5 9937   3.487   0.175  14.958 -0.4008 -0.2052  0.6075
  668TMC3    C6 9938   3.535   0.278  14.884 -0.3179 -0.5445  0.0613
  668TMC3     C 9939   3.525   4.638  14.710 -0.4570 -0.3273  0.0669
  668TMC3     O 9940   3.614   4.621  14.628  0.6551 -0.5296  0.6620
  668TMC3     H 9941   3.598   0.103  14.607  1.0211  0.5515  0.1991
  668TMC3    H1 9942   3.456   4.705  14.966 -2.8238  0.0700 -0.2880
  668TMC3    H2 9943   3.544   0.376  14.930 -0.5550 -0.8757  0.8038
  668TMC3    C7 9944   3.457   0.190  15.103 -0.0430  0.4040  0.4284
  668TMC3    C8 9945   3.612   0.370  14.680 -0.5072  0.2713 -0.1712
  668TMC3    O1 9946   3.503   0.290  15.162 -0.0129  0.0982 -0.0529
  668TMC3    O2 9947   3.584   0.483  14.719  0.5479  0.1525 -0.1574
  669TMC3    C1 9948   1.549   4.299  14.408  0.2777  0.7147  0.4649
  669TMC3    C2 9949   1.467   4.380  14.331  0.3870 -0.1462  0.3774
  669TMC3    C3 9950   1.521   4.469  14.248 -0.2759  0.2240 -0.2899
  669TMC3    C4 9951   1.684   4.306  14.398  0.1118 -0.6151 -0.7814
  669TMC3    C5 9952   1.732   4.400  14.308 -0.0787  0.0804  0.4012
  669TMC3    C6 9953   1.655   4.478  14.233 -1.1742  0.4491  0.2971
  669TMC3     C 9954   1.500   4.232  14.526  0.0082 -0.3011 -0.6323
  669TMC3     O 9955   1.385   4.259  14.548 -0.2219  0.1100  0.2003
  669TMC3     H 9956   1.360   4.380  14.349  0.5415  1.2201  1.2173
  669TMC3    H1 9957   1.741   4.251  14.472  1.1161  2.0671  0.4003
  669TMC3    H2 9958   1.702   4.564  14.187  0.2876 -0.2542  0.4781
  669TMC3    C7 9959   1.878   4.399  14.291  0.1231 -0.6072 -0.0915
  669TMC3    C8 9960   1.447   4.588  14.196  1.0588  0.1093  0.0188
  669TMC3    O1 9961   1.940   4.328  14.369  0.8235 -0.2965  0.6459
  669TMC3    O2 9962   1.508   4.694  14.183 -0.1220  0.2490  0.1483
  670MPD2     C 9963   0.036   2.383  13.384  0.3393 -0.1761 -0.0985
  670MPD2    C1 9964   0.158   2.339  13.432 -0.6794 -0.4788 -0.4697
  670MPD2    C2 9965   0.152   2.280  13.564  0.1187 -0.0484  0.1786
  670MPD2    C3 9966   0.029   2.280  13.644  0.9578 -0.6505 -0.2124
  670MPD2    C4 9967   4.660   2.345  13.593  0.2833 -0.4174  0.5918
  670MPD2    C5 9968   4.663   2.379  13.457 -0.3727 -0.6182 -0.3875
  670MPD2     H 9969   0.243   2.244  13.609 -0.2272 -1.1400  0.0017
  670MPD2    H1 9970   4.563   2.350  13.642 -0.3297 -1.3813 -0.5081
  670MPD2    H2 9971   0.015   2.421  13.284 -1.0121 -0.9774 -0.1221
  670MPD2    H3 9972   4.573   2.424  13.415 -0.1164  0.3182  0.0708
  670MPD2     N 9973   0.036   2.220  13.774  0.6852  0.4715  0.2622
  670MPD2    H5 9974   0.119   2.178  13.813 -0.1912 -2.2149 -0.8032
  670MPD2    N1 9975   0.272   2.338  13.350 -0.0824  0.0071  0.0159
  670MPD2    H7 9976   0.349   2.272  13.355 -1.6098 -1.6586  1.8441
  671TMC3    C1 9977   4.693   2.137  13.985  0.1193  0.1705 -0.1549
  671TMC3    C2 9978   0.083   2.133  14.025 -0.0302  0.3983 -0.8947
  671TMC3    C3 9979   0.105   2.067  14.136  0.5252 -0.7527 -0.0813
  671TMC3    C4 9980   4.598   2.054  14.038  0.0627 -0.0709 -0.2187
  671TMC3    C5 9981   4.628   1.978  14.143 -0.1964  0.6640 -0.1816
  671TMC3    C6 9982   0.017   1.979  14.186 -0.0938  0.5535 -0.3135
  671TMC3     C 9983   4.662   2.201  13.857  0.5700  0.1324  0.1155
  671TMC3     O 9984   4.545   2.195  13.815  0.7002 -0.8502  0.1663
  671TMC3     H 9985   0.148   2.215  13.996 -1.2742  1.2131 -1.3744
  671TMC3    H1 9986   4.494   2.068  14.012 -0.0194 -0.0456  0.1226
  671TMC3    H2 9987   0.036   1.896  14.254 -2.4881  0.7037  0.5527
  671TMC3    C7 9988   4.567   1.845  14.152 -0.3369 -0.2893  0.8271
  671TMC3    C8 9989   0.243   2.027  14.137  0.2061 -0.5352 -0.9190
  671TMC3    O1 9990   4.490   1.838  14.244 -0.6622 -0.0649  0.2247
  671TMC3    O2 9991   0.314   2.060  14.040 -0.3529 -0.1159 -0.1317
  672MPD2     C 9992   4.478   2.803   1.223  0.0524  0.5251  0.4340
  672MPD2    C1 9993   4.570   2.746   1.138 -0.5518  0.0576  0.1105
  672MPD2    C2 9994   4.704   2.779   1.150  0.8477  0.0680 -0.2218
  672MPD2    C3 9995   0.012   2.885   1.223 -0.7085  0.4466  0.5079
  672MPD2    C4 9996   4.656   2.947   1.300  1.0918  0.6535 -0.2006
  672MPD2    C5 9997   4.526   2.904   1.304  0.2074  0.4007 -0.4949
  672MPD2     H 9998   0.031   2.736   1.074 -0.4600 -1.0914 -0.6743
  672MPD2    H1 9999   4.687   3.015   1.379  2.3103 -0.5975  0.3853
  672MPD2    H210000   4.372   2.783   1.226  0.3156 -0.7966  0.9261
  672MPD2    H310001   4.460   2.959   1.371  0.7019 -1.4178  1.4994
  672MPD2     N10002   0.146   2.931   1.213  0.4361  0.0524 -0.5109
  672MPD2    H510003   0.180   3.011   1.265  0.9666 -0.2410 -0.4164
  672MPD2    N110004   4.523   2.652   1.046 -0.6796 -0.2304 -0.4788
  672MPD2    H710005   4.585   2.575   1.021  1.6528  1.6417 -0.5005
  673TMC3    C110006   4.358   2.535   0.921  0.0552  0.1037  0.2749
  673TMC3    C210007   4.413   2.418   0.956  0.3483 -0.7171  0.2374
  673TMC3    C310008   4.388   2.313   0.872 -0.0238 -0.3060  0.0407
  673TMC3    C410009   4.262   2.550   0.831 -0.1635 -0.1013 -0.0575
  673TMC3    C510010   4.237   2.443   0.749 -0.6411  0.0005 -0.3269
  673TMC3    C610011   4.301   2.324   0.776  0.0294  0.0332 -0.0444
  673TMC3     C10012   4.395   2.656   0.994  0.3706 -0.1237  0.3652
  673TMC3     O10013   4.311   2.747   0.991 -0.2891  0.2544  0.3546
  673TMC3     H10014   4.473   2.405   1.045 -0.7876  0.2086  1.1240
  673TMC3    H110015   4.217   2.647   0.810  0.4752  0.4160  0.9889
  673TMC3    H210016   4.277   2.231   0.726 -0.9826 -0.0044  0.4968
  673TMC3    C710017   4.181   2.467   0.612  0.0108  0.6314  0.4492
  673TMC3    C810018   4.441   2.190   0.917 -0.5648 -0.2265 -0.0087
  673TMC3    O110019   4.132   2.371   0.560  0.4037  0.4855  0.5405
  673TMC3    O210020   4.363   2.096   0.915 -0.0867  0.3269  0.2870
  674MPD2     C10021   4.300   3.259  17.525 -0.1213 -0.0174  0.9026
  674MPD2    C110022   4.316   3.124  17.515  0.4194 -0.3320  0.3391
  674MPD2    C210023   4.225   3.033  17.555  0.0354  0.8000 -0.2005
  674MPD2    C310024   4.108   3.076  17.619 -0.4758  0.4159 -0.2718
  674MPD2    C410025   4.080   3.216  17.610 -0.1060 -0.2771  0.4049
  674MPD2    C510026   4.176   3.303  17.562  0.0613  0.9428  0.0103
  674MPD2     H10027   4.241   2.926  17.554 -1.1258  0.6240  0.0559
  674MPD2    H110028   3.987   3.256  17.649 -0.7254 -0.7578 -0.5743
  674MPD2    H210029   4.374   3.329  17.489 -0.3805  0.0805  0.5643
  674MPD2    H310030   4.141   3.405  17.554 -1.7280  0.2714 -0.6719
  674MPD2     N10031   4.030   2.984  17.690 -0.1063 -0.0845  0.1234
  674MPD2    H510032   4.074   2.893  17.685  0.0101 -0.1661  2.8411
  674MPD2    N110033   4.448   3.084  17.482  0.5482  0.1479  0.8311
  674MPD2    H710034   4.523   3.153  17.476  0.5792  0.1116  0.7965
  675TMC3    C110035   4.638   2.945  17.475 -0.5552 -0.1738  0.4001
  675TMC3    C210036   4.696   2.831  17.424  0.3206 -0.1128 -0.4987
  675TMC3    C310037   0.052   2.762  17.496  0.4321 -0.2587  0.2521
  675TMC3    C410038   4.681   2.994  17.589 -0.0688 -0.4522 -0.4989
  675TMC3    C510039   0.046   2.925  17.656  0.2355 -0.1497 -0.2881
  675TMC3    C610040   0.104   2.812  17.613  0.3482 -0.2409 -0.0232
  675TMC3     C10041   4.495   2.960  17.452  0.6311 -0.1725  0.5063
  675TMC3     O10042   4.428   2.858  17.443  0.6253  0.5360  0.4043
  675TMC3     H10043   4.642   2.776  17.348  0.9901 -1.0905 -0.2720
  675TMC3    H110044   4.633   3.080  17.635  0.1949 -0.5617 -0.0101
  675TMC3    H210045   0.152   2.749  17.687 -1.0646 -1.6516 -0.2925
  675TMC3    C710046   0.046   2.937   0.051  0.6959 -0.4559  0.2416
  675TMC3    C810047   0.049   2.620  17.494 -0.2786 -0.2191  0.0808
  675TMC3    O110048   0.009   2.843   0.121  0.3859 -0.1933 -0.4783
  675TMC3    O210049   0.049   2.563  17.384  0.1264  0.2291  0.1919
  676MPD2     C10050   3.344   0.728  11.109 -0.9562  1.2311 -0.6716
  676MPD2    C110051   3.218   0.679  11.133 -0.3435  0.4506  0.4350
  676MPD2    C210052   3.183   0.554  11.104  0.3983 -0.1857  0.2761
  676MPD2    C310053   3.270   0.466  11.044  0.7255 -0.3483 -0.1631
  676MPD2    C410054   3.398   0.508  11.025  0.5230  0.1813 -0.5888
  676MPD2    C510055   3.436   0.638  11.056  0.2646 -0.1871 -0.1113
  676MPD2     H10056   3.078   0.528  11.115  0.3383  0.2429  0.7161
  676MPD2    H110057   3.467   0.432  10.989 -0.4950 -0.1986 -1.7972
  676MPD2    H210058   3.371   0.828  11.141  1.5070  0.7656 -1.3105
  676MPD2    H310059   3.539   0.669  11.044  0.1265 -0.3168 -1.6856
  676MPD2     N10060   3.231   0.333  11.005  0.3174  0.0457  0.0401
  676MPD2    H510061   3.303   0.286  10.951  0.6264 -0.9420  1.3087
  676MPD2    N110062   3.111   0.751  11.198 -0.6106  0.2659 -0.3756
  676MPD2    H710063   3.030   0.705  11.238  0.1748 -2.6256 -2.1221
  677TMC3    C110064   3.017   0.933  11.303  0.0663  0.7463  0.0976
  677TMC3    C210065   3.013   0.861  11.422  0.5699 -0.4002 -0.2978
  677TMC3    C310066   2.958   0.911  11.537 -0.0072  0.0696 -0.4104
  677TMC3    C410067   2.984   1.064  11.302 -1.1011 -0.4382  0.8202
  677TMC3    C510068   2.935   1.116  11.417 -0.2312 -0.0284 -0.0083
  677TMC3    C610069   2.917   1.041  11.534  0.3843  0.3543 -0.0839
  677TMC3     C10070   3.119   0.889  11.216 -0.5414  0.0383  0.2624
  677TMC3     O10071   3.201   0.968  11.170  0.3032  0.3037  0.1253
  677TMC3     H10072   3.076   0.774  11.434  0.1375 -0.9518 -2.0314
  677TMC3    H110073   2.996   1.131  11.218  0.4874 -0.3361  1.1249
  677TMC3    H210074   2.900   1.094  11.627  2.0554 -1.6404  1.3426
  677TMC3    C710075   2.900   1.257  11.427 -0.3567  0.7092 -0.0024
  677TMC3    C810076   3.031   0.887  11.661 -0.1857 -0.3235 -0.1211
  677TMC3    O110077   2.826   1.292  11.511  0.3445  0.1736  0.2660
  677TMC3    O210078   3.154   0.873  11.650 -0.2440 -0.2186  0.7397
  678MPD2     C10079   3.882   0.784   1.062  0.3560 -0.8547  0.2936
  678MPD2    C110080   3.898   0.683   0.968 -0.7279 -0.2092  0.4433
  678MPD2    C210081   3.790   0.601   0.924 -1.1778  0.4527  0.0136
  678MPD2    C310082   3.664   0.635   0.965  0.1017  0.3611 -0.1478
  678MPD2    C410083   3.652   0.746   1.050  0.0209 -0.3382  0.2509
  678MPD2    C510084   3.757   0.821   1.102  0.2275 -0.2481  0.0094
  678MPD2     H10085   3.802   0.532   0.841  0.8640  1.0172 -0.1669
  678MPD2    H110086   3.553   0.772   1.088 -0.4042  1.9055 -2.4027
  678MPD2    H210087   3.970   0.828   1.108  0.8187 -0.5152 -0.9174
  678MPD2    H310088   3.727   0.896   1.174 -1.6343 -1.2994  0.3321
  678MPD2     N10089   3.561   0.565   0.897  0.0499 -0.3348  0.4745
  678MPD2    H510090   3.592   0.524   0.810  0.2210  1.1165 -0.1513
  678MPD2    N110091   4.022   0.644   0.915  0.2637 -0.3208 -0.2390
  678MPD2    H710092   4.023   0.564   0.852 -1.1525 -0.4306 -0.1146
  679TMC3    C110093   4.388   0.495   0.778  0.5688 -0.3858 -0.0834
  679TMC3    C210094   4.286   0.541   0.860  0.0599 -0.3457 -0.5800
  679TMC3    C310095   4.247   0.669   0.850  0.0525 -0.1209  0.0159
  679TMC3    C410096   4.453   0.588   0.699  0.2252 -0.0321 -0.8335
  679TMC3    C510097   4.406   0.714   0.699 -0.3384  0.0221  0.3062
  679TMC3    C610098   4.299   0.765   0.771  0.0068  0.6348  0.2695
  679TMC3     C10099   4.442   0.361   0.807 -0.1693 -0.0320  0.2823
  679TMC3     O10100   4.396   0.301   0.902  0.3131 -0.0021  0.4379
  679TMC3     H10101   4.232   0.477   0.929  0.0680 -0.7802 -0.9838
  679TMC3    H110102   4.551   0.556   0.664  0.9358 -0.2642  1.4101
  679TMC3    H210103   4.271   0.869   0.778 -0.7733  0.4324  0.0801
  679TMC3    C710104   4.451   0.800   0.586  0.1488 -0.8075 -0.2263
  679TMC3    C810105   4.130   0.725   0.921  0.3188  0.1926 -0.1584
  679TMC3    O110106   4.407   0.914   0.578  0.4121 -0.6678  0.0217
  679TMC3    O210107   4.137   0.845   0.959 -0.2889  0.4326 -0.1768
  680MPD2     C10108   4.044   4.048  13.089 -0.3790 -0.1219  0.5545
  680MPD2    C110109   4.172   4.039  13.132 -0.4665  0.1552  0.0216
  680MPD2    C210110   4.230   4.136  13.204  0.1180  0.6085  0.3665
  680MPD2    C310111   4.158   4.246  13.245  0.3098 -0.2626 -0.1251
  680MPD2    C410112   4.026   4.250  13.209 -0.2202 -0.0711 -0.5298
  680MPD2    C510113   3.965   4.146  13.137  0.2598 -1.0597 -0.4842
  680MPD2     H10114   4.332   4.126  13.237  0.2387  1.5906  0.2809
  680MPD2    H110115   3.964   4.329  13.249  0.6345  1.0559 -1.4269
  680MPD2    H210116   3.999   3.975  13.023  3.6634  1.1295 -3.5304
  680MPD2    H310117   3.858   4.143  13.117 -0.6698  1.5964  3.7988
  680MPD2     N10118   4.212   4.351  13.317 -0.5739 -0.0728 -0.0546
  680MPD2    H510119   4.153   4.426  13.352 -0.6138  0.1945 -0.6926
  680MPD2    N110120   4.250   3.929  13.107  0.5866 -0.0654  0.2170
  680MPD2    H710121   4.349   3.947  13.119  0.2919  1.4922  0.4270
  681TMC3    C110122   4.320   3.716  13.052 -0.6240 -0.0891 -0.0710
  681TMC3    C210123   4.301   3.599  13.122  0.2600 -0.2432  1.2655
  681TMC3    C310124   4.401   3.536  13.189 -0.8068  0.5709  0.1327
  681TMC3    C410125   4.448   3.769  13.060 -0.6886 -0.5258  0.3450
  681TMC3    C510126   4.550   3.706  13.131  0.0980 -0.0648  0.0264
  681TMC3    C610127   4.520   3.596  13.206 -0.6582 -0.2771  0.1312
  681TMC3     C10128   4.204   3.803  13.068  0.3496 -0.7106 -0.7845
  681TMC3     O10129   4.088   3.757  13.070 -0.3134  0.2941  0.2898
  681TMC3     H10130   4.207   3.547  13.108  0.3709 -0.0692 -0.0818
  681TMC3    H110131   4.471   3.864  13.013 -3.0768  0.3697  0.9938
  681TMC3    H210132   4.597   3.556  13.271 -0.1575  1.5952  0.6648
  681TMC3    C710133   4.678   3.776  13.160 -0.5150  0.2628  0.0325
  681TMC3    C810134   4.354   3.456  13.306 -0.2555 -0.1514  0.0630
  681TMC3    O110135   4.728   3.757  13.272  0.5593 -0.0165 -0.2890
  681TMC3    O210136   4.296   3.350  13.286 -0.1666  0.0580 -0.2378
  682MPD2     C10137   1.853   0.561  10.945 -0.5878  0.4008 -0.1650
  682MPD2    C110138   1.723   0.523  10.921  0.5709  0.1358 -0.3689
  682MPD2    C210139   1.620   0.526  11.015 -0.4029  1.0986  0.9785
  682MPD2    C310140   1.660   0.551  11.145 -0.2771  0.0493 -0.4621
  682MPD2    C410141   1.792   0.591  11.173  0.1465  0.0604  0.7686
  682MPD2    C510142   1.885   0.598  11.077 -0.1071  0.0819 -0.0039
  682MPD2     H10143   1.520   0.495  10.985  0.6394 -0.8461 -0.4856
  682MPD2    H110144   1.821   0.614  11.275 -2.3587 -4.8688  2.6037
  682MPD2    H210145   1.927   0.566  10.866  1.3848  0.5648  1.7048
  682MPD2    H310146   1.989   0.610  11.102 -0.3285  0.7738  0.5738
  682MPD2     N10147   1.584   0.520  11.262 -0.3456 -0.2829  0.0067
  682MPD2    H510148   1.638   0.542  11.346  0.2105  0.1403 -0.4540
  682MPD2    N110149   1.678   0.473  10.799  0.1470 -1.3669  0.2772
  682MPD2    H710150   1.588   0.427  10.802 -0.9965  0.7547 -2.1771
  683TMC3    C110151   1.492   0.413  11.615  0.5420 -0.6404  0.3791
  683TMC3    C210152   1.409   0.301  11.635  0.0384 -0.0893 -0.3507
  683TMC3    C310153   1.338   0.258  11.523  0.1484  0.3877 -0.6335
  683TMC3    C410154   1.497   0.476  11.496 -0.1903  0.7431 -0.5645
  683TMC3    C510155   1.421   0.432  11.389 -0.3664 -0.3607  0.3633
  683TMC3    C610156   1.336   0.323  11.402 -0.3106 -0.4783  1.5158
  683TMC3     C10157   1.544   0.489  11.730 -0.3767  0.1984  1.0425
  683TMC3     O10158   1.624   0.576  11.705 -0.2329  0.2242 -0.3193
  683TMC3     H10159   1.408   0.244  11.727  0.1622  0.1470 -0.2043
  683TMC3    H110160   1.550   0.570  11.485  1.3971 -0.1824 -0.8863
  683TMC3    H210161   1.295   0.272  11.316 -2.0958  0.5430  1.7629
  683TMC3    C710162   1.463   0.460  11.256 -0.3484  0.1182  0.1320
  683TMC3    C810163   1.299   0.125  11.512  0.1692  0.2069  0.5252
  683TMC3    O110164   1.392   0.441  11.163 -0.3585  0.2061  0.3150
  683TMC3    O210165   1.198   0.109  11.452 -0.0198  0.0450  0.5923
  684MPD2     C10166   0.029   0.021  15.854 -0.2586  0.4937  0.8917
  684MPD2    C110167   4.722   0.101  15.742 -0.1488  0.1361 -0.0291
  684MPD2    C210168   4.706   0.236  15.764 -0.6088  0.3824  0.5602
  684MPD2    C310169   0.002   0.291  15.889  0.2182  0.2331 -0.6761
  684MPD2    C410170   0.045   0.211  15.991  0.2300 -0.7915  0.2759
  684MPD2    C510171   0.062   0.076  15.972  0.1729 -0.3315  0.4905
  684MPD2     H10172   4.663   0.291  15.681 -1.2630  1.5018  1.6376
  684MPD2    H110173   0.066   0.258  16.087 -3.0523  1.8962 -0.3088
  684MPD2    H210174   0.054   4.654  15.848 -2.3328  0.0813 -0.5437
  684MPD2    H310175   0.108   0.015  16.049  1.6804  2.1292  1.5249
  684MPD2     N10176   4.730   0.425  15.912  0.1762  0.6757  0.7810
  684MPD2    H510177   4.724   0.466  16.005  2.1403  1.9001  0.3706
  684MPD2    N110178   4.695   0.052  15.617 -0.4848 -0.4195 -0.0024
  684MPD2    H710179   4.652   0.116  15.551 -1.9704  0.1809  1.5592
  685TMC3    C110180   4.687   4.655  15.427  0.3765  1.1318 -0.8901
  685TMC3    C210181   4.619   0.016  15.364 -0.5537 -0.2314  0.7594
  685TMC3    C310182   4.671   0.046  15.236 -0.6493  0.6528  0.7389
  685TMC3    C410183   0.038   4.575  15.359 -0.1595 -0.4177  0.7391
  685TMC3    C510184   0.094   4.615  15.244 -0.3036 -0.0977  0.2762
  685TMC3    C610185   0.039   4.718  15.182  0.7832 -0.1126  0.0946
  685TMC3     C10186   4.718   4.666  15.568  0.7449  0.0832 -0.2529
  685TMC3     O10187   0.032   4.570  15.620 -0.1024 -0.2061  0.1216
  685TMC3     H10188   4.534   0.056  15.417  0.0259  0.5629  1.0878
  685TMC3    H110189   0.076   4.492  15.418  1.4024 -0.5603 -0.4661
  685TMC3    H210190   0.081   0.001  15.084 -0.6134 -2.6353 -1.0087
  685TMC3    C710191   0.234   4.576  15.216 -0.1499  0.0450 -0.2280
  685TMC3    C810192   4.578   0.094  15.138 -0.3604  0.3316 -0.0318
  685TMC3    O110193   0.281   4.590  15.103 -0.1593  0.6733  0.2050
  685TMC3    O210194   4.625   0.135  15.032 -0.0215 -0.4859  0.1184
  686MPD2     C10195   1.332   0.308  14.894  0.5225  0.0161 -0.7636
  686MPD2    C110196   1.366   0.180  14.938 -0.2308  0.1428 -0.0697
  686MPD2    C210197   1.425   0.091  14.861  0.1528 -0.1939  0.1126
  686MPD2    C310198   1.454   0.115  14.730  0.2704  0.2381  0.7355
  686MPD2    C410199   1.427   0.244  14.688  0.5103  0.5323  0.1225
  686MPD2    C510200   1.365   0.344  14.768 -0.4647 -0.0205 -0.2244
  686MPD2     H10201   1.466   0.001  14.905 -1.2153 -1.2340 -0.7548
  686MPD2    H110202   1.443   0.267  14.583  2.0742 -0.4507  0.1442
  686MPD2    H210203   1.277   0.373  14.960  1.1207  0.0334 -0.2904
  686MPD2    H310204   1.335   0.435  14.716 -2.0606  0.3910  1.4361
  686MPD2     N10205   1.502   0.027  14.640 -0.0625  0.2281 -0.3212
  686MPD2    H510206   1.527   0.071  14.551 -0.7476  0.2846 -0.4893
  686MPD2    N110207   1.341   0.166  15.075 -0.2772  0.2601 -0.4089
  686MPD2    H710208   1.292   0.242  15.121 -1.0812 -0.2489 -0.4166
  687TMC3    C110209   1.459   4.547  14.746 -0.1334  0.1960 -0.9188
  687TMC3    C210210   1.325   4.570  14.772 -0.3320 -0.1969  1.2376
  687TMC3    C310211   1.276   4.513  14.886  0.5609  0.1990 -0.4835
  687TMC3    C410212   1.540   4.462  14.816  0.3368 -0.4953 -0.5042
  687TMC3    C510213   1.479   4.405  14.926  0.7138  0.1233  0.2830
  687TMC3    C610214   1.354   4.434  14.969 -0.0515 -0.3322  0.2029
  687TMC3     C10215   1.535   4.628  14.652  0.3808  0.6425 -0.5354
  687TMC3     O10216   1.610   4.562  14.584  0.3444  0.1264 -0.2881
  687TMC3     H10217   1.267   4.642  14.716  0.9965  1.1960  1.6608
  687TMC3    H110218   1.645   4.442  14.797  0.8322  0.4912  1.2279
  687TMC3    H210219   1.321   4.406  15.068  2.2592  0.1130  1.0910
  687TMC3    C710220   1.566   4.380  15.035 -1.0661  0.3414  0.5758
  687TMC3    C810221   1.142   4.546  14.938  0.0940 -0.2755 -0.5062
  687TMC3    O110222   1.658   4.298  15.029 -0.0959  0.3135 -0.4202
  687TMC3    O210223   1.099   4.487  15.032  0.2644 -0.1341 -0.5190
  688MPD2     C10224   0.771   4.113  17.368 -0.5401  0.0837  0.5099
  688MPD2    C110225   0.771   3.974  17.359  0.4469 -0.0826 -0.5471
  688MPD2    C210226   0.801   3.911  17.235 -0.8178  0.2910  0.3460
  688MPD2    C310227   0.839   3.990  17.130 -0.3819 -0.6257 -0.5909
  688MPD2    C410228   0.805   4.123  17.135  0.2106 -0.2150 -0.3720
  688MPD2    C510229   0.782   4.191  17.253  0.1508 -0.0069 -0.2930
  688MPD2     H10230   0.810   3.803  17.231 -3.2899  0.1048 -0.1436
  688MPD2    H110231   0.831   4.184  17.048  0.0114  0.0102 -0.2720
  688MPD2    H210232   0.749   4.162  17.461 -0.0627  1.4050 -0.0786
  688MPD2    H310233   0.779   4.299  17.256  0.0639 -0.0818  2.6192
  688MPD2     N10234   0.895   3.943  17.010  0.4064  0.2755  0.1384
  688MPD2    H510235   0.906   4.008  16.932 -1.2571 -1.3471 -1.4259
  688MPD2    N110236   0.732   3.903  17.477 -0.4491 -0.3207 -0.5681
  688MPD2    H710237   0.716   3.955  17.563 -0.5517 -3.2787  1.1836
  689TMC3    C110238   0.623   3.725  17.587  0.2165  0.4722  0.2358
  689TMC3    C210239   0.607   3.809  17.698 -0.1996  0.1535  0.1723
  689TMC3    C310240   0.542   3.750   0.060 -0.8942  0.5177  0.5511
  689TMC3    C410241   0.562   3.598  17.571  0.2574 -0.5580  0.4845
  689TMC3    C510242   0.531   3.540  17.691 -0.3224 -0.5295  0.5506
  689TMC3    C610243   0.527   3.614   0.060 -0.4591 -0.2561  0.0541
  689TMC3     C10244   0.697   3.772  17.474  0.2250 -0.0397  0.0774
  689TMC3     O10245   0.712   3.679  17.392  0.7387  0.1650 -0.3822
  689TMC3     H10246   0.654   3.907  17.708  1.9506 -0.7722 -0.7565
  689TMC3    H110247   0.575   3.544  17.478  1.5698 -1.7557  1.3474
  689TMC3    H210248   0.477   3.570   0.146  1.5426 -1.0815  0.7920
  689TMC3    C710249   0.506   3.400  17.696 -0.6839  0.1391  0.5448
  689TMC3    C810250   0.501   3.829   0.181 -0.5754  0.3179  0.5076
  689TMC3    O110251   0.504   3.351   0.061  0.7307  0.3510  0.1760
  689TMC3    O210252   0.446   3.765   0.269 -0.1615  0.3220  0.3107
  690MPD2     C10253   2.226   1.163  15.363  0.3730 -0.2090  0.0814
  690MPD2    C110254   2.280   1.046  15.414 -0.1460 -0.1357 -0.0409
  690MPD2    C210255   2.412   1.024  15.384  0.1805 -0.4136  0.0432
  690MPD2    C310256   2.484   1.111  15.298  0.5199  0.5073  0.5882
  690MPD2    C410257   2.426   1.225  15.252 -0.3115  0.2107  0.0970
  690MPD2    C510258   2.296   1.248  15.285  0.3495  0.1639  0.3003
  690MPD2     H10259   2.461   0.930  15.405  0.9681  0.3840  1.7675
  690MPD2    H110260   2.467   1.300  15.186  0.3462 -2.0378 -2.0475
  690MPD2    H210261   2.124   1.189  15.389  0.2566  0.5154 -1.1147
  690MPD2    H310262   2.248   1.343  15.265 -0.1249 -0.0336  0.5067
  690MPD2     N10263   2.618   1.075  15.251 -0.1674  0.2752  0.1813
  690MPD2    H510264   2.661   1.120  15.171 -2.2076 -0.3578 -1.2543
  690MPD2    N110265   2.201   0.949  15.490 -0.0344 -0.2654 -0.1918
  690MPD2    H710266   2.244   0.861  15.514 -1.3148 -0.8282  0.0762
  691TMC3    C110267   1.993   0.825  15.525 -0.2030  0.6901 -0.3714
  691TMC3    C210268   1.856   0.814  15.497 -0.2873 -0.1182  0.3365
  691TMC3    C310269   1.804   0.692  15.508 -0.0335 -0.0562  0.3138
  691TMC3    C410270   2.063   0.718  15.576  0.2135  0.2825 -0.0149
  691TMC3    C510271   2.006   0.593  15.581 -0.7045 -0.5589  0.0064
  691TMC3    C610272   1.873   0.579  15.547  0.4762 -0.3428 -0.1301
  691TMC3     C10273   2.058   0.948  15.482 -0.9831 -0.8044  0.6355
  691TMC3     O10274   1.987   1.030  15.425 -0.0338  0.5320  0.5164
  691TMC3     H10275   1.803   0.904  15.466  0.0825 -0.6700 -1.8589
  691TMC3    H110276   2.166   0.737  15.607  0.5844  0.1955 -1.1896
  691TMC3    H210277   1.816   0.489  15.566  1.1138 -1.1721 -2.0892
  691TMC3    C710278   2.077   0.485  15.645 -0.0594 -0.1306 -0.5997
  691TMC3    C810279   1.663   0.683  15.491  0.2596 -0.6478 -0.5153
  691TMC3    O110280   2.174   0.492  15.725 -0.4764  0.3561 -0.2609
  691TMC3    O210281   1.622   0.566  15.474  0.2396  0.3319  0.3243
  692TMC3    C110282   4.323   1.777  15.690  0.3632 -0.1286 -0.1405
  692TMC3    C210283   4.450   1.821  15.730 -0.0831 -0.1251  0.3342
  692TMC3    C310284   4.566   1.759  15.685 -0.0371 -0.1411 -0.6390
  692TMC3    C410285   4.314   1.692  15.582 -0.5390 -0.4260  0.0011
  692TMC3    C510286   4.432   1.636  15.536  0.2227 -0.5902  0.3253
  692TMC3    C610287   4.549   1.658  15.601 -0.4023 -0.4750  0.4759
  692TMC3     C10288   4.210   1.866  15.703  0.0667 -0.1466  0.8663
  692TMC3     O10289   4.143   1.885  15.600  0.8600  0.0810  0.1225
  692TMC3     H10290   4.457   1.872  15.825  0.8360  0.4205 -0.0299
  692TMC3    H110291   4.217   1.659  15.547 -0.5417 -3.2089  2.6403
  692TMC3    H210292   4.636   1.627  15.544  0.5613  0.2246  1.5759
  692TMC3    C710293   4.407   1.505  15.473  0.5754 -0.0390 -0.2605
  692TMC3    C810294   4.679   1.718  15.763 -0.6811  0.6089  0.5208
  692TMC3    O110295   4.308   1.496  15.405 -0.3911  0.2296 -0.1238
  692TMC3    O210296   4.728   1.611  15.739  0.1412  0.0358 -0.1416
  693MPD2     C10297   3.987   4.582  10.637  0.2173 -0.0413  0.6075
  693MPD2    C110298   3.991   4.507  10.754  0.3088 -0.2511 -0.1729
  693MPD2    C210299   4.111   4.473  10.819 -0.1492  0.0369  0.2454
  693MPD2    C310300   4.230   4.529  10.771  1.2191 -0.2742  0.2372
  693MPD2    C410301   4.224   4.603  10.655 -0.8648 -0.0505 -0.7134
  693MPD2    C510302   4.109   4.632  10.595  0.7435  0.3686 -0.0495
  693MPD2     H10303   4.106   4.408  10.906  0.2184 -0.7802 -0.3471
  693MPD2    H110304   4.313   4.650  10.613 -0.8274  0.1827 -0.3802
  693MPD2    H210305   3.898   4.625  10.593  0.4139 -1.4822 -1.2272
  693MPD2    H310306   4.111   4.690  10.504  0.0198 -3.7185 -2.6814
  693MPD2     N10307   4.357   4.483  10.814 -0.0662  0.7897  0.5368
  693MPD2    H510308   4.436   4.515  10.758 -1.5460  1.5198 -1.1062
  693MPD2    N110309   3.868   4.464  10.814 -0.6979 -0.0759  0.4275
  693MPD2    H710310   3.881   4.409  10.898 -0.4862 -0.2454  0.2836
  694TMC3    C110311   3.646   4.412  10.833  0.1754  0.9202 -0.1970
  694TMC3    C210312   3.583   4.312  10.769  0.2157  0.2642 -0.3597
  694TMC3    C310313   3.528   4.213  10.840 -0.5534  0.5348  0.5258
  694TMC3    C410314   3.657   4.411  10.973 -0.5186  0.3819  0.2594
  694TMC3    C510315   3.602   4.308  11.046 -0.5973  0.0915 -0.4273
  694TMC3    C610316   3.531   4.207  10.975  0.2552  0.0287  0.3171
  694TMC3     C10317   3.746   4.475  10.752  0.2612  0.4076 -0.7062
  694TMC3     O10318   3.707   4.515  10.642  0.1995  0.0735 -0.3493
  694TMC3     H10319   3.583   4.314  10.661  0.0536 -1.6506 -0.4009
  694TMC3    H110320   3.707   4.492  11.024 -1.6059  1.2206 -0.0203
  694TMC3    H210321   3.502   4.115  11.025  0.2420 -0.0853  0.1016
  694TMC3    C710322   3.601   4.312  11.190  0.6389  0.2061  0.5550
  694TMC3    C810323   3.461   4.110  10.774  0.1468  0.0382  0.1417
  694TMC3    O110324   3.672   4.395  11.244 -0.0521 -0.0211  0.4573
  694TMC3    O210325   3.389   4.038  10.846 -0.4990  0.5038  0.4744
  695MPD2     C10326   0.537   1.633  13.168 -0.1879 -0.3575  1.2508
  695MPD2    C110327   0.479   1.645  13.292  0.6352 -0.0830  0.8811
  695MPD2    C210328   0.349   1.667  13.291  1.0827  0.3833 -0.0203
  695MPD2    C310329   0.272   1.669  13.183 -0.5896  0.4655  0.4045
  695MPD2    C410330   0.330   1.659  13.061 -0.0831 -0.5179  0.2944
  695MPD2    C510331   0.466   1.641  13.056 -0.3983 -0.0467 -0.0194
  695MPD2     H10332   0.301   1.676  13.388  2.2789  0.2861  0.5893
  695MPD2    H110333   0.264   1.664  12.975  1.6534 -2.3005 -1.1578
  695MPD2    H210334   0.643   1.613  13.162 -0.5497 -2.5178  1.9085
  695MPD2    H310335   0.510   1.639  12.958 -2.2621  2.9169 -0.9201
  695MPD2     N10336   0.132   1.679  13.208  0.8398  0.1420 -0.0495
  695MPD2    H510337   0.102   1.664  13.304 -1.8902 -0.2104 -0.9410
  695MPD2    N110338   0.546   1.645  13.421 -0.6248 -0.2729 -0.3207
  695MPD2    H710339   0.490   1.658  13.504 -0.9502 -1.4395 -0.3530
  696TMC3    C110340   4.645   1.712  13.192 -0.6511 -0.7945 -0.7947
  696TMC3    C210341   4.636   1.664  13.322  0.2143 -0.7340  0.8723
  696TMC3    C310342   4.533   1.707  13.399  1.0546 -0.3845 -0.6056
  696TMC3    C410343   4.552   1.799  13.143 -0.2490  0.2687 -0.4787
  696TMC3    C510344   4.457   1.854  13.235  0.3527 -0.1176  0.4263
  696TMC3    C610345   4.452   1.808  13.362  0.1354 -0.1616  0.0166
  696TMC3     C10346   0.028   1.698  13.121 -0.3822  0.0981  0.2088
  696TMC3     O10347   0.030   1.735  13.005 -0.0203 -0.2429 -0.2949
  696TMC3     H10348   4.705   1.592  13.364  1.4770 -0.9223 -1.5316
  696TMC3    H110349   4.548   1.828  13.038 -0.5059 -0.3360 -0.6424
  696TMC3    H210350   4.364   1.831  13.421  1.1853  1.3943  0.9676
  696TMC3    C710351   4.404   1.988  13.214  0.4366 -0.9955 -0.3549
  696TMC3    C810352   4.546   1.666  13.540  0.7099  0.7639  0.4551
  696TMC3    O110353   4.396   2.020  13.099 -0.5233  0.0728  0.7915
  696TMC3    O210354   4.662   1.650  13.582  0.1067  0.1148 -0.1175
  697MPD2     C10355   4.009   3.717  15.647 -0.4602 -0.1057  0.1275
  697MPD2    C110356   4.066   3.647  15.543 -0.2154 -0.0208  0.0677
  697MPD2    C210357   4.101   3.711  15.427 -0.5305 -0.4789 -1.4791
  697MPD2    C310358   4.072   3.845  15.409  0.4272  0.0239 -0.0047
  697MPD2    C410359   3.995   3.913  15.506  0.1756 -0.2553  0.3914
  697MPD2    C510360   3.964   3.849  15.621  0.1912 -0.5202  1.1669
  697MPD2     H10361   4.169   3.668  15.354  2.3293  0.3275  0.7295
  697MPD2    H110362   3.984   4.020  15.496  0.6631 -0.3088 -0.6736
  697MPD2    H210363   3.988   3.680  15.746 -0.1907  0.7830  0.5212
  697MPD2    H310364   3.911   3.903  15.699  0.4947 -0.9581  1.6680
  697MPD2     N10365   4.128   3.903  15.295  0.3816  0.3442 -0.0393
  697MPD2    H510366   4.168   3.840  15.226 -0.2749 -0.0155 -0.0949
  697MPD2    N110367   4.112   3.514  15.558  0.4440  0.8073  0.8089
  697MPD2    H710368   4.116   3.460  15.472  0.0614  2.1785 -0.0668
  698TMC3    C110369   4.169   4.065  15.133  0.7912  0.1233 -0.6380
  698TMC3    C210370   4.230   4.187  15.113 -0.0807 -0.1303  0.5257
  698TMC3    C310371   4.247   4.223  14.979 -0.0325 -0.4825 -0.6687
  698TMC3    C410372   4.139   3.979  15.026 -0.0493  0.1727 -0.1260
  698TMC3    C510373   4.171   4.018  14.898 -0.2047  0.1592  0.1876
  698TMC3    C610374   4.214   4.142  14.872 -0.3610  0.9445  0.0988
  698TMC3     C10375   4.124   4.036  15.267  0.4487 -0.6605  0.9358
  698TMC3     O10376   4.133   4.121  15.353  0.4114  0.1780  0.3211
  698TMC3     H10377   4.243   4.252  15.198  1.9791  0.4694 -0.2377
  698TMC3    H110378   4.102   3.879  15.044 -2.0748  0.8211 -0.7148
  698TMC3    H210379   4.231   4.181  14.772 -1.4484  0.2450 -0.3662
  698TMC3    C710380   4.179   3.920  14.794 -0.6898 -0.2775 -0.6625
  698TMC3    C810381   4.278   4.355  14.957  0.1441  0.0510  0.2029
  698TMC3    O110382   4.111   3.819  14.800 -0.5188 -0.5937  0.1501
  698TMC3    O210383   4.247   4.425  15.050 -0.6626  0.0585  0.1075
  699TMC3    C110384   4.000   2.054  13.055 -0.0180 -0.3226 -0.2045
  699TMC3    C210385   4.086   1.954  13.091 -0.4547  0.1904  0.0334
  699TMC3    C310386   4.075   1.910  13.217 -0.0819 -0.2451 -0.0551
  699TMC3    C410387   3.907   2.109  13.143  0.5153  0.2516  0.0722
  699TMC3    C510388   3.918   2.069  13.277  0.2151  0.2522 -0.1952
  699TMC3    C610389   4.004   1.973  13.318  0.9500 -0.7459 -0.3009
  699TMC3     C10390   4.023   2.123  12.925  0.4986  0.0069 -0.2470
  699TMC3     O10391   3.930   2.191  12.887 -0.1005 -0.1303 -0.1352
  699TMC3     H10392   4.153   1.906  13.020 -1.3159  0.6092 -1.0479
  699TMC3    H110393   3.840   2.185  13.104 -0.5746 -1.3697 -1.2004
  699TMC3    H210394   3.982   1.927  13.414  2.6301  1.1286  0.9812
  699TMC3    C710395   3.794   2.086  13.359  0.0167 -0.7188 -0.0842
  699TMC3    C810396   4.130   1.781  13.258 -0.9082  0.4960 -0.6008
  699TMC3    O110397   3.806   2.041  13.471 -0.3844  0.3060 -0.1520
  699TMC3    O210398   4.117   1.750  13.373  0.0211 -0.4705  0.8464
  700TMC3    C110399   3.880   4.193  17.097  0.7392 -0.3358 -0.5775
  700TMC3    C210400   3.848   4.069  17.121  0.3927 -0.1325  0.1305
  700TMC3    C310401   3.831   4.027  17.248 -0.3721 -1.0002  0.5640
  700TMC3    C410402   3.896   4.286  17.194  0.1677 -0.0876 -0.1863
  700TMC3    C510403   3.877   4.249  17.320 -0.2518 -0.4819  0.4251
  700TMC3    C610404   3.843   4.120  17.348  0.4158  0.5462  0.4047
  700TMC3     C10405   3.863   4.236  16.957 -0.1582 -0.4755 -0.4726
  700TMC3     O10406   3.933   4.330  16.919 -0.0219  0.5466 -0.2728
  700TMC3     H10407   3.858   3.998  17.040 -0.2020  0.7944 -0.7434
  700TMC3    H110408   3.920   4.386  17.161 -0.9966  0.8393  1.8319
  700TMC3    H210409   3.834   4.083  17.449 -0.8721  1.5789  0.6713
  700TMC3    C710410   3.840   4.344  17.419 -0.3141 -0.2374 -0.2983
  700TMC3    C810411   3.853   3.891  17.286  0.2348 -0.7145 -0.3678
  700TMC3    O110412   3.835   4.308  17.537  0.0889 -0.1095  0.3790
  700TMC3    O210413   3.863   3.857  17.407  0.0649 -0.0882 -1.1122
  701TMC3    C110414   3.663   2.636  15.882  0.6008 -0.0669  0.0528
  701TMC3    C210415   3.711   2.557  15.782 -0.1350 -0.1310 -0.1951
  701TMC3    C310416   3.797   2.602  15.692  0.7671  0.0526 -0.6409
  701TMC3    C410417   3.714   2.762  15.885  0.2968 -0.1021 -0.3277
  701TMC3    C510418   3.814   2.801  15.797  0.6380 -0.3181  0.4367
  701TMC3    C610419   3.860   2.721  15.700  0.0151  0.3592  1.3738
  701TMC3     C10420   3.540   2.597  15.940  0.4485  0.6169  0.1330
  701TMC3     O10421   3.517   2.475  15.934 -0.2720 -0.1890  0.2823
  701TMC3     H10422   3.690   2.452  15.800 -2.3416  0.3657  0.1770
  701TMC3    H110423   3.672   2.847  15.938 -0.9159 -1.8720  1.5691
  701TMC3    H210424   3.921   2.749  15.614  0.7195  2.1646  2.4573
  701TMC3    C710425   3.861   2.939  15.788  0.9633 -0.1448  0.5191
  701TMC3    C810426   3.822   2.517  15.571  0.5661  0.3032  0.1975
  701TMC3    O110427   3.901   2.981  15.680  0.3962 -0.0389  0.0340
  701TMC3    O210428   3.937   2.518  15.530 -0.3065 -0.1084  0.4642
  702MPD2     C10429   3.267   0.054  10.382 -0.9335  0.3633  0.4001
  702MPD2    C110430   3.201   0.155  10.444 -0.3761 -0.2385 -0.6852
  702MPD2    C210431   3.200   0.284  10.392  0.0610 -0.0259  0.2696
  702MPD2    C310432   3.285   0.309  10.286 -0.4362  0.2375 -0.5573
  702MPD2    C410433   3.345   0.209  10.218 -0.3938  0.8807 -0.7998
  702MPD2    C510434   3.331   0.080  10.263  0.4879  0.0277 -0.7102
  702MPD2     H10435   3.143   0.370  10.424  3.2878  0.7764  3.8385
  702MPD2    H110436   3.399   0.227  10.126 -1.2615 -1.1269 -1.6924
  702MPD2    H210437   3.276   4.691  10.420  1.5994  0.8547  1.1219
  702MPD2    H310438   3.378   4.730  10.220 -1.2875 -0.4734 -1.6277
  702MPD2     N10439   3.291   0.448  10.245  0.5388  0.1686  0.1654
  702MPD2    H510440   3.247   0.518  10.305  0.9353  0.7097 -0.1769
  702MPD2    N110441   3.140   0.133  10.570  0.4936 -0.7696 -0.0026
  702MPD2    H710442   3.116   0.219  10.619 -0.5017 -2.0322  1.7288
  703TMC3    C110443   3.366   0.636  10.138  0.1072 -0.1175  0.0431
  703TMC3    C210444   3.247   0.698  10.154 -0.1182  0.0063  0.3992
  703TMC3    C310445   3.255   0.835  10.169 -0.0620  0.2094 -0.7533
  703TMC3    C410446   3.487   0.696  10.145  0.6110  0.4305  0.0796
  703TMC3    C510447   3.492   0.834  10.149  0.0194 -0.0626 -0.6836
  703TMC3    C610448   3.370   0.907  10.157  0.5810  0.7063 -0.2200
  703TMC3     C10449   3.368   0.494  10.147 -0.5231 -0.8759 -0.1497
  703TMC3     O10450   3.459   0.437  10.087 -0.4309 -0.1569 -0.2931
  703TMC3     H10451   3.160   0.638  10.131  1.1456 -1.3940 -0.7678
  703TMC3    H110452   3.577   0.636  10.130  1.6927  1.6964  1.4491
  703TMC3    H210453   3.363   1.012  10.182 -1.4787  0.3412  0.7867
  703TMC3    C710454   3.614   0.910  10.136  0.3589 -0.3574 -0.0003
  703TMC3    C810455   3.131   0.909  10.155  0.3487  0.6405  0.9830
  703TMC3    O110456   3.614   1.017  10.084 -0.1731  0.1977 -0.1202
  703TMC3    O210457   3.136   1.019  10.094  0.2021  0.8441  0.3905
  704TMC3    C110458   0.875   3.499  12.001  0.5367  0.3896 -0.4507
  704TMC3    C210459   1.010   3.531  12.030 -0.2388 -0.4858 -0.3424
  704TMC3    C310460   1.061   3.491  12.156  0.4005 -0.7287 -0.2075
  704TMC3    C410461   0.805   3.419  12.082 -0.3832  0.8072 -0.2296
  704TMC3    C510462   0.864   3.377  12.203 -0.2218  0.3466 -0.0356
  704TMC3    C610463   0.987   3.419  12.243 -0.6044 -0.5280  0.6998
  704TMC3     C10464   0.844   3.465  11.862 -0.2476 -0.0170 -0.1365
  704TMC3     O10465   0.733   3.493  11.822  0.0306  0.1271 -0.1175
  704TMC3     H10466   1.073   3.583  11.958  0.3056  1.1214  1.2997
  704TMC3    H110467   0.713   3.372  12.048 -0.4566  0.8765 -0.1266
  704TMC3    H210468   1.030   3.377  12.334  2.2404 -1.3031 -1.0313
  704TMC3    C710469   0.819   3.248  12.256  0.4015  0.0182  0.1936
  704TMC3    C810470   1.204   3.466  12.171  0.1738 -0.5331  0.7313
  704TMC3    O110471   0.779   3.171  12.171 -1.3252  0.1808  0.1860
  704TMC3    O210472   1.266   3.466  12.067  0.0051 -0.0999  0.5647
  705MPD2     C10473   0.148   1.140  16.221 -0.5998 -0.5079 -0.2170
  705MPD2    C110474   0.163   1.275  16.243  0.2567  0.6919 -0.1879
  705MPD2    C210475   0.064   1.354  16.302 -0.1630  0.4411  0.1938
  705MPD2    C310476   4.683   1.292  16.332 -0.2426 -0.5844 -0.4622
  705MPD2    C410477   4.673   1.159  16.308  0.2726 -0.0505  0.7777
  705MPD2    C510478   0.027   1.084  16.251  0.0193 -0.5792 -0.2613
  705MPD2     H10479   0.082   1.461  16.313  1.4110  0.0984  0.8873
  705MPD2    H110480   4.585   1.111  16.348 -0.4551  0.9173  0.3183
  705MPD2    H210481   0.224   1.069  16.189 -0.3638 -0.0343 -0.6975
  705MPD2    H310482   0.024   0.976  16.251  0.6074 -0.5939 -0.6120
  705MPD2     N10483   4.563   1.353  16.382  0.6236  0.1390 -0.0323
  705MPD2    H510484   4.490   1.289  16.413 -1.0805  2.4732  0.7414
  705MPD2    N110485   0.290   1.332  16.227 -0.3652 -0.4749  0.0169
  705MPD2    H710486   0.313   1.422  16.268  0.7959  0.2764 -2.2999
  706TMC3    C110487   0.719   1.373  16.053 -0.2303  0.8805  0.2690
  706TMC3    C210488   0.778   1.406  16.173 -0.0150 -0.5664  0.1612
  706TMC3    C310489   0.707   1.384  16.296  0.7426 -0.1208  0.5858
  706TMC3    C410490   0.588   1.324  16.050 -0.2713 -0.1891 -0.0140
  706TMC3    C510491   0.519   1.307  16.169  0.8598  0.2874  0.0412
  706TMC3    C610492   0.576   1.342  16.291 -0.1896  0.0678  0.1935
  706TMC3     C10493   0.721   1.489  15.969  0.2030  0.1939 -0.2000
  706TMC3     O10494   0.721   1.590  16.037 -0.0748  0.9604 -1.1671
  706TMC3     H10495   0.871   1.461  16.182 -0.8809  0.6653  1.6536
  706TMC3    H110496   0.528   1.314  15.960  0.5668 -1.6922 -0.4043
  706TMC3    H210497   0.511   1.350  16.377 -1.4041  2.1682 -0.9293
  706TMC3    C710498   0.386   1.271  16.148 -0.2879  0.4058  0.4712
  706TMC3    C810499   0.708   1.501  16.390  0.3205 -0.2457 -0.3356
  706TMC3    O110500   0.370   1.204  16.048 -0.1015 -0.4385  0.6436
  706TMC3    O210501   0.677   1.480  16.507  0.1592  0.3797 -0.4789
  707TMC3    C110502   0.970   4.183   1.321 -0.4691  0.0030  0.3522
  707TMC3    C210503   1.003   4.093   1.225  0.0399 -0.1579  0.0949
  707TMC3    C310504   0.970   3.960   1.239 -0.0779  0.6262  0.4361
  707TMC3    C410505   0.884   4.152   1.417  0.1264 -0.2558  0.2768
  707TMC3    C510506   0.842   4.021   1.428  0.3379 -0.3763  0.2244
  707TMC3    C610507   0.896   3.920   1.346 -0.3858 -1.1399 -0.7766
  707TMC3     C10508   1.030   4.320   1.322 -0.2713 -0.1253 -0.0469
  707TMC3     O10509   1.141   4.325   1.272  0.2987 -0.3665  0.4687
  707TMC3     H10510   1.086   4.119   1.160 -0.7953  0.0833 -0.8736
  707TMC3    H110511   0.861   4.224   1.495 -0.3448 -2.1864  1.9508
  707TMC3    H210512   0.878   3.816   1.373  2.9668 -1.3593  0.6013
  707TMC3    C710513   0.748   3.999   1.534  0.0480  0.0611  0.2573
  707TMC3    C810514   1.055   3.856   1.183 -0.4203  0.2842  0.3103
  707TMC3    O110515   0.678   4.095   1.566  0.4372 -0.6430 -0.4000
  707TMC3    O210516   1.002   3.752   1.147 -0.0250 -0.3130 -0.0624
  708MPD2     C10517   3.356   4.169  13.719  0.1925 -0.1271 -0.3158
  708MPD2    C110518   3.243   4.156  13.792  0.0098 -0.9136  0.1363
  708MPD2    C210519   3.236   4.190  13.923  0.2240  0.4505  0.1411
  708MPD2    C310520   3.348   4.241  13.994 -0.5192  0.0326 -0.0082
  708MPD2    C410521   3.465   4.251  13.915 -0.0600 -0.2683  0.3647
  708MPD2    C510522   3.466   4.231  13.780  0.1292 -0.3686  0.8471
  708MPD2     H10523   3.136   4.173  13.959  0.0622 -0.5419 -0.7844
  708MPD2    H110524   3.556   4.289  13.959 -0.5303 -0.4194  1.4799
  708MPD2    H210525   3.355   4.164  13.611 -2.8317  0.5141 -0.3242
  708MPD2    H310526   3.548   4.269  13.720 -0.6548  0.4614  0.2948
  708MPD2     N10527   3.341   4.276  14.127  0.2527  0.2309 -0.0207
  708MPD2    H510528   3.419   4.328  14.168  0.3569  1.3944 -1.7050
  708MPD2    N110529   3.118   4.122  13.733  0.1920  0.3174  0.0451
  708MPD2    H710530   3.039   4.112  13.796 -0.7695  3.6838 -0.6001
  709TMC3    C110531   2.949   4.102  13.603  0.5131 -0.7026 -0.0061
  709TMC3    C210532   2.893   4.215  13.561 -0.3716 -0.0526 -0.2284
  709TMC3    C310533   2.778   4.255  13.617 -0.2934  0.4208  0.0193
  709TMC3    C410534   2.886   4.024  13.698 -0.3511 -0.2078 -0.4024
  709TMC3    C510535   2.766   4.066  13.760 -0.0114  0.1113 -0.4046
  709TMC3    C610536   2.714   4.185  13.712 -0.1318  0.7525 -0.1866
  709TMC3     C10537   3.091   4.109  13.601  0.5414  0.1646  0.4517
  709TMC3     O10538   3.140   4.166  13.507 -0.2100 -0.1157 -0.3117
  709TMC3     H10539   2.941   4.284  13.492 -0.4358  0.9203  0.7087
  709TMC3    H110540   2.938   3.941  13.744  0.9893  0.2590 -1.0737
  709TMC3    H210541   2.630   4.226  13.767 -0.1802  1.5467 -0.8603
  709TMC3    C710542   2.786   4.075  13.901 -0.4304  0.4096  0.5112
  709TMC3    C810543   2.718   4.382  13.596 -0.4284 -0.2916  0.7421
  709TMC3    O110544   2.901   4.078  13.936  0.3442 -0.2304 -0.4141
  709TMC3    O210545   2.601   4.385  13.623 -0.0858  0.0068 -0.2949
  710TMC3    C110546   4.086   1.260  17.701 -0.2524 -0.7745  1.3673
  710TMC3    C210547   4.147   1.279  17.586 -0.3642  0.0526  0.5544
  710TMC3    C310548   4.280   1.249  17.579 -0.6492  0.3961 -0.3756
  710TMC3    C410549   4.151   1.216   0.067  0.5776 -0.4822  0.3012
  710TMC3    C510550   4.284   1.183   0.054 -0.2093 -0.5164 -0.6570
  710TMC3    C610551   4.351   1.199  17.688 -0.0359 -0.2359 -0.0727
  710TMC3     C10552   3.947   1.298  17.713  0.0193  0.0189 -0.2978
  710TMC3     O10553   3.880   1.301  17.612  0.2423  0.1103  0.0426
  710TMC3     H10554   4.107   1.328  17.498 -1.8474  1.1658  1.8550
  710TMC3    H110555   4.095   1.183   0.154  3.3027 -2.2354  1.4003
  710TMC3    H210556   4.445   1.152  17.661  0.7767  0.9873  0.6699
  710TMC3    C710557   4.339   1.092   0.156 -0.1536  0.1119 -0.4671
  710TMC3    C810558   4.347   1.286  17.456 -0.3747 -0.2469 -0.2269
  710TMC3    O110559   4.291   1.107   0.268 -0.0448 -0.0902 -0.1584
  710TMC3    O210560   4.277   1.280  17.357 -0.1046  0.8531  0.3066
  711TMC3    C110561   4.314   1.931  15.003  0.0664  0.1448 -0.7636
  711TMC3    C210562   4.413   1.867  15.077  0.0344  0.0390  1.2572
  711TMC3    C310563   4.511   1.945  15.138 -0.0947  1.1118  0.0281
  711TMC3    C410564   4.328   2.066  14.975 -0.5790  0.2435  0.1622
  711TMC3    C510565   4.442   2.136  15.027  0.1668 -0.1835  0.4648
  711TMC3    C610566   4.525   2.076  15.114  0.1892 -0.1033  0.2972
  711TMC3     C10567   4.249   1.842  14.908  0.2420 -0.4631  1.0435
  711TMC3     O10568   4.161   1.883  14.837  0.3484 -0.2615 -0.0099
  711TMC3     H10569   4.414   1.762  15.104 -1.4086 -0.5365 -0.9604
  711TMC3    H110570   4.255   2.119  14.915  0.2469 -0.8606 -1.8394
  711TMC3    H210571   4.617   2.124  15.144  0.5492 -0.1319 -0.7582
  711TMC3    C710572   4.451   2.275  14.991 -0.2230 -1.2901 -0.5559
  711TMC3    C810573   4.624   1.872  15.199 -0.5997 -0.4789 -1.0098
  711TMC3    O110574   4.378   2.323  14.908  0.0594  0.0584 -0.4833
  711TMC3    O210575   4.621   1.754  15.176 -0.0290 -0.0671 -0.0992
  712MPD2     C10576   0.952   3.236  13.391 -0.4399  0.4803  0.6331
  712MPD2    C110577   0.818   3.256  13.379 -0.6436 -0.1151 -0.6063
  712MPD2    C210578   0.756   3.346  13.459 -0.4418  0.3036  0.5571
  712MPD2    C310579   0.824   3.430  13.546  0.2312 -0.2908  0.7624
  712MPD2    C410580   0.961   3.409  13.565  0.6712 -0.1881 -0.0541
  712MPD2    C510581   1.021   3.308  13.486  0.5548  0.1356  0.0033
  712MPD2     H10582   0.652   3.366  13.436 -0.5503 -0.6276  0.2546
  712MPD2    H110583   1.014   3.466  13.641  2.1290  0.3832 -1.5093
  712MPD2    H210584   1.009   3.161  13.337  0.8697  1.7056  0.3135
  712MPD2    H310585   1.129   3.304  13.493  0.4766 -2.6719 -0.5689
  712MPD2     N10586   0.756   3.537  13.622 -0.4002  0.2387 -0.2506
  712MPD2    H510587   0.802   3.583  13.699  2.1224 -1.2050 -0.8765
  712MPD2    N110588   0.736   3.178  13.295  0.1589 -0.3633  0.3161
  712MPD2    H710589   0.636   3.194  13.294  0.1136 -0.6396  0.3968
  713TMC3    C110590   0.566   3.675  13.697 -0.7209 -0.4676  0.6940
  713TMC3    C210591   0.640   3.724  13.800 -0.2159 -0.0387 -0.1434
  713TMC3    C310592   0.613   3.848  13.846  0.7471 -0.2327 -0.6889
  713TMC3    C410593   0.467   3.748  13.650  0.4545  0.3553 -0.1800
  713TMC3    C510594   0.432   3.867  13.703  0.1337  0.3962  0.0991
  713TMC3    C610595   0.507   3.922  13.802 -1.1294 -0.0285  0.4824
  713TMC3     C10596   0.618   3.567  13.613 -0.1131 -0.2466  0.1448
  713TMC3     O10597   0.532   3.503  13.555  0.1414 -0.5338  0.0961
  713TMC3     H10598   0.729   3.674  13.837  0.3872  1.8772  1.0222
  713TMC3    H110599   0.410   3.713  13.564  3.2216 -0.8790 -1.5139
  713TMC3    H210600   0.517   4.027  13.829  1.0718 -0.3422  0.9589
  713TMC3    C710601   0.366   3.958  13.607 -0.5118 -0.0176 -0.5296
  713TMC3    C810602   0.730   3.921  13.885  0.5859  0.2630 -0.3623
  713TMC3    O110603   0.341   3.925  13.494  0.4536 -0.1075 -0.1994
  713TMC3    O210604   0.748   3.955  14.003  0.3154 -0.2946  0.1646
  714MPD2     C10605   3.123   1.493   1.992  0.8283 -0.3854 -0.1285
  714MPD2    C110606   3.121   1.470   1.855 -0.1513  0.1818  0.4139
  714MPD2    C210607   3.007   1.507   1.784 -0.1610 -0.0744 -0.2527
  714MPD2    C310608   2.892   1.558   1.856 -0.1117 -0.0256  0.0416
  714MPD2    C410609   2.902   1.570   1.995  0.7534 -0.0542 -0.5601
  714MPD2    C510610   3.014   1.544   2.062  0.3246 -0.7936 -0.3666
  714MPD2     H10611   3.005   1.498   1.676 -0.6055 -1.1174 -0.1618
  714MPD2    H110612   2.823   1.606   2.060  1.3612  0.0455  0.1340
  714MPD2    H210613   3.208   1.467   2.054 -0.9470 -2.5384  1.4140
  714MPD2    H310614   3.016   1.561   2.169 -1.7319 -0.7681 -0.3257
  714MPD2     N10615   2.775   1.600   1.789 -0.0592 -0.0895 -0.2666
  714MPD2    H510616   2.767   1.574   1.691  0.4616 -0.1086 -0.3022
  714MPD2    N110617   3.234   1.418   1.799  0.7585  0.9383  0.0220
  714MPD2    H710618   3.310   1.397   1.864  0.7299 -2.0060 -0.9195
  715TMC3    C110619   3.386   1.322   1.660 -0.1688  0.1168 -0.4425
  715TMC3    C210620   3.411   1.248   1.545 -0.2647 -0.0538  0.1390
  715TMC3    C310621   3.539   1.197   1.533 -0.2850  0.8481  0.0993
  715TMC3    C410622   3.481   1.357   1.748 -0.5882 -0.0314 -0.3307
  715TMC3    C510623   3.601   1.297   1.744 -0.4892 -0.4875 -0.5338
  715TMC3    C610624   3.628   1.218   1.636 -0.1866 -0.4943 -0.0575
  715TMC3     C10625   3.261   1.388   1.671  0.8325  0.4311  0.0392
  715TMC3     O10626   3.182   1.385   1.581  0.3986  0.2214 -0.2797
  715TMC3     H10627   3.332   1.232   1.472  0.6457  0.4348 -0.9544
  715TMC3    H110628   3.474   1.442   1.816 -0.1934 -0.0989 -0.2069
  715TMC3    H210629   3.728   1.176   1.630  0.5734  1.1784  1.0775
  715TMC3    C710630   3.714   1.381   1.784  0.0764 -1.1306 -0.7228
  715TMC3    C810631   3.590   1.191   1.403 -0.3397 -0.3575  0.7236
  715TMC3    O110632   3.790   1.412   1.693  0.0984  0.0775 -0.1451
  715TMC3    O210633   3.509   1.176   1.315  0.3820 -0.3993  0.0334
  716MPD2     C10634   3.103   0.388   9.227  0.0788  0.0711 -0.4088
  716MPD2    C110635   2.991   0.466   9.223 -0.2177 -0.1772  0.3066
  716MPD2    C210636   2.895   0.439   9.128 -0.2001 -0.1718 -0.1003
  716MPD2    C310637   2.915   0.325   9.049 -0.2356  0.3718 -0.3637
  716MPD2    C410638   3.027   0.243   9.058 -0.3658  0.7710 -0.3362
  716MPD2    C510639   3.122   0.279   9.144 -0.4887 -0.2672 -0.7802
  716MPD2     H10640   2.811   0.505   9.112  1.1821  2.0071  1.7382
  716MPD2    H110641   3.047   0.145   9.016 -3.3809 -1.1548  2.7664
  716MPD2    H210642   3.183   0.401   9.299  0.4758 -0.3897 -0.7658
  716MPD2    H310643   3.208   0.217   9.168 -0.5821 -0.6745 -1.4886
  716MPD2     N10644   2.811   0.291   8.962  0.6762  0.0151  0.2695
  716MPD2    H510645   2.718   0.322   8.987 -0.0807 -1.0149 -1.3236
  716MPD2    N110646   2.986   0.576   9.325 -0.1189  0.8231  0.1206
  716MPD2    H710647   3.070   0.607   9.371  1.0806  0.1446 -1.6167
  717TMC3    C110648   2.710   0.165   8.782  0.2615  0.0366 -0.3791
  717TMC3    C210649   2.587   0.175   8.845 -0.1947 -0.3634  0.6938
  717TMC3    C310650   2.473   0.158   8.765  0.4762 -0.5795  0.7834
  717TMC3    C410651   2.719   0.151   8.645 -0.1177  0.0735  0.7171
  717TMC3    C510652   2.606   0.130   8.573  0.3582  1.1736  0.0064
  717TMC3    C610653   2.483   0.139   8.632 -0.1998  0.1002 -0.8739
  717TMC3     C10654   2.830   0.216   8.851 -0.2131  0.5229 -0.2334
  717TMC3     O10655   2.938   0.198   8.795  0.1607 -0.0517  0.3093
  717TMC3     H10656   2.576   0.194   8.951  1.8153 -0.3580  0.8916
  717TMC3    H110657   2.818   0.157   8.601  0.1659 -1.7536  1.0984
  717TMC3    H210658   2.393   0.114   8.578 -0.9020 -1.9307  1.2329
  717TMC3    C710659   2.623   0.124   8.429 -0.2028 -0.5234  0.5911
  717TMC3    C810660   2.350   0.226   8.808  0.8394  0.7231  0.4513
  717TMC3    O110661   2.743   0.113   8.398  0.2847  0.1415 -0.2952
  717TMC3    O210662   2.284   0.270   8.712  0.3190  0.0504  0.2457
  718MPD2     C10663   1.917   4.137  12.784  0.3105  0.1035  0.2778
  718MPD2    C110664   2.012   4.084  12.691 -0.0216 -0.2179 -0.1533
  718MPD2    C210665   2.083   3.981  12.727  0.4241  0.5161  0.8470
  718MPD2    C310666   2.054   3.912  12.849  0.5572  0.0819 -0.6837
  718MPD2    C410667   1.953   3.953  12.929 -0.1100  0.1250 -0.1054
  718MPD2    C510668   1.881   4.067  12.897  0.3642  0.1731  0.1684
  718MPD2     H10669   2.153   3.942  12.654 -1.2832  0.3307 -0.6848
  718MPD2    H110670   1.929   3.894  13.017  0.4859 -0.3824 -0.2785
  718MPD2    H210671   1.852   4.221  12.761  1.5888  1.1123  0.3482
  718MPD2    H310672   1.796   4.102  12.955  1.8523  1.7735  1.3487
  718MPD2     N10673   2.129   3.805  12.897 -0.2137 -0.1520  0.1585
  718MPD2    H510674   2.088   3.768  12.982  1.6986 -1.6536  0.4388
  718MPD2    N110675   2.038   4.126  12.554 -0.3616  0.1862  0.4631
  718MPD2    H710676   2.079   4.053  12.497 -0.9135  0.0151  0.2942
  719TMC3    C110677   2.098   4.251  12.377  0.1480  0.2388  0.2717
  719TMC3    C210678   2.074   4.140  12.302  0.9758  0.5554  0.2833
  719TMC3    C310679   2.184   4.082  12.236 -0.0071  0.6814  0.4434
  719TMC3    C410680   2.211   4.320  12.370 -0.6063 -0.0955  0.0881
  719TMC3    C510681   2.315   4.272  12.291 -0.2267  0.4651 -0.4724
  719TMC3    C610682   2.299   4.155  12.219  0.7416  0.0985 -0.0765
  719TMC3     C10683   2.042   4.255  12.508  0.7623  0.2635  0.1679
  719TMC3     O10684   2.009   4.359  12.560  0.3020  0.0265  0.0559
  719TMC3     H10685   1.979   4.088  12.301 -0.4677  3.2019  0.7546
  719TMC3    H110686   2.231   4.401  12.439  1.4769 -1.0488  0.6188
  719TMC3    H210687   2.383   4.105  12.172 -0.1324  0.1309 -1.6777
  719TMC3    C710688   2.455   4.307  12.318 -0.6398  0.0898  0.4007
  719TMC3    C810689   2.196   3.947  12.283  0.3868 -0.7429 -0.2623
  719TMC3    O110690   2.538   4.225  12.282 -0.2981 -0.0156 -0.1444
  719TMC3    O210691   2.131   3.917  12.384 -1.5739  0.0301  0.1237
  720MPD2     C10692   0.527   0.770  13.596 -0.0601 -0.1186  0.7134
  720MPD2    C110693   0.622   0.770  13.493 -0.9785 -0.2553 -1.0519
  720MPD2    C210694   0.754   0.782  13.525 -0.0243  0.4823 -0.1221
  720MPD2    C310695   0.797   0.811  13.649  0.0884 -0.4288 -0.2608
  720MPD2    C410696   0.703   0.833  13.747  0.4649 -0.1842  0.0494
  720MPD2    C510697   0.573   0.796  13.721 -0.4625 -0.7318  0.4254
  720MPD2     H10698   0.839   0.775  13.459 -1.4930 -3.0851 -1.6581
  720MPD2    H110699   0.727   0.851  13.851 -2.4268 -0.0925  0.7107
  720MPD2    H210700   0.425   0.733  13.587 -0.3289  1.4678 -2.6373
  720MPD2    H310701   0.503   0.786  13.804  1.2769 -0.4135  1.9124
  720MPD2     N10702   0.940   0.817  13.661 -0.0789 -0.2994 -0.1029
  720MPD2    H510703   0.985   0.799  13.572  0.1071  1.4406 -0.3688
  720MPD2    N110704   0.591   0.722  13.367  0.4113  0.6928 -0.3691
  720MPD2    H710705   0.665   0.725  13.298  0.3678 -0.5109 -0.4803
  721TMC3    C110706   1.155   0.822  13.762  0.5280 -0.1496 -0.0315
  721TMC3    C210707   1.213   0.758  13.863  0.8565  0.4295  0.6974
  721TMC3    C310708   1.344   0.722  13.861 -0.0105  0.2363 -0.0310
  721TMC3    C410709   1.221   0.858  13.647 -0.0582 -0.3616  0.1572
  721TMC3    C510710   1.353   0.830  13.651  0.2656  0.4796  0.1070
  721TMC3    C610711   1.423   0.761  13.752 -0.0829 -0.8771 -0.2737
  721TMC3     C10712   1.013   0.851  13.772  0.1971 -0.7915  1.0067
  721TMC3     O10713   0.969   0.890  13.876 -0.0205 -0.3260 -0.0914
  721TMC3     H10714   1.158   0.725  13.950 -0.4815 -0.7715 -0.6149
  721TMC3    H110715   1.160   0.893  13.565  1.7205  0.0130 -0.9832
  721TMC3    H210716   1.531   0.756  13.757  0.0199 -1.7802 -3.0428
  721TMC3    C710717   1.428   0.875  13.540 -0.4025  0.5545  0.3478
  721TMC3    C810718   1.416   0.679  13.976  0.4070  0.4988  0.2856
  721TMC3    O110719   1.528   0.809  13.512 -0.2985  0.4025  0.3790
  721TMC3    O210720   1.529   0.629  13.958 -0.1438  0.5744 -0.6725
  722MPD2     C10721   4.309   4.064  12.788 -0.4191 -0.3372  0.4169
  722MPD2    C110722   4.270   4.184  12.844 -0.0274  0.2785 -0.2758
  722MPD2    C210723   4.142   4.231  12.817  0.2590 -0.0923 -0.1240
  722MPD2    C310724   4.043   4.154  12.756  0.1213 -0.1540 -0.0611
  722MPD2    C410725   4.076   4.023  12.724 -0.1448  0.0534 -0.4359
  722MPD2    C510726   4.212   3.982  12.723  0.4813  0.2132 -0.3603
  722MPD2     H10727   4.118   4.323  12.868 -0.7321 -0.2701 -0.2739
  722MPD2    H110728   4.003   3.946  12.702 -0.0287 -0.8213  2.2123
  722MPD2    H210729   4.410   4.026  12.796 -0.4437 -0.2177  1.2142
  722MPD2    H310730   4.232   3.877  12.709  0.9406  0.3342 -0.6121
  722MPD2     N10731   3.910   4.196  12.749 -0.2813 -0.0158 -0.8108
  722MPD2    H510732   3.896   4.294  12.772  0.4613 -0.1105  0.0078
  722MPD2    N110733   4.352   4.266  12.923  0.3472  0.4797  0.4492
  722MPD2    H710734   4.312   4.358  12.940  0.5118  0.8150 -0.9717
  723TMC3    C110735   3.676   4.186  12.704  0.4318  0.1999  0.4801
  723TMC3    C210736   3.573   4.095  12.685 -0.2101  0.0827 -0.5747
  723TMC3    C310737   3.456   4.109  12.757  0.3064 -0.3084 -0.5346
  723TMC3    C410738   3.655   4.304  12.774 -0.0546  0.4980  0.2445
  723TMC3    C510739   3.533   4.318  12.829  0.1762  0.4627 -0.5112
  723TMC3    C610740   3.431   4.223  12.825 -0.0782 -0.5336 -0.0239
  723TMC3     C10741   3.814   4.137  12.674  0.4038  0.9501 -0.3952
  723TMC3     O10742   3.818   4.039  12.605 -0.3613 -0.6362  0.4654
  723TMC3     H10743   3.592   4.002  12.634  2.7801  0.7158 -0.6380
  723TMC3    H110744   3.729   4.382  12.790  0.5788  0.5417 -2.8794
  723TMC3    H210745   3.355   4.226  12.902 -2.1923 -1.0935 -2.0802
  723TMC3    C710746   3.490   4.447  12.866  0.4813 -0.3065 -0.2646
  723TMC3    C810747   3.387   3.985  12.813  0.0368  0.3785  0.7835
  723TMC3    O110748   3.392   4.455  12.940 -0.2681  0.2971  0.1610
  723TMC3    O210749   3.281   4.003  12.874  0.2751  0.4821 -0.2087
  724TMC3    C110750   0.523   2.775  10.108 -0.0738  0.1800 -0.2942
  724TMC3    C210751   0.415   2.846  10.055  0.3834 -0.1047 -0.7246
  724TMC3    C310752   0.428   2.978  10.038 -0.0064  0.4566 -0.3907
  724TMC3    C410753   0.641   2.834  10.144  0.6668  0.2670 -0.3636
  724TMC3    C510754   0.648   2.969  10.116  0.6226  0.7915  0.3342
  724TMC3    C610755   0.550   3.044  10.050  0.2787  0.0878  0.0547
  724TMC3     C10756   0.497   2.642  10.160  0.5569 -0.0753 -0.5015
  724TMC3     O10757   0.591   2.599  10.225 -0.2662  0.1396  0.0452
  724TMC3     H10758   0.320   2.800  10.032  0.6611 -1.1400  0.2075
  724TMC3    H110759   0.726   2.774  10.174  0.4442  0.5493  0.8430
  724TMC3    H210760   0.553   3.143  10.008 -2.3909  0.2575  0.2793
  724TMC3    C710761   0.778   3.033  10.141  0.9027 -0.5753  0.7876
  724TMC3    C810762   0.342   3.023   9.936 -0.5966 -0.2678 -0.3971
  724TMC3    O110763   0.768   3.146  10.091 -0.0136  0.1743  0.3599
  724TMC3    O210764   0.278   2.947   9.865 -0.2560 -0.4397 -0.1563
  725TMC3    C110765   1.977   0.939  12.922 -0.0840  0.5288  0.5772
  725TMC3    C210766   1.842   0.935  12.906 -0.4627  0.2108  0.6961
  725TMC3    C310767   1.774   0.835  12.975  0.3244  0.6286  0.7281
  725TMC3    C410768   2.045   0.836  12.972 -0.6492  0.2107 -1.1373
  725TMC3    C510769   1.977   0.722  13.016 -0.7466  0.1702  0.1763
  725TMC3    C610770   1.837   0.729  13.028  0.1844  0.4463  0.2784
  725TMC3     C10771   2.050   1.045  12.846  0.0990 -0.9024  0.0681
  725TMC3     O10772   1.987   1.145  12.823 -0.9667 -0.0969 -0.9534
  725TMC3     H10773   1.793   1.028  12.881  0.4444 -0.1100 -2.2471
  725TMC3    H110774   2.152   0.823  12.984 -0.5832 -1.6484 -3.7288
  725TMC3    H210775   1.781   0.641  13.059  0.6932  0.8974  2.4237
  725TMC3    C710776   2.034   0.603  12.951 -0.6398  0.6811 -0.1410
  725TMC3    C810777   1.630   0.833  12.966  0.1032  0.1793  0.6033
  725TMC3    O110778   2.128   0.622  12.876 -0.0683 -0.2530  0.0895
  725TMC3    O210779   1.565   0.775  13.048  0.0198  0.0266  0.5716
  726MPD2     C10780   4.254   2.451  10.139 -0.6179 -0.1402  0.5232
  726MPD2    C110781   4.131   2.488  10.084  0.1289 -0.5858 -0.3128
  726MPD2    C210782   4.026   2.402  10.098 -0.2182  0.7404 -0.0390
  726MPD2    C310783   4.046   2.281  10.166  0.1610  0.4056 -0.1635
  726MPD2    C410784   4.176   2.239  10.192  0.9326 -0.2177 -0.4005
  726MPD2    C510785   4.276   2.325  10.184 -0.0496 -0.0473  0.3136
  726MPD2     H10786   3.926   2.435  10.070 -1.8241 -2.4263  2.0440
  726MPD2    H110787   4.201   2.145  10.240 -1.6789  0.5642  2.4906
  726MPD2    H210788   4.343   2.509  10.117 -0.6291  0.3019  1.6391
  726MPD2    H310789   4.368   2.302  10.236 -0.0072  4.1862  2.2000
  726MPD2     N10790   3.939   2.192  10.204 -0.0510 -0.4389 -0.4208
  726MPD2    H510791   3.954   2.118  10.273 -0.2527 -0.3129 -0.2399
  726MPD2    N110792   4.116   2.622  10.017  0.2373 -0.3486 -0.1444
  726MPD2    H710793   4.028   2.642   9.970 -0.4225 -1.1520  0.7575
  727TMC3    C110794   4.164   2.850   9.959 -0.0644  0.8757  0.8694
  727TMC3    C210795   4.195   2.970  10.019 -0.3617  0.2474  0.8863
  727TMC3    C310796   4.120   3.079   9.993 -0.3922  0.5441  1.3092
  727TMC3    C410797   4.050   2.839   9.870 -0.1761  0.2568  0.0349
  727TMC3    C510798   3.984   2.954   9.845 -0.0442  0.1340 -0.0805
  727TMC3    C610799   4.016   3.068   9.907 -0.2714  1.0450 -0.6240
  727TMC3     C10800   4.209   2.726  10.024 -0.0214  0.1138  0.8173
  727TMC3     O10801   4.302   2.742  10.098 -0.2138 -0.3142 -0.1303
  727TMC3     H10802   4.293   2.993  10.060  0.4452 -0.9283 -0.3716
  727TMC3    H110803   4.037   2.745   9.818 -0.1574  0.9831 -1.2668
  727TMC3    H210804   3.962   3.160   9.885  0.4958  1.4900 -0.6382
  727TMC3    C710805   3.920   2.973   9.722  0.2807 -0.5134  0.1748
  727TMC3    C810806   4.162   3.207  10.053  0.3703 -0.6778 -0.9426
  727TMC3    O110807   3.930   3.084   9.670 -0.5807  0.1514  0.3864
  727TMC3    O210808   4.255   3.203  10.137  0.0367  0.3840  0.0583
  728TMC3    C110809   2.821   0.952  15.246 -0.9204 -0.0541 -0.0536
  728TMC3    C210810   2.922   0.884  15.313 -0.1830  0.8902  0.3041
  728TMC3    C310811   3.043   0.863  15.253 -0.6153  0.0495  0.0679
  728TMC3    C410812   2.831   0.984  15.110  1.0474 -0.7330  0.5343
  728TMC3    C510813   2.950   0.950  15.052  0.0654 -0.2123  0.4900
  728TMC3    C610814   3.064   0.912  15.119 -0.3385 -0.1784 -0.0153
  728TMC3     C10815   2.695   0.985  15.319  0.4074  0.0595  0.1600
  728TMC3     O10816   2.682   0.949  15.435 -0.1005 -0.0077 -0.2800
  728TMC3     H10817   2.908   0.864  15.419  1.3691 -2.5348 -0.1434
  728TMC3    H110818   2.747   0.998  15.043  0.4924 -0.7776  1.2226
  728TMC3    H210819   3.159   0.892  15.071 -0.6831  1.6511 -1.4709
  728TMC3    C710820   2.955   0.950  14.910 -1.0259 -0.0315  0.8796
  728TMC3    C810821   3.135   0.773  15.316 -0.6296  0.2362 -0.6303
  728TMC3    O110822   2.844   0.939  14.854  0.0385  0.1555 -0.4144
  728TMC3    O210823   3.100   0.691  15.398 -0.2893 -0.0815 -0.3790
  729MPD2     C10824   0.893   1.899  16.691 -0.5650 -0.5412 -0.2422
  729MPD2    C110825   0.863   2.030  16.652  0.0813 -0.3527 -0.5632
  729MPD2    C210826   0.828   2.117  16.749 -0.4488 -0.0384 -0.2886
  729MPD2    C310827   0.817   2.081  16.885 -0.2300  0.0250  0.0162
  729MPD2    C410828   0.853   1.954  16.922  0.2377  0.0696  0.1753
  729MPD2    C510829   0.885   1.866  16.824 -0.6227 -1.0153 -0.0891
  729MPD2     H10830   0.796   2.218  16.727 -0.9529 -0.6566 -2.3764
  729MPD2    H110831   0.842   1.917  17.023 -0.6063  1.8448  0.7275
  729MPD2    H210832   0.919   1.817  16.625 -1.5248 -0.8741 -0.2022
  729MPD2    H310833   0.897   1.760  16.845  1.9367 -0.2254  2.4999
  729MPD2     N10834   0.758   2.156  16.983  1.3040  0.8777 -0.1444
  729MPD2    H510835   0.756   2.118  17.077 -0.3293 -0.0361 -0.5414
  729MPD2    N110836   0.869   2.073  16.520 -0.5579 -0.5199 -0.3517
  729MPD2    H710837   0.912   2.005  16.457 -0.0577 -1.9629  1.5510
  730TMC3    C110838   0.678   2.345  17.094  0.6068 -0.1127 -0.7166
  730TMC3    C210839   0.588   2.289  17.177  0.9881  0.6915  0.2707
  730TMC3    C310840   0.518   2.365  17.263  0.0565 -0.1290 -0.2732
  730TMC3    C410841   0.696   2.475  17.086  0.2549 -0.5135 -0.6081
  730TMC3    C510842   0.627   2.551  17.186 -0.5769 -0.5317  0.9833
  730TMC3    C610843   0.543   2.501  17.273 -0.5947  0.1383  0.2901
  730TMC3     C10844   0.712   2.284  16.972 -0.3811  0.3500 -0.1539
  730TMC3     O10845   0.730   2.363  16.879 -0.1159  0.0744  0.1583
  730TMC3     H10846   0.580   2.181  17.176 -0.6043  0.8075 -1.2602
  730TMC3    H110847   0.770   2.524  17.023  0.7465 -1.8664 -1.0759
  730TMC3    H210848   0.497   2.562  17.349 -2.8841 -0.3170 -0.7193
  730TMC3    C710849   0.643   2.691  17.159  0.0868 -0.7011  0.0573
  730TMC3    C810850   0.444   2.284  17.355  0.4959 -0.1159 -0.6573
  730TMC3    O110851   0.646   2.711  17.040  0.0847  0.1697  0.1874
  730TMC3    O210852   0.409   2.172  17.317  0.1399 -0.2353  0.0266
  731MPD2     C10853   0.466   4.672  12.235  0.4536  0.3676 -0.1385
  731MPD2    C110854   0.567   4.609  12.306  0.4447 -0.3890  0.4338
  731MPD2    C210855   0.553   4.577  12.443  0.1690 -0.6947 -0.3668
  731MPD2    C310856   0.446   4.623  12.516  0.2583 -0.5511 -0.3279
  731MPD2    C410857   0.339   4.677  12.445 -0.1458 -0.1848 -0.6426
  731MPD2    C510858   0.349   4.702  12.311  0.1558  0.4358  0.3820
  731MPD2     H10859   0.623   4.516  12.499  1.8064 -0.3655 -2.0867
  731MPD2    H110860   0.252   4.716  12.498  1.4070  1.2702  0.8403
  731MPD2    H210861   0.477   4.707  12.133  0.6361  1.6892  0.3320
  731MPD2    H310862   0.276   0.028  12.261 -1.2501 -0.4372  1.3149
  731MPD2     N10863   0.443   4.594  12.653 -0.1271 -0.1661  0.4215
  731MPD2    H510864   0.534   4.569  12.690 -0.2866  0.5988  1.3392
  731MPD2    N110865   0.686   4.592  12.235  0.1208 -0.3713 -0.7669
  731MPD2    H710866   0.704   4.630  12.142  0.5343 -1.1190 -0.9922
  732TMC3    C110867   0.922   4.566  12.218  0.0793 -0.3867  0.3096
  732TMC3    C210868   0.917   4.606  12.086 -1.3002  0.0804 -0.0836
  732TMC3    C310869   1.027   4.660  12.026 -0.2321  0.6330  0.2229
  732TMC3    C410870   1.032   4.594  12.296 -0.2620  0.1696 -0.6358
  732TMC3    C510871   1.140   4.647  12.231 -0.5278 -0.1750  0.8212
  732TMC3    C610872   1.142   4.673  12.097  0.5504  0.3109 -0.0987
  732TMC3     C10873   0.799   4.538  12.288 -1.2180 -1.1703 -0.4168
  732TMC3     O10874   0.818   4.479  12.395  0.4513  0.3668 -0.1937
  732TMC3     H10875   0.833   4.577  12.023 -2.7048 -0.3607  1.9969
  732TMC3    H110876   1.034   4.562  12.399 -2.0982  0.4143 -0.5202
  732TMC3    H210877   1.220   0.002  12.061  0.1402  0.9854  0.2579
  732TMC3    C710878   1.222   4.718  12.328  0.0807  0.5926 -0.6597
  732TMC3    C810879   1.009   4.727  11.898 -0.4011 -0.0535 -0.1678
  732TMC3    O110880   1.158   0.014  12.430  0.4308 -0.1116  0.4051
  732TMC3    O210881   1.118   0.018  11.846  0.3377  0.5356  0.1268
  733TMC3    C110882   2.236   3.412  12.894 -0.6328  0.1205 -0.1887
  733TMC3    C210883   2.208   3.544  12.920 -0.2185  0.6341  0.4122
  733TMC3    C310884   2.301   3.641  12.890 -0.1246  0.0821 -0.7267
  733TMC3    C410885   2.343   3.379  12.807  0.3841 -0.1378  0.5566
  733TMC3    C510886   2.427   3.479  12.781  0.2627 -0.9540 -0.6820
  733TMC3    C610887   2.415   3.608  12.826  0.7716 -0.2500  0.5647
  733TMC3     C10888   2.131   3.314  12.885 -0.0501  0.8638 -0.1551
  733TMC3     O10889   2.163   3.196  12.901 -0.1346 -0.6363  0.4657
  733TMC3     H10890   2.116   3.568  12.972 -0.3925 -0.6862  0.7145
  733TMC3    H110891   2.352   3.289  12.747 -0.7413 -0.4449  0.8474
  733TMC3    H210892   2.485   3.681  12.789 -0.3455  0.6177  0.1716
  733TMC3    C710893   2.460   3.474  12.642  0.0386 -0.1962  0.4627
  733TMC3    C810894   2.250   3.766  12.843  0.3006 -0.0211  0.0778
  733TMC3    O110895   2.512   3.372  12.599  0.1251  0.6297  1.3978
  733TMC3    O210896   2.309   3.805  12.744  0.4503  0.1254  0.1643
  734MPD2     C10897   4.129   1.909  12.391 -0.5662  0.9573  0.8025
  734MPD2    C110898   4.044   1.858  12.301  0.6048  0.6817  0.5970
  734MPD2    C210899   4.085   1.839  12.169  0.1905 -0.7791  0.2473
  734MPD2    C310900   4.219   1.856  12.136  0.0988 -0.4943 -0.3766
  734MPD2    C410901   4.306   1.912  12.226 -0.3225  0.1260  0.6007
  734MPD2    C510902   4.256   1.947  12.353  0.4852 -0.1856 -0.1234
  734MPD2     H10903   4.024   1.806  12.086  0.0740  0.3951 -0.1413
  734MPD2    H110904   4.408   1.936  12.197 -0.4308 -0.6451 -0.4258
  734MPD2    H210905   4.091   1.932  12.490 -0.7923 -1.2863  1.2311
  734MPD2    H310906   4.317   1.997  12.428  1.6385 -1.4412 -0.2126
  734MPD2     N10907   4.250   1.800  12.013 -0.2552 -0.3361  0.3505
  734MPD2    H510908   4.166   1.770  11.966  1.4304 -3.7001 -0.5217
  734MPD2    N110909   3.908   1.835  12.351 -0.8869 -0.6454 -0.2544
  734MPD2    H710910   3.892   1.859  12.448 -3.7584 -2.0775 -0.3654
  735TMC3    C110911   3.712   1.706  12.350 -0.3037  0.5277 -0.2019
  735TMC3    C210912   3.619   1.670  12.256  0.3026 -0.5505  0.4426
  735TMC3    C310913   3.573   1.545  12.251 -0.0059 -0.6439 -1.1205
  735TMC3    C410914   3.773   1.611  12.430 -0.1595 -0.3887 -0.1754
  735TMC3    C510915   3.742   1.477  12.400  0.0396 -0.1982 -0.0933
  735TMC3    C610916   3.629   1.456  12.330  0.1044 -1.0243  0.5981
  735TMC3     C10917   3.815   1.776  12.278 -0.1145 -0.5997  0.1436
  735TMC3     O10918   3.809   1.753  12.155 -0.4506  0.2837  0.3214
  735TMC3     H10919   3.576   1.744  12.191  1.5220 -0.3410 -0.1237
  735TMC3    H110920   3.864   1.631  12.485 -1.5636  0.2234  1.9439
  735TMC3    H210921   3.614   1.349  12.317 -0.4190 -0.9346  0.4307
  735TMC3    C710922   3.846   1.386  12.361  0.1484 -0.1968  0.8787
  735TMC3    C810923   3.563   1.487  12.122 -0.3894  0.5165 -0.4655
  735TMC3    O110924   3.937   1.419  12.285  0.2722  0.1229 -0.1416
  735TMC3    O210925   3.500   1.380  12.111  0.1084 -0.7092 -0.6187
  736MPD2     C10926   3.916   1.042  12.457 -0.1647 -0.6020 -0.2210
  736MPD2    C110927   3.901   1.144  12.374  0.3039  0.4201  0.6955
  736MPD2    C210928   3.953   1.135  12.246  0.0649 -0.0921  0.6146
  736MPD2    C310929   4.018   1.020  12.207 -0.5082  0.2746  0.4132
  736MPD2    C410930   4.036   0.920  12.299  0.0941 -1.5535  0.2372
  736MPD2    C510931   3.988   0.934  12.422  1.0291  0.3926  0.6834
  736MPD2     H10932   3.936   1.207  12.167 -1.4667 -0.8156  0.2948
  736MPD2    H110933   4.086   0.831  12.262  0.0107 -2.1187  1.4732
  736MPD2    H210934   3.864   1.047  12.552 -1.0595 -0.0267 -0.7406
  736MPD2    H310935   3.997   0.859  12.500 -1.3635  2.2849  2.7920
  736MPD2     N10936   4.073   0.996  12.080  0.4832  0.2299 -0.4058
  736MPD2    H510937   4.103   0.902  12.056  0.3765 -0.1471  0.9400
  736MPD2    N110938   3.825   1.259  12.418  0.0565 -0.4701 -0.1237
  736MPD2    H710939   3.762   1.252  12.498 -0.8135 -1.1162 -0.8694
  737TMC3    C110940   4.164   1.065  11.875  1.1138 -0.6457 -0.0224
  737TMC3    C210941   4.226   1.169  11.811 -0.3278 -0.2947 -0.6460
  737TMC3    C310942   4.309   1.133  11.704  0.1015  0.2557 -1.0785
  737TMC3    C410943   4.206   0.937  11.859  0.2829 -0.1730 -0.4514
  737TMC3    C510944   4.290   0.901  11.761 -0.4803  0.2015  0.2006
  737TMC3    C610945   4.342   1.005  11.680  0.0942  0.2910  0.1657
  737TMC3     C10946   4.101   1.104  11.997 -0.0597  1.0742  0.1622
  737TMC3     O10947   4.095   1.228  12.015 -0.1154  0.0210  0.1162
  737TMC3     H10948   4.202   1.275  11.817 -0.3216 -0.3699  0.6382
  737TMC3    H110949   4.166   0.851  11.912 -0.5954  0.9451  0.6661
  737TMC3    H210950   4.426   0.983  11.614 -1.3299  0.2399 -1.6193
  737TMC3    C710951   4.325   0.765  11.740 -0.1122 -0.2907  0.3089
  737TMC3    C810952   4.381   1.236  11.646  0.5975  0.2871  0.0089
  737TMC3    O110953   4.269   0.671  11.798  0.4260  0.3365 -0.2778
  737TMC3    O210954   4.409   1.327  11.719 -0.4784  0.0252  0.3520
  738MPD2     C10955   4.319   4.613  14.845  1.0081  0.9020 -0.7334
  738MPD2    C110956   4.390   4.501  14.798 -0.1804  1.3951  0.1203
  738MPD2    C210957   4.479   4.517  14.695  0.2308  0.5914 -0.6677
  738MPD2    C310958   4.491   4.635  14.630 -0.2145  0.3868 -0.5612
  738MPD2    C410959   4.402   0.007  14.668 -0.1990 -0.2056 -0.1774
  738MPD2    C510960   4.322   4.729  14.773  0.2261  0.3086  1.0174
  738MPD2     H10961   4.534   4.427  14.670 -2.3140 -1.1681  0.1295
  738MPD2    H110962   4.393   0.100  14.613 -2.6683 -1.0500 -1.1977
  738MPD2    H210963   4.258   4.613  14.934  2.1558 -0.9181  0.0650
  738MPD2    H310964   4.268   0.072  14.820  0.2006 -0.7527  2.7889
  738MPD2     N10965   4.587   4.670  14.540  0.4214  0.2006 -0.0931
  738MPD2    H510966   4.582   0.024  14.495 -0.8172 -1.0376 -2.4991
  738MPD2    N110967   4.364   4.378  14.854  0.7138 -0.6152 -0.0229
  738MPD2    H710968   4.418   4.299  14.822 -3.3078 -2.9612 -0.9635
  739TMC3    C110969   0.046   4.655  14.416 -0.7521 -0.0207 -0.2638
  739TMC3    C210970   4.725   4.714  14.312 -0.3426 -0.0969 -0.3091
  739TMC3    C310971   0.067   0.046  14.230  0.0556  0.1974  0.4316
  739TMC3    C410972   0.172   4.675  14.462 -0.1626  0.9224 -0.8908
  739TMC3    C510973   0.241   0.031  14.389  0.5033  0.4649 -0.2425
  739TMC3    C610974   0.202   0.076  14.262  0.5202 -0.7343  0.3178
  739TMC3     C10975   4.697   4.595  14.515 -0.4072 -0.3039 -0.4827
  739TMC3     O10976   4.736   4.494  14.567  1.0605 -0.0283  0.2354
  739TMC3     H10977   4.624   4.690  14.279  0.1733  0.6087 -2.4299
  739TMC3    H110978   0.219   4.631  14.549 -1.1542  0.1937 -0.7068
  739TMC3    H210979   0.263   0.131  14.190 -1.7564 -0.4334 -1.3999
  739TMC3    C710980   0.357   0.083  14.450 -0.4760  0.0666  0.3629
  739TMC3    C810981   0.023   0.075  14.094 -0.4857 -0.3329 -1.3367
  739TMC3    O110982   0.415   0.020  14.539  0.0544 -0.5978  0.9557
  739TMC3    O210983   4.666   0.012  14.054  0.2118 -0.5654 -0.1905
  740TMC3    C110984   0.028   1.433  14.108  0.5899 -0.0145 -0.2129
  740TMC3    C210985   0.021   1.489  14.233 -0.0489 -0.3080 -0.0392
  740TMC3    C310986   0.124   1.481  14.323 -0.5410 -0.9225 -0.7230
  740TMC3    C410987   0.136   1.359  14.076  0.0557  0.2982 -0.0430
  740TMC3    C510988   0.246   1.363  14.153  0.3902 -0.2297 -0.1783
  740TMC3    C610989   0.243   1.422  14.281 -0.0839  0.4530  0.2583
  740TMC3     C10990   4.644   1.378  14.049  0.5261  0.4158 -0.1525
  740TMC3     O10991   4.650   1.352  13.926  0.2493  0.0605 -0.2232
  740TMC3     H10992   4.668   1.549  14.237  0.5548  0.4810  1.5847
  740TMC3    H110993   0.134   1.307  13.981  0.4460 -0.2617  0.2566
  740TMC3    H210994   0.335   1.427  14.338 -1.2595 -1.3683  2.3106
  740TMC3    C710995   0.351   1.285  14.111 -0.4685  1.0628 -0.1931
  740TMC3    C810996   0.129   1.593  14.412  0.1135 -0.1400  0.0155
  740TMC3    O110997   0.421   1.253  14.209 -0.1178  0.2621  0.5173
  740TMC3    O210998   0.054   1.685  14.387  0.3656  0.1185 -0.2062
  741TMC3    C110999   4.395   0.571  13.603  0.9815  0.3610 -0.0926
  741TMC3    C211000   4.344   0.446  13.592 -0.4508 -0.4259 -0.5603
  741TMC3    C311001   4.389   0.354  13.685 -0.2872  0.5150  0.3727
  741TMC3    C411002   4.478   0.616  13.699  0.2361 -0.0725  0.2482
  741TMC3    C511003   4.518   0.523  13.798  0.6467 -0.2282  0.1439
  741TMC3    C611004   4.468   0.391  13.794 -0.0986 -0.4320  0.0725
  741TMC3     C11005   4.363   0.662  13.491  1.0204 -0.0756  0.4821
  741TMC3     O11006   4.456   0.728  13.445 -0.6269 -0.7328  0.5036
  741TMC3     H11007   4.263   0.426  13.523 -0.7760 -0.1955 -0.2423
  741TMC3    H111008   4.507   0.720  13.693  0.8405 -0.2714 -0.2623
  741TMC3    H211009   4.510   0.326  13.870 -1.2746 -1.1498  0.1201
  741TMC3    C711010   4.608   0.561  13.905 -0.8003 -0.0468 -0.2794
  741TMC3    C811011   4.329   0.224  13.675 -0.2900 -0.2127  0.2342
  741TMC3    O111012   4.599   0.503  14.014  0.6910 -0.0724  0.9501
  741TMC3    O211013   4.234   0.207  13.602  0.2091  0.5214  0.1903
  742TMC3    C111014   4.608   3.420  15.173  0.0281 -0.0853  0.3717
  742TMC3    C211015   4.549   3.404  15.054  0.3514  0.1681  0.5497
  742TMC3    C311016   4.616   3.334  14.954  0.4341  0.0142  0.1941
  742TMC3    C411017   4.737   3.369  15.190 -0.1088 -0.3865 -0.2910
  742TMC3    C511018   0.058   3.290  15.092  0.3940 -0.8121 -0.0775
  742TMC3    C611019   0.000   3.281  14.970 -0.1505 -0.6028 -0.8970
  742TMC3     C11020   4.524   3.466  15.289  0.0010  0.2348 -0.1279
  742TMC3     O11021   4.421   3.527  15.256  0.0814 -0.2580 -0.0397
  742TMC3     H11022   4.443   3.428  15.049 -0.3820 -3.0837  0.4406
  742TMC3    H111023   0.048   3.381  15.286 -0.7806  1.0713 -0.1284
  742TMC3    H211024   0.048   3.226  14.889 -0.1896 -0.2839 -1.1342
  742TMC3    C711025   0.202   3.243  15.098  0.7596  0.0649  0.0334
  742TMC3    C811026   4.548   3.293  14.827 -0.6231 -0.2029  0.0176
  742TMC3    O111027   0.237   3.176  15.002 -0.3843 -0.0701 -0.8700
  742TMC3    O211028   4.616   3.224  14.752 -0.0852  0.5669 -0.3040
  743MPD2     C11029   1.873   4.600   1.295  0.5310  0.5390 -0.1200
  743MPD2    C111030   1.924   4.596   1.165  0.1238 -0.6248 -0.1797
  743MPD2    C211031   2.062   4.625   1.144  0.1594  0.0976  0.1339
  743MPD2    C311032   2.145   4.654   1.250  0.9607 -0.1941 -0.2077
  743MPD2    C411033   2.091   4.646   1.381 -0.4032 -0.0700 -0.0072
  743MPD2    C511034   1.954   4.621   1.400  0.0058 -0.5732 -0.3527
  743MPD2     H11035   2.108   4.631   1.046  0.9441 -0.9520  0.4362
  743MPD2    H111036   2.137   4.669   1.476  0.6595 -1.3829 -0.1951
  743MPD2    H211037   1.779   4.548   1.311  1.2497 -1.1356 -1.2785
  743MPD2    H311038   1.898   4.610   1.492 -1.2018 -0.7747 -1.1212
  743MPD2     N11039   2.277   4.697   1.223  0.2275  0.7564 -0.4584
  743MPD2    H511040   2.307   4.709   1.126  1.1388 -1.2674 -0.4423
  743MPD2    N111041   1.854   4.535   1.067 -0.0199  0.3262 -0.5492
  743MPD2    H711042   1.760   4.513   1.099  0.0926  2.2720  1.1615
  744TMC3    C111043   1.799   4.428   0.867 -0.2006 -0.2768 -0.2433
  744TMC3    C211044   1.723   4.331   0.932  0.1470 -0.0502  0.7360
  744TMC3    C311045   1.689   4.211   0.869  0.4733  0.2280 -0.9587
  744TMC3    C411046   1.844   4.404   0.743  0.2827  0.5944  0.5938
  744TMC3    C511047   1.803   4.288   0.675  0.9762  0.3652  0.0352
  744TMC3    C611048   1.725   4.190   0.739 -0.1656 -1.0943  0.6338
  744TMC3     C11049   1.892   4.511   0.944  0.2317  0.5034  0.0327
  744TMC3     O11050   1.982   4.566   0.875  0.2149 -0.2817  0.5008
  744TMC3     H11051   1.706   4.337   1.039 -2.9626  1.5599  0.1556
  744TMC3    H111052   1.893   4.478   0.680 -0.4028 -0.5361 -1.2608
  744TMC3    H211053   1.696   4.104   0.679 -1.3254  1.0164 -1.8546
  744TMC3    C711054   1.887   4.250   0.564  0.4515 -0.1876 -0.2458
  744TMC3    C811055   1.596   4.120   0.930  0.0650  0.0577  0.5033
  744TMC3    O111056   1.997   4.307   0.564  0.2915  0.3206 -0.4030
  744TMC3    O211057   1.585   4.148   1.047  0.0217  0.0606 -0.3004
  745TMC3    C111058   0.681   3.042  13.119 -0.2291 -0.0791  0.4151
  745TMC3    C211059   0.577   3.001  13.201 -0.0705  0.4055 -0.2894
  745TMC3    C311060   0.449   3.043  13.178 -0.2278  0.3372  0.8318
  745TMC3    C411061   0.650   3.103  12.999  0.6776  0.1948  1.6068
  745TMC3    C511062   0.523   3.141  12.979  0.3256  0.1478 -1.1977
  745TMC3    C611063   0.421   3.109  13.063  0.4695  0.0591 -0.5715
  745TMC3     C11064   0.784   3.115  13.183  0.6980 -0.1372  0.0418
  745TMC3     O11065   0.879   3.138  13.110  0.1321  0.8858 -0.6414
  745TMC3     H11066   0.591   2.936  13.286  0.8016  0.1215 -0.6398
  745TMC3    H111067   0.735   3.120  12.933 -0.6783 -1.0341 -0.4390
  745TMC3    H211068   0.325   3.158  13.047 -0.5488 -1.1027  2.0833
  745TMC3    C711069   0.505   3.246  12.879 -0.7262  0.1970  0.0658
  745TMC3    C811070   0.368   3.073  13.299  0.7136  0.4618  1.4833
  745TMC3    O111071   0.393   3.284  12.845 -0.0789 -0.1041 -0.4597
  745TMC3    O211072   0.262   3.133  13.285 -0.4132  1.0601 -0.3436
  746TMC3    C111073   3.100   0.142  10.973 -0.3990  0.4776 -0.2965
  746TMC3    C211074   3.143   0.128  10.843  0.1096 -0.5784  0.0959
  746TMC3    C311075   3.083   0.030  10.763  0.7320  1.0073  0.0703
  746TMC3    C411076   3.003   0.058  11.014 -0.3531  0.1474  0.0820
  746TMC3    C511077   2.935   4.712  10.930  0.5497  0.7172 -0.1601
  746TMC3    C611078   2.977   4.695  10.805 -0.4897 -0.2674 -0.6543
  746TMC3     C11079   3.113   0.270  11.036 -0.0399  0.8503 -0.1540
  746TMC3     O11080   3.022   0.316  11.099 -0.2515 -0.0050 -0.2835
  746TMC3     H11081   3.219   0.195  10.805 -0.0241 -1.2541 -1.3576
  746TMC3    H111082   2.965   0.083  11.112 -0.4655  0.0593  0.0609
  746TMC3    H211083   2.934   4.623  10.737 -1.4409 -1.0976  0.8122
  746TMC3    C711084   2.794   4.673  10.951  0.0222 -0.5728  0.5129
  746TMC3    C811085   3.113   0.009  10.630 -1.0281  0.3634  0.5970
  746TMC3    O111086   2.742   4.602  10.863  0.3743 -0.5621 -0.0926
  746TMC3    O211087   3.114   4.631  10.587  0.2863  0.0288 -0.3167
  747TMC3    C111088   0.255   0.767  11.052 -0.3906  0.4604 -0.1333
  747TMC3    C211089   0.164   0.685  11.120  0.8553  0.7877 -0.5812
  747TMC3    C311090   0.222   0.599  11.213  0.0290 -0.6041  0.1547
  747TMC3    C411091   0.389   0.789  11.087  0.3946  0.1934  0.6507
  747TMC3    C511092   0.434   0.710  11.187 -0.2331  0.5921  0.2320
  747TMC3    C611093   0.360   0.608  11.247  0.1643 -0.6005 -0.4844
  747TMC3     C11094   0.202   0.850  10.948  0.1106 -0.2707 -0.3331
  747TMC3     O11095   0.258   0.959  10.932 -0.2049 -0.0888  0.1639
  747TMC3     H11096   0.059   0.677  11.097  0.7481  1.4593 -0.3081
  747TMC3    H111097   0.453   0.866  11.046  0.2589 -0.5030 -0.8624
  747TMC3    H211098   0.403   0.545  11.324  1.5955  0.3828 -0.4717
  747TMC3    C711099   0.577   0.720  11.223 -0.0314 -0.1825  0.4283
  747TMC3    C811100   0.142   0.527  11.306 -0.4779 -0.2761 -0.6284
  747TMC3    O111101   0.622   0.831  11.238  0.9558  0.0783  0.4565
  747TMC3    O211102   0.188   0.422  11.347  0.4011  0.1253  0.2692
  748MPD2     C11103   1.326   0.898   1.425  0.1765  0.0589 -0.2114
  748MPD2    C111104   1.438   0.951   1.477 -0.0099 -0.1372 -0.1540
  748MPD2    C211105   1.562   0.932   1.426 -0.8207 -0.0010  0.7762
  748MPD2    C311106   1.576   0.859   1.313 -0.7161 -0.9761  0.1653
  748MPD2    C411107   1.464   0.801   1.252  0.0671  0.4293 -0.6630
  748MPD2    C511108   1.342   0.819   1.308  0.0116  0.3248  0.4057
  748MPD2     H11109   1.647   0.978   1.474 -0.5130  2.0318 -1.7197
  748MPD2    H111110   1.465   0.753   1.155 -0.3784  0.6314 -0.7705
  748MPD2    H211111   1.228   0.925   1.463  0.6271 -0.1898  1.1486
  748MPD2    H311112   1.252   0.781   1.261 -0.5882  0.8380  1.1332
  748MPD2     N11113   1.704   0.830   1.259  0.0317  0.0928  0.7017
  748MPD2    H511114   1.713   0.769   1.179 -1.8108 -0.2249  0.7462
  748MPD2    N111115   1.413   1.033   1.591 -0.0679  0.2785 -0.0822
  748MPD2    H711116   1.316   1.042   1.621  0.1523  1.7119  0.1748
  749TMC3    C111117   1.939   0.811   1.231  0.2018  0.3034  0.5602
  749TMC3    C211118   2.052   0.750   1.280  0.0348  0.1540  0.8283
  749TMC3    C311119   2.156   0.718   1.197 -0.5549  0.1793  0.1390
  749TMC3    C411120   1.933   0.849   1.104  0.4898  0.1785 -0.1962
  749TMC3    C511121   2.040   0.822   1.024 -0.2467  0.2272 -0.0375
  749TMC3    C611122   2.148   0.747   1.063  0.3744  0.4273  0.5435
  749TMC3     C11123   1.828   0.856   1.318  0.5653  0.1685  0.3737
  749TMC3     O11124   1.848   0.876   1.439 -0.4271 -0.4539  0.3802
  749TMC3     H11125   2.043   0.707   1.379 -1.6824  1.2697  1.1742
  749TMC3    H111126   1.864   0.928   1.074 -0.0594  0.1211  0.9043
  749TMC3    H211127   2.238   0.754   1.003 -0.6895  0.7587 -1.0210
  749TMC3    C711128   2.069   0.914   0.916  0.2550  0.0278  0.5664
  749TMC3    C811129   2.282   0.669   1.262  0.5932  0.4209  0.4867
  749TMC3    O111130   2.046   1.029   0.938  0.1929  0.8201 -0.2100
  749TMC3    O211131   2.273   0.665   1.384 -0.1324  0.7100  0.6446
  750MPD2     C11132   3.476   2.255  11.115 -0.0183  0.3789 -0.2608
  750MPD2    C111133   3.347   2.222  11.156 -0.0434  0.3920 -0.6446
  750MPD2    C211134   3.300   2.103  11.103 -0.6365  0.0127  0.6025
  750MPD2    C311135   3.369   2.014  11.025 -0.2821  0.1299 -0.0996
  750MPD2    C411136   3.495   2.058  10.989  0.3467 -0.2961  0.5919
  750MPD2    C511137   3.546   2.178  11.036  0.5377 -0.7874 -0.1120
  750MPD2     H11138   3.197   2.075  11.117 -0.1716 -1.1325  1.6091
  750MPD2    H111139   3.557   1.991  10.932 -4.0680 -2.7380 -1.3481
  750MPD2    H211140   3.516   2.349  11.150  1.1982  0.9338 -3.0907
  750MPD2    H311141   3.645   2.208  11.005 -0.5715  0.7175 -2.1665
  750MPD2     N11142   3.322   1.893  10.973 -0.2223  0.2710  0.0773
  750MPD2    H511143   3.394   1.834  10.932  1.6857  3.4607 -1.1748
  750MPD2    N111144   3.269   2.311  11.239 -0.1457 -0.4562  0.2870
  750MPD2    H711145   3.304   2.406  11.245 -1.9138  0.2038  0.0624
  751TMC3    C111146   3.206   1.689  10.985 -0.6323  0.2011  0.0047
  751TMC3    C211147   3.084   1.618  10.993  0.8106  0.6332 -0.1483
  751TMC3    C311148   3.081   1.485  11.022  0.1780 -0.1880 -0.1054
  751TMC3    C411149   3.325   1.625  10.989  0.3246 -0.5822 -0.3799
  751TMC3    C511150   3.314   1.489  11.025 -0.6571 -0.5006 -0.0360
  751TMC3    C611151   3.195   1.422  11.028  0.0610 -0.3456 -0.5230
  751TMC3     C11152   3.203   1.834  11.005  0.6252 -0.9476 -0.7363
  751TMC3     O11153   3.092   1.886  11.018 -0.3529 -0.5214 -0.1456
  751TMC3     H11154   2.996   1.681  10.997 -0.0590 -0.6408  1.1177
  751TMC3    H111155   3.423   1.670  10.985  0.0216 -0.0745 -2.0326
  751TMC3    H211156   3.191   1.313  11.033  0.7961 -0.5335 -3.9831
  751TMC3    C711157   3.434   1.410  10.988  0.7149  0.0509 -0.0353
  751TMC3    C811158   2.963   1.398  11.019  0.2119  0.0097  0.2933
  751TMC3    O111159   3.503   1.448  10.898  0.6651 -0.0951 -0.4419
  751TMC3    O211160   2.970   1.276  11.015  0.4270 -0.6541 -0.2047
  752TMC3    C111161   1.536   1.386  16.346 -0.0956  0.5382  0.3129
  752TMC3    C211162   1.610   1.269  16.336  0.0683 -0.2197  0.5700
  752TMC3    C311163   1.687   1.235  16.442  0.0671 -0.0145  0.3616
  752TMC3    C411164   1.519   1.445  16.471  0.2584  0.2701  0.3815
  752TMC3    C511165   1.601   1.404  16.577 -0.2849  0.6252 -1.0643
  752TMC3    C611166   1.691   1.301  16.559  0.3947 -0.3007 -0.5866
  752TMC3     C11167   1.509   1.462  16.221  0.4802 -0.7600 -0.7207
  752TMC3     O11168   1.573   1.423  16.125 -0.3127  0.0636  0.1408
  752TMC3     H11169   1.624   1.228  16.237 -0.0435 -1.3929  1.0484
  752TMC3    H111170   1.458   1.534  16.485 -0.9907 -0.7710  1.6131
  752TMC3    H211171   1.759   1.291  16.643 -1.4063  2.0434  1.1626
  752TMC3    C711172   1.580   1.461  16.711 -0.3573  0.0540 -0.0525
  752TMC3    C811173   1.778   1.124  16.421  0.0277  0.4660  0.5583
  752TMC3    O111174   1.621   1.384  16.796 -0.1851 -0.0651 -0.2198
  752TMC3    O211175   1.773   1.073  16.307 -0.5105  0.1757  0.9341
  753TMC3    C111176   3.676   3.001  13.238 -1.0603 -0.2110  0.5627
  753TMC3    C211177   3.783   2.989  13.321 -0.0897  0.6679  0.1459
  753TMC3    C311178   3.813   2.864  13.378 -0.3975 -0.8352 -0.3320
  753TMC3    C411179   3.587   2.899  13.222 -0.3785  0.0170 -0.3653
  753TMC3    C511180   3.620   2.780  13.280  0.2481  0.8536 -0.2917
  753TMC3    C611181   3.731   2.762  13.361  0.4024  0.1382 -0.0234
  753TMC3     C11182   3.617   3.129  13.213 -0.2355  0.1473 -0.1339
  753TMC3     O11183   3.513   3.121  13.148 -0.4954  0.0950  0.0734
  753TMC3     H11184   3.846   3.072  13.350  0.6866 -0.3123  1.2587
  753TMC3    H111185   3.508   2.898  13.148 -1.0656 -1.0085  0.3743
  753TMC3    H211186   3.755   2.665  13.404 -0.3782  0.8362  2.0226
  753TMC3    C711187   3.519   2.677  13.293  0.8113 -0.1502 -0.9605
  753TMC3    C811188   3.913   2.853  13.485 -0.3481 -0.2158 -1.2254
  753TMC3    O111189   3.556   2.561  13.287 -0.1446  0.0835  0.0892
  753TMC3    O211190   3.964   2.744  13.506  0.3380 -0.1443  0.0358
  754MPD2     C11191   2.944   2.191  12.874 -0.2407 -0.0924  0.4099
  754MPD2    C111192   2.963   2.062  12.921  0.6043  0.5321  0.6508
  754MPD2    C211193   2.847   1.980  12.921  0.6248  0.6281 -0.8545
  754MPD2    C311194   2.723   2.028  12.872 -0.3055 -0.6617 -0.1967
  754MPD2    C411195   2.714   2.167  12.850  0.2342  0.7611 -0.1799
  754MPD2    C511196   2.819   2.247  12.858  0.0747 -0.0918 -0.2912
  754MPD2     H11197   2.865   1.876  12.945 -2.0180  0.4558  0.4363
  754MPD2    H111198   2.620   2.220  12.837 -0.2020 -0.7181 -3.1167
  754MPD2    H211199   3.036   2.247  12.867 -0.4869  0.2703  0.1435
  754MPD2    H311200   2.807   2.354  12.855 -3.3060 -0.5303 -3.2531
  754MPD2     N11201   2.599   1.959  12.864 -0.1332 -0.1206  0.3569
  754MPD2    H511202   2.512   2.011  12.864  0.5844  1.0968 -2.8993
  754MPD2    N111203   3.094   2.015  12.968  0.2214 -0.3940 -0.3139
  754MPD2    H711204   3.172   2.065  12.928 -0.2668  1.4189  0.9999
  755MPD2     C11205   1.914   2.229  13.297 -0.5526 -0.0175  0.0730
  755MPD2    C111206   1.885   2.097  13.297 -0.0823  0.1321  0.7552
  755MPD2    C211207   1.960   2.021  13.210 -0.2269 -0.0426 -0.5475
  755MPD2    C311208   2.057   2.074  13.132 -0.3250 -0.3809 -0.2413
  755MPD2    C411209   2.081   2.204  13.139 -0.5602  0.0846 -0.1430
  755MPD2    C511210   2.009   2.289  13.214 -0.4810  0.2311  0.1204
  755MPD2     H11211   1.934   1.916  13.203  1.2564 -0.4190 -0.5506
  755MPD2    H111212   2.161   2.235  13.073 -0.7151 -0.4727 -0.5936
  755MPD2    H211213   1.861   2.301  13.359  0.4243  0.7797 -0.0138
  755MPD2    H311214   2.030   2.395  13.215  1.4382 -0.1527  0.3313
  755MPD2     N11215   2.136   1.998  13.038  0.4121 -0.8019 -0.0630
  755MPD2    H511216   2.223   2.047  13.018 -0.2002  0.7239  1.0381
  755MPD2    N111217   1.803   2.033  13.390 -0.1452  0.1526  0.6268
  755MPD2    H711218   1.810   1.932  13.395  0.1028  0.1551  0.3389
  756MPD2     C11219   2.421   3.238   9.879 -0.4917  0.2864  0.0215
  756MPD2    C111220   2.393   3.164   9.987  0.3827 -0.8762 -0.0323
  756MPD2    C211221   2.259   3.133  10.003  0.1122  0.6533  0.7216
  756MPD2    C311222   2.160   3.181   9.925  0.5236 -0.1502 -0.3884
  756MPD2    C411223   2.189   3.257   9.810 -0.2227  0.4415  0.2407
  756MPD2    C511224   2.324   3.290   9.792  0.0513 -0.2326  0.0570
  756MPD2     H11225   2.237   3.071  10.089 -0.2993 -1.2171 -0.7405
  756MPD2    H111226   2.112   3.273   9.735  0.1333 -0.1372 -0.2472
  756MPD2    H211227   2.525   3.252   9.852 -0.5707 -0.6024 -0.7406
  756MPD2    H311228   2.339   3.360   9.711 -2.1170  0.0711 -0.0774
  756MPD2     N11229   2.024   3.154   9.956  0.1588  0.4080  0.2241
  756MPD2    H511230   2.010   3.096  10.038  1.1270 -0.5513 -0.2939
  756MPD2    N111231   2.493   3.131  10.080 -0.0821 -0.2773 -0.8284
  756MPD2    H711232   2.453   3.090  10.164 -0.6703  0.4292 -0.7653
  757MPD2     C11233   1.695   2.435  10.315 -0.3213 -0.2230 -1.1778
  757MPD2    C111234   1.806   2.483  10.246 -0.0152  0.0498  0.0698
  757MPD2    C211235   1.793   2.611  10.198  0.7780 -0.4759 -0.5652
  757MPD2    C311236   1.680   2.688  10.199  0.2050 -0.1666 -0.1865
  757MPD2    C411237   1.569   2.631  10.251  0.1080 -0.3828  0.6325
  757MPD2    C511238   1.581   2.511  10.318 -0.0072  0.4903  0.0071
  757MPD2     H11239   1.879   2.654  10.148  0.7479 -0.6631 -0.7798
  757MPD2    H111240   1.470   2.676  10.251  0.3690  0.1500  3.5347
  757MPD2    H211241   1.688   2.335  10.356  0.9557 -0.6530 -1.9852
  757MPD2    H311242   1.497   2.469  10.372  1.6741 -0.2382  2.0450
  757MPD2     N11243   1.690   2.811  10.138 -0.0698 -0.2792 -0.6693
  757MPD2    H511244   1.780   2.844  10.103 -0.3656  1.1953 -0.0443
  757MPD2    N111245   1.925   2.404  10.230  0.7326  0.0288  0.0039
  757MPD2    H711246   1.927   2.312  10.273 -0.3775 -0.6624 -1.4555
  758MPD2     C11247   2.313   1.365  15.642  1.1252  0.2673 -0.1183
  758MPD2    C111248   2.380   1.282  15.731  0.2998  0.2171  0.3260
  758MPD2    C211249   2.322   1.261  15.851  0.1424  0.2356 -0.3695
  758MPD2    C311250   2.202   1.321  15.891  0.2837  0.1975 -0.7267
  758MPD2    C411251   2.134   1.389  15.795  0.0131  0.2224  0.0220
  758MPD2    C511252   2.190   1.414  15.673  0.6153 -0.2771 -0.7473
  758MPD2     H11253   2.361   1.184  15.917 -1.4007 -1.9284 -2.0182
  758MPD2    H111254   2.034   1.428  15.813  0.8389  0.6580  3.6619
  758MPD2    H211255   2.353   1.387  15.544 -1.3166  2.6753 -0.5758
  758MPD2    H311256   2.137   1.465  15.593  0.2391  1.3707  0.5474
  758MPD2     N11257   2.156   1.304  16.023  0.0526 -0.6884 -0.4802
  758MPD2    H511258   2.055   1.316  16.034  0.7335  0.8046  4.0628
  758MPD2    N111259   2.502   1.231  15.700  0.1412 -0.2591 -0.0688
  758MPD2    H711260   2.530   1.258  15.606 -1.1240  3.5259  0.6353
  759MPD2     C11261   0.894   1.276  10.006  0.3285  0.3537 -0.1819
  759MPD2    C111262   0.939   1.165  10.078  0.1442  0.2563 -0.4514
  759MPD2    C211263   1.072   1.137  10.078  0.4625  0.2925 -0.0390
  759MPD2    C311264   1.149   1.189   9.977 -0.6613 -0.3525 -0.0290
  759MPD2    C411265   1.107   1.305   9.905 -0.5321  0.2922  0.2045
  759MPD2    C511266   0.978   1.345   9.922 -0.3567  0.2186 -0.3362
  759MPD2     H11267   1.111   1.057  10.140  2.0953  1.3773  0.3317
  759MPD2    H111268   1.171   1.366   9.843 -0.6120  0.9198  0.7333
  759MPD2    H211269   0.798   1.326  10.015 -1.1340 -2.4262 -0.2396
  759MPD2    H311270   0.937   1.429   9.866 -0.5255 -0.8508 -1.8124
  759MPD2     N11271   1.275   1.130   9.959  0.5138 -0.6398 -0.0301
  759MPD2    H511272   1.296   1.054  10.022  1.8395 -1.4520 -1.4668
  759MPD2    N111273   0.856   1.095  10.165  0.0606  0.7359 -0.2776
  759MPD2    H711274   0.897   1.018  10.217 -2.0827  1.0310  1.8912
  760MPD2     C11275   0.781   1.928  12.178 -0.3024  0.0219  0.3747
  760MPD2    C111276   0.910   1.913  12.130 -0.1220  0.2566 -0.2357
  760MPD2    C211277   0.981   1.796  12.148  0.2814  0.4095  0.0603
  760MPD2    C311278   0.916   1.696  12.217  0.4232  0.3759  0.4192
  760MPD2    C411279   0.786   1.703  12.256  0.3731 -0.2670 -1.1632
  760MPD2    C511280   0.717   1.819  12.237  0.0099  0.1282 -0.5360
  760MPD2     H11281   1.082   1.797  12.108  0.7501 -0.2158  1.2187
  760MPD2    H111282   0.740   1.618  12.306 -2.1013 -0.2633 -3.4165
  760MPD2    H211283   0.729   2.023  12.172 -3.3314 -1.6399  0.3983
  760MPD2    H311284   0.613   1.834  12.261  0.6061 -0.7346  2.5298
  760MPD2     N11285   0.970   1.568  12.237 -0.6750 -0.4146  0.1459
  760MPD2    H511286   0.933   1.514  12.314  1.0085  0.9041  1.8918
  760MPD2    N111287   0.981   2.013  12.058  0.4592  0.0824 -0.0669
  760MPD2    H711288   1.076   1.985  12.035  0.3601  1.2272 -1.8363
  761MPD2     C11289   2.453   1.346  11.045 -0.1945  0.0448  0.3401
  761MPD2    C111290   2.552   1.267  10.986 -0.0453 -0.3265  0.0304
  761MPD2    C211291   2.685   1.304  10.994  0.4264  0.0262  0.3213
  761MPD2    C311292   2.723   1.428  11.051 -0.8868  0.5156 -0.2180
  761MPD2    C411293   2.622   1.505  11.109  0.2513  0.4465  0.2393
  761MPD2    C511294   2.494   1.461  11.102  0.7512 -0.5814  0.2654
  761MPD2     H11295   2.754   1.236  10.944  0.3315 -1.8338  2.7169
  761MPD2    H111296   2.634   1.605  11.150 -1.3940  0.6322  0.2799
  761MPD2    H211297   2.352   1.310  11.061 -0.8652  1.2356 -1.1462
  761MPD2    H311298   2.424   1.528  11.150 -0.2512 -2.9796  2.1839
  761MPD2     N11299   2.855   1.472  11.059 -0.0738 -0.3670 -0.1349
  761MPD2    H511300   2.871   1.571  11.077  0.2281 -0.7512  1.6745
  761MPD2    N111301   2.518   1.141  10.934 -0.5522  0.1607  0.0417
  761MPD2    H711302   2.426   1.105  10.956 -1.2535  2.1972  0.4809
  762MPD2     C11303   2.624   0.972  10.210  0.8829  0.0267 -0.1723
  762MPD2    C111304   2.673   0.886  10.308 -0.4826 -0.2232 -0.9832
  762MPD2    C211305   2.807   0.844  10.301 -0.0507  0.1346  0.1088
  762MPD2    C311306   2.893   0.903  10.210 -0.4188 -0.1681  0.5263
  762MPD2    C411307   2.842   0.989  10.116 -0.0831  0.1775 -0.2151
  762MPD2    C511308   2.717   1.032  10.122 -0.0073  0.0207 -0.9691
  762MPD2     H11309   2.854   0.779  10.375 -1.1194  0.0760  0.7334
  762MPD2    H111310   2.910   1.022  10.038  0.9552  1.3450  1.1767
  762MPD2    H211311   2.522   1.009  10.211  0.7272 -0.4233  1.0878
  762MPD2    H311312   2.686   1.112  10.056 -0.4880 -0.9010 -1.8688
  762MPD2     N11313   3.029   0.856  10.222 -0.5803  0.2161  0.3206
  762MPD2    H511314   3.059   0.784  10.287  1.3132  0.6955  0.0006
  762MPD2    N111315   2.595   0.854  10.420  0.2419 -0.5619  0.6399
  762MPD2    H711316   2.508   0.906  10.427 -0.6744 -2.0501  0.4200
  763MPD2     C11317   4.505   1.334  15.941 -0.5418 -0.0478 -0.0296
  763MPD2    C111318   4.391   1.419  15.925 -0.5356  0.0595  0.3406
  763MPD2    C211319   4.400   1.551  15.975 -0.1677  0.5498 -0.4201
  763MPD2    C311320   4.512   1.591  16.043  0.2007 -0.6637  0.3129
  763MPD2    C411321   4.622   1.512  16.051  0.4977  0.3080  0.1566
  763MPD2    C511322   4.614   1.381  16.004  0.3265  0.0676 -0.7823
  763MPD2     H11323   4.313   1.616  15.970 -0.6676 -0.2918 -2.7014
  763MPD2    H111324   4.719   1.545  16.085  1.0123 -0.3074 -0.7241
  763MPD2    H211325   4.500   1.238  15.891 -0.2162  1.9642 -3.9176
  763MPD2    H311326   4.703   1.319  16.007  0.1241 -0.3245 -2.6569
  763MPD2     N11327   4.525   1.721  16.098  0.0800 -0.4576 -0.3760
  763MPD2    H511328   4.617   1.741  16.138 -0.7789  0.7877  0.9759
  763MPD2    N111329   4.277   1.371  15.863  0.5312 -0.6552 -1.2016
  763MPD2    H711330   4.204   1.439  15.847 -0.0510 -0.4522  2.1549
  764MPD2     C11331   1.897   2.469   0.365 -0.7408 -0.3800 -0.0075
  764MPD2    C111332   1.774   2.405   0.369  0.1524 -0.2152  0.3459
  764MPD2    C211333   1.720   2.348   0.480 -0.1799  0.2414 -0.3200
  764MPD2    C311334   1.788   2.352   0.601 -0.2213  0.0966  0.2482
  764MPD2    C411335   1.907   2.417   0.607 -0.2581 -0.4647  0.3004
  764MPD2    C511336   1.954   2.475   0.494 -0.3154 -0.5849  0.6483
  764MPD2     H11337   1.631   2.286   0.476 -0.4438  0.6926 -1.3257
  764MPD2    H111338   1.982   2.412   0.685 -1.4159  1.4847  1.5123
  764MPD2    H211339   1.946   2.520   0.282 -0.8773  1.7638  1.2154
  764MPD2    H311340   2.047   2.530   0.505  0.1176 -1.1415 -0.2990
  764MPD2     N11341   1.735   2.282   0.714 -0.0420 -0.7193  0.1555
  764MPD2    H511342   1.645   2.236   0.707  0.0262 -0.8505  0.1452
  764MPD2    N111343   1.708   2.381   0.247 -0.0314  0.0254 -0.4862
  764MPD2    H711344   1.623   2.326   0.255  0.1318 -0.3910 -1.7906
  765MPD2     C11345   1.177   0.837  15.510  0.4098  0.5020  0.0051
  765MPD2    C111346   1.252   0.947  15.534  0.0821 -1.1410 -0.1276
  765MPD2    C211347   1.389   0.933  15.540 -0.3142  0.6635 -0.5701
  765MPD2    C311348   1.454   0.811  15.533  0.1895 -0.3066  0.0617
  765MPD2    C411349   1.375   0.707  15.495  0.4527  0.9276  0.8252
  765MPD2    C511350   1.235   0.719  15.495  0.2657  0.2811 -0.0694
  765MPD2     H11351   1.441   1.025  15.563  1.9016 -0.5238 -0.8979
  765MPD2    H111352   1.411   0.609  15.464 -0.5176  0.8378 -0.0312
  765MPD2    H211353   1.069   0.843  15.497  0.2982  0.2049  0.8053
  765MPD2    H311354   1.172   0.632  15.480  0.6534  0.1017 -0.6635
  765MPD2     N11355   1.595   0.790  15.539  0.1914 -0.7045 -0.2604
  765MPD2    H511356   1.641   0.868  15.585  1.4805 -2.0294  0.6955
  765MPD2    N111357   1.176   1.066  15.558 -0.5418  0.2219 -0.1285
  765MPD2    H711358   1.076   1.067  15.575 -0.5804  1.1351 -0.4237
  766MPD2     C11359   1.521   1.055  14.842 -1.1052 -0.2516 -0.0170
  766MPD2    C111360   1.608   1.068  14.946  0.3412  0.3055  0.2477
  766MPD2    C211361   1.744   1.062  14.937 -0.2267  0.0816  0.3180
  766MPD2    C311362   1.797   1.045  14.809 -0.4227  0.5082 -0.0037
  766MPD2    C411363   1.709   1.029  14.699 -0.1323  0.0683  0.1897
  766MPD2    C511364   1.574   1.025  14.718 -0.3114  0.5820 -0.3469
  766MPD2     H11365   1.808   1.086  15.021  0.3319  0.2624 -0.1577
  766MPD2    H111366   1.749   1.003  14.602 -1.8271 -1.9207  0.0204
  766MPD2    H211367   1.413   1.059  14.847 -0.9810  0.6073  2.0782
  766MPD2    H311368   1.506   1.006  14.636 -0.6336 -1.7342  0.4500
  766MPD2     N11369   1.935   1.013  14.804  0.2273  0.1330 -0.8708
  766MPD2    H511370   1.977   0.992  14.894 -0.1005  1.4109 -0.4284
  766MPD2    N111371   1.555   1.118  15.068 -0.1122  0.3538 -0.5166
  766MPD2    H711372   1.623   1.152  15.135  0.4768  1.6710 -1.7923
  767MPD2     C11373   1.273   1.330  14.758  0.6911 -0.0576 -0.0061
  767MPD2    C111374   1.403   1.353  14.709  0.0239  0.6916  0.3086
  767MPD2    C211375   1.439   1.277  14.599  0.0353  0.0335  0.2072
  767MPD2    C311376   1.352   1.203  14.527 -0.6693 -0.8081 -0.3667
  767MPD2    C411377   1.220   1.184  14.576  0.3709 -0.3773 -0.0369
  767MPD2    C511378   1.186   1.245  14.694  0.0515 -0.8935 -0.2328
  767MPD2     H11379   1.541   1.272  14.562 -0.1013 -0.1032 -0.1489
  767MPD2    H111380   1.140   1.124  14.533  0.7689 -1.2458  0.4396
  767MPD2    H211381   1.237   1.389  14.842 -1.7640 -0.9882 -0.4216
  767MPD2    H311382   1.084   1.231  14.728  0.3760  1.3219  1.6697
  767MPD2     N11383   1.403   1.136  14.411  0.3409 -0.1305 -0.1622
  767MPD2    H511384   1.505   1.137  14.405  0.3513  1.5073  0.3266
  767MPD2    N111385   1.489   1.436  14.780  0.3462  0.2297 -0.1100
  767MPD2    H711386   1.454   1.491  14.858 -0.1223 -0.5341  0.2108
  768MPD2     C11387   2.461   4.066  10.620 -0.8607 -0.2107  0.0043
  768MPD2    C111388   2.446   4.102  10.752 -0.3270 -0.4844  0.4127
  768MPD2    C211389   2.565   4.107  10.827  0.2809  0.2011  0.0532
  768MPD2    C311390   2.695   4.098  10.768 -0.1456  0.4810  0.1074
  768MPD2    C411391   2.699   4.071  10.635 -0.1234 -0.1967  0.1503
  768MPD2    C511392   2.580   4.051  10.563 -0.4646  0.5417 -0.1562
  768MPD2     H11393   2.553   4.128  10.933 -3.2168  0.1297 -0.3255
  768MPD2    H111394   2.795   4.053  10.587 -2.0848 -2.5125 -2.9203
  768MPD2    H211395   2.373   4.074  10.556 -2.1069 -1.3710  1.5598
  768MPD2    H311396   2.572   4.030  10.457  1.8187 -0.8475 -0.0394
  768MPD2     N11397   2.803   4.119  10.850  0.0347  1.1262 -0.0223
  768MPD2    H511398   2.800   4.136  10.950 -0.9277 -0.6026  0.2431
  768MPD2    N111399   2.326   4.134  10.822  0.7034 -0.1642 -0.3741
  768MPD2    H711400   2.345   4.169  10.915 -0.9715 -1.1786  0.3467
  769MPD2     C11401   3.649   2.384  15.105  0.0805 -0.3706 -0.3395
  769MPD2    C111402   3.539   2.414  15.188 -0.2578  0.2449 -0.0902
  769MPD2    C211403   3.565   2.430  15.324 -0.3852 -0.8223 -0.2433
  769MPD2    C311404   3.690   2.418  15.379  0.6749  0.2665 -0.5853
  769MPD2    C411405   3.795   2.388  15.287  0.1573  0.2264 -0.9333
  769MPD2    C511406   3.775   2.370  15.151 -0.0249 -0.8957 -0.6755
  769MPD2     H11407   3.484   2.473  15.382  1.5150  0.8092  1.2244
  769MPD2    H111408   3.895   2.372  15.324 -0.8489 -0.5023  1.4739
  769MPD2    H211409   3.632   2.366  15.000 -1.9175 -0.2469 -0.0404
  769MPD2    H311410   3.858   2.353  15.084  0.2304 -1.1457 -0.2969
  769MPD2     N11411   3.707   2.482  15.509  0.2584 -0.5003 -0.7559
  769MPD2    H511412   3.625   2.527  15.548 -1.1241 -1.7727 -2.1840
  769MPD2    N111413   3.418   2.427  15.120  0.3747 -0.2354 -0.2241
  769MPD2    H711414   3.415   2.410  15.020  2.6145 -2.0137 -0.0033
  770MPD2     C11415   2.592   1.965  14.882 -0.3110 -0.6246 -0.3582
  770MPD2    C111416   2.727   1.940  14.881  1.0829 -0.4945  0.4486
  770MPD2    C211417   2.822   2.036  14.920  0.4137 -0.0020  0.0078
  770MPD2    C311418   2.775   2.150  14.985 -0.0435 -0.1893  0.3250
  770MPD2    C411419   2.637   2.175  14.987  0.4343 -0.4525  0.2910
  770MPD2    C511420   2.549   2.080  14.937  0.6864  1.1556  0.2287
  770MPD2     H11421   2.928   2.017  14.907 -0.0181 -1.7515 -0.8971
  770MPD2    H111422   2.596   2.260  15.041  0.9777  0.2023 -0.3377
  770MPD2    H211423   2.512   1.897  14.854  0.4104 -1.7431  0.2951
  770MPD2    H311424   2.444   2.107  14.941  0.6994  1.1430  0.6033
  770MPD2     N11425   2.871   2.250  15.024  0.6508  0.0173  0.3070
  770MPD2    H511426   2.965   2.234  14.989  1.0014  1.3508  0.6298
  770MPD2    N111427   2.767   1.815  14.826  0.6163 -0.1361 -0.9299
  770MPD2    H711428   2.691   1.763  14.782 -0.0743  1.7225 -1.9165
  771MPD2     C11429   4.054   0.588  13.772  0.0322  0.4586 -0.2876
  771MPD2    C111430   3.964   0.685  13.745 -0.6020  0.1682 -0.3968
  771MPD2    C211431   3.843   0.644  13.697 -0.1696 -0.1916 -0.4453
  771MPD2    C311432   3.810   0.510  13.680 -0.0610  0.3039 -0.3018
  771MPD2    C411433   3.893   0.416  13.726  0.1264 -0.0053  0.2476
  771MPD2    C511434   4.020   0.457  13.762  0.1859  0.6071  0.3089
  771MPD2     H11435   3.768   0.715  13.663  1.8506  2.5564  0.7690
  771MPD2    H111436   3.872   0.309  13.733  2.4927 -0.3126  2.5552
  771MPD2    H211437   4.150   0.619  13.811  0.2111 -0.3588 -0.0804
  771MPD2    H311438   4.084   0.380  13.803  1.8947  1.2998 -1.0729
  771MPD2     N11439   3.681   0.477  13.624  0.0806 -0.1748  0.3736
  771MPD2    H511440   3.611   0.550  13.611 -0.8785 -0.9535  1.1734
  771MPD2    N111441   3.999   0.827  13.739  0.5210  0.1122  0.2339
  771MPD2    H711442   3.919   0.884  13.715  0.9820  0.5839 -0.1798
  772MPD2     C11443   3.624   1.410  13.724 -0.0744 -0.1373 -0.0979
  772MPD2    C111444   3.653   1.278  13.692 -0.1578  0.3349 -0.8382
  772MPD2    C211445   3.549   1.201  13.647 -1.0009  0.3607 -0.2541
  772MPD2    C311446   3.424   1.253  13.622  0.0308  0.0944  0.3791
  772MPD2    C411447   3.394   1.383  13.652 -0.3662  0.5722  0.4644
  772MPD2    C511448   3.497   1.461  13.705  0.3569  0.4126  0.1248
  772MPD2     H11449   3.565   1.096  13.628  1.3643  0.5235  0.8138
  772MPD2    H111450   3.295   1.425  13.641 -0.6694 -0.4278 -0.7584
  772MPD2    H211451   3.692   1.478  13.775  0.7295 -0.5585 -0.6182
  772MPD2    H311452   3.482   1.566  13.725  1.6524  0.4463  0.9319
  772MPD2     N11453   3.317   1.178  13.564  0.5625 -0.0438  0.2635
  772MPD2    H511454   3.225   1.219  13.575 -0.8023 -2.8819 -0.5137
  772MPD2    N111455   3.781   1.225  13.701  0.0198 -0.0715  0.0031
  772MPD2    H711456   3.792   1.125  13.686 -1.1827 -0.2498  0.3903
  773MPD2     C11457   3.119   1.430   0.584  0.5315  0.1354  0.2069
  773MPD2    C111458   3.076   1.368   0.467 -0.8917  1.0405 -0.0482
  773MPD2    C211459   3.150   1.272   0.403 -0.3282  0.4386 -0.0947
  773MPD2    C311460   3.274   1.241   0.456  0.5647 -0.3803 -0.7356
  773MPD2    C411461   3.318   1.290   0.573  0.5128 -0.7839 -0.0320
  773MPD2    C511462   3.239   1.381   0.643  0.8718 -0.5524 -0.3874
  773MPD2     H11463   3.108   1.213   0.323  1.3921 -3.2255  1.7385
  773MPD2    H111464   3.417   1.265   0.609  1.2432  2.1536  0.0099
  773MPD2    H211465   3.067   1.511   0.634 -0.0312  0.1986 -0.4920
  773MPD2    H311466   3.281   1.448   0.717 -2.2774  1.4916 -0.4457
  773MPD2     N11467   3.362   1.153   0.382 -0.0536  0.1906  0.7048
  773MPD2    H511468   3.329   1.111   0.295 -0.3724  0.9095  0.4807
  773MPD2    N111469   2.958   1.410   0.403  0.0544 -0.1379 -0.6282
  773MPD2    H711470   2.920   1.347   0.332  2.0373 -0.8512 -1.0490
  774MPD2     C11471   2.565   1.239  12.951  0.2698  0.3474 -0.2679
  774MPD2    C111472   2.505   1.337  13.021 -0.3524 -0.2996 -0.1753
  774MPD2    C211473   2.573   1.443  13.074 -0.2892 -0.3298 -0.3957
  774MPD2    C311474   2.711   1.441  13.070 -0.7460 -0.2592  0.6092
  774MPD2    C411475   2.771   1.344  13.001  0.6043 -0.2958 -0.1664
  774MPD2    C511476   2.699   1.242  12.938 -0.5650 -0.1616 -0.6206
  774MPD2     H11477   2.533   1.528  13.129 -0.2834  0.0504 -0.9832
  774MPD2    H111478   2.877   1.352  12.977  0.6819 -0.2154  0.2000
  774MPD2    H211479   2.507   1.161  12.905 -0.6261 -0.1889  1.7948
  774MPD2    H311480   2.748   1.175  12.869 -2.4527  0.4483 -2.5459
  774MPD2     N11481   2.803   1.537  13.130  0.3487  0.2097  0.1362
  774MPD2    H511482   2.894   1.536  13.086  1.0676 -0.9038  1.6514
  774MPD2    N111483   2.370   1.318  13.047 -0.7390 -0.1332  0.0990
  774MPD2    H711484   2.338   1.223  13.034 -1.4882 -0.0164  1.0682
  775MPD2     C11485   4.105   2.506  15.926  0.4916  0.6131  0.4933
  775MPD2    C111486   4.066   2.621  15.990  0.2554  0.1637 -0.4934
  775MPD2    C211487   4.107   2.743  15.934  0.5323 -0.0570 -0.0384
  775MPD2    C311488   4.181   2.748  15.824 -0.6907  0.2586 -1.0271
  775MPD2    C411489   4.229   2.630  15.769  0.0644 -0.1971 -0.4840
  775MPD2    C511490   4.184   2.511  15.813  0.0493  0.6507 -0.1382
  775MPD2     H11491   4.071   2.836  15.976  2.7327  0.1242  1.4963
  775MPD2    H111492   4.289   2.631  15.678  0.7256  1.0690 -0.0320
  775MPD2    H211493   4.059   2.414  15.960  1.7802 -0.1831  0.1129
  775MPD2    H311494   4.200   2.413  15.770 -0.3213  0.2524  0.6253
  775MPD2     N11495   4.225   2.869  15.758  0.2634  0.6298  0.5558
  775MPD2    H511496   4.251   2.857  15.660 -2.0240  1.0700 -0.1077
  775MPD2    N111497   3.973   2.610  16.098 -0.1082 -0.1799 -0.0390
  775MPD2    H711498   3.941   2.516  16.119 -0.0930 -0.0014  0.7767
  776MPD2     C11499   3.345   2.818  11.607  0.1863  0.5174 -0.5060
  776MPD2    C111500   3.241   2.854  11.526  0.3243 -0.4128  0.5415
  776MPD2    C211501   3.203   2.982  11.496 -0.1802 -0.4175  0.3845
  776MPD2    C311502   3.293   3.078  11.543 -0.0424 -0.4599 -0.4099
  776MPD2    C411503   3.385   3.049  11.642  0.2255 -0.1198 -0.4655
  776MPD2    C511504   3.405   2.918  11.682 -0.4249  0.3373 -0.2749
  776MPD2     H11505   3.120   2.994  11.427 -0.2439  2.1051  0.9082
  776MPD2    H111506   3.452   3.125  11.680 -0.3051  0.3237 -0.4075
  776MPD2    H211507   3.368   2.716  11.637  0.3022  1.0050  1.0559
  776MPD2    H311508   3.463   2.905  11.772  2.1258  0.6593 -1.8888
  776MPD2     N11509   3.281   3.215  11.514  0.0253 -0.4337  0.1247
  776MPD2    H511510   3.366   3.266  11.538  0.2982  0.2375 -2.1811
  776MPD2    N111511   3.168   2.740  11.477  0.2139  0.3230 -0.2084
  776MPD2    H711512   3.209   2.647  11.487 -2.7654 -1.0860 -1.0978
  777MPD2     C11513   3.076   4.688   0.307 -0.2051 -0.3988  0.0840
  777MPD2    C111514   2.962   4.692   0.391  0.4615  0.1396 -0.7184
  777MPD2    C211515   2.839   4.643   0.339 -0.8471 -0.2638  0.2750
  777MPD2    C311516   2.830   4.593   0.209 -0.1993 -0.0137 -0.0028
  777MPD2    C411517   2.947   4.578   0.134 -0.1498 -0.1942 -0.1797
  777MPD2    C511518   3.065   4.622   0.186 -0.0529  0.0344  0.5573
  777MPD2     H11519   2.750   4.643   0.400 -0.6886 -1.6654  0.5114
  777MPD2    H111520   2.944   4.534   0.035  0.6776 -1.4016  0.3387
  777MPD2    H211521   3.163   4.728   0.358 -0.1778 -0.1054 -0.1957
  777MPD2    H311522   3.152   4.603   0.124 -1.0339  1.2546 -1.1933
  777MPD2     N11523   2.701   4.554   0.158  0.1546 -0.3821  0.4839
  777MPD2    H511524   2.621   4.563   0.219 -0.1387  0.5008 -0.0139
  777MPD2    N111525   2.973   0.012   0.522 -0.3802  0.5181  0.5097
  777MPD2    H711526   3.067   0.034   0.552  0.4317  1.1147 -2.5589
  778MPD2     C11527   3.783   0.551  14.517 -0.2181  0.0282  0.1807
  778MPD2    C111528   3.764   0.417  14.492 -0.1991 -0.0141  0.6681
  778MPD2    C211529   3.828   0.356  14.385  0.1979  0.2138 -0.1334
  778MPD2    C311530   3.923   0.426  14.308  0.3967 -0.1433 -0.7135
  778MPD2    C411531   3.943   0.566  14.331  0.2350 -0.7098  0.2685
  778MPD2    C511532   3.873   0.625  14.435 -0.0154  0.0706  0.5475
  778MPD2     H11533   3.812   0.249  14.375  0.5428  0.2876 -1.4517
  778MPD2    H111534   4.019   0.624  14.279  0.1289 -0.7336  0.0879
  778MPD2    H211535   3.731   0.604  14.595 -1.7206 -0.9491 -0.1692
  778MPD2    H311536   3.871   0.733  14.443  1.4852  0.0951  0.6380
  778MPD2     N11537   3.996   0.344  14.215 -0.3650 -0.3799  0.2249
  778MPD2    H511538   3.984   0.243  14.217  0.9551 -0.5429 -0.0940
  778MPD2    N111539   3.685   0.332  14.574 -0.6863  0.5481 -0.4624
  778MPD2    H711540   3.669   0.241  14.533  0.2207 -0.4851  1.4534
  779MPD2     C11541   3.586   3.938  14.255 -0.2121  0.2869 -0.7563
  779MPD2    C111542   3.689   3.951  14.166  0.1533  0.4790 -0.4636
  779MPD2    C211543   3.728   4.074  14.125  0.3248 -0.3225  0.3795
  779MPD2    C311544   3.676   4.185  14.186  0.0805  0.3783 -0.2108
  779MPD2    C411545   3.585   4.167  14.292  0.8783  0.6152  0.0173
  779MPD2    C511546   3.534   4.045  14.314  0.3733 -0.3964  0.2481
  779MPD2     H11547   3.806   4.078  14.049 -0.3066 -0.1100 -0.2591
  779MPD2    H111548   3.536   4.251  14.340  0.5584  1.0351 -1.0497
  779MPD2    H211549   3.554   3.836  14.278 -1.4597  0.4043 -1.9609
  779MPD2    H311550   3.445   4.034  14.375 -0.5691  0.8530 -0.9085
  779MPD2     N11551   3.712   4.312  14.135 -0.3308 -0.4009  0.0213
  779MPD2    H511552   3.781   4.313  14.060 -0.1615  2.8932  0.2365
  779MPD2    N111553   3.760   3.843  14.104  0.2946 -0.6159 -0.0843
  779MPD2    H711554   3.833   3.876  14.041  1.4520 -1.1674  0.9795
  780MPD2     C11555   2.569   3.548   0.553 -0.9922 -0.1176  0.2347
  780MPD2    C111556   2.678   3.465   0.541 -0.2139 -0.2525  0.3861
  780MPD2    C211557   2.794   3.530   0.498 -0.1802  0.4753  0.1923
  780MPD2    C311558   2.800   3.668   0.471 -0.1145  0.5312 -0.2531
  780MPD2    C411559   2.687   3.745   0.498  0.1152  0.5131  0.2853
  780MPD2    C511560   2.575   3.682   0.541  0.4018 -0.3923 -0.1378
  780MPD2     H11561   2.884   3.472   0.482 -0.2899 -0.1098  1.7020
  780MPD2    H111562   2.682   3.853   0.484  0.1919  0.3621 -0.9540
  780MPD2    H211563   2.472   3.506   0.578 -1.6961  2.7298  2.2644
  780MPD2    H311564   2.494   3.750   0.566  1.1681  0.1120  0.9823
  780MPD2     N11565   2.931   3.725   0.443  0.7575  0.7637  0.0068
  780MPD2    H511566   3.007   3.659   0.432 -0.1675 -0.2610 -0.1898
  780MPD2    N111567   2.667   3.331   0.573 -0.2525 -0.1834  0.0812
  780MPD2    H711568   2.587   3.294   0.624 -0.9089  0.6260 -0.3708
  781MPD2     C11569   0.791   1.543  11.919 -0.9074 -0.0079 -0.0282
  781MPD2    C111570   0.799   1.410  11.954 -0.6362 -0.2462 -0.4421
  781MPD2    C211571   0.888   1.322  11.891 -0.0954  0.6149 -0.2494
  781MPD2    C311572   0.956   1.362  11.782  0.5409 -0.3039  0.0656
  781MPD2    C411573   0.953   1.492  11.752  1.0189 -0.3095  0.2160
  781MPD2    C511574   0.878   1.587  11.822 -0.7280  0.4494 -0.3332
  781MPD2     H11575   0.877   1.219  11.923  3.3120  0.7809  1.4653
  781MPD2    H111576   1.006   1.541  11.671  0.5930 -0.5050 -0.1774
  781MPD2    H211577   0.742   1.617  11.981  1.7838  1.5406  0.2506
  781MPD2    H311578   0.882   1.692  11.795  0.8043  0.8409  1.4861
  781MPD2     N11579   1.015   1.284  11.685 -0.5672  0.2393  0.2564
  781MPD2    H511580   1.047   1.329  11.600 -1.2885 -3.1196 -1.8143
  781MPD2    N111581   0.704   1.372  12.048 -0.2665  0.1814 -0.6473
  781MPD2    H711582   0.727   1.292  12.105  1.3069  1.3064  0.2880
  782MPD2     C11583   3.534   1.299  10.219  0.2318 -0.2601  0.0411
  782MPD2    C111584   3.648   1.341  10.268 -0.4759 -0.6255  0.5926
  782MPD2    C211585   3.662   1.472  10.308 -0.7360 -0.0783  0.1310
  782MPD2    C311586   3.574   1.569  10.264 -0.4677 -0.2893 -0.2676
  782MPD2    C411587   3.462   1.527  10.202  0.3191 -0.0269  0.7439
  782MPD2    C511588   3.436   1.396  10.195  0.5080  0.3200 -0.4927
  782MPD2     H11589   3.747   1.501  10.369 -0.4668  0.0027 -0.2824
  782MPD2    H111590   3.386   1.598  10.168  1.2250 -0.5480 -2.3548
  782MPD2    H211591   3.516   1.196  10.189  1.1144 -0.1305 -0.9016
  782MPD2    H311592   3.347   1.368  10.139  1.5059 -1.5384 -1.1653
  782MPD2     N11593   3.605   1.703  10.289 -0.1205 -0.3957 -0.0309
  782MPD2    H511594   3.685   1.727  10.347 -0.3756  1.5099 -0.4715
  782MPD2    N111595   3.740   1.240  10.302 -0.4260 -0.0051  0.5388
  782MPD2    H711596   3.716   1.141  10.298 -2.0768  0.3329  2.2166
  783MPD2     C11597   3.529   1.078  11.110 -0.4040 -0.1215 -0.5361
  783MPD2    C111598   3.536   1.184  11.021  0.6063  0.4277 -0.4211
  783MPD2    C211599   3.621   1.182  10.917  0.0623 -0.4617  0.0135
  783MPD2    C311600   3.700   1.069  10.889 -0.5408  0.1439  0.0844
  783MPD2    C411601   3.705   0.967  10.983 -0.2154 -0.0031  0.9017
  783MPD2    C511602   3.620   0.977  11.090  0.0150 -0.3536  0.3064
  783MPD2     H11603   3.599   1.256  10.841 -1.1478 -0.4544  0.3679
  783MPD2    H111604   3.759   0.874  10.969 -0.7244 -0.2117  0.3347
  783MPD2    H211605   3.469   1.079  11.201 -0.0593  1.6521 -0.3218
  783MPD2    H311606   3.628   0.890  11.154 -0.2634  0.0946  0.9589
  783MPD2     N11607   3.765   1.076  10.771  0.0753 -0.2668  0.1371
  783MPD2    H511608   3.750   1.164  10.723  0.0160  1.7602  3.8962
  783MPD2    N111609   3.450   1.288  11.054  0.0547  0.6610 -0.5901
  783MPD2    H711610   3.380   1.285  11.128 -0.0549  0.6991 -0.6909
  784MPD2     C11611   0.076   1.841   0.982 -0.1907  0.3834 -0.3691
  784MPD2    C111612   0.138   1.965   0.968 -0.0071 -0.4803 -0.3046
  784MPD2    C211613   0.059   2.082   0.950  0.0823  0.3925  0.0793
  784MPD2    C311614   4.657   2.069   0.935 -0.0736  0.7800 -0.2326
  784MPD2    C411615   4.596   1.942   0.947  0.2255 -0.5896  0.2498
  784MPD2    C511616   4.677   1.830   0.968 -0.5443 -0.8050 -0.8351
  784MPD2     H11617   0.096   2.183   0.939 -1.2505  0.7987 -0.5846
  784MPD2    H111618   4.492   1.915   0.945  1.0539 -3.8010  0.5652
  784MPD2    H211619   0.129   1.756   1.024  2.0332  2.5063  1.1152
  784MPD2    H311620   4.623   1.746   1.011  0.7117 -1.0240  0.2962
  784MPD2     N11621   4.580   2.193   0.923 -0.4038  0.3373 -0.1936
  784MPD2    H511622   4.624   2.283   0.937  1.7618 -0.3736 -2.4596
  784MPD2    N111623   0.282   1.973   0.977  0.5689 -0.2170 -0.2246
  784MPD2    H711624   0.319   2.067   0.990  1.2182 -0.7033  1.4068
  785MPD2     C11625   0.582   0.701  10.663 -0.2302 -0.0190  0.2110
  785MPD2    C111626   0.615   0.812  10.739 -0.2805 -0.5254  0.1067
  785MPD2    C211627   0.563   0.936  10.709 -0.4192  0.3088 -0.4353
  785MPD2    C311628   0.477   0.955  10.600  0.4784 -0.4324 -0.6091
  785MPD2    C411629   0.440   0.842  10.529 -0.6095 -0.4918  0.3778
  785MPD2    C511630   0.498   0.719  10.555  0.2873 -0.3497  0.2065
  785MPD2     H11631   0.591   1.028  10.759 -2.3512  0.5078  0.2647
  785MPD2    H111632   0.376   0.857  10.443 -1.7449 -0.8649  1.1610
  785MPD2    H211633   0.624   0.603  10.683 -0.6583 -0.6517 -2.1250
  785MPD2    H311634   0.461   0.630  10.505  0.6866 -2.3593  3.4906
  785MPD2     N11635   0.431   1.083  10.574  0.0114 -0.0447  0.3340
  785MPD2    H511636   0.444   1.151  10.648  2.4119 -1.9204  1.6774
  785MPD2    N111637   0.716   0.803  10.835  0.7003  0.0834 -0.7214
  785MPD2    H711638   0.763   0.713  10.837  0.8401  0.1800  0.1571
  786MPD2     C11639   4.214   3.313  14.431  0.0122  0.6094  0.0352
  786MPD2    C111640   4.316   3.223  14.464 -0.2981 -0.5651  0.1977
  786MPD2    C211641   4.386   3.240  14.582 -0.1239 -0.7097 -0.2648
  786MPD2    C311642   4.350   3.337  14.677  0.0189  0.8765 -0.2974
  786MPD2    C411643   4.242   3.421  14.647 -0.4413  0.7439  0.1564
  786MPD2    C511644   4.184   3.411  14.526  0.4400 -0.2645 -0.6327
  786MPD2     H11645   4.462   3.165  14.600 -1.1979 -1.4476  1.2544
  786MPD2    H111646   4.220   3.502  14.715  0.7962  1.0790  0.1729
  786MPD2    H211647   4.158   3.305  14.339  0.0573  2.4559 -0.1483
  786MPD2    H311648   4.120   3.494  14.497  1.4704  0.4744 -0.7836
  786MPD2     N11649   4.426   3.358  14.796  0.1140 -0.5213 -0.3857
  786MPD2    H511650   4.382   3.432  14.850 -0.4010  1.5836 -3.7156
  786MPD2    N111651   4.370   3.132  14.364  0.3041  0.1705  0.4216
  786MPD2    H711652   4.443   3.074  14.403  1.2836  1.5686  0.6837
  787MPD2     C11653   4.714   2.648  14.577  0.0441 -0.7115  0.0882
  787MPD2    C111654   4.719   2.646  14.437 -0.1236  0.0887 -0.4319
  787MPD2    C211655   0.071   2.555  14.379  0.1119 -0.1893 -0.1880
  787MPD2    C311656   0.155   2.470  14.449 -0.1358 -1.0465 -0.3549
  787MPD2    C411657   0.130   2.460  14.587  0.6355  0.4460  0.5091
  787MPD2    C511658   0.041   2.547  14.644 -0.3199 -0.3806  0.4767
  787MPD2     H11659   0.071   2.549  14.271  2.9398 -0.1224 -0.1962
  787MPD2    H111660   0.177   2.385  14.650  1.7081  0.3363 -0.4214
  787MPD2    H211661   4.647   2.716  14.628 -2.5103 -0.8883 -2.9719
  787MPD2    H311662   0.027   2.536  14.751  0.6229  1.0775  0.7572
  787MPD2     N11663   0.256   2.383  14.382 -0.0551  0.6374  0.2732
  787MPD2    H511664   0.261   2.394  14.281 -1.9460  0.6104  0.1856
  787MPD2    N111665   4.645   2.745  14.359  0.1732 -0.1837 -0.5320
  787MPD2    H711666   4.589   2.809  14.415  0.5961  0.1902 -0.5406
  788MPD2     C11667   1.828   1.482   1.069 -0.2675  0.3368 -0.4555
  788MPD2    C111668   1.714   1.486   0.999 -0.5294  0.2262 -0.3801
  788MPD2    C211669   1.699   1.584   0.903 -0.1691  0.2321 -0.1966
  788MPD2    C311670   1.796   1.684   0.890  0.1794  0.2702  0.5195
  788MPD2    C411671   1.906   1.679   0.970 -0.1759  0.0429  0.5069
  788MPD2    C511672   1.926   1.577   1.058  0.3014  0.3825  0.9366
  788MPD2     H11673   1.622   1.576   0.827  1.5301 -2.1894 -1.6782
  788MPD2    H111674   1.984   1.753   0.983 -0.9651  0.9195  0.1773
  788MPD2    H211675   1.841   1.391   1.127  1.3963  0.7999 -0.0956
  788MPD2    H311676   2.016   1.575   1.119  1.4282 -2.2922 -0.8232
  788MPD2     N11677   1.793   1.788   0.802  0.0399  0.4029 -0.0080
  788MPD2    H511678   1.868   1.856   0.804 -0.2475  0.7206 -0.0134
  788MPD2    N111679   1.626   1.375   1.022  0.4036 -0.0378 -0.8634
  788MPD2    H711680   1.663   1.297   1.074 -0.6280  0.1790  0.2024
  789MPD2     C11681   1.879   0.649  16.744 -0.9058  0.0218 -0.7049
  789MPD2    C111682   1.818   0.680  16.622 -0.0945  0.2258  0.4235
  789MPD2    C211683   1.721   0.775  16.618 -0.1179  0.2804 -0.6323
  789MPD2    C311684   1.667   0.830  16.735  0.5620 -0.8102 -0.0134
  789MPD2    C411685   1.721   0.791  16.856 -0.4941 -0.3758 -0.7370
  789MPD2    C511686   1.824   0.698  16.853  0.1917 -0.6554  0.0152
  789MPD2     H11687   1.694   0.820  16.523  0.0480 -1.8880 -1.7107
  789MPD2    H111688   1.699   0.843  16.949 -0.2551 -1.4885 -0.0528
  789MPD2    H211689   1.962   0.581  16.763 -0.6578  0.9959  1.6474
  789MPD2    H311690   1.869   0.666  16.946  1.5052 -0.9744 -0.7297
  789MPD2     N11691   1.564   0.929  16.734  0.1874  0.0674 -0.5365
  789MPD2    H511692   1.544   0.977  16.822 -0.0212  0.1482 -0.6294
  789MPD2    N111693   1.859   0.621  16.501  0.1205  0.2229  0.6254
  789MPD2    H711694   1.801   0.634  16.419  0.4449 -0.9243  0.2181
  790MPD2     C11695   2.670   3.165  13.435  0.2694  0.0504  0.1524
  790MPD2    C111696   2.793   3.115  13.446  0.0921 -0.2945 -0.4982
  790MPD2    C211697   2.856   3.052  13.340 -0.1171  0.6034 -0.1554
  790MPD2    C311698   2.789   3.042  13.219  1.0593  0.0839 -0.0889
  790MPD2    C411699   2.662   3.095  13.213  0.2909  0.8739 -0.6298
  790MPD2    C511700   2.601   3.156  13.319  0.0137  0.3280  0.7864
  790MPD2     H11701   2.952   3.003  13.353 -1.1774 -1.6666 -0.8828
  790MPD2    H111702   2.597   3.093  13.126 -0.0709 -1.0165 -0.3180
  790MPD2    H211703   2.626   3.223  13.515  3.8518  1.3559  1.1758
  790MPD2    H311704   2.507   3.209  13.312 -0.0659 -0.0595 -0.9883
  790MPD2     N11705   2.853   2.974  13.112  0.2813  0.2726  0.4294
  790MPD2    H511706   2.944   2.932  13.133 -0.0051  0.2102  1.5415
  790MPD2    N111707   2.855   3.133  13.573 -0.6258  0.5132 -0.0461
  790MPD2    H711708   2.791   3.164  13.645  0.4035 -0.1127  1.1361
  791MPD2     C11709   2.548   2.807  12.390  0.5381 -0.1631 -0.0905
  791MPD2    C111710   2.578   2.700  12.479  0.3245 -0.4376 -0.3977
  791MPD2    C211711   2.506   2.589  12.473  0.2288  0.5467  0.4845
  791MPD2    C311712   2.414   2.566  12.380 -0.3110  0.0856  0.7924
  791MPD2    C411713   2.374   2.672  12.300  0.2639  0.5574  0.2479
  791MPD2    C511714   2.445   2.794  12.302  0.2830  1.0244  0.1220
  791MPD2     H11715   2.534   2.504  12.534 -1.1606 -0.1369  0.1872
  791MPD2    H111716   2.298   2.664  12.222  1.7066  1.2914 -1.2382
  791MPD2    H211717   2.598   2.903  12.398 -1.5616  0.9601 -0.4143
  791MPD2    H311718   2.426   2.865  12.222 -2.0207 -0.4391 -0.6454
  791MPD2     N11719   2.327   2.449  12.390  0.1116 -0.0778  0.0854
  791MPD2    H511720   2.361   2.383  12.459  3.1675  1.4488  0.0267
  791MPD2    N111721   2.688   2.717  12.573 -0.5851  0.4610 -0.4059
  791MPD2    H711722   2.738   2.805  12.569  1.3687 -0.4519  3.4378
  792MPD2     C11723   3.248   2.579  10.962  0.4238 -0.5689 -0.3701
  792MPD2    C111724   3.144   2.655  11.019 -0.0465 -0.9692  0.4258
  792MPD2    C211725   3.018   2.595  11.027 -0.6901  0.5136 -0.3048
  792MPD2    C311726   3.000   2.466  10.987  0.7049  0.1977  0.1951
  792MPD2    C411727   3.105   2.389  10.948  0.4546  0.7206  0.7498
  792MPD2    C511728   3.228   2.447  10.937 -0.0865 -0.5109  0.3664
  792MPD2     H11729   2.937   2.654  11.069 -0.6732 -1.2098  2.1832
  792MPD2    H111730   3.093   2.283  10.931  1.0776  0.5669  1.2849
  792MPD2    H211731   3.351   2.610  10.952  0.4161 -0.1729  0.8185
  792MPD2    H311732   3.318   2.390  10.918  0.9151  1.6427 -1.4440
  792MPD2     N11733   2.875   2.395  11.007 -0.3323 -0.0041  0.1695
  792MPD2    H511734   2.872   2.299  10.975  0.3838  0.8260 -2.4219
  792MPD2    N111735   3.178   2.784  11.051  0.3331 -0.3612  0.0960
  792MPD2    H711736   3.277   2.802  11.040  0.4536 -1.6748 -1.0360
  793MPD2     C11737   2.283   2.854  10.641 -0.5183  0.1192  0.4195
  793MPD2    C111738   2.417   2.820  10.659  0.1736 -0.5189  0.9919
  793MPD2    C211739   2.456   2.714  10.735  0.1281  0.3621  0.3211
  793MPD2    C311740   2.364   2.644  10.797 -0.7154 -0.2390 -0.0728
  793MPD2    C411741   2.229   2.677  10.790  0.1491  0.2268 -1.0522
  793MPD2    C511742   2.193   2.784  10.710 -0.0550 -0.1344 -0.6275
  793MPD2     H11743   2.562   2.690  10.743  0.3453  0.8349 -1.2254
  793MPD2    H111744   2.150   2.617  10.834  1.1873 -0.2234  0.1729
  793MPD2    H211745   2.245   2.936  10.582  0.1059 -0.5207 -0.8799
  793MPD2    H311746   2.087   2.808  10.705 -0.8326 -3.0228  1.6332
  793MPD2     N11747   2.407   2.526  10.862  0.4937 -0.3700  0.4769
  793MPD2    H511748   2.508   2.514  10.863  0.2431 -2.2670  1.8727
  793MPD2    N111749   2.527   2.885  10.598 -0.4226  0.0110 -0.1446
  793MPD2    H711750   2.620   2.846  10.615  0.3803  1.2173 -1.7944
  794MPD2     C11751   2.717   1.983  17.607 -0.1023  0.7028  0.1989
  794MPD2    C111752   2.648   1.869  17.577  0.6407  0.5192 -0.0189
  794MPD2    C211753   2.576   1.856  17.461 -0.3657 -0.3396  0.9090
  794MPD2    C311754   2.559   1.965  17.373  0.4501 -0.4897 -0.4070
  794MPD2    C411755   2.620   2.082  17.410  0.2734  0.5228  0.4667
  794MPD2    C511756   2.698   2.086  17.521 -0.1517  0.2580  0.1857
  794MPD2     H11757   2.514   1.770  17.436  2.3842 -2.3099  0.8602
  794MPD2    H111758   2.618   2.166  17.341  2.7744 -0.9846 -1.4566
  794MPD2    H211759   2.792   2.000  17.683  2.6616 -0.3769 -2.3002
  794MPD2    H311760   2.769   2.166  17.541  2.1979 -1.2525 -2.1156
  794MPD2     N11761   2.499   1.973  17.249  0.0423 -0.2289  0.5244
  794MPD2    H511762   2.506   2.062  17.201  1.1178 -0.1685  0.7994
  794MPD2    N111763   2.646   1.758  17.668 -0.1831 -0.6785  0.3819
  794MPD2    H711764   2.610   1.671  17.632 -1.2604  0.1893 -0.6218
  795MPD2     C11765   0.139   4.417  13.537  0.2172  0.7341 -0.6441
  795MPD2    C111766   0.137   4.308  13.451 -0.6687 -0.1191  0.3139
  795MPD2    C211767   0.195   4.191  13.499 -0.7811 -0.3661 -0.2363
  795MPD2    C311768   0.246   4.177  13.628 -0.0278  0.0196 -0.3054
  795MPD2    C411769   0.233   4.281  13.712  0.0033  0.6161 -0.2874
  795MPD2    C511770   0.181   4.398  13.657  1.1857  0.2177  0.4522
  795MPD2     H11771   0.209   4.108  13.430 -1.3555 -0.3111 -0.4245
  795MPD2    H111772   0.279   4.282  13.810  0.9507  0.8337 -0.7381
  795MPD2    H211773   0.101   4.516  13.514 -1.5105 -0.0410 -1.1245
  795MPD2    H311774   0.172   4.490  13.714  0.9149  0.0705  0.6434
  795MPD2     N11775   0.320   4.068  13.675  0.2478 -0.3983  0.4464
  795MPD2    H511776   0.320   4.059  13.776  0.9863  1.5236  0.6220
  795MPD2    N111777   0.074   4.331  13.322 -0.0558 -0.1021 -0.2608
  795MPD2    H711778   0.058   4.253  13.259 -1.0056  0.7141 -1.0247
  796MPD2     C11779   4.463   0.999  15.482  0.7478  0.0714  0.7425
  796MPD2    C111780   4.541   1.050  15.576 -0.6073 -0.8353 -0.4408
  796MPD2    C211781   4.547   1.187  15.589 -0.8260 -0.9754  0.0443
  796MPD2    C311782   4.470   1.273  15.511  0.7223  0.5254 -0.5963
  796MPD2    C411783   4.384   1.212  15.415  0.3873 -0.7200  0.5290
  796MPD2    C511784   4.385   1.080  15.404  0.2024 -0.0471  0.0459
  796MPD2     H11785   4.626   1.229  15.650  0.0598 -2.1941 -0.2701
  796MPD2    H111786   4.312   1.270  15.359 -0.5858 -1.5670  0.8992
  796MPD2    H211787   4.458   0.893  15.463 -1.1004  0.3495 -0.3740
  796MPD2    H311788   4.322   1.036  15.328  0.6231 -0.7416  0.0961
  796MPD2     N11789   4.482   1.413  15.536 -0.1812 -0.5497  0.3930
  796MPD2    H511790   4.539   1.442  15.615 -1.8428 -0.9502  1.7484
  796MPD2    N111791   4.616   0.959  15.648  0.2672 -0.2454 -0.2057
  796MPD2    H711792   4.630   0.871  15.600  0.4982 -1.4566  2.0998
  797MPD2     C11793   0.883   0.608  17.202  0.4574 -0.4636 -0.5368
  797MPD2    C111794   0.847   0.740  17.214  0.6694  0.0934 -0.3772
  797MPD2    C211795   0.772   0.797  17.113 -0.0668 -0.0484 -0.0041
  797MPD2    C311796   0.725   0.721  17.013  0.1799 -0.5168 -0.0920
  797MPD2    C411797   0.767   0.592  17.002 -0.4586 -0.2472  0.2541
  797MPD2    C511798   0.828   0.528  17.107 -0.7864 -0.0482  0.1307
  797MPD2     H11799   0.757   0.904  17.113 -0.3112 -0.0819  0.2213
  797MPD2    H111800   0.728   0.535  16.919 -0.1028 -0.6293  0.3459
  797MPD2    H211801   0.934   0.561  17.285  1.9469 -0.2693 -1.3370
  797MPD2    H311802   0.869   0.428  17.100 -0.1312  0.2363 -0.0991
  797MPD2     N11803   0.652   0.785  16.913 -0.6787  0.0559 -0.6328
  797MPD2    H511804   0.631   0.731  16.830  0.9336  1.4503 -1.9586
  797MPD2    N111805   0.880   0.830  17.319  0.3076 -0.5057 -0.3283
  797MPD2    H711806   0.867   0.923  17.280 -1.6561 -0.1623  1.1161
  798MPD2     C11807   0.378   1.381  17.196 -0.3568 -0.0970 -0.0604
  798MPD2    C111808   0.472   1.334  17.110  0.3889 -0.1269  0.4515
  798MPD2    C211809   0.592   1.294  17.169 -0.0625  0.1622  0.3716
  798MPD2    C311810   0.621   1.316  17.304 -0.0596 -0.4606 -0.2652
  798MPD2    C411811   0.521   1.372  17.389 -0.0134  0.1268 -0.2924
  798MPD2    C511812   0.404   1.408  17.329  0.1474 -0.8273  0.3467
  798MPD2     H11813   0.665   1.250  17.102 -0.3003 -0.6764  0.6611
  798MPD2    H111814   0.535   1.380  17.497 -0.0427 -0.4335 -0.2466
  798MPD2    H211815   0.277   1.389  17.157 -0.3689 -0.4744 -0.1108
  798MPD2    H311816   0.313   1.444  17.377  1.1251  2.2915 -0.1528
  798MPD2     N11817   0.737   1.253  17.357 -0.0491  0.7951 -0.2634
  798MPD2    H511818   0.783   1.182  17.301  0.8090  1.1639 -0.0193
  798MPD2    N111819   0.437   1.306  16.973 -0.1450 -0.3704 -0.8699
  798MPD2    H711820   0.340   1.313  16.947 -0.1323 -1.3027 -1.1761
  799MPD2     C11821   4.516   2.151  14.645  0.3544 -0.1628  0.1514
  799MPD2    C111822   4.501   2.088  14.526 -0.1549 -0.1718 -0.6166
  799MPD2    C211823   4.482   2.166  14.410 -0.8091 -0.2097 -0.0141
  799MPD2    C311824   4.483   2.302  14.408 -0.6226  0.2526 -0.3245
  799MPD2    C411825   4.510   2.362  14.524 -0.1625  0.7720  0.4112
  799MPD2    C511826   4.527   2.289  14.641 -0.0950  0.0405  0.6923
  799MPD2     H11827   4.464   2.111  14.318 -2.1597  1.3969 -0.7091
  799MPD2    H111828   4.505   2.469  14.541  3.1055  0.7225  1.6385
  799MPD2    H211829   4.520   2.097  14.739 -0.0102 -0.5273 -0.0433
  799MPD2    H311830   4.538   2.339  14.737 -1.0327  0.8754  0.3584
  799MPD2     N11831   4.454   2.378  14.294 -0.0607 -0.2702  0.2019
  799MPD2    H511832   4.473   2.477  14.304 -0.4311 -0.0614 -1.2941
  799MPD2    N111833   4.474   1.952  14.516 -0.6920  0.0275  0.4116
  799MPD2    H711834   4.454   1.910  14.426  1.8635 -1.1722  0.4051
  800MPD2     C11835   0.355   3.153  13.808 -0.0634 -0.2994 -0.0875
  800MPD2    C111836   0.488   3.142  13.769  0.0081 -0.0327  0.1818
  800MPD2    C211837   0.508   3.124  13.632  0.7089 -0.3578 -0.6699
  800MPD2    C311838   0.406   3.098  13.545 -0.6637  0.9362  0.2319
  800MPD2    C411839   0.279   3.115  13.590  0.3776  0.3807 -0.8071
  800MPD2    C511840   0.254   3.156  13.713  0.3725 -0.3168  0.2742
  800MPD2     H11841   0.610   3.133  13.598  1.5482 -0.0851  1.8912
  800MPD2    H111842   0.198   3.101  13.520 -0.3483  0.7752 -0.0445
  800MPD2    H211843   0.333   3.179  13.910 -0.9378 -1.3277 -0.0108
  800MPD2    H311844   0.152   3.170  13.745  0.3555 -2.7200  1.3181
  800MPD2     N11845   0.445   3.067  13.410 -0.0189  0.6783  0.1095
  800MPD2    H511846   0.542   3.039  13.396 -0.4064  0.9985 -3.2853
  800MPD2    N111847   0.588   3.154  13.868  0.0911  0.2566 -0.4375
  800MPD2    H711848   0.558   3.176  13.963 -0.0032 -0.5291 -0.2896
  801MPD2     C11849   0.682   3.473  14.501  0.2830  1.1548 -0.7911
  801MPD2    C111850   0.624   3.415  14.388 -0.0748  0.4168  0.1744
  801MPD2    C211851   0.496   3.434  14.362 -0.4833 -0.0952  0.7022
  801MPD2    C311852   0.409   3.508  14.443 -0.5011  0.1159  0.0634
  801MPD2    C411853   0.458   3.569  14.556  0.0349  0.6312 -0.4070
  801MPD2    C511854   0.595   3.555  14.572  0.6888  0.1130  0.2844
  801MPD2     H11855   0.466   3.377  14.275  1.6837  2.4253 -1.7291
  801MPD2    H111856   0.403   3.632  14.625  0.6029 -0.8519  1.3868
  801MPD2    H211857   0.783   3.466  14.539  0.1051 -0.8095 -0.7100
  801MPD2    H311858   0.643   3.602  14.658 -1.2850 -0.4271  1.6820
  801MPD2     N11859   0.277   3.535  14.405 -0.0877  0.1286  0.4027
  801MPD2    H511860   0.220   3.591  14.467 -0.5932  1.2590 -1.0779
  801MPD2    N111861   0.685   3.329  14.300 -0.1301 -0.4040  0.3031
  801MPD2    H711862   0.628   3.289  14.226 -1.9083  1.1597  0.8327
  802MPD2     C11863   4.152   4.115  17.512 -0.2731  0.8691 -0.2244
  802MPD2    C111864   4.202   4.240  17.510  0.0974 -0.2302  0.0001
  802MPD2    C211865   4.318   4.267  17.431 -0.1829  0.4836  0.2175
  802MPD2    C311866   4.369   4.172  17.349 -0.6861 -0.0653  0.5370
  802MPD2    C411867   4.311   4.045  17.347 -0.4948  0.3790 -0.4500
  802MPD2    C511868   4.197   4.025  17.414 -0.1631  0.8145  0.0230
  802MPD2     H11869   4.366   4.364  17.432  1.5788 -0.3746  0.0996
  802MPD2    H111870   4.343   3.973  17.273  2.0972  1.6681 -0.5570
  802MPD2    H211871   4.058   4.102  17.564 -0.0049  0.7050  0.2199
  802MPD2    H311872   4.130   3.942  17.394 -0.5057  1.2608 -0.6819
  802MPD2     N11873   4.481   4.213  17.268  0.3333 -0.1190  0.0663
  802MPD2    H511874   4.508   4.310  17.267  1.1749 -0.3564 -0.7227
  802MPD2    N111875   4.140   4.334  17.596 -0.0862 -0.3187  0.0603
  802MPD2    H711876   4.054   4.297  17.636 -0.9245 -0.9028 -2.3209
  803MPD2     C11877   1.443   2.819  11.738  1.5025 -0.0699 -0.0413
  803MPD2    C111878   1.489   2.793  11.872  0.5600 -0.0310  0.6161
  803MPD2    C211879   1.413   2.710  11.960 -0.1730 -0.4129 -0.1445
  803MPD2    C311880   1.285   2.664  11.920  0.2439 -0.2901 -0.3629
  803MPD2    C411881   1.247   2.682  11.793 -0.5706  0.7350 -0.0393
  803MPD2    C511882   1.326   2.749  11.704  1.1003 -0.2037 -0.2365
  803MPD2     H11883   1.440   2.692  12.064 -0.0584 -0.5302 -0.1940
  803MPD2    H111884   1.155   2.644  11.749  1.1991 -2.1522 -1.1978
  803MPD2    H211885   1.492   2.881  11.664 -0.4987  0.6350 -0.7942
  803MPD2    H311886   1.299   2.760  11.600  2.1929  1.4320 -0.3576
  803MPD2     N11887   1.207   2.595  12.011 -1.0891 -0.0096 -0.2668
  803MPD2    H511888   1.255   2.576  12.098 -0.4002  0.8725 -0.4508
  803MPD2    N111889   1.596   2.867  11.919  0.1881  0.1132 -0.0757
  803MPD2    H711890   1.618   2.863  12.018 -0.4433  1.3687  0.1160
  804MPD2     C11891   0.435   4.139  17.007  0.1591  0.3011  0.1561
  804MPD2    C111892   0.423   4.086  17.134 -0.3358  0.1088  0.1062
  804MPD2    C211893   0.443   4.178  17.235 -0.1062  0.3236  0.7259
  804MPD2    C311894   0.475   4.313  17.215  0.2242 -0.0817  0.4002
  804MPD2    C411895   0.491   4.351  17.086  0.0598  0.3152 -0.3487
  804MPD2    C511896   0.475   4.265  16.984  0.2785  0.2455 -0.4339
  804MPD2     H11897   0.450   4.138  17.335  2.8516 -3.5944 -1.0335
  804MPD2    H111898   0.532   4.447  17.059  0.5902  0.1648 -0.0652
  804MPD2    H211899   0.428   4.075  16.919  1.5405  0.1300  0.1757
  804MPD2    H311900   0.479   4.296  16.880  0.5911  0.4194 -0.3701
  804MPD2     N11901   0.490   4.402  17.331  0.4279  0.2783  0.3448
  804MPD2    H511902   0.459   4.360  17.417 -0.0550  0.0651  0.0649
  804MPD2    N111903   0.393   3.953  17.166 -0.7334 -0.3147 -0.0061
  804MPD2    H711904   0.375   3.933  17.264 -0.5206  0.0567  0.1089
  805MPD2     C11905   0.086   1.761  15.398  0.1654  0.0669 -0.4423
  805MPD2    C111906   0.039   1.889  15.393 -0.0930  0.2757 -0.2660
  805MPD2    C211907   0.085   1.984  15.491  0.2631 -0.5350  0.2233
  805MPD2    C311908   0.190   1.946  15.574  0.0715 -1.2613 -0.2945
  805MPD2    C411909   0.228   1.815  15.583 -0.1933  0.4930  0.2960
  805MPD2    C511910   0.176   1.726  15.495  0.0225  0.3408 -0.8132
  805MPD2     H11911   0.050   2.086  15.483  0.0513 -0.4874  1.7373
  805MPD2    H111912   0.301   1.784  15.657  0.8457  0.2181 -0.8379
  805MPD2    H211913   0.059   1.688  15.322  1.4222 -1.3151  0.4256
  805MPD2    H311914   0.212   1.624  15.486 -0.0535 -0.0016  2.7691
  805MPD2     N11915   0.233   2.055  15.662  0.1009 -0.4825 -0.0118
  805MPD2    H511916   0.189   2.143  15.638 -1.3912 -1.2824 -0.1820
  805MPD2    N111917   4.683   1.945  15.297 -0.0763  0.1064  0.0802
  805MPD2    H711918   4.669   2.046  15.300 -2.8155 -0.2872  0.7809
  806MPD2     C11919   4.654   2.178  17.700  0.3260  0.3942  0.4240
  806MPD2    C111920   4.588   2.279   0.022 -0.7060 -0.3302 -0.8183
  806MPD2    C211921   4.616   2.409  17.731 -0.5961  0.0942 -0.2007
  806MPD2    C311922   4.705   2.433  17.630 -0.5745  0.2721  0.5446
  806MPD2    C411923   0.019   2.332  17.548 -0.1863 -0.0614 -0.0965
  806MPD2    C511924   0.011   2.209  17.597  0.3875 -0.5261  0.3421
  806MPD2     H11925   4.573   2.495   0.032 -2.1203 -0.8591  0.1687
  806MPD2    H111926   0.073   2.345  17.455  0.2347  1.2062  0.3282
  806MPD2    H211927   4.638   2.075  17.730 -0.5560  0.7756  1.2457
  806MPD2    H311928   0.048   2.131  17.531  1.2853  0.1525  0.0412
  806MPD2     N11929   4.723   2.568  17.606 -0.1184 -0.2431 -0.2858
  806MPD2    H511930   4.681   2.636  17.669 -0.9707 -0.4444 -0.6314
  806MPD2    N111931   4.507   2.239   0.133 -0.1499 -0.4190  0.3505
  806MPD2    H711932   4.493   2.140   0.152  1.9445 -0.5017  1.5170
  807MPD2     C11933   4.260   1.673   0.593 -0.1672 -0.5942  0.0107
  807MPD2    C111934   4.388   1.709   0.628 -0.0885 -0.7547  0.0330
  807MPD2    C211935   4.463   1.629   0.716  0.7554 -1.1584  0.0397
  807MPD2    C311936   4.418   1.514   0.772  0.2343 -0.0930  0.1953
  807MPD2    C411937   4.293   1.476   0.730  0.1310  0.7695  0.3530
  807MPD2    C511938   4.223   1.552   0.638 -0.1326  0.2936  0.1073
  807MPD2     H11939   4.555   1.678   0.746 -0.2751  0.1633  1.0228
  807MPD2    H111940   4.247   1.388   0.772 -0.0816  0.6052 -0.2259
  807MPD2    H211941   4.190   1.716   0.523 -0.2817 -1.0251 -0.1415
  807MPD2    H311942   4.132   1.514   0.594 -0.5162  0.9920  0.3132
  807MPD2     N11943   4.498   1.442   0.856  0.0335 -0.2008 -0.0403
  807MPD2    H511944   4.589   1.480   0.881  1.0331 -1.2628 -1.9855
  807MPD2    N111945   4.439   1.837   0.595  0.1058 -0.6497 -0.2414
  807MPD2    H711946   4.526   1.867   0.639  0.0645  1.0664 -1.3061
  808MPD2     C11947   0.078   4.232   9.426 -0.5007  0.1013  0.1105
  808MPD2    C111948   0.150   4.273   9.537 -1.0891 -0.1297  0.5483
  808MPD2    C211949   0.167   4.412   9.548 -0.7054  0.2730 -0.3520
  808MPD2    C311950   0.131   4.499   9.447  0.2602 -0.7323  0.1766
  808MPD2    C411951   0.050   4.453   9.347  1.1343 -0.2900  0.0568
  808MPD2    C511952   0.025   4.315   9.334  0.5062 -0.1371  0.3679
  808MPD2     H11953   0.224   4.436   9.637 -1.0685 -0.1008 -0.0253
  808MPD2    H111954   4.734   4.522   9.283 -0.0156 -1.4036 -0.1844
  808MPD2    H211955   0.058   4.126   9.415 -1.1525  0.0789  1.5790
  808MPD2    H311956   4.693   4.279   9.258  2.4450 -2.7268 -0.2088
  808MPD2     N11957   0.160   4.636   9.454 -0.4292  0.2997  0.4139
  808MPD2    H511958   0.144   4.683   9.365  0.8760  0.3497  0.2141
  808MPD2    N111959   0.184   4.194   9.642 -0.0063  0.2125  0.0377
  808MPD2    H711960   0.237   4.233   9.720 -2.4458  1.3969  1.0787
  809MPD2     C11961   0.344   0.271   8.719 -0.3094  0.4113 -0.2392
  809MPD2    C111962   0.455   0.288   8.797  0.0822 -0.3246 -0.0628
  809MPD2    C211963   0.450   0.286   8.937  0.1358  0.0343 -0.8356
  809MPD2    C311964   0.328   0.249   8.998 -0.2646 -0.4142  0.0427
  809MPD2    C411965   0.224   0.212   8.915 -0.7983 -0.6401 -0.5544
  809MPD2    C511966   0.229   0.229   8.781  0.3400  0.3487  0.4638
  809MPD2     H11967   0.538   0.303   8.997 -1.0712 -0.3282  1.0229
  809MPD2    H111968   0.127   0.205   8.963 -0.9117 -2.4238 -1.0476
  809MPD2    H211969   0.352   0.247   8.614 -0.9692  2.3415 -0.7325
  809MPD2    H311970   0.151   0.206   8.709  1.0914 -0.6506 -0.0308
  809MPD2     N11971   0.312   0.235   9.136 -0.6987  0.2968 -0.4860
  809MPD2    H511972   0.225   0.189   9.159 -0.3121  0.1595  0.6808
  809MPD2    N111973   0.584   0.309   8.749 -0.7413  0.1665  0.0760
  809MPD2    H711974   0.660   0.315   8.816  0.6384  0.4034 -1.4920
  810MPD2     C11975   0.106   3.111  10.831  0.0926 -0.0384  0.2345
  810MPD2    C111976   0.128   3.156  10.702  0.4752  0.5142 -0.1085
  810MPD2    C211977   0.082   3.278  10.650 -0.8261  0.0463  0.4953
  810MPD2    C311978   0.035   3.371  10.739  0.8588 -0.3744 -0.0324
  810MPD2    C411979   0.035   3.336  10.875 -0.1486  0.1391  0.4986
  810MPD2    C511980   0.063   3.206  10.915  0.2861  0.0407  0.7791
  810MPD2     H11981   0.082   3.296  10.543 -1.0492  1.0037  0.6537
  810MPD2    H111982   0.001   3.409  10.947 -0.1453 -0.2738  0.9196
  810MPD2    H211983   0.108   3.008  10.865 -0.8916 -1.0742 -2.8706
  810MPD2    H311984   0.042   3.192  11.020 -0.2679  1.1845  0.8164
  810MPD2     N11985   4.718   3.492  10.698 -0.5396  0.0229  0.3681
  810MPD2    H511986   4.696   3.569  10.760  0.8768  0.6599  0.0727
  810MPD2    N111987   0.168   3.054  10.610 -0.0567 -0.2338  0.8102
  810MPD2    H711988   0.178   2.957  10.638 -2.4026 -0.4365  0.9994
  811MPD2     C11989   4.488   2.973   9.831  0.1594  0.6932  0.0910
  811MPD2    C111990   4.559   3.054   9.921  0.4739 -0.4062  0.0769
  811MPD2    C211991   4.540   3.194   9.910 -0.2261 -0.1909  0.0362
  811MPD2    C311992   4.449   3.246   9.822 -0.6278  0.4666 -0.4674
  811MPD2    C411993   4.375   3.164   9.732 -0.0097  0.5040 -0.1296
  811MPD2    C511994   4.394   3.027   9.740  0.1651  0.4838 -0.6357
  811MPD2     H11995   4.604   3.259   9.968  0.5402 -0.3038 -0.6842
  811MPD2    H111996   4.312   3.198   9.651  0.0144 -0.3182 -0.4991
  811MPD2    H211997   4.496   2.865   9.836  0.5996  0.7317  0.2205
  811MPD2    H311998   4.335   2.962   9.675  1.0754 -1.9993  1.0223
  811MPD2     N11999   4.427   3.387   9.828 -0.6751 -0.1619 -0.2714
  811MPD2    H512000   4.494   3.440   9.882 -1.4808  1.7471 -1.1343
  811MPD2    N112001   4.654   2.991  10.004  0.0365 -0.4273 -0.2453
  811MPD2    H712002   4.665   2.891   9.990 -0.3170 -0.5195  0.1281
  812MPD2     C12003   3.220   3.096  12.622  0.1395 -0.5010  0.6298
  812MPD2    C112004   3.350   3.126  12.574 -0.2384  0.9192  0.3532
  812MPD2    C212005   3.421   3.009  12.540 -0.1964 -0.4233  0.5756
  812MPD2    C312006   3.377   2.881  12.554  0.9958  0.0654 -0.0688
  812MPD2    C412007   3.255   2.864  12.617  0.7841  0.1248  0.1460
  812MPD2    C512008   3.174   2.967  12.646 -0.5537  0.0697  0.1172
  812MPD2     H12009   3.519   3.015  12.494 -0.2441  0.4311  0.5745
  812MPD2    H112010   3.211   2.765  12.621  0.3576  0.1518 -3.4325
  812MPD2    H212011   3.160   3.180  12.656  0.9656  0.6546 -0.7822
  812MPD2    H312012   3.077   2.953  12.692  0.0358 -0.6197  1.1422
  812MPD2     N12013   3.464   2.774  12.527 -0.4915  0.2443 -0.1853
  812MPD2    H512014   3.556   2.796  12.489 -0.4249  0.0221 -0.1564
  812MPD2    N112015   3.380   3.255  12.539 -0.3728  0.2380 -0.6502
  812MPD2    H712016   3.304   3.322  12.543 -1.4864 -1.0949  0.6170
  813MPD2     C12017   3.120   4.292  13.063 -0.1807 -0.0386 -0.1291
  813MPD2    C112018   3.040   4.360  12.972  0.0973  0.6437  0.1101
  813MPD2    C212019   2.906   4.374  12.990 -0.3186 -0.5027 -0.2422
  813MPD2    C312020   2.847   4.311  13.098  0.1451  0.1373 -0.3726
  813MPD2    C412021   2.920   4.236  13.185 -0.8275  0.1807 -0.0281
  813MPD2    C512022   3.058   4.225  13.161  0.1699  0.6540 -0.0004
  813MPD2     H12023   2.853   4.443  12.925  0.1819 -0.9426 -1.1223
  813MPD2    H112024   2.880   4.179  13.269  0.0483  1.0498  0.9842
  813MPD2    H212025   3.228   4.298  13.057 -0.1542  1.6231  2.0644
  813MPD2    H312026   3.125   4.172  13.228 -0.6217  1.3532  1.3515
  813MPD2     N12027   2.710   4.338  13.120  0.1304  0.1929 -0.1031
  813MPD2    H512028   2.672   4.404  13.052  0.4219  0.4596 -0.0077
  813MPD2    N112029   3.106   4.445  12.888 -0.4960  0.4892  0.1911
  813MPD2    H712030   3.207   4.441  12.902 -0.7513  0.2885  2.0081
  814MPD2     C12031   3.789   0.730  12.753 -0.0966  0.5103  0.3037
  814MPD2    C112032   3.729   0.814  12.663 -0.4995  0.8043  0.0172
  814MPD2    C212033   3.686   0.936  12.711  0.2412 -0.1827 -0.6457
  814MPD2    C312034   3.714   0.984  12.843  0.3161 -0.1641  0.2048
  814MPD2    C412035   3.771   0.893  12.932  0.8663  0.3429 -0.2267
  814MPD2    C512036   3.806   0.765  12.883 -0.1434 -0.3619  0.3681
  814MPD2     H12037   3.631   1.008  12.652 -0.5561  0.5909  1.0190
  814MPD2    H112038   3.801   0.922  13.032  1.3852 -3.8352  0.8363
  814MPD2    H212039   3.822   0.633  12.719  2.1303  1.0739  0.8341
  814MPD2    H312040   3.845   0.692  12.952 -0.2396  1.8746  2.7954
  814MPD2     N12041   3.687   1.119  12.890 -0.2452  1.1667 -1.0731
  814MPD2    H512042   3.684   1.134  12.990  1.0133  2.1803 -1.1784
  814MPD2    N112043   3.700   0.790  12.528  0.7445  0.0964  0.5200
  814MPD2    H712044   3.668   0.865  12.468 -1.4822  0.4194  2.1098
  815MPD2     C12045   3.834   4.623  11.700 -0.2823 -0.0797  0.4806
  815MPD2    C112046   3.820   4.490  11.746 -0.0331  0.0009  0.3674
  815MPD2    C212047   3.739   4.462  11.850 -0.3241 -0.1540 -0.2334
  815MPD2    C312048   3.670   4.559  11.918  0.4623  0.9715 -0.5362
  815MPD2    C412049   3.691   4.693  11.881  0.0701  0.3758 -0.8126
  815MPD2    C512050   3.769   4.726  11.775  0.1673  0.0196  0.7544
  815MPD2     H12051   3.720   4.360  11.883  1.6831 -0.4371  0.0355
  815MPD2    H112052   3.634   0.040  11.917 -0.8384 -0.3308 -0.6026
  815MPD2    H212053   3.902   4.650  11.620 -1.8074 -1.8818 -1.4592
  815MPD2    H312054   3.789   0.091  11.745  0.6402 -0.4620 -0.5761
  815MPD2     N12055   3.575   4.511  12.009  0.2803  0.1422 -0.6371
  815MPD2    H512056   3.560   4.411  12.018  0.7843 -0.0528 -2.0344
  815MPD2    N112057   3.891   4.387  11.669  0.0234  0.1432 -0.2911
  815MPD2    H712058   3.932   4.421  11.582  1.0898  0.8040  0.4674
  816MPD2     C12059   3.893   3.582  17.263 -0.6150 -0.4718 -0.5236
  816MPD2    C112060   3.885   3.675  17.162 -0.0621 -0.0459  0.5305
  816MPD2    C212061   3.927   3.634  17.038  0.0994 -0.8992 -0.5658
  816MPD2    C312062   3.963   3.507  16.996  0.1103  0.7531 -0.4466
  816MPD2    C412063   3.965   3.418  17.102 -0.2541 -0.1516  0.4702
  816MPD2    C512064   3.934   3.455  17.229  0.1458 -0.6791  0.2489
  816MPD2     H12065   3.946   3.706  16.959 -0.0744  0.5889  0.7616
  816MPD2    H112066   4.004   3.318  17.086 -0.2719 -0.1108  0.1695
  816MPD2    H212067   3.875   3.606  17.367 -0.7315  0.9266 -0.8704
  816MPD2    H312068   3.956   3.388  17.311 -2.0005  0.4695  1.7622
  816MPD2     N12069   4.019   3.491  16.866 -0.1542 -0.2333 -0.5777
  816MPD2    H512070   4.000   3.568  16.802 -1.1161  0.9179  1.1104
  816MPD2    N112071   3.850   3.812  17.177 -0.3805  0.6766  0.7640
  816MPD2    H712072   3.839   3.869  17.094 -1.6344  1.0523  1.1853
  817MPD2     C12073   2.911   0.589   9.752  0.0806  0.4718  0.2855
  817MPD2    C112074   3.024   0.518   9.701  0.8028 -0.1069  0.5163
  817MPD2    C212075   3.144   0.589   9.714  0.4345  0.3326 -0.2534
  817MPD2    C312076   3.155   0.718   9.773 -0.1346  0.2373  0.0420
  817MPD2    C412077   3.035   0.772   9.825 -0.3066 -0.0816  0.3152
  817MPD2    C512078   2.918   0.708   9.815 -0.1405  1.2525 -0.8380
  817MPD2     H12079   3.233   0.538   9.680  0.3314 -0.7928  1.1878
  817MPD2    H112080   3.043   0.870   9.872 -1.7986  0.3213 -0.2802
  817MPD2    H212081   2.813   0.541   9.751  0.7669 -0.9420  1.2029
  817MPD2    H312082   2.831   0.759   9.852 -1.1833  0.0686 -1.6720
  817MPD2     N12083   3.281   0.779   9.777  0.2262 -0.5044  0.3361
  817MPD2    H512084   3.361   0.723   9.749  0.3353 -0.2119  0.0690
  817MPD2    N112085   3.041   0.393   9.644 -0.5828 -0.6758  0.2895
  817MPD2    H712086   3.136   0.367   9.620  0.6237  3.9184  0.1507
  818MPD2     C12087   1.803   0.647   9.986  0.2911  0.3311 -0.9057
  818MPD2    C112088   1.881   0.610  10.091 -0.5267 -0.3895  0.0445
  818MPD2    C212089   2.011   0.628  10.093 -0.0172 -0.0432  0.6569
  818MPD2    C312090   2.075   0.679   9.977 -0.3787  0.1494  0.3774
  818MPD2    C412091   1.994   0.735   9.880  0.2560 -0.7927  0.1598
  818MPD2    C512092   1.859   0.720   9.886  0.4007  0.0053 -0.0689
  818MPD2     H12093   2.072   0.580  10.169  0.4536  0.2574  0.4747
  818MPD2    H112094   2.033   0.783   9.791  0.5453 -1.0903  0.1243
  818MPD2    H212095   1.695   0.650   9.980  0.3288  0.0227 -1.6356
  818MPD2    H312096   1.797   0.759   9.807 -0.8483  0.2339  1.0294
  818MPD2     N12097   2.218   0.673   9.953 -0.2795  0.7111 -0.6250
  818MPD2    H512098   2.236   0.722   9.866  0.5994 -0.0816 -0.8893
  818MPD2    N112099   1.820   0.545  10.204 -0.5680 -0.1510  0.1692
  818MPD2    H712100   1.875   0.526  10.288  1.4644  2.2515 -0.6256
  819MPD2     C12101   0.566   2.464  15.860 -0.1783 -0.1741 -0.6428
  819MPD2    C112102   0.596   2.401  15.741 -0.0506  0.1085  0.3788
  819MPD2    C212103   0.682   2.289  15.749 -0.1101  0.1666 -0.0138
  819MPD2    C312104   0.724   2.242  15.869  0.2173  0.2560 -0.0513
  819MPD2    C412105   0.692   2.311  15.983 -0.9705 -0.6408  0.7692
  819MPD2    C512106   0.617   2.423  15.976  0.4096  0.1333 -0.3029
  819MPD2     H12107   0.713   2.238  15.659  1.8832  2.1397 -0.4448
  819MPD2    H112108   0.722   2.285  16.084 -2.6260  0.7049  1.6025
  819MPD2    H212109   0.493   2.544  15.855  0.2199  0.2270  0.0630
  819MPD2    H312110   0.589   2.480  16.063  0.1409  1.5037 -1.2930
  819MPD2     N12111   0.806   2.127  15.859  0.3390  0.3344  0.2022
  819MPD2    H512112   0.832   2.094  15.767  0.7600 -0.3342  0.5609
  819MPD2    N112113   0.546   2.452  15.620 -0.1556  0.6986 -0.3606
  819MPD2    H712114   0.502   2.543  15.627 -2.0706 -0.1616 -1.1187
  820MPD2     C12115   4.545   2.553  14.957 -0.6235 -0.3493  0.2516
  820MPD2    C112116   4.595   2.470  15.053 -0.2815  0.3795  0.2593
  820MPD2    C212117   4.701   2.501  15.125  0.1954 -0.0126  0.0006
  820MPD2    C312118   0.030   2.623  15.104  0.0840 -0.1122  0.3575
  820MPD2    C412119   4.719   2.712  15.011 -0.3659  0.3244 -0.2233
  820MPD2    C512120   4.614   2.671  14.932  0.1246 -0.5871 -0.2039
  820MPD2     H12121   4.729   2.424  15.196 -1.1194 -1.2584 -0.8465
  820MPD2    H112122   0.029   2.809  14.999 -1.7015  1.3511  2.6708
  820MPD2    H212123   4.456   2.533  14.898  0.8180 -0.4826 -1.8865
  820MPD2    H312124   4.566   2.742  14.866 -0.3360 -1.2033 -0.5277
  820MPD2     N12125   0.140   2.654  15.186  0.0889 -0.2011  0.0857
  820MPD2    H512126   0.201   2.728  15.151 -0.2446 -0.4700 -1.0563
  820MPD2    N112127   4.538   2.340  15.074  0.1198  0.3846 -0.2607
  820MPD2    H712128   4.580   2.292  15.153 -0.1502 -0.4477 -0.6283
  821MPD2     C12129   0.549   3.518  12.756  0.4890 -0.0626 -0.3578
  821MPD2    C112130   0.646   3.434  12.813 -0.3406 -0.3496 -0.1914
  821MPD2    C212131   0.778   3.481  12.826  0.1544  0.2051  0.0190
  821MPD2    C312132   0.810   3.608  12.779  0.6458 -0.1862 -0.1123
  821MPD2    C412133   0.716   3.676  12.701 -0.1199  0.5099 -0.3502
  821MPD2    C512134   0.584   3.637  12.700 -0.3166 -0.3416 -0.2625
  821MPD2     H12135   0.853   3.430  12.885  0.3254  1.2671  0.7231
  821MPD2    H112136   0.745   3.768  12.652 -0.2002  0.6853 -0.0684
  821MPD2    H212137   0.446   3.489  12.740  0.0725  0.7580  0.8868
  821MPD2    H312138   0.513   3.703  12.650  1.0189  0.8673 -0.5626
  821MPD2     N12139   0.942   3.658  12.787  0.2198 -0.4616  0.4701
  821MPD2    H512140   0.958   3.754  12.758  1.8940 -0.3539  1.7452
  821MPD2    N112141   0.623   3.318  12.881  0.2837  0.2771 -0.2025
  821MPD2    H712142   0.696   3.283  12.943 -0.0691 -1.7004 -0.9071
  822MPD2     C12143   1.072   3.375  15.527 -0.0103 -0.4093  0.0569
  822MPD2    C112144   0.997   3.344  15.637  0.7853  0.4017 -0.1898
  822MPD2    C212145   0.901   3.436  15.679  0.3415 -0.0214 -0.2789
  822MPD2    C312146   0.882   3.559  15.631  0.0766  0.6768 -0.2793
  822MPD2    C412147   0.962   3.593  15.526 -0.0288  0.2031 -0.3148
  822MPD2    C512148   1.050   3.503  15.479 -0.3091  0.2113 -1.0071
  822MPD2     H12149   0.841   3.406  15.764  0.8157 -0.5043 -0.1149
  822MPD2    H112150   0.969   3.694  15.488 -1.5150  0.2148 -0.5510
  822MPD2    H212151   1.160   3.319  15.499  0.7189  1.1884 -0.8587
  822MPD2    H312152   1.121   3.541  15.406  0.8774  1.3367  0.7482
  822MPD2     N12153   0.802   3.648  15.714  0.1371 -0.1927 -0.0189
  822MPD2    H512154   0.758   3.615  15.799  1.3812 -1.8847 -0.0389
  822MPD2    N112155   1.025   3.246  15.732  0.3493  1.3668 -0.5421
  822MPD2    H712156   0.979   3.252  15.822 -0.1382  1.0491 -0.7710
  823MPD2     C12157   0.486   3.918  16.457 -0.2356 -0.2690 -0.8942
  823MPD2    C112158   0.561   3.845  16.367 -0.2732  0.1043  0.3158
  823MPD2    C212159   0.645   3.741  16.411 -0.0416  0.3817  0.5701
  823MPD2    C312160   0.654   3.716  16.544  0.2086  0.2693 -0.1551
  823MPD2    C412161   0.571   3.785  16.632  0.1608 -0.0085  0.8852
  823MPD2    C512162   0.486   3.886  16.592  0.2086  0.6720  0.5481
  823MPD2     H12163   0.716   3.702  16.338  0.0987 -0.7928  1.3208
  823MPD2    H112164   0.561   3.772  16.740  0.0395  1.5557  1.0547
  823MPD2    H212165   0.437   4.012  16.436  2.4066  1.2678 -0.2314
  823MPD2    H312166   0.433   3.944  16.666  1.2380  0.9684  1.0611
  823MPD2     N12167   0.733   3.619  16.594 -0.7164  0.0079  0.7154
  823MPD2    H512168   0.726   3.603  16.694  0.7129 -1.1863  0.6345
  823MPD2    N112169   0.551   3.880  16.230 -0.2231  0.4307  0.2472
  823MPD2    H712170   0.506   3.969  16.211 -1.3648  0.1604  1.7437
  824MPD2     C12171   1.353   2.485  15.948 -0.1823  0.4881  0.4983
  824MPD2    C112172   1.377   2.580  15.850  0.5417 -0.2699 -0.0619
  824MPD2    C212173   1.459   2.552  15.741 -0.5030 -1.1057 -0.0538
  824MPD2    C312174   1.523   2.431  15.730 -0.4201  0.4767  0.0223
  824MPD2    C412175   1.495   2.335  15.826  0.1938  0.3482  0.4964
  824MPD2    C512176   1.417   2.366  15.929  0.4501 -0.1681  0.2439
  824MPD2     H12177   1.472   2.627  15.664  0.6017 -0.4339  0.7802
  824MPD2    H112178   1.520   2.230  15.825 -0.4060  0.2156 -0.4497
  824MPD2    H212179   1.289   2.489  16.035 -1.2709 -1.1919 -0.2229
  824MPD2    H312180   1.400   2.287  16.001  0.8045 -0.5927 -0.1347
  824MPD2     N12181   1.593   2.406  15.616 -0.5538 -0.3747 -0.7546
  824MPD2    H512182   1.617   2.481  15.553  1.6898 -2.8639 -2.8771
  824MPD2    N112183   1.327   2.710  15.861 -0.0340  0.1942  0.1481
  824MPD2    H712184   1.341   2.772  15.782 -1.0471  1.7900  1.2099
  825MPD2     C12185   2.019   2.556  14.913  0.4721  0.3802 -0.3090
  825MPD2    C112186   2.001   2.589  15.049 -0.4338 -0.1639 -0.2091
  825MPD2    C212187   2.020   2.720  15.088 -0.4834 -0.4045 -0.0878
  825MPD2    C312188   2.049   2.814  14.989  1.0226 -0.6596  0.4730
  825MPD2    C412189   2.057   2.781  14.859 -0.3146  0.1131 -0.0016
  825MPD2    C512190   2.064   2.647  14.827  0.3380 -0.3011  0.3651
  825MPD2     H12191   2.004   2.755  15.189  0.9947 -0.5248  0.1941
  825MPD2    H112192   2.084   2.850  14.780  0.1485  1.1245  1.0346
  825MPD2    H212193   2.022   2.455  14.872  0.8616  1.5128 -3.0512
  825MPD2    H312194   2.073   2.611  14.725  1.8707 -0.8778  0.7000
  825MPD2     N12195   2.046   2.952  15.024  0.4122 -0.0878  0.2521
  825MPD2    H512196   2.051   3.018  14.947  0.0772 -0.7894 -0.3753
  825MPD2    N112197   1.969   2.486  15.147 -0.3996 -0.1815 -0.1332
  825MPD2    H712198   1.955   2.392  15.111 -0.7872  0.1941 -0.9701
  826MPD2     C12199   1.739   2.303  12.903  0.3881  0.3556  0.3016
  826MPD2    C112200   1.780   2.435  12.881 -0.7214  0.6156 -0.2137
  826MPD2    C212201   1.681   2.535  12.903  0.3372 -0.1570  0.1272
  826MPD2    C312202   1.549   2.508  12.922  0.1180  0.2228 -0.0998
  826MPD2    C412203   1.513   2.376  12.920  0.0030 -0.2877  0.6168
  826MPD2    C512204   1.604   2.277  12.913 -0.6521  0.1426 -0.1266
  826MPD2     H12205   1.711   2.638  12.885 -1.4532  0.8263  2.8241
  826MPD2    H112206   1.409   2.351  12.934 -0.2036  0.4674  0.4165
  826MPD2    H212207   1.812   2.223  12.904 -1.0870 -0.9801 -1.3446
  826MPD2    H312208   1.564   2.176  12.903  0.5479 -0.4235  0.7633
  826MPD2     N12209   1.451   2.597  12.973 -0.0433  0.0774 -0.2573
  826MPD2    H512210   1.358   2.559  12.984 -0.3633  0.4043 -1.8394
  826MPD2    N112211   1.918   2.469  12.870  0.4197 -0.2243  0.2102
  826MPD2    H712212   1.987   2.398  12.890  1.9761  1.8098  2.0920
  827MPD2     C12213   2.885   3.741   9.996 -0.4444 -0.0924  0.5968
  827MPD2    C112214   2.772   3.758  10.071 -0.3663  0.6342  0.2305
  827MPD2    C212215   2.660   3.810  10.008  1.4655 -0.1840 -0.3753
  827MPD2    C312216   2.657   3.862   9.879  0.2051  0.4405  0.0098
  827MPD2    C412217   2.772   3.834   9.808  0.2298 -0.1476  0.9433
  827MPD2    C512218   2.883   3.779   9.866  0.2427  0.1760  0.0419
  827MPD2     H12219   2.573   3.827  10.071  1.2323 -2.0136 -0.2056
  827MPD2    H112220   2.787   3.861   9.704  1.3336 -0.9118  0.9058
  827MPD2    H212221   2.972   3.686  10.029  0.1214  0.5471  0.1630
  827MPD2    H312222   2.972   3.767   9.805 -0.0714 -0.6473 -0.2638
  827MPD2     N12223   2.543   3.935   9.833 -0.0010 -0.2194 -0.2521
  827MPD2    H512224   2.462   3.923   9.894 -0.0954  2.2237  0.1241
  827MPD2    N112225   2.780   3.725  10.207 -0.3620 -0.2174 -0.1020
  827MPD2    H712226   2.870   3.692  10.241 -0.1678  0.6643  0.2372
  828MPD2     C12227   1.430   3.972  12.501  0.2223  0.3758  0.2964
  828MPD2    C112228   1.430   3.910  12.376 -0.1828  0.6324  0.2637
  828MPD2    C212229   1.544   3.857  12.329  0.2594 -0.4391  0.2971
  828MPD2    C312230   1.663   3.880  12.389 -0.0576  0.7962  0.7703
  828MPD2    C412231   1.672   3.958  12.498 -0.5471  0.8736  0.0600
  828MPD2    C512232   1.552   4.006  12.554 -0.1370 -0.4788  0.9786
  828MPD2     H12233   1.547   3.801  12.237 -0.2370  0.2195 -0.1258
  828MPD2    H112234   1.765   3.974  12.552 -0.7935 -0.1294  0.7950
  828MPD2    H212235   1.339   4.006  12.550  0.1216  2.5296 -1.3898
  828MPD2    H312236   1.557   4.051  12.653 -1.7044  0.0690  0.8042
  828MPD2     N12237   1.783   3.818  12.335 -0.1148  0.1960  0.1675
  828MPD2    H512238   1.867   3.843  12.387 -0.5170  0.2328  0.8027
  828MPD2    N112239   1.318   3.884  12.299  0.0158  0.1012 -0.7351
  828MPD2    H712240   1.323   3.834  12.211  2.4993 -1.5324  0.3686
  829MPD2     C12241   1.258   3.564  11.493 -0.0155 -1.0392  0.1721
  829MPD2    C112242   1.145   3.650  11.492  0.6995 -0.3632 -0.2141
  829MPD2    C212243   1.111   3.726  11.609 -0.4977 -0.7021 -0.4022
  829MPD2    C312244   1.187   3.712  11.723  0.0952 -0.5388 -0.2701
  829MPD2    C412245   1.284   3.617  11.728 -0.0249 -0.1913  0.1714
  829MPD2    C512246   1.320   3.547  11.615 -0.1278 -0.2577 -0.0685
  829MPD2     H12247   1.027   3.794  11.610 -0.6250 -0.8613  0.0275
  829MPD2    H112248   1.325   3.593  11.826  0.2520 -2.4207 -0.4845
  829MPD2    H212249   1.289   3.515  11.402  0.1293 -0.1564 -0.2535
  829MPD2    H312250   1.395   3.469  11.617  0.0826 -0.0620 -0.6471
  829MPD2     N12251   1.161   3.786  11.838  0.0027  0.8818 -0.1622
  829MPD2    H512252   1.230   3.787  11.913 -0.5960 -0.2785  0.3938
  829MPD2    N112253   1.072   3.663  11.371 -0.0078 -0.1640  0.0475
  829MPD2    H712254   1.115   3.614  11.292  1.4154 -2.2268  2.0869
  830MPD2     C12255   1.031   1.525  15.361 -0.0170 -0.1763 -0.0638
  830MPD2    C112256   1.063   1.656  15.399  0.7695 -0.0742  1.0110
  830MPD2    C212257   1.103   1.748  15.309 -0.1229  0.4693 -0.5632
  830MPD2    C312258   1.119   1.710  15.177  0.0416 -0.2282  0.3412
  830MPD2    C412259   1.099   1.577  15.142 -0.6174  1.0003  0.5912
  830MPD2    C512260   1.040   1.490  15.228 -0.1263 -0.9047 -0.0208
  830MPD2     H12261   1.129   1.847  15.343  1.7033 -0.1840 -0.0840
  830MPD2    H112262   1.088   1.545  15.039 -0.4999  1.0191  0.5731
  830MPD2    H212263   1.008   1.450  15.435 -0.8946 -1.7654 -1.9734
  830MPD2    H312264   1.004   1.395  15.191 -0.9432 -1.1073  1.3254
  830MPD2     N12265   1.153   1.794  15.065  0.2404 -0.0931 -0.2195
  830MPD2    H512266   1.142   1.754  14.973 -1.0957  1.0942 -0.5605
  830MPD2    N112267   1.036   1.690  15.534 -0.0560  0.6449  0.0795
  830MPD2    H712268   0.984   1.622  15.587 -0.6835  0.1026 -1.2418
  831MPD2     C12269   1.137   3.785  15.994 -0.3466  0.3963 -0.2305
  831MPD2    C112270   1.141   3.657  15.934  0.8492 -0.9495 -0.0025
  831MPD2    C212271   1.044   3.568  15.972 -0.0497  0.3616 -0.6381
  831MPD2    C312272   0.936   3.600  16.051  0.4676 -0.3689  0.3572
  831MPD2    C412273   0.934   3.725  16.114  0.1295 -0.1616  0.7529
  831MPD2    C512274   1.028   3.820  16.079 -0.1515 -0.0272  0.4943
  831MPD2     H12275   1.052   3.467  15.933 -0.5577  0.0227  0.1308
  831MPD2    H112276   0.859   3.750  16.189 -0.0386 -3.5829  1.6887
  831MPD2    H212277   1.203   3.860  15.953 -0.9886  0.3441 -1.3672
  831MPD2    H312278   1.032   3.917  16.125  1.5816  0.3404 -0.3981
  831MPD2     N12279   0.827   3.513  16.074 -0.4975 -0.5430 -0.1788
  831MPD2    H512280   0.749   3.544  16.130 -1.7926 -1.6053 -1.3877
  831MPD2    N112281   1.248   3.624  15.850  0.0019 -0.4802 -0.0468
  831MPD2    H712282   1.322   3.693  15.839 -2.5458  2.5868  1.7846
  832MPD2     C12283   4.304   0.626  16.347  0.3338  0.0249  0.0880
  832MPD2    C112284   4.310   0.552  16.464  0.5472  0.2017 -0.1427
  832MPD2    C212285   4.211   0.467  16.492 -0.0575  0.0431  0.5369
  832MPD2    C312286   4.092   0.474  16.417  0.1828 -0.1695  0.0616
  832MPD2    C412287   4.076   0.558  16.308 -0.3257 -0.4284  0.2597
  832MPD2    C512288   4.192   0.629  16.270  0.8344 -0.6029  0.1333
  832MPD2     H12289   4.194   0.420  16.589 -0.7390  0.7438  0.7532
  832MPD2    H112290   3.984   0.563  16.251 -1.1336  1.3265  1.7146
  832MPD2    H212291   4.386   0.692  16.325 -0.5999  0.8061 -1.0975
  832MPD2    H312292   4.196   0.699  16.188 -0.4758  0.8756  1.3196
  832MPD2     N12293   3.972   0.401  16.447 -0.1436 -0.3901  0.4009
  832MPD2    H512294   3.894   0.419  16.385  0.4371 -3.0211 -1.0759
  832MPD2    N112295   4.427   0.563  16.545  0.0350  0.2028 -0.5794
  832MPD2    H712296   4.501   0.623  16.508 -0.4893  2.4979  2.1108
  833MPD2     C12297   1.541   1.336  12.751 -0.0335  0.2247  0.8424
  833MPD2    C112298   1.540   1.411  12.635  0.8031 -0.5059  0.3932
  833MPD2    C212299   1.635   1.391  12.535  0.8319 -0.2791  0.6664
  833MPD2    C312300   1.724   1.286  12.542  0.4455  0.5027 -0.1841
  833MPD2    C412301   1.714   1.207  12.659  0.0616 -0.1477 -0.7087
  833MPD2    C512302   1.624   1.231  12.756 -0.0202 -0.1680  0.0771
  833MPD2     H12303   1.641   1.471  12.462  0.3414  0.0624  0.9979
  833MPD2    H112304   1.778   1.120  12.665 -0.0846 -0.2887 -1.1719
  833MPD2    H212305   1.464   1.356  12.825 -1.2847 -1.8060  0.1143
  833MPD2    H312306   1.616   1.165  12.842  1.4655 -0.4598 -0.0067
  833MPD2     N12307   1.810   1.252  12.439  0.1187  0.3661 -0.1194
  833MPD2    H512308   1.852   1.160  12.449  1.5182  1.1440  1.0220
  833MPD2    N112309   1.438   1.507  12.621  0.7506  0.4924  0.2264
  833MPD2    H712310   1.378   1.535  12.698 -1.7133 -1.6996 -0.8821
  834MPD2     C12311   1.480   0.453  12.094  0.2955 -0.0017  0.1683
  834MPD2    C112312   1.504   0.514  11.974  0.6727 -0.2902 -0.1560
  834MPD2    C212313   1.544   0.643  11.981  0.3890  0.4940 -0.0990
  834MPD2    C312314   1.571   0.715  12.101 -0.0413  0.1809  0.7178
  834MPD2    C412315   1.545   0.651  12.221  0.1777  0.5127  0.0052
  834MPD2    C512316   1.502   0.518  12.212  0.0568 -0.7861 -0.6448
  834MPD2     H12317   1.560   0.692  11.886 -0.0348 -0.4687 -0.6685
  834MPD2    H112318   1.572   0.685  12.320  0.5564  0.5868 -0.1245
  834MPD2    H212319   1.451   0.349  12.092  0.5711 -0.0808  0.2754
  834MPD2    H312320   1.500   0.463  12.305 -0.8447  1.6417  0.7597
  834MPD2     N12321   1.628   0.849  12.088 -0.2036 -0.0052  0.0368
  834MPD2    H512322   1.642   0.892  11.997  0.3520 -0.4991 -0.1042
  834MPD2    N112323   1.491   0.445  11.849  0.8268 -0.0346 -0.2571
  834MPD2    H712324   1.448   0.353  11.847  3.7223 -1.3658 -0.9185
  835MPD2     C12325   1.868   3.592  10.921 -0.6253  1.1870  0.0586
  835MPD2    C112326   1.778   3.630  11.019 -1.2263  0.7472  0.1622
  835MPD2    C212327   1.821   3.626  11.151 -0.1433 -0.9044  0.9467
  835MPD2    C312328   1.944   3.567  11.187 -0.3787  0.0230 -1.5072
  835MPD2    C412329   2.031   3.537  11.085 -0.2771 -0.0347 -0.3622
  835MPD2    C512330   1.998   3.562  10.958  0.4445  0.2038  1.0725
  835MPD2     H12331   1.748   3.661  11.222 -3.0101 -0.4690 -2.2078
  835MPD2    H112332   2.129   3.501  11.117 -0.2913  0.6500  0.4725
  835MPD2    H212333   1.849   3.592  10.815 -0.5873  0.3222  0.0552
  835MPD2    H312334   2.068   3.553  10.876 -0.5492  0.5833  0.1779
  835MPD2     N12335   1.985   3.550  11.325  0.4191  0.2290 -0.0485
  835MPD2    H512336   2.082   3.529  11.347  1.0665  0.7486 -2.4336
  835MPD2    N112337   1.651   3.685  10.998 -0.2550 -0.0460  0.0596
  835MPD2    H712338   1.592   3.725  11.071  0.8854  1.2209  0.2968
  836MPD2     C12339   1.488   3.920  11.794  0.1964 -0.0142  0.2616
  836MPD2    C112340   1.603   3.903  11.861  0.4213 -0.3201 -0.6052
  836MPD2    C212341   1.629   3.976  11.975 -0.1235  0.4609  0.1118
  836MPD2    C312342   1.546   4.079  12.010  0.0237 -1.0297 -1.4549
  836MPD2    C412343   1.431   4.091  11.944  0.1559  0.1494 -0.5577
  836MPD2    C512344   1.401   4.011  11.843  0.6241  0.2008  0.4520
  836MPD2     H12345   1.719   3.944  12.028  0.5248  1.1156 -0.5905
  836MPD2    H112346   1.366   4.174  11.968  0.0408 -0.4690  1.2843
  836MPD2    H212347   1.460   3.855  11.712  0.2575 -0.1251  0.3285
  836MPD2    H312348   1.307   4.020  11.790  0.7113  0.8533  0.4149
  836MPD2     N12349   1.566   4.164  12.123  0.0811 -0.1224  0.1461
  836MPD2    H512350   1.485   4.223  12.139  0.2358  0.3774 -0.9071
  836MPD2    N112351   1.693   3.809  11.804  0.0819  0.0392 -0.5583
  836MPD2    H712352   1.668   3.750  11.725  0.1023  1.2248 -1.4486
  837MPD2     C12353   4.688   4.055  10.135  0.3801  0.4235 -0.3791
  837MPD2    C112354   4.649   4.066  10.000 -0.0966 -0.2517  1.0148
  837MPD2    C212355   4.627   4.190   9.944 -0.5475  0.2169 -0.0317
  837MPD2    C312356   4.637   4.308  10.025 -0.3978  0.2960  0.7424
  837MPD2    C412357   4.681   4.292  10.157  0.1652 -0.0854  0.2116
  837MPD2    C512358   4.714   4.170  10.211 -0.1950  0.4717 -0.3702
  837MPD2     H12359   4.605   4.197   9.839  0.7738  0.4164 -0.2977
  837MPD2    H112360   4.717   4.377  10.213  0.1046 -0.7417  1.2442
  837MPD2    H212361   4.723   3.963  10.180  1.2894  0.3447 -1.2556
  837MPD2    H312362   0.023   4.151  10.307 -0.8636  1.7109  0.2042
  837MPD2     N12363   4.597   4.434   9.978  0.0478 -0.2281 -0.4978
  837MPD2    H512364   4.573   4.428   9.879  0.6220  0.7873 -0.7002
  837MPD2    N112365   4.610   3.961   9.922 -0.1916 -0.6324 -0.0337
  837MPD2    H712366   4.570   3.994   9.835  2.7025 -0.0931 -1.1598
  838MPD2     C12367   3.516   2.272  11.780 -0.3091 -0.3832  0.4345
  838MPD2    C112368   3.425   2.183  11.722 -0.2674  1.1897  0.7340
  838MPD2    C212369   3.313   2.155  11.801 -0.9318 -0.1226  0.5638
  838MPD2    C312370   3.289   2.213  11.919 -0.3579 -0.0211  0.1971
  838MPD2    C412371   3.389   2.283  11.981 -0.0018 -0.3015  0.1361
  838MPD2    C512372   3.498   2.319  11.913  0.4836  0.3292  0.0206
  838MPD2     H12373   3.232   2.092  11.766 -0.1019 -1.9200  1.8870
  838MPD2    H112374   3.374   2.331  12.077  1.0738 -2.0509  1.1808
  838MPD2    H212375   3.607   2.304  11.729 -1.1554 -0.7915 -1.3604
  838MPD2    H312376   3.568   2.386  11.962 -0.7544  1.4036  0.3065
  838MPD2     N12377   3.173   2.167  11.996 -0.1100 -0.6210  0.0523
  838MPD2    H512378   3.097   2.125  11.943 -2.1936  2.1577  0.8012
  838MPD2    N112379   3.449   2.121  11.598  0.2734  0.4886 -0.6170
  838MPD2    H712380   3.371   2.066  11.564 -0.6831  1.1187  0.5404
  839MPD2     C12381   2.884   1.549  11.395  0.6840 -0.2360  0.2073
  839MPD2    C112382   3.002   1.479  11.390  0.9157  0.2858 -0.4988
  839MPD2    C212383   3.119   1.551  11.374 -0.1135 -0.7610 -0.3582
  839MPD2    C312384   3.116   1.691  11.363 -0.0677 -0.2187  0.4463
  839MPD2    C412385   2.995   1.760  11.374  0.2411 -0.1804  1.3466
  839MPD2    C512386   2.881   1.686  11.378 -0.3429 -0.0542  0.6250
  839MPD2     H12387   3.212   1.496  11.369 -0.5647 -1.7380  1.9506
  839MPD2    H112388   2.984   1.867  11.386  2.0600  0.0772  0.6317
  839MPD2    H212389   2.786   1.501  11.398  1.3065 -1.3748  2.4643
  839MPD2    H312390   2.787   1.739  11.384 -0.3673  0.2158 -1.8038
  839MPD2     N12391   3.232   1.772  11.346  0.1542  0.0291 -0.0427
  839MPD2    H512392   3.216   1.870  11.368 -0.7612 -0.3163  0.8598
  839MPD2    N112393   3.003   1.333  11.378  0.1603  0.1284  0.3584
  839MPD2    H712394   3.090   1.288  11.349  0.9043  0.5925  1.8953
  840MPD2     C12395   3.323   3.822  10.382 -0.1011 -0.0087  0.4972
  840MPD2    C112396   3.247   3.853  10.493  0.2110  0.0878 -0.5509
  840MPD2    C212397   3.303   3.944  10.584 -0.2414 -0.6508 -0.2802
  840MPD2    C312398   3.437   3.989  10.565  0.5086  0.0167 -0.5613
  840MPD2    C412399   3.519   3.933  10.467  0.1527  0.3479 -0.2888
  840MPD2    C512400   3.456   3.862  10.373 -1.3007  0.3430 -0.3238
  840MPD2     H12401   3.239   3.992  10.658  1.1512  0.3953  0.2304
  840MPD2    H112402   3.622   3.962  10.456 -0.5342  2.2549 -1.6484
  840MPD2    H212403   3.282   3.773  10.296  2.1643  1.8228 -1.6368
  840MPD2    H312404   3.504   3.848  10.277 -0.4166  0.1307  0.1467
  840MPD2     N12405   3.485   4.096  10.639  0.5628  0.8241  0.1443
  840MPD2    H512406   3.558   4.146  10.591  0.0780 -0.9475 -2.4145
  840MPD2    N112407   3.109   3.810  10.500  0.5398 -0.6636  0.8808
  840MPD2    H712408   3.065   3.776  10.415  2.5578 -2.3923  0.5297
  841MPD2     C12409   2.743   3.667  14.265  0.2195 -0.0864  0.3929
  841MPD2    C112410   2.856   3.631  14.340  0.5591 -0.6504 -0.2559
  841MPD2    C212411   2.869   3.678  14.469  0.1678  0.1295 -0.0270
  841MPD2    C312412   2.778   3.764  14.525  0.7984  0.1540 -0.0460
  841MPD2    C412413   2.668   3.799  14.458  0.1774 -0.3567 -0.7610
  841MPD2    C512414   2.652   3.748  14.330  0.9695 -0.1346 -0.5710
  841MPD2     H12415   2.958   3.660  14.528  1.0746  0.1233 -1.3965
  841MPD2    H112416   2.598   3.869  14.502  1.8249  1.3886 -0.9555
  841MPD2    H212417   2.723   3.660  14.159  2.1392 -1.1219  0.1104
  841MPD2    H312418   2.572   3.794  14.272  1.1754  2.4377  1.2009
  841MPD2     N12419   2.816   3.819  14.640 -0.9426 -0.2514  0.3641
  841MPD2    H512420   2.914   3.808  14.666 -0.7962 -1.4037 -0.6755
  841MPD2    N112421   2.954   3.560  14.278  0.2448 -0.7709 -0.0818
  841MPD2    H712422   2.951   3.563  14.176 -3.8036 -0.0998  0.0491
  842MPD2     C12423   3.092   4.640  16.160 -0.4345  0.0119  0.7527
  842MPD2    C112424   2.987   4.653  16.242 -0.3486 -0.5065  0.2167
  842MPD2    C212425   2.954   4.550  16.328 -0.2516 -0.6606  0.3338
  842MPD2    C312426   3.046   4.454  16.357 -0.1023  0.1682  0.4336
  842MPD2    C412427   3.152   4.445  16.276 -0.2959  0.2622 -0.2923
  842MPD2    C512428   3.180   4.534  16.180 -0.0431 -0.6700  0.1159
  842MPD2     H12429   2.879   4.568  16.405 -1.4466 -0.0017 -0.9762
  842MPD2    H112430   3.234   4.376  16.296  0.8413  1.3614 -1.1628
  842MPD2    H212431   3.126   4.709  16.084  2.0449  0.9328  2.6933
  842MPD2    H312432   3.271   4.511  16.125 -2.2452 -2.9725 -2.6068
  842MPD2     N12433   3.020   4.363  16.465 -0.0435 -0.2819 -0.2646
  842MPD2    H512434   2.928   4.371  16.505  0.5960  1.4475  0.8408
  842MPD2    N112435   2.901   0.033  16.236 -0.2085  0.3075  0.5201
  842MPD2    H712436   2.940   0.099  16.169 -0.3203 -1.0721 -0.9220
  843MPD2     C12437   0.315   1.183  17.569 -0.1295 -0.0703 -0.2973
  843MPD2    C112438   0.419   1.089  17.570  0.6717 -0.0240  0.4146
  843MPD2    C212439   0.522   1.112  17.666  0.2233 -0.1243  0.3948
  843MPD2    C312440   0.512   1.215   0.003 -0.0660  0.3026  0.3430
  843MPD2    C412441   0.405   1.305   0.003  0.1668  0.2573  0.6724
  843MPD2    C512442   0.302   1.279  17.664  0.3321  0.3303 -1.1275
  843MPD2     H12443   0.617   1.060  17.662  0.1824 -0.1972  0.3648
  843MPD2    H112444   0.384   1.382   0.076 -3.6337 -1.5196  1.4275
  843MPD2    H212445   0.237   1.183  17.494 -0.1503  0.3670 -0.2717
  843MPD2    H312446   0.212   1.340  17.657  0.2183  0.5334  2.1469
  843MPD2     N12447   0.618   1.259   0.084  0.1670  0.1569 -0.7712
  843MPD2    H512448   0.617   1.359   0.103  0.0489 -0.3781  1.9692
  843MPD2    N112449   0.421   0.981  17.482  0.2415 -0.1899  0.8568
  843MPD2    H712450   0.340   0.974  17.421  1.2451  3.0062 -0.8571
  844MPD2     C12451   3.577   4.651  16.198  0.5034  0.1949  0.0605
  844MPD2    C112452   3.688   4.568  16.222 -0.8538  0.6765  0.4523
  844MPD2    C212453   3.820   4.613  16.227  0.4483 -0.9762 -0.1787
  844MPD2    C312454   3.843   0.008  16.198 -0.3095 -0.2572  0.1862
  844MPD2    C412455   3.734   0.087  16.174 -0.4602  0.4466 -0.0375
  844MPD2    C512456   3.605   0.045  16.173 -1.2917  0.5178  0.5775
  844MPD2     H12457   3.901   4.543  16.244  0.3727 -0.9849  0.1489
  844MPD2    H112458   3.750   0.191  16.146  2.5855 -0.2390 -0.9101
  844MPD2    H212459   3.476   4.613  16.202  0.5833 -0.1379 -1.0750
  844MPD2    H312460   3.526   0.116  16.152 -0.3196  1.3774 -0.1824
  844MPD2     N12461   3.978   0.057  16.210  0.0974  0.2311  0.4790
  844MPD2    H512462   4.048   4.732  16.248 -0.3309 -1.4986 -1.5828
  844MPD2    N112463   3.669   4.427  16.229 -0.1127 -0.2008  0.3583
  844MPD2    H712464   3.753   4.370  16.243  0.0365  0.1219  0.7837
  845MPD2     C12465   4.342   0.812  15.817 -0.3201  0.4225  0.5778
  845MPD2    C112466   4.391   0.802  15.945  0.2901  0.2546  0.2823
  845MPD2    C212467   4.418   0.678  15.995  0.6895  0.4585 -0.2473
  845MPD2    C312468   4.396   0.563  15.925  0.3864 -0.7610 -0.2654
  845MPD2    C412469   4.336   0.575  15.800 -0.3080 -0.1652  0.2893
  845MPD2    C512470   4.310   0.700  15.745 -0.4223 -0.8398 -0.1117
  845MPD2     H12471   4.448   0.663  16.098 -0.0622  0.7895  0.0185
  845MPD2    H112472   4.305   0.490  15.741  0.4396  0.1702 -0.5791
  845MPD2    H212473   4.330   0.908  15.767  3.1084  1.3525  1.4994
  845MPD2    H312474   4.265   0.706  15.646  2.2722  0.0801 -1.2610
  845MPD2     N12475   4.397   0.436  15.989  0.1241  0.2738  0.1375
  845MPD2    H512476   4.346   0.366  15.937 -1.3443 -1.1246  3.4882
  845MPD2    N112477   4.384   0.919  16.028 -0.1272  0.1473 -0.5106
  845MPD2    H712478   4.324   0.989  15.986  2.9706  2.1941 -1.5278
  846MPD2     C12479   0.747   1.158  13.812 -0.0372 -1.0955 -0.0434
  846MPD2    C112480   0.644   1.196  13.735 -0.2726 -0.0635 -1.0384
  846MPD2    C212481   0.525   1.249  13.792 -0.1315 -0.4724  0.5235
  846MPD2    C312482   0.502   1.237  13.924  0.2120  0.2544 -0.1186
  846MPD2    C412483   0.603   1.185  14.002 -0.8471  0.5130 -0.3163
  846MPD2    C512484   0.724   1.154  13.949  0.2421  0.1362  0.0210
  846MPD2     H12485   0.443   1.290  13.733  0.4233 -0.2797 -0.1049
  846MPD2    H112486   0.588   1.168  14.108  1.6679  0.8041  0.0790
  846MPD2    H212487   0.837   1.110  13.775 -0.6685 -1.1158 -1.5226
  846MPD2    H312488   0.800   1.106  14.009  1.6405  0.2691 -1.6349
  846MPD2     N12489   0.377   1.283  13.974  0.5268 -0.2221 -0.2310
  846MPD2    H512490   0.309   1.327  13.912  0.9285 -1.0697 -1.2775
  846MPD2    N112491   0.655   1.193  13.596 -0.0023  0.4639 -0.3109
  846MPD2    H712492   0.568   1.212  13.547  0.7107 -1.5481 -2.4152
  847MPD2     C12493   1.532   2.136  13.900 -0.3860 -0.0316  0.1977
  847MPD2    C112494   1.593   2.249  13.939  0.0537 -0.5228 -0.7656
  847MPD2    C212495   1.705   2.235  14.024  0.0592  0.1351  1.0338
  847MPD2    C312496   1.729   2.119  14.095  0.3162 -0.5152  0.1184
  847MPD2    C412497   1.648   2.004  14.071  0.0128  0.8630 -0.2178
  847MPD2    C512498   1.555   2.019  13.965 -0.4686 -0.1662  0.1374
  847MPD2     H12499   1.762   2.324  14.051 -2.5947  2.8174 -2.0861
  847MPD2    H112500   1.662   1.914  14.129 -0.9287  0.7453 -0.1749
  847MPD2    H212501   1.442   2.127  13.840 -1.4218 -1.0003  1.9123
  847MPD2    H312502   1.496   1.931  13.941 -1.2416 -0.0692  1.6574
  847MPD2     N12503   1.828   2.108  14.193  0.4715 -0.1154 -0.0762
  847MPD2    H512504   1.849   2.013  14.221  0.2893  0.1343  0.8957
  847MPD2    N112505   1.567   2.375  13.882 -0.2184 -0.9352 -0.3360
  847MPD2    H712506   1.632   2.448  13.909  0.3234 -1.9014  0.9975
  848MPD2     C12507   3.306   0.254  16.251  0.0488  0.5111  0.0124
  848MPD2    C112508   3.411   0.344  16.262  0.4803  0.8389  0.3641
  848MPD2    C212509   3.449   0.420  16.154  0.0434 -0.4298 -0.1945
  848MPD2    C312510   3.387   0.397  16.029 -0.2468 -0.1738  0.2117
  848MPD2    C412511   3.289   0.304  16.017  0.2470  0.4926  0.8187
  848MPD2    C512512   3.254   0.232  16.124  0.1336 -0.2286 -0.0752
  848MPD2     H12513   3.525   0.496  16.167 -0.4016 -0.0841  0.4078
  848MPD2    H112514   3.245   0.293  15.919  2.6657 -0.9118 -0.1224
  848MPD2    H212515   3.286   0.181  16.329 -5.7499  0.7909 -1.2535
  848MPD2    H312516   3.174   0.160  16.116 -1.2659  1.0746  2.2261
  848MPD2     N12517   3.406   0.480  15.916  0.0688  0.0420 -0.1688
  848MPD2    H512518   3.351   0.460  15.834 -1.9996 -1.3070  1.5508
  848MPD2    N112519   3.496   0.349  16.376 -0.1907 -0.1356  0.0076
  848MPD2    H712520   3.582   0.403  16.373  0.3933 -1.1108 -0.6423
  849MPD2     C12521   2.555   4.145  14.186 -0.1035  0.7743 -0.4315
  849MPD2    C112522   2.675   4.139  14.112 -0.8634  0.6030 -0.1340
  849MPD2    C212523   2.788   4.174  14.180 -0.9758  0.0492 -0.3249
  849MPD2    C312524   2.786   4.213  14.313 -0.2976  0.2210 -0.2140
  849MPD2    C412525   2.671   4.211  14.388  0.3311  0.2659 -0.0894
  849MPD2    C512526   2.554   4.185  14.315  0.6832 -0.2643 -0.3045
  849MPD2     H12527   2.881   4.174  14.125 -0.8415  0.9387 -0.0943
  849MPD2    H112528   2.664   4.248  14.489 -0.0627 -1.1364  0.3910
  849MPD2    H212529   2.459   4.126  14.140 -0.1022 -0.4866  0.0904
  849MPD2    H312530   2.457   4.191  14.362  1.3244  0.6442  0.8895
  849MPD2     N12531   2.909   4.261  14.367 -0.7794 -0.1295 -0.0329
  849MPD2    H512532   2.992   4.262  14.309  0.4052  0.7234  1.6513
  849MPD2    N112533   2.668   4.106  13.972 -0.6173 -0.1154  0.3249
  849MPD2    H712534   2.581   4.105  13.920 -0.8152 -1.1414  0.6691
  850MPD2     C12535   0.832   2.837  14.282  0.1779  0.6323 -0.0301
  850MPD2    C112536   0.832   2.913  14.391  0.0611 -0.6032 -0.1237
  850MPD2    C212537   0.961   2.965  14.422 -0.0648 -0.0786  0.8179
  850MPD2    C312538   1.074   2.932  14.353 -0.0008  0.4504  0.0099
  850MPD2    C412539   1.064   2.853  14.237  0.0392  0.0868  0.0527
  850MPD2    C512540   0.940   2.802  14.206 -0.1917 -0.2124  0.1304
  850MPD2     H12541   0.971   3.034  14.506 -1.7511  2.5382 -1.1359
  850MPD2    H112542   1.148   2.830  14.173 -0.2692  0.1100 -0.3548
  850MPD2    H212543   0.739   2.791  14.252  0.7991 -1.2496  0.9115
  850MPD2    H312544   0.924   2.721  14.136 -2.3559 -0.1165  0.5068
  850MPD2     N12545   1.203   2.979  14.382  0.4352  0.2713 -0.3140
  850MPD2    H512546   1.280   2.957  14.320  0.5098  0.0364 -0.1401
  850MPD2    N112547   0.708   2.946  14.443 -0.2442 -0.6445  0.3077
  850MPD2    H712548   0.635   2.934  14.374  1.2344 -1.5400 -1.1185
  851MPD2     C12549   1.385   2.782  14.951 -0.1720  0.8758  0.5012
  851MPD2    C112550   1.271   2.731  14.892 -0.6582 -0.1174  0.2418
  851MPD2    C212551   1.273   2.603  14.842 -0.3660 -0.3956 -0.6195
  851MPD2    C312552   1.380   2.515  14.861 -0.7534 -0.2050 -0.2164
  851MPD2    C412553   1.492   2.569  14.920 -0.0075 -0.6847 -0.1935
  851MPD2    C512554   1.494   2.700  14.964 -0.3047  0.0043 -0.2234
  851MPD2     H12555   1.179   2.558  14.810  0.3893 -2.0723 -0.5060
  851MPD2    H112556   1.586   2.515  14.927  0.2215 -0.2150  0.3396
  851MPD2    H212557   1.406   2.883  14.987 -0.4336  0.8251  0.8020
  851MPD2    H312558   1.589   2.731  15.006 -0.8585  2.6963 -0.9846
  851MPD2     N12559   1.351   2.371  14.844 -0.3334  0.0352  0.3488
  851MPD2    H512560   1.256   2.352  14.812  0.4946  0.7003 -2.5128
  851MPD2    N112561   1.162   2.821  14.871 -0.3491  0.0757  0.1644
  851MPD2    H712562   1.174   2.909  14.921  0.8124  0.7312 -1.2721
  852MPD2     C12563   0.774   1.628  10.127  0.4928  0.1360  0.2509
  852MPD2    C112564   0.797   1.548  10.238 -0.2004 -0.2984  0.5199
  852MPD2    C212565   0.926   1.529  10.276 -0.1778 -0.2305  0.0753
  852MPD2    C312566   1.030   1.569  10.200 -0.6166 -0.0527  0.3778
  852MPD2    C412567   1.008   1.633  10.076  0.1786  0.4608 -0.6935
  852MPD2    C512568   0.880   1.668  10.049  0.7498 -0.0306  0.1973
  852MPD2     H12569   0.960   1.483  10.368 -0.0481  0.3678  0.3271
  852MPD2    H112570   1.085   1.658  10.003  1.9614  0.9859  1.3523
  852MPD2    H212571   0.677   1.660  10.091  0.5506  0.0574  0.0250
  852MPD2    H312572   0.854   1.717   9.955  1.9737 -1.4221 -0.8730
  852MPD2     N12573   1.157   1.522  10.221 -0.4150 -0.4214 -0.6270
  852MPD2    H512574   1.164   1.473  10.310  1.4385  2.2468  0.6871
  852MPD2    N112575   0.699   1.495  10.328  0.5853  0.4061  0.4167
  852MPD2    H712576   0.731   1.443  10.409 -0.9555 -0.5275  0.4367
  853MPD2     C12577   3.057   0.246  12.341 -0.6493 -0.3396  0.2288
  853MPD2    C112578   2.945   0.290  12.280 -0.1158 -0.9760  0.1767
  853MPD2    C212579   2.947   0.313  12.149 -0.2854  1.0868 -0.0103
  853MPD2    C312580   3.067   0.277  12.080  0.2840  0.4421 -0.2784
  853MPD2    C412581   3.178   0.222  12.144 -0.1591 -0.2960 -0.6524
  853MPD2    C512582   3.167   0.200  12.275 -0.1874  0.3490 -0.4866
  853MPD2     H12583   2.860   0.352  12.097 -0.4682 -0.6871 -1.0515
  853MPD2    H112584   3.266   0.178  12.096 -0.7997 -2.0349 -0.2525
  853MPD2    H212585   3.068   0.239  12.449 -0.9104 -0.0848  0.2752
  853MPD2    H312586   3.242   0.142  12.326 -1.2630 -1.2778 -0.7544
  853MPD2     N12587   3.086   0.296  11.940 -0.1564 -0.4627  0.6279
  853MPD2    H512588   3.179   0.281  11.902 -0.8621 -1.5880 -0.6218
  853MPD2    N112589   2.833   0.316  12.363 -0.3642  0.4036 -0.4330
  853MPD2    H712590   2.845   0.300  12.462 -0.3013  1.3599 -0.2863
  854MPD2     C12591   4.296   1.240  12.295  0.4174  0.3224 -0.6428
  854MPD2    C112592   4.253   1.213  12.422  0.0212 -0.3692 -0.3158
  854MPD2    C212593   4.297   1.098  12.489  0.6663  0.5448 -0.9440
  854MPD2    C312594   4.380   1.009  12.422 -0.1674  0.4253 -0.9046
  854MPD2    C412595   4.411   1.035  12.292  0.2399 -0.6915  0.3749
  854MPD2    C512596   4.383   1.154  12.235 -0.3544 -0.4923  0.4693
  854MPD2     H12597   4.256   1.071  12.586  1.6309 -0.5189 -0.8371
  854MPD2    H112598   4.478   0.969  12.238 -0.2467 -1.1378  0.3186
  854MPD2    H212599   4.267   1.329  12.240  0.3836  0.7039 -0.0124
  854MPD2    H312600   4.420   1.168  12.134  1.0818  0.2275  1.1007
  854MPD2     N12601   4.431   0.892  12.480  0.4042 -0.0937 -0.3008
  854MPD2    H512602   4.465   0.813  12.425  1.7245  0.2583  0.0076
  854MPD2    N112603   4.186   1.316  12.488 -1.0879 -0.1425 -0.3255
  854MPD2    H712604   4.182   1.406  12.441  0.0295 -0.3440 -0.8102
  855MPD2     C12605   4.167   0.385  13.211  0.5117  0.5427  0.4082
  855MPD2    C112606   4.304   0.355  13.214 -0.4300 -1.3389  0.6274
  855MPD2    C212607   4.395   0.441  13.152  0.8393 -0.3546  0.0919
  855MPD2    C312608   4.359   0.554  13.084 -0.2427  0.2319  0.2072
  855MPD2    C412609   4.224   0.579  13.076 -0.0107 -0.8595 -0.3860
  855MPD2    C512610   4.134   0.497  13.142 -0.1622  0.2644  0.3710
  855MPD2     H12611   4.499   0.411  13.147  1.1411  0.4610  1.3156
  855MPD2    H112612   4.179   0.665  13.028  0.8548 -0.1082  0.1403
  855MPD2    H212613   4.087   0.333  13.262 -0.4269  0.1934 -1.4275
  855MPD2    H312614   4.030   0.525  13.139 -0.4024 -0.8157 -1.7326
  855MPD2     N12615   4.450   0.625  12.998 -0.3979  0.3549 -0.6523
  855MPD2    H512616   4.405   0.692  12.936 -0.3586  0.8802 -0.1235
  855MPD2    N112617   4.354   0.230  13.267 -0.0711 -0.7030  0.3633
  855MPD2    H712618   4.453   0.224  13.289  0.4540  1.7063 -1.4327
  856MPD2     C12619   2.092   1.123  13.915 -0.0896 -0.7439 -0.2533
  856MPD2    C112620   2.166   1.229  13.876 -0.9796 -0.1108  0.0432
  856MPD2    C212621   2.117   1.308  13.770  0.2892 -0.6392  0.0840
  856MPD2    C312622   2.004   1.274  13.705 -0.2112 -0.0371 -0.1645
  856MPD2    C412623   1.925   1.172  13.755 -0.1053  0.3960  0.3062
  856MPD2    C512624   1.976   1.096  13.852 -0.6798 -0.7176 -0.3840
  856MPD2     H12625   2.181   1.387  13.732  0.7085 -0.9500  0.1326
  856MPD2    H112626   1.838   1.130  13.705 -0.8758  1.6444  0.5881
  856MPD2    H212627   2.124   1.051  13.990  1.6055  1.0758  0.7391
  856MPD2    H312628   1.911   1.018  13.891 -0.5506  0.3846  2.0783
  856MPD2     N12629   1.967   1.357  13.601  0.0262  0.2528 -0.1585
  856MPD2    H512630   2.039   1.423  13.573 -0.8640  1.1605 -0.3458
  856MPD2    N112631   2.292   1.251  13.929 -0.4360  0.5070 -0.2978
  856MPD2    H712632   2.336   1.338  13.902  3.8528 -0.7969  2.4345
  857MPD2     C12633   3.364   3.480  12.858 -0.2025  0.2607  1.0328
  857MPD2    C112634   3.486   3.521  12.820 -0.4119 -0.2730 -0.3504
  857MPD2    C212635   3.520   3.652  12.801  1.1093 -0.7385  0.4654
  857MPD2    C312636   3.426   3.744  12.824  0.8502 -0.7080 -0.5053
  857MPD2    C412637   3.301   3.709  12.866 -0.3954 -0.4905 -0.0707
  857MPD2    C512638   3.268   3.579  12.875  1.5093 -0.1544  0.1699
  857MPD2     H12639   3.626   3.669  12.793  1.0021 -1.3020 -2.0946
  857MPD2    H112640   3.212   3.769  12.879  0.0898  0.2480 -0.1551
  857MPD2    H212641   3.335   3.377  12.872 -2.0558  0.5993 -0.4295
  857MPD2    H312642   3.165   3.562  12.905  1.2773  0.7121 -0.1360
  857MPD2     N12643   3.460   3.872  12.793  0.0424 -0.1532  0.4483
  857MPD2    H512644   3.554   3.890  12.757 -0.9861  2.8951 -0.6878
  857MPD2    N112645   3.574   3.413  12.796  0.2258 -0.9915 -0.1140
  857MPD2    H712646   3.546   3.317  12.814  2.1070 -1.5466 -0.0775
  858MPD2     C12647   4.313   2.540  16.312 -0.2391  0.1229  0.4662
  858MPD2    C112648   4.359   2.427  16.379 -0.8149 -0.0446 -0.9094
  858MPD2    C212649   4.374   2.442  16.518  0.5458  0.0855 -0.2410
  858MPD2    C312650   4.335   2.548  16.591  0.1243  0.0097 -0.2075
  858MPD2    C412651   4.297   2.662  16.517  0.4351  0.2881 -0.1457
  858MPD2    C512652   4.287   2.657  16.384  0.5240  0.2804  0.2948
  858MPD2     H12653   4.428   2.360  16.564  1.1561  0.9688  0.6319
  858MPD2    H112654   4.271   2.751  16.573 -0.4485  0.9290 -1.5763
  858MPD2    H212655   4.304   2.531  16.204  1.8284  1.0472  0.2196
  858MPD2    H312656   4.259   2.749  16.333 -0.7421  0.2409  0.9104
  858MPD2     N12657   4.338   2.551  16.732 -0.4033 -0.3564 -0.1443
  858MPD2    H512658   4.316   2.638  16.778 -0.0397 -1.4818  2.1587
  858MPD2    N112659   4.405   2.314  16.319  0.2423 -0.3616 -0.0717
  858MPD2    H712660   4.463   2.254  16.375  0.7560 -1.2566 -1.5595
  859MPD2     C12661   2.294   4.202  15.946 -0.3609  0.1780  0.6968
  859MPD2    C112662   2.412   4.208  15.884  0.1887 -0.3611  0.5157
  859MPD2    C212663   2.508   4.104  15.907  0.4255 -0.4031  0.6353
  859MPD2    C312664   2.477   3.991  15.979  0.1963 -0.4096 -0.1770
  859MPD2    C412665   2.346   3.984  16.026 -0.0971 -0.6689  0.5892
  859MPD2    C512666   2.266   4.095  16.023 -0.5083 -0.2614  0.1874
  859MPD2     H12667   2.605   4.115  15.860 -1.2524  0.7637 -2.5465
  859MPD2    H112668   2.298   3.896  16.067 -2.1693  0.5984  0.8835
  859MPD2    H212669   2.213   4.272  15.932 -0.8614 -0.1593  1.9463
  859MPD2    H312670   2.172   4.081  16.074 -0.2312  0.1707  0.8214
  859MPD2     N12671   2.565   3.879  16.002  0.1163 -0.3854 -0.7335
  859MPD2    H512672   2.519   3.798  16.041 -0.0975 -0.3308 -0.8749
  859MPD2    N112673   2.438   4.323  15.807  0.6120 -0.1576 -0.1893
  859MPD2    H712674   2.358   4.384  15.798  1.5514  0.9319 -1.2421
  860MPD2     C12675   0.942   0.164  11.682  0.4846  0.3676 -0.1379
  860MPD2    C112676   0.854   0.130  11.780 -0.4679  0.0441  0.0094
  860MPD2    C212677   0.729   0.185  11.773  0.4342  0.2197 -0.7859
  860MPD2    C312678   0.693   0.272  11.672  0.3008 -0.0012  1.1668
  860MPD2    C412679   0.788   0.308  11.578  0.3561  0.2492  0.5360
  860MPD2    C512680   0.915   0.253  11.585  0.8302  0.2544 -0.9881
  860MPD2     H12681   0.657   0.153  11.848 -0.0438  0.5811 -1.0924
  860MPD2    H112682   0.763   0.383  11.503  0.3876  1.5526  1.8196
  860MPD2    H212683   1.042   0.123  11.671  0.5329  0.7666 -1.1651
  860MPD2    H312684   0.994   0.270  11.513  1.5729 -1.3955 -0.5799
  860MPD2     N12685   0.561   0.324  11.676 -0.1194 -1.1642 -0.1698
  860MPD2    H512686   0.499   0.289  11.749  0.3213  0.9905  1.2432
  860MPD2    N112687   0.882   0.038  11.883 -1.0231 -0.1620 -1.1773
  860MPD2    H712688   0.804   0.015  11.944 -0.1520 -1.2504 -0.4739
  861MPD2     C12689   4.435   3.319  10.994 -0.3723  0.2784 -0.0771
  861MPD2    C112690   4.321   3.260  11.036  0.2995  0.5570  0.5154
  861MPD2    C212691   4.199   3.274  10.959  0.0679 -0.5540 -0.4208
  861MPD2    C312692   4.195   3.357  10.847 -0.3774  0.3615  0.1053
  861MPD2    C412693   4.316   3.414  10.810  0.2073 -0.1601  0.0653
  861MPD2    C512694   4.428   3.392  10.881 -0.2475 -0.2658  0.2247
  861MPD2     H12695   4.109   3.218  10.984  0.0481 -0.3985 -0.1395
  861MPD2    H112696   4.319   3.466  10.715  0.9373 -1.0206 -0.3835
  861MPD2    H212697   4.524   3.326  11.056 -0.9097 -0.9334  0.8292
  861MPD2    H312698   4.521   3.437  10.847 -0.9428  0.9050 -0.1331
  861MPD2     N12699   4.082   3.385  10.768 -0.3827 -0.2160  0.7019
  861MPD2    H512700   4.109   3.432  10.682  1.4439  0.1154  1.4660
  861MPD2    N112701   4.316   3.187  11.157  0.6125  0.0277  0.0277
  861MPD2    H712702   4.229   3.143  11.187 -0.0134 -0.2534 -2.1983
  862MPD2     C12703   3.758   3.315  10.133  0.7900  0.0967 -0.5650
  862MPD2    C112704   3.817   3.269  10.244  0.0545  0.2293 -0.1299
  862MPD2    C212705   3.837   3.133  10.257 -0.2724 -0.2299 -0.9716
  862MPD2    C312706   3.787   3.044  10.164  0.5534 -0.3191 -0.8787
  862MPD2    C412707   3.723   3.094  10.055 -0.0357 -0.2823  0.4329
  862MPD2    C512708   3.725   3.226  10.032  0.3991 -0.3330 -0.3821
  862MPD2     H12709   3.880   3.088  10.346 -0.1463  0.9732 -0.4154
  862MPD2    H112710   3.698   3.023   9.976 -3.3238  1.6612 -0.2774
  862MPD2    H212711   3.736   3.421  10.125 -1.0806 -0.0715  2.2742
  862MPD2    H312712   3.675   3.263   9.943 -1.3061 -1.2889  0.1906
  862MPD2     N12713   3.797   2.902  10.195 -0.1202  0.5317  0.6530
  862MPD2    H512714   3.871   2.876  10.259 -0.2288  0.2753  0.6750
  862MPD2    N112715   3.856   3.352  10.347  0.7023 -0.6871  0.3076
  862MPD2    H712716   3.911   3.311  10.422  0.7080 -1.6851 -0.2447
  863MPD2     C12717   2.683   1.203  16.409  0.3438 -0.2541 -0.0430
  863MPD2    C112718   2.595   1.194  16.516 -0.6825  0.4698 -0.1003
  863MPD2    C212719   2.644   1.178  16.644 -0.3026 -0.4092 -0.4098
  863MPD2    C312720   2.779   1.181  16.670  0.0539  0.7298  0.6444
  863MPD2    C412721   2.864   1.188  16.557 -0.0334  0.3395 -0.5326
  863MPD2    C512722   2.819   1.199  16.424 -0.6537 -0.1847 -0.6004
  863MPD2     H12723   2.570   1.153  16.719  0.1491  0.0705  0.1945
  863MPD2    H112724   2.971   1.197  16.572 -0.6002  0.3437  3.5649
  863MPD2    H212725   2.646   1.199  16.307  0.1913 -2.1733  0.0944
  863MPD2    H312726   2.888   1.189  16.341  1.5236  1.9797  0.9612
  863MPD2     N12727   2.840   1.167  16.798 -0.7711  0.8555 -0.2414
  863MPD2    H512728   2.941   1.174  16.793 -0.9652  1.8457 -2.8729
  863MPD2    N112729   2.458   1.207  16.478  0.4723  0.4774 -0.6981
  863MPD2    H712730   2.439   1.204  16.378 -0.3699  1.5982 -0.5623
  864MPD2     C12731   3.083   2.218  17.403  0.8286  0.6568 -0.2840
  864MPD2    C112732   3.184   2.203  17.313  0.9807  0.5342  0.3045
  864MPD2    C212733   3.271   2.310  17.284 -0.1935 -0.2941 -0.5487
  864MPD2    C312734   3.251   2.435  17.342 -0.1243 -0.5307 -0.9007
  864MPD2    C412735   3.151   2.446  17.438  0.4991  0.0495  0.0622
  864MPD2    C512736   3.066   2.342  17.470  0.0375  0.1069 -0.0556
  864MPD2     H12737   3.343   2.303  17.204 -1.8227  0.6492 -2.1068
  864MPD2    H112738   3.127   2.544  17.479  0.8228  0.5445 -0.9345
  864MPD2    H212739   3.016   2.137  17.431  0.9105 -0.1418 -2.3840
  864MPD2    H312740   2.977   2.351  17.531  1.5253 -1.5894  2.3871
  864MPD2     N12741   3.323   2.552  17.311 -0.5866  0.0422 -0.1763
  864MPD2    H512742   3.287   2.637  17.354  0.1035  0.8659 -1.2002
  864MPD2    N112743   3.185   2.073  17.250  0.6950  0.2069 -0.2927
  864MPD2    H712744   3.107   2.011  17.271  0.6926  0.6434  0.9961
  865MPD2     C12745   3.181   2.739  16.544 -0.7563 -0.4079  0.3960
  865MPD2    C112746   3.312   2.776  16.552 -0.7754  0.2486  0.0912
  865MPD2    C212747   3.368   2.827  16.665  0.0117 -0.4209 -0.4474
  865MPD2    C312748   3.286   2.855  16.773  0.5313  0.0045 -0.1680
  865MPD2    C412749   3.151   2.835  16.764 -0.2280 -0.5982  0.4104
  865MPD2    C512750   3.096   2.774  16.653  0.3278 -0.5585  0.0605
  865MPD2     H12751   3.473   2.850  16.672  0.3582 -1.1116 -3.3545
  865MPD2    H112752   3.081   2.862  16.842  0.1048 -0.2473  0.5882
  865MPD2    H212753   3.140   2.694  16.454  0.3734 -1.9587  0.6596
  865MPD2    H312754   2.988   2.765  16.646  0.3472 -0.0707 -0.7984
  865MPD2     N12755   3.350   2.905  16.885  0.1764 -0.1137 -0.1532
  865MPD2    H512756   3.451   2.899  16.886  0.1370 -0.2414  2.0371
  865MPD2    N112757   3.384   2.755  16.434 -0.1142  0.0039  0.8961
  865MPD2    H712758   3.339   2.713  16.354 -0.1701 -1.4614  1.7166
  866MPD2     C12759   0.110   3.648  11.296 -0.2605  0.0347  0.0152
  866MPD2    C112760   0.104   3.642  11.158  0.5617 -0.1810  0.6593
  866MPD2    C212761   4.720   3.668  11.090  1.1291  0.2313  0.2952
  866MPD2    C312762   4.610   3.701  11.172 -0.2814 -0.4556  0.3360
  866MPD2    C412763   4.614   3.704  11.304  0.6853 -0.1255 -0.0759
  866MPD2    C512764   4.733   3.681  11.363 -0.1285  0.7449  0.1130
  866MPD2     H12765   4.718   3.679  10.982  0.5254  1.0798  0.3868
  866MPD2    H112766   4.530   3.742  11.360  0.3287  1.6429 -1.8005
  866MPD2    H212767   0.201   3.638  11.354 -1.0410 -1.0040  1.0702
  866MPD2    H312768   4.733   3.698  11.470  0.2653  1.3594  0.0136
  866MPD2     N12769   4.485   3.721  11.109 -0.2455  0.5999 -0.1944
  866MPD2    H512770   4.409   3.741  11.174  0.0234 -2.2569  1.0055
  866MPD2    N112771   0.220   3.624  11.089  0.4111 -0.2937  0.7200
  866MPD2    H712772   0.297   3.599  11.151  1.0898  0.7078  0.2645
  867MPD2     C12773   1.732   2.169  16.904  0.4504 -0.0961  0.0662
  867MPD2    C112774   1.828   2.148  17.003 -0.7333  0.6353  0.0121
  867MPD2    C212775   1.801   2.185  17.136  0.1448 -0.1139  0.0092
  867MPD2    C312776   1.679   2.244  17.166  1.5188 -0.8379  0.1546
  867MPD2    C412777   1.591   2.274  17.063  0.0225  0.3787 -0.8170
  867MPD2    C512778   1.609   2.217  16.938  0.3153 -0.5142  0.7397
  867MPD2     H12779   1.872   2.149  17.210  0.0523 -1.8970 -0.7801
  867MPD2    H112780   1.504   2.328  17.097 -0.2688 -1.1079  0.8491
  867MPD2    H212781   1.756   2.133  16.805 -0.1048  2.3107 -0.9394
  867MPD2    H312782   1.528   2.233  16.868  2.5036 -0.4246 -1.7684
  867MPD2     N12783   1.640   2.285  17.298  0.0032  0.5689 -0.5022
  867MPD2    H512784   1.543   2.315  17.303 -1.1786 -3.2104 -0.4222
  867MPD2    N112785   1.949   2.083  16.973  0.1697  0.2456  0.5856
  867MPD2    H712786   1.974   2.053  16.880  0.2340  3.6208 -0.4950
  868MPD2     C12787   3.468   2.183  13.202  0.1907  0.2241  0.2472
  868MPD2    C112788   3.549   2.135  13.303  0.3844 -0.0430  0.5627
  868MPD2    C212789   3.494   2.082  13.422  0.1757  0.6250  0.5263
  868MPD2    C312790   3.357   2.095  13.444  0.0836 -0.4435  0.0444
  868MPD2    C412791   3.278   2.146  13.347 -0.0514  0.0695 -0.1756
  868MPD2    C512792   3.330   2.190  13.224  0.0196  0.4383  0.4222
  868MPD2     H12793   3.568   2.042  13.490  0.6995  2.4155  1.0040
  868MPD2    H112794   3.175   2.169  13.372 -0.2910  0.2857 -1.3815
  868MPD2    H212795   3.511   2.220  13.110 -1.2388  0.3668 -0.3713
  868MPD2    H312796   3.269   2.241  13.150 -1.5172 -0.6597  0.9281
  868MPD2     N12797   3.315   2.055  13.577 -0.1750 -0.5203  0.0006
  868MPD2    H512798   3.391   2.023  13.636 -0.5052  2.1545  1.8323
  868MPD2    N112799   3.688   2.137  13.283 -0.0753  0.3748 -0.5375
  868MPD2    H712800   3.714   2.166  13.189 -1.0944  0.4345 -0.8018
  869MPD2     C12801   4.633   3.986   0.298  0.3508 -0.4852  0.0037
  869MPD2    C112802   4.656   4.032   0.170  0.0220  0.1336  0.2844
  869MPD2    C212803   0.002   4.142   0.157 -0.6365 -0.5154 -0.1199
  869MPD2    C312804   0.043   4.208   0.269  0.0441  0.0473 -0.5225
  869MPD2    C412805   0.016   4.163   0.393 -0.0142 -0.3370  0.3207
  869MPD2    C512806   4.689   4.042   0.408 -0.3520  0.4767 -0.7575
  869MPD2     H12807   0.006   4.195   0.063  0.7923  0.4137  0.4514
  869MPD2    H112808   0.074   4.203   0.476  0.9826 -0.3076 -0.3837
  869MPD2    H212809   4.587   3.889   0.314  0.6243 -0.7475 -0.7610
  869MPD2    H312810   4.667   3.997   0.504  1.0618  0.8531 -0.2628
  869MPD2     N12811   0.130   4.323   0.260 -0.1708  0.0206 -0.0773
  869MPD2    H512812   0.152   4.369   0.347  3.0601  0.4198 -1.1016
  869MPD2    N112813   4.602   3.955   0.062 -0.6165  0.1892  0.1371
  869MPD2    H712814   4.538   3.879   0.086 -0.8213  0.3614  0.1417
  870MPD2     C12815   4.403   2.959   1.669 -1.0109  0.3663  0.7195
  870MPD2    C112816   4.526   3.014   1.647 -0.8310 -0.3241  0.5339
  870MPD2    C212817   4.532   3.132   1.582 -0.4062 -0.1845  0.0219
  870MPD2    C312818   4.414   3.190   1.537  0.2722  0.1771  0.4981
  870MPD2    C412819   4.292   3.137   1.578  0.2759 -0.3223 -0.1399
  870MPD2    C512820   4.287   3.022   1.647 -0.2588 -0.4852  0.3953
  870MPD2     H12821   4.625   3.167   1.538 -1.0485  0.5140 -0.7950
  870MPD2    H112822   4.197   3.180   1.546 -0.4363 -0.7010  1.4396
  870MPD2    H212823   4.390   2.861   1.714 -0.2783 -0.7670 -1.5441
  870MPD2    H312824   4.194   2.967   1.654 -0.2068 -0.3918  1.9486
  870MPD2     N12825   4.422   3.304   1.455 -0.0067  0.0990 -0.3443
  870MPD2    H512826   4.514   3.342   1.435 -0.0793 -0.6959 -2.2110
  870MPD2    N112827   4.636   2.924   1.661 -0.3912 -0.1651  0.0373
  870MPD2    H712828   4.609   2.831   1.692 -2.2208 -0.1985 -1.6516
  871MPD2     C12829   0.856   3.012  16.126 -0.9164  0.1717 -0.9030
  871MPD2    C112830   0.879   2.989  16.259  0.1728  0.2879  0.1008
  871MPD2    C212831   0.883   2.849  16.288 -0.0422  0.6678  0.3984
  871MPD2    C312832   0.879   2.747  16.194 -0.2492 -0.8629  0.1227
  871MPD2    C412833   0.839   2.781  16.068  0.2335  1.0975 -0.1771
  871MPD2    C512834   0.838   2.914  16.037  0.2298 -0.1944 -0.5738
  871MPD2     H12835   0.888   2.818  16.392  0.7443  0.2828  0.2457
  871MPD2    H112836   0.802   2.714  15.990  0.0673  1.0584 -0.0656
  871MPD2    H212837   0.851   3.112  16.084 -2.6659  1.4305  2.3207
  871MPD2    H312838   0.808   2.938  15.936 -0.0723 -0.2909 -0.5100
  871MPD2     N12839   0.906   2.608  16.223 -0.0224 -0.3935 -0.1646
  871MPD2    H512840   0.925   2.580  16.319 -0.5361  2.0714  0.6397
  871MPD2    N112841   0.886   3.093  16.353  0.3375  0.1546 -0.5704
  871MPD2    H712842   0.879   3.188  16.318  0.8173 -0.4133 -2.2181
  872MPD2     C12843   1.546   1.186  13.152  0.5788 -0.5343 -0.4992
  872MPD2    C112844   1.630   1.129  13.243 -0.3402 -0.2275  0.3872
  872MPD2    C212845   1.564   1.048  13.343 -0.1177 -0.5514  0.0482
  872MPD2    C312846   1.429   1.042  13.362  0.3477 -0.1852  0.0512
  872MPD2    C412847   1.350   1.108  13.275  0.5529  0.8463  0.6397
  872MPD2    C512848   1.411   1.180  13.175 -0.7082 -0.4566 -0.9919
  872MPD2     H12849   1.621   0.996  13.419  0.3578  3.2788  2.3144
  872MPD2    H112850   1.242   1.100  13.279  0.5507  1.3881  1.5558
  872MPD2    H212851   1.580   1.250  13.071  3.1546 -1.3772 -0.0584
  872MPD2    H312852   1.349   1.230  13.101  1.3382  1.8154 -1.1519
  872MPD2     N12853   1.371   0.976  13.467  0.4598 -0.2047 -0.1161
  872MPD2    H512854   1.278   1.011  13.488 -0.1942 -1.2437 -1.2722
  872MPD2    N112855   1.770   1.133  13.243  0.1322  0.2090  0.0607
  872MPD2    H712856   1.815   1.076  13.314  1.4149  3.3386  1.7599
  873MPD2     C12857   3.601   0.167   0.361 -0.3127  0.1302  0.5576
  873MPD2    C112858   3.485   0.156   0.431  0.0322  0.7105 -0.1273
  873MPD2    C212859   3.411   0.036   0.427 -0.2705 -0.2118 -0.1464
  873MPD2    C312860   3.453   4.663   0.347  0.1811  0.1280  0.3495
  873MPD2    C412861   3.566   4.679   0.272 -0.1871  0.0623  0.2837
  873MPD2    C512862   3.643   0.057   0.293  0.3048 -0.3857  0.5617
  873MPD2     H12863   3.325   0.018   0.490 -0.2548  1.0621  0.2368
  873MPD2    H112864   3.616   4.591   0.232  0.6879  0.8041 -0.2798
  873MPD2    H212865   3.654   0.260   0.372  0.0248  0.0013 -0.0182
  873MPD2    H312866   3.748   0.072   0.271 -0.0108  0.6474 -0.2500
  873MPD2     N12867   3.396   4.538   0.354 -0.2324  0.2766 -0.5748
  873MPD2    H512868   3.426   4.465   0.290  1.0335  1.0425 -0.8422
  873MPD2    N112869   3.439   0.265   0.512 -0.0757 -0.2328  0.5243
  873MPD2    H712870   3.501   0.344   0.524 -0.2128 -0.0209 -0.1695
  874MPD2     C12871   2.685   0.759  15.887 -0.1262 -0.2178 -0.5513
  874MPD2    C112872   2.775   0.671  15.950 -0.0730 -0.2401 -0.5504
  874MPD2    C212873   2.907   0.681  15.913 -0.8021  0.1033 -0.2624
  874MPD2    C312874   2.948   0.773  15.820 -0.3957  0.1861  0.2443
  874MPD2    C412875   2.858   0.843  15.746 -0.7610 -0.1990  0.4365
  874MPD2    C512876   2.726   0.843  15.784  0.3485  0.9247  0.2080
  874MPD2     H12877   2.985   0.640  15.975 -0.0650  1.8893 -0.0012
  874MPD2    H112878   2.885   0.903  15.660 -1.6288 -1.9061 -1.0301
  874MPD2    H212879   2.578   0.774  15.901 -0.1196 -1.1248  0.4057
  874MPD2    H312880   2.653   0.902  15.731  0.9178  0.8331 -0.6730
  874MPD2     N12881   3.086   0.782  15.797  0.5516 -0.3364  0.2644
  874MPD2    H512882   3.144   0.729  15.861  0.2270 -0.7800  0.1885
  874MPD2    N112883   2.720   0.575  16.039  0.0781  0.5569 -0.0703
  874MPD2    H712884   2.619   0.573  16.049  0.2964  1.1541  2.4041
  875MPD2     C12885   4.426   3.813  14.339  0.4329  0.2393 -0.5058
  875MPD2    C112886   4.300   3.775  14.388 -0.6291 -0.0224 -0.7246
  875MPD2    C212887   4.254   3.808  14.511  0.3292 -0.5173  0.2863
  875MPD2    C312888   4.327   3.894  14.590  0.1429  0.0406  0.1074
  875MPD2    C412889   4.455   3.939  14.544  0.0082 -0.0233 -0.1520
  875MPD2    C512890   4.493   3.906  14.418  0.2814  0.1190 -0.3036
  875MPD2     H12891   4.156   3.779  14.548 -0.4950  1.3987 -0.3978
  875MPD2    H112892   4.504   4.019  14.599 -1.3344 -0.3039  1.4487
  875MPD2    H212893   4.461   3.787  14.240 -0.9146 -0.4650 -0.7860
  875MPD2    H312894   4.580   3.956  14.377  0.2680 -0.2716 -0.8146
  875MPD2     N12895   4.284   3.956  14.712  0.1690 -0.1164  0.1427
  875MPD2    H512896   4.344   4.030  14.747  0.2274  0.0125 -0.2277
  875MPD2    N112897   4.199   3.713  14.312 -0.1652  0.1446 -0.0763
  875MPD2    H712898   4.102   3.719  14.341  0.3849  1.7809  1.3702
  876MPD2     C12899   2.506   0.021  15.921  0.4149 -0.0487 -0.1142
  876MPD2    C112900   2.640   0.027  15.914 -0.0133  0.8415  0.2428
  876MPD2    C212901   2.719   4.653  15.953 -0.2793  0.1453  0.0294
  876MPD2    C312902   2.655   4.543  16.014 -0.0352  0.0328  0.0124
  876MPD2    C412903   2.513   4.548  16.029  0.6949  0.0283  0.1799
  876MPD2    C512904   2.442   4.652  15.969  0.1105  1.1089  0.1153
  876MPD2     H12905   2.827   4.653  15.940 -0.1522 -0.4146  1.0617
  876MPD2    H112906   2.459   4.469  16.080  1.5894 -0.1891  0.8056
  876MPD2    H212907   2.452   0.104  15.876 -1.2028 -1.5587 -0.9543
  876MPD2    H312908   2.334   4.648  15.982  0.0714  1.9062  0.0691
  876MPD2     N12909   2.740   4.438  16.055  0.7961 -0.2818 -0.1588
  876MPD2    H512910   2.839   4.443  16.034  1.0691  1.0065  1.4003
  876MPD2    N112911   2.696   0.143  15.859  0.2626  0.9011 -0.1632
  876MPD2    H712912   2.635   0.216  15.824  0.2138  0.5306 -0.8477
  877MPD2     C12913   2.613   0.626  15.287  0.1421 -0.5329 -1.2238
  877MPD2    C112914   2.737   0.558  15.292 -0.4533  0.1274  0.2506
  877MPD2    C212915   2.813   0.556  15.181  0.5879 -0.1397  0.3338
  877MPD2    C312916   2.765   0.603  15.061 -0.7000 -0.6510  0.3694
  877MPD2    C412917   2.638   0.661  15.051  0.2678  0.3559 -0.2844
  877MPD2    C512918   2.566   0.681  15.171  0.1913 -0.1661  0.0796
  877MPD2     H12919   2.914   0.518  15.193  0.0230 -1.5939  0.4725
  877MPD2    H112920   2.600   0.690  14.954 -1.5928 -1.9989 -0.2571
  877MPD2    H212921   2.565   0.651  15.381 -0.0831 -1.4575 -1.0933
  877MPD2    H312922   2.470   0.732  15.165 -0.4330 -1.6066 -2.2395
  877MPD2     N12923   2.836   0.591  14.943 -0.3727  0.3429  0.2594
  877MPD2    H512924   2.791   0.635  14.863  1.3762  1.1309 -0.3009
  877MPD2    N112925   2.795   0.517  15.413  0.0253 -0.3429 -0.5728
  877MPD2    H712926   2.892   0.488  15.410 -0.8474 -3.2628 -0.4305
  878MPD2     C12927   2.698   0.049  13.275 -0.5836  0.4854 -0.1608
  878MPD2    C112928   2.823   4.726  13.273 -0.2569  0.8164 -0.1499
  878MPD2    C212929   2.858   4.628  13.363 -0.3297 -0.1019  0.3360
  878MPD2    C312930   2.765   4.582  13.454  0.5114  0.0020  1.1284
  878MPD2    C412931   2.639   4.644  13.462 -0.3296 -0.2978  0.2834
  878MPD2    C512932   2.608   0.006  13.372  0.1963  0.1182  0.3417
  878MPD2     H12933   2.954   4.576  13.366 -0.6120 -0.5866  0.9976
  878MPD2    H112934   2.567   4.595  13.525 -0.6940 -0.0643  0.0468
  878MPD2    H212935   2.676   0.128  13.205 -2.3020  1.8435  1.9221
  878MPD2    H312936   2.512   0.055  13.377 -0.5513 -1.6996  3.5294
  878MPD2     N12937   2.801   4.469  13.526 -0.1414 -0.3507 -0.1962
  878MPD2    H512938   2.895   4.433  13.509  1.0889  1.9320  1.7088
  878MPD2    N112939   2.909   0.031  13.170 -0.1183  0.3698 -0.3158
  878MPD2    H712940   2.872   0.093  13.098  1.9421 -0.7215 -2.3165
  879MPD2     C12941   3.377   0.933  17.110 -0.6404  0.0770  0.1467
  879MPD2    C112942   3.487   0.928  17.026 -0.1569 -0.2834 -0.3892
  879MPD2    C212943   3.473   0.876  16.904  0.5279 -0.2750 -0.4119
  879MPD2    C312944   3.354   0.827  16.861 -0.1172 -0.2955 -0.2507
  879MPD2    C412945   3.243   0.843  16.943 -0.4071 -0.2416 -0.6514
  879MPD2    C512946   3.262   0.884  17.072 -0.2690  0.5551 -0.7855
  879MPD2     H12947   3.564   0.852  16.850  0.2656  1.1118 -1.4818
  879MPD2    H112948   3.144   0.811  16.915 -0.5919 -2.3266  2.3597
  879MPD2    H212949   3.390   0.972  17.210  0.3426 -0.7560  0.3411
  879MPD2    H312950   3.182   0.880  17.145  1.3694 -0.9275  0.9312
  879MPD2     N12951   3.332   0.748  16.742  0.0038  0.5127  0.3054
  879MPD2    H512952   3.243   0.701  16.736  0.8676 -1.2437  1.0786
  879MPD2    N112953   3.607   0.958  17.079  0.0231  0.6849  0.5385
  879MPD2    H712954   3.609   0.990  17.176 -1.4838  0.8562  0.5144
  880MPD2     C12955   4.245   2.732   0.188 -1.0714 -0.1575 -0.2105
  880MPD2    C112956   4.248   2.821   0.292  0.2813 -0.4321 -0.7423
  880MPD2    C212957   4.219   2.774   0.416  0.0169 -0.7695  0.0955
  880MPD2    C312958   4.193   2.639   0.436 -0.1418 -0.1777 -0.1191
  880MPD2    C412959   4.190   2.554   0.329 -0.6776  0.7585 -0.2018
  880MPD2    C512960   4.220   2.603   0.214  0.6263  0.0373 -0.0474
  880MPD2     H12961   4.220   2.841   0.500  0.5304  1.1362 -1.4415
  880MPD2    H112962   4.185   2.446   0.338  1.7689  0.6654  0.1910
  880MPD2    H212963   4.277   2.759   0.088  0.2088  0.5624  0.4009
  880MPD2    H312964   4.216   2.541   0.125 -0.3034 -0.0776  0.0750
  880MPD2     N12965   4.184   2.597   0.569 -0.4625  0.3102  0.0991
  880MPD2    H512966   4.205   2.663   0.643  2.0134 -2.4645  1.8679
  880MPD2    N112967   4.273   2.964   0.277 -0.4140 -0.4246 -0.6301
  880MPD2    H712968   4.260   3.026   0.356 -0.7980 -0.3648 -0.7402
  881MPD2     C12969   0.178   3.771  17.737 -0.1928  0.7181  0.0395
  881MPD2    C112970   0.136   3.675  17.652 -0.4144 -0.0184  0.2588
  881MPD2    C212971   0.029   3.598  17.684 -0.2253  0.1311  0.3001
  881MPD2    C312972   4.719   3.600   0.069 -0.2258  1.4316  0.3760
  881MPD2    C412973   0.037   3.688   0.155  0.5604 -0.4525  0.1597
  881MPD2    C512974   0.137   3.771   0.120 -0.0044 -0.1314  0.8608
  881MPD2     H12975   4.727   3.529  17.611 -0.0302  1.2367 -0.8463
  881MPD2    H112976   0.002   3.694   0.257 -0.8625 -0.0059 -0.3431
  881MPD2    H212977   0.262   3.837  17.716  0.7266  0.5888  3.3568
  881MPD2    H312978   0.178   3.836   0.195 -1.3135  0.5400  0.9956
  881MPD2     N12979   4.612   3.523   0.116  0.5173 -0.4155  0.2805
  881MPD2    H512980   4.592   3.539   0.214  2.6175 -0.4454  0.7133
  881MPD2    N112981   0.176   3.682  17.516  0.2657 -0.1685  0.1055
  881MPD2    H712982   0.235   3.760  17.489 -0.4038 -1.0715 -3.8810
  882MPD2     C12983   3.075   0.339  14.191  0.2515  0.0373  0.1872
  882MPD2    C112984   3.013   0.359  14.309 -0.5766 -0.7542 -0.6597
  882MPD2    C212985   2.956   0.259  14.371 -0.4587  0.6219 -0.6513
  882MPD2    C312986   2.952   0.133  14.322 -0.5440  0.0892  0.0791
  882MPD2    C412987   3.026   0.105  14.218 -0.3069  0.1190  0.5300
  882MPD2    C512988   3.091   0.207  14.151  0.5961 -0.3422  0.6884
  882MPD2     H12989   2.910   0.280  14.467  0.9886  0.8997 -0.0198
  882MPD2    H112990   3.035   0.010  14.166  0.4266  0.6695 -0.3579
  882MPD2    H212991   3.131   0.419  14.145  0.0480  0.5315  0.8035
  882MPD2    H312992   3.144   0.188  14.058 -0.7475  0.5622 -0.2697
  882MPD2     N12993   2.892   0.023  14.393 -0.4275  0.1916  0.4997
  882MPD2    H512994   2.905   4.669  14.352  2.3213 -0.2007  2.2812
  882MPD2    N112995   3.013   0.490  14.366  1.0941 -0.3073  0.1077
  882MPD2    H712996   3.090   0.551  14.338  0.5792 -0.6307 -2.0553
  883MPD2     C12997   0.326   0.448  15.861  0.1670  0.1342  0.5686
  883MPD2    C112998   0.385   0.547  15.793  0.1023  0.3805 -0.4547
  883MPD2    C212999   0.491   0.626  15.857 -1.0510  0.1095  0.0866
  883MPD2    C313000   0.528   0.587  15.984 -0.0848  0.1094  0.4980
  883MPD2    C413001   0.465   0.485  16.053 -0.3412 -0.2858  0.3324
  883MPD2    C513002   0.369   0.415  15.988 -0.0426 -0.3171 -0.3025
  883MPD2     H13003   0.540   0.707  15.804  0.2454  0.9883  2.6291
  883MPD2    H113004   0.493   0.449  16.151  0.2438  0.5745  0.4760
  883MPD2    H213005   0.255   0.379  15.817  0.6773 -1.0399  1.6104
  883MPD2    H313006   0.320   0.328  16.029 -2.2224 -0.1339 -2.4949
  883MPD2     N13007   0.654   0.638  16.037 -0.1872  0.2290 -0.7957
  883MPD2    H513008   0.713   0.701  15.983  0.6777 -0.6234 -0.8532
  883MPD2    N113009   0.343   0.581  15.667  0.2239  0.0352  0.0248
  883MPD2    H713010   0.385   0.663  15.625  0.0103 -0.6913 -1.6162
  884MPD2     C13011   2.405   1.186  14.922 -0.3040  0.0633  0.8308
  884MPD2    C113012   2.415   1.316  14.877  0.0351 -0.4184 -0.6687
  884MPD2    C213013   2.300   1.396  14.888 -0.2976  0.1197  0.1151
  884MPD2    C313014   2.183   1.345  14.938  0.4173 -0.2525  0.2875
  884MPD2    C413015   2.175   1.209  14.981 -0.4420  0.5959 -0.3849
  884MPD2    C513016   2.291   1.132  14.971 -0.9334  0.4078  0.2634
  884MPD2     H13017   2.306   1.497  14.850  1.9577  0.1952  0.6492
  884MPD2    H113018   2.089   1.170  15.035  0.8741  0.1778  1.4140
  884MPD2    H213019   2.491   1.120  14.916 -1.1708 -0.9528 -0.4461
  884MPD2    H313020   2.284   1.025  14.986  0.9564  0.5517  2.0995
  884MPD2     N13021   2.072   1.430  14.954  0.3258  0.0048  0.8718
  884MPD2    H513022   2.075   1.527  14.924  1.2680 -0.0099  0.9370
  884MPD2    N113023   2.536   1.374  14.827 -0.3974  0.4689 -0.3091
  884MPD2    H713024   2.524   1.455  14.767  1.2828 -0.6675 -2.1807
  885MPD2     C13025   0.218   1.683   0.075  0.2476 -0.1491 -0.9162
  885MPD2    C113026   0.352   1.665   0.065 -0.3023 -0.0453  0.6358
  885MPD2    C213027   0.412   1.669  17.692 -0.1329 -0.2649 -1.2512
  885MPD2    C313028   0.342   1.710  17.578 -0.0431 -0.3821  0.2624
  885MPD2    C413029   0.202   1.731  17.594 -0.6440  0.6315 -0.0925
  885MPD2    C513030   0.142   1.707  17.716 -0.3833 -0.3139  0.7822
  885MPD2     H13031   0.516   1.646  17.678  0.2246  0.2403  0.5937
  885MPD2    H113032   0.134   1.746  17.511 -0.0934  1.2049 -0.4349
  885MPD2    H213033   0.162   1.663   0.165 -0.4574 -0.3076 -1.3861
  885MPD2    H313034   0.034   1.714  17.724 -0.6179 -2.4872 -0.4656
  885MPD2     N13035   0.409   1.737  17.457 -0.0653  0.5667  0.1773
  885MPD2    H513036   0.505   1.707  17.441 -0.1162  1.3133 -1.5971
  885MPD2    N113037   0.421   1.646   0.186  0.3787 -0.0565  0.1009
  885MPD2    H713038   0.369   1.681   0.266 -1.0093  3.1329 -2.1799
  886MPD2     C13039   1.952   4.511  14.860  0.1519 -0.2046 -0.1135
  886MPD2    C113040   1.913   4.544  14.982  0.7120  0.2480  0.7961
  886MPD2    C213041   1.837   4.656  14.998  0.1190 -0.6410  0.0879
  886MPD2    C313042   1.815   0.007  14.899 -0.5522 -0.0383  0.4363
  886MPD2    C413043   1.851   4.711  14.768 -0.2955  0.0784 -0.4881
  886MPD2    C513044   1.930   4.595  14.755  0.0294  0.3300  0.1759
  886MPD2     H13045   1.796   4.674  15.097 -0.8893 -0.0780 -0.4386
  886MPD2    H113046   1.838   0.051  14.693  0.0827 -2.7807 -3.5216
  886MPD2    H213047   2.034   4.445  14.834  0.5197 -0.1932  1.0190
  886MPD2    H313048   1.970   4.579  14.656  0.1994 -0.9162  0.4410
  886MPD2     N13049   1.750   0.129  14.929 -0.6188  0.3050  0.3564
  886MPD2    H513050   1.743   0.186  14.845 -0.6521  2.1227  1.5925
  886MPD2    N113051   1.936   4.471  15.105 -0.0336 -0.5422 -0.0999
  886MPD2    H713052   1.903   4.511  15.192 -1.2533  0.2715 -0.9445
  887MPD2     C13053   2.117   4.727  15.749 -0.2506 -0.4167 -0.0343
  887MPD2    C113054   2.065   4.733  15.619 -0.3201 -0.3693  0.2672
  887MPD2    C213055   2.034   0.121  15.568  0.6345  0.4028  0.4580
  887MPD2    C313056   2.068   0.238  15.645  0.5787  0.4820  0.3267
  887MPD2    C413057   2.115   0.222  15.776 -0.3887 -0.0023 -0.1706
  887MPD2    C513058   2.144   0.100  15.824 -0.4777 -0.3267  0.3721
  887MPD2     H13059   1.993   0.123  15.467  1.3635 -1.5659  0.1263
  887MPD2    H113060   2.132   0.309  15.838 -1.4043  0.5078 -0.5964
  887MPD2    H213061   2.136   4.630  15.793  0.6058 -0.2243  0.0001
  887MPD2    H313062   2.200   0.083  15.915 -0.4847 -1.2772  0.2030
  887MPD2     N13063   2.043   0.366  15.586  0.1846  0.0638 -0.2848
  887MPD2    H513064   1.985   0.362  15.503 -1.3916 -0.6878  0.8242
  887MPD2    N113065   2.026   4.621  15.544 -1.0514 -0.0790  0.5267
  887MPD2    H713066   1.975   4.640  15.459 -0.2820 -1.9974 -0.3525
  888MPD2     C13067   4.082   0.048  14.533  0.2456  0.0848  0.5172
  888MPD2    C113068   4.034   0.102  14.652 -0.9085 -0.1923 -0.4515
  888MPD2    C213069   4.064   0.233  14.679  0.3493  0.4971 -0.4244
  888MPD2    C313070   4.140   0.309  14.586  0.9932 -0.5181 -0.9821
  888MPD2    C413071   4.199   0.252  14.480 -0.1441 -0.1257  0.2964
  888MPD2    C513072   4.170   0.122  14.459  0.7210 -0.0898 -0.3831
  888MPD2     H13073   4.003   0.282  14.753 -0.9688 -0.6697 -0.7413
  888MPD2    H113074   4.260   0.301  14.404 -0.7552 -0.2160 -0.2511
  888MPD2    H213075   4.073   4.679  14.515  2.8691 -0.3860  1.9648
  888MPD2    H313076   4.213   0.067  14.375  1.0009 -0.0469 -0.2683
  888MPD2     N13077   4.158   0.445  14.617  0.2954  0.0707 -0.1028
  888MPD2    H513078   4.101   0.485  14.691 -1.1588  0.2392 -1.3026
  888MPD2    N113079   3.964   0.035  14.750  0.1469 -0.8102  0.5950
  888MPD2    H713080   3.939   0.092  14.830  0.5469  0.3141 -0.0804
  889MPD2     C13081   3.607   0.036  12.763 -0.1848  0.3333 -0.3137
  889MPD2    C113082   3.548   4.680  12.846  0.3481 -0.1799  0.0108
  889MPD2    C213083   3.516   4.718  12.979  0.3159 -0.2693  0.6266
  889MPD2    C313084   3.495   0.112  13.007 -0.4480  0.7295 -0.1684
  889MPD2    C413085   3.517   0.206  12.905  0.3341 -0.1670  0.9297
  889MPD2    C513086   3.578   0.168  12.795 -0.2809 -0.5953 -0.4710
  889MPD2     H13087   3.476   4.647  13.050 -1.1565 -0.7593 -0.6912
  889MPD2    H113088   3.502   0.311  12.926 -0.6257 -0.0076 -0.5560
  889MPD2    H213089   3.627   0.016  12.658 -0.0564  0.4508 -0.3117
  889MPD2    H313090   3.603   0.240  12.718  0.7539  0.4606  0.8653
  889MPD2     N13091   3.452   0.150  13.138  0.9683 -0.6449 -0.0397
  889MPD2    H513092   3.454   0.083  13.214  0.6359  0.2996  0.7886
  889MPD2    N113093   3.565   4.547  12.812 -0.2480  0.1089  1.0486
  889MPD2    H713094   3.619   4.524  12.728  0.8025  1.8506  1.2433
  890MPD2     C13095   3.158   1.072  14.452 -0.6827  0.2694  0.3570
  890MPD2    C113096   3.249   1.103  14.555  1.0108 -0.0049  0.2392
  890MPD2    C213097   3.215   1.083  14.686 -0.6113 -0.2197  0.4414
  890MPD2    C313098   3.099   1.021  14.723  0.4683  0.4396 -1.0734
  890MPD2    C413099   3.016   0.972  14.619  0.3454 -0.2189 -0.2179
  890MPD2    C513100   3.055   0.991  14.491 -0.2121  0.9320  0.7491
  890MPD2     H13101   3.275   1.121  14.767  0.6554 -1.5800  0.1409
  890MPD2    H113102   2.927   0.912  14.634  0.4526 -0.5287 -0.7983
  890MPD2    H213103   3.184   1.076  14.347  0.5667 -0.5832  0.6444
  890MPD2    H313104   2.997   0.945  14.411  1.8537 -1.8135  0.8282
  890MPD2     N13105   3.070   1.004  14.859  0.1337  0.2678 -0.0743
  890MPD2    H513106   3.150   1.026  14.916 -0.3160 -2.4957  1.6227
  890MPD2    N113107   3.356   1.183  14.520 -0.2050  0.5166  0.1603
  890MPD2    H713108   3.378   1.211  14.425 -2.4130 -0.3836 -0.6245
  891MPD2     C13109   1.309   4.698  16.022  0.6613  0.5043  0.5911
  891MPD2    C113110   1.209   4.715  16.107 -0.2383 -0.1922 -0.1102
  891MPD2    C213111   1.232   4.704  16.245  0.4608  0.2014 -0.0079
  891MPD2    C313112   1.363   4.695  16.289  0.8530  0.2211 -0.0911
  891MPD2    C413113   1.473   4.706  16.197  0.3553 -0.3538 -0.1897
  891MPD2    C513114   1.434   4.699  16.070  0.3558 -0.4139 -0.4330
  891MPD2     H13115   1.144   4.693  16.309  1.8881 -0.7926  1.7979
  891MPD2    H113116   1.577   4.713  16.224 -0.1716  1.2788  1.3964
  891MPD2    H213117   1.301   4.696  15.914 -3.7994  1.5134  0.9039
  891MPD2    H313118   1.508   4.697  15.992  2.4106 -1.6170  1.5603
  891MPD2     N13119   1.387   4.693  16.428  0.0731 -0.6090 -0.4934
  891MPD2    H513120   1.313   4.708  16.495  2.0992  2.1757  1.1332
  891MPD2    N113121   1.073   4.734  16.063  0.2485 -0.8650  0.1817
  891MPD2    H713122   1.056   0.002  15.963  0.2547 -1.7675  0.1321
  892MPD2     C13123   2.381   0.437  15.029 -0.1590 -0.0973  0.0714
  892MPD2    C113124   2.393   0.445  14.896  0.0040  0.6335  0.0231
  892MPD2    C213125   2.418   0.326  14.823 -0.0664 -0.1134  1.0535
  892MPD2    C313126   2.457   0.213  14.890 -0.0698  0.0885  0.3109
  892MPD2    C413127   2.472   0.220  15.024  0.2386  0.0856  0.5370
  892MPD2    C513128   2.432   0.328  15.095 -0.3797  0.2041  0.1414
  892MPD2     H13129   2.404   0.332  14.716  0.5566  1.1995  1.0421
  892MPD2    H113130   2.522   0.144  15.082  0.7674  0.1288  0.1346
  892MPD2    H213131   2.371   0.530  15.083  0.5727 -0.3275  0.6012
  892MPD2    H313132   2.438   0.332  15.204  0.6420 -3.1931  0.2098
  892MPD2     N13133   2.484   0.091  14.826 -0.1619 -0.1887  0.0996
  892MPD2    H513134   2.541   0.022  14.875  0.7814  0.0655 -0.6591
  892MPD2    N113135   2.354   0.563  14.825 -0.2350  0.1405 -0.2427
  892MPD2    H713136   2.373   0.557  14.725 -2.5913  0.1494 -0.6862
  893MPD2     C13137   3.431   4.018   0.956  0.0754  0.5521 -0.1675
  893MPD2    C113138   3.447   3.925   0.861 -0.0583 -0.4539 -0.2216
  893MPD2    C213139   3.334   3.851   0.817 -0.4687  0.0480  0.4939
  893MPD2    C313140   3.214   3.879   0.883 -0.9108  0.3166  0.5169
  893MPD2    C413141   3.204   3.988   0.963 -0.6253  0.3598  0.6386
  893MPD2    C513142   3.309   4.053   1.000 -0.1703 -0.4470 -0.3514
  893MPD2     H13143   3.335   3.775   0.740 -2.9118  0.8720 -0.3663
  893MPD2    H113144   3.109   4.024   1.000 -0.7026  0.1869  0.6065
  893MPD2    H213145   3.510   4.082   0.996  0.6478  0.4534 -1.1399
  893MPD2    H313146   3.297   4.134   1.070  0.4965  0.5765 -1.4237
  893MPD2     N13147   3.095   3.806   0.861 -0.1537  0.6731  0.4205
  893MPD2    H513148   3.009   3.846   0.896 -1.2670  2.0642 -3.9580
  893MPD2    N113149   3.574   3.899   0.818 -0.4336 -0.4476  0.0151
  893MPD2    H713150   3.648   3.946   0.870 -1.3496  1.4574 -0.3749
  894MPD2     C13151   2.019   1.208   1.271 -0.2614  0.4001  0.0410
  894MPD2    C113152   1.964   1.281   1.379  0.5492  0.7479  0.9169
  894MPD2    C213153   2.053   1.354   1.455 -1.8358 -0.0148 -0.4220
  894MPD2    C313154   2.188   1.354   1.424 -0.5896  0.7530  0.2097
  894MPD2    C413155   2.245   1.279   1.324  0.2303 -0.8279  0.4443
  894MPD2    C513156   2.157   1.206   1.256  0.0962  0.5367 -1.1200
  894MPD2     H13157   2.013   1.408   1.541 -0.7138  0.9730 -0.5285
  894MPD2    H113158   2.349   1.276   1.294  0.6058 -0.1325  1.7008
  894MPD2    H213159   1.951   1.153   1.208  0.3436 -0.1106 -0.1652
  894MPD2    H313160   2.200   1.141   1.180  1.2056 -1.1622  0.9607
  894MPD2     N13161   2.260   1.449   1.499  0.6496  0.1863  0.3839
  894MPD2    H513162   2.201   1.513   1.551  1.7359  1.0069  0.6217
  894MPD2    N113163   1.830   1.293   1.417 -0.3256  0.4655  0.3893
  894MPD2    H713164   1.815   1.350   1.500  0.7966  1.4509 -0.0856
  895MPD2     C13165   1.343   0.162  13.743  0.3842  0.7575 -0.4587
  895MPD2    C113166   1.264   0.144  13.634 -0.6853 -0.1355 -0.2911
  895MPD2    C213167   1.290   0.039  13.550 -0.1336 -0.2237 -0.0156
  895MPD2    C313168   1.387   4.678  13.583  0.4301  0.2067  0.0065
  895MPD2    C413169   1.457   4.694  13.697  0.0669  0.1732 -0.9312
  895MPD2    C513170   1.435   0.069  13.780 -0.0185 -0.0989 -0.1939
  895MPD2     H13171   1.231   0.035  13.459 -0.1129 -1.9581  0.0425
  895MPD2    H113172   1.529   4.616  13.718  1.1196  1.0480 -1.3317
  895MPD2    H213173   1.333   0.241  13.818 -0.1667 -0.7782  1.0824
  895MPD2    H313174   1.500   0.083  13.865 -0.2255  0.9134 -0.2007
  895MPD2     N13175   1.410   4.564  13.505 -0.5041 -0.0787  0.4215
  895MPD2    H513176   1.486   4.501  13.528  1.0212  1.7266  0.3238
  895MPD2    N113177   1.160   0.228  13.601 -0.4464 -0.3486 -0.3037
  895MPD2    H713178   1.119   0.218  13.509 -1.8387  0.5187  0.2301
  896MPD2     C13179   3.874   2.044   1.678  0.1034 -0.3572 -0.0566
  896MPD2    C113180   3.839   2.040   1.543 -0.1076 -0.2681 -0.0524
  896MPD2    C213181   3.723   1.966   1.504 -0.2170 -0.1634 -0.2640
  896MPD2    C313182   3.643   1.910   1.607  0.1861  0.2706  0.1955
  896MPD2    C413183   3.685   1.910   1.738 -0.4107 -0.5625 -0.1273
  896MPD2    C513184   3.805   1.974   1.770 -0.2392  0.6793  0.3005
  896MPD2     H13185   3.689   1.951   1.402 -1.6848 -1.2185  0.3812
  896MPD2    H113186   3.631   1.862   1.818 -0.0300 -0.6007  0.1098
  896MPD2    H213187   3.949   2.109   1.721 -0.1784 -1.0468  1.4839
  896MPD2    H313188   3.841   1.969   1.872  1.5456  2.0759 -0.2592
  896MPD2     N13189   3.527   1.850   1.568 -0.2601  0.0238 -0.2422
  896MPD2    H513190   3.500   1.846   1.470  1.4331  2.5289 -0.8085
  896MPD2    N113191   3.925   2.111   1.451  0.3853 -0.6125 -0.0906
  896MPD2    H713192   3.995   2.167   1.498  0.9634  0.5012 -2.2812
  897MPD2     C13193   0.233   4.551  10.254  0.2718 -0.0774 -0.6986
  897MPD2    C113194   0.144   4.639  10.307 -0.3038 -0.1764 -0.0315
  897MPD2    C213195   0.083   4.590  10.423 -0.0864 -0.8439  0.8099
  897MPD2    C313196   0.103   4.462  10.479  0.5574 -0.1559  0.3055
  897MPD2    C413197   0.190   4.380  10.415  0.3816  0.6275 -0.4226
  897MPD2    C513198   0.250   4.421  10.301  0.1219  0.5688  0.0186
  897MPD2     H13199   4.731   4.640  10.459  0.4277  0.0563  0.8293
  897MPD2    H113200   0.219   4.283  10.455 -0.4149  1.1197  1.3666
  897MPD2    H213201   0.298   4.576  10.170 -0.1028  0.3330 -0.8662
  897MPD2    H313202   0.316   4.365  10.236 -0.8601 -1.9881  1.2057
  897MPD2     N13203   0.031   4.431  10.599  0.1926  0.0959  0.6155
  897MPD2    H513204   4.693   4.494  10.625 -1.4298 -2.8449  2.9829
  897MPD2    N113205   0.124   0.026  10.252  0.0563  0.1269 -0.0442
  897MPD2    H713206   0.155   0.040  10.157  0.4534 -0.2580  0.0300
  898MPD2     C13207   1.538   0.038  17.407  0.2868  0.4021 -0.1850
  898MPD2    C113208   1.665   0.056  17.449 -0.2596 -0.2092  0.6805
  898MPD2    C213209   1.717   0.184  17.434  0.3493 -0.1570 -0.2168
  898MPD2    C313210   1.650   0.285  17.358  0.1308 -0.5064  0.0959
  898MPD2    C413211   1.524   0.256  17.307 -0.0063  0.3336  0.1416
  898MPD2    C513212   1.471   0.139  17.346  0.6160 -0.0553 -0.1497
  898MPD2     H13213   1.809   0.211  17.483  0.6288 -0.6198 -0.4904
  898MPD2    H113214   1.468   0.319  17.239  0.4518  2.2326  1.5474
  898MPD2    H213215   1.479   4.686  17.418  0.2668  0.2117 -1.7791
  898MPD2    H313216   1.372   0.113  17.312  0.9513 -3.3698  1.4031
  898MPD2     N13217   1.705   0.413  17.357 -0.2097 -0.0345  0.5310
  898MPD2    H513218   1.803   0.416  17.384  0.7484  0.2899 -2.8949
  898MPD2    N113219   1.743   4.699  17.518  0.2880  0.0849 -0.3120
  898MPD2    H713220   1.831   4.735  17.556 -0.4062  0.2184  1.1853
  899MPD2     C13221   2.947   0.639  17.231 -0.1001 -0.3534  0.4589
  899MPD2    C113222   2.945   0.742  17.324 -0.5129  0.0314  0.5081
  899MPD2    C213223   2.955   0.714  17.464 -0.6584  0.2333  0.3950
  899MPD2    C313224   2.955   0.582  17.504 -0.6770 -0.1539  0.2775
  899MPD2    C413225   2.955   0.478  17.415  0.4075 -0.6238  0.4079
  899MPD2    C513226   2.949   0.505  17.282  1.0910  0.6417 -0.5861
  899MPD2     H13227   2.956   0.788  17.543  0.5803  1.5056 -0.8121
  899MPD2    H113228   2.949   0.373  17.441  0.3841 -0.3031  1.6912
  899MPD2    H213229   2.941   0.650  17.123 -0.2836  0.0794  0.5131
  899MPD2    H313230   2.947   0.424  17.210  0.8182  0.2075 -0.0937
  899MPD2     N13231   2.947   0.550  17.642  0.1507  0.5302 -0.0624
  899MPD2    H513232   2.923   0.454  17.667  3.1219  0.5536  2.9455
  899MPD2    N113233   2.930   0.872  17.282 -0.0516  0.7032 -0.5531
  899MPD2    H713234   2.912   0.885  17.183  1.4478  2.2662 -0.6160
  900MPD2     C13235   2.798   2.438  12.293 -0.1123 -1.1730 -0.3743
  900MPD2    C113236   2.697   2.346  12.314  0.4275 -0.4685 -0.0258
  900MPD2    C213237   2.589   2.353  12.223  0.4810 -0.4419  0.7794
  900MPD2    C313238   2.580   2.457  12.131 -0.8644  0.3573 -0.8724
  900MPD2    C413239   2.690   2.537  12.105  0.1669  0.1809 -0.1834
  900MPD2    C513240   2.793   2.535  12.195  0.1320  0.1507  0.1218
  900MPD2     H13241   2.506   2.287  12.245  0.6386 -1.2387 -0.9987
  900MPD2    H113242   2.676   2.617  12.033 -1.4426 -0.8046 -0.9876
  900MPD2    H213243   2.883   2.439  12.360  0.3222  1.1204 -0.9610
  900MPD2    H313244   2.864   2.616  12.209 -0.8554  0.8480  1.0651
  900MPD2     N13245   2.456   2.467  12.057  0.0506  0.5437  0.6080
  900MPD2    H513246   2.390   2.397  12.088  0.2344 -0.3093 -0.9707
  900MPD2    N113247   2.710   2.256  12.420  0.4387 -0.3160 -0.6653
  900MPD2    H713248   2.804   2.238  12.452 -1.4274 -0.3477  4.7302
  901MPD2     C13249   2.418   1.282  12.233 -0.1493  0.8621  0.3384
  901MPD2    C113250   2.558   1.288  12.240 -0.3474  0.5613 -0.0454
  901MPD2    C213251   2.616   1.402  12.296  0.2020  0.0423 -0.1979
  901MPD2    C313252   2.542   1.507  12.346  0.4906  0.1356  0.4126
  901MPD2    C413253   2.402   1.494  12.338 -0.1039  0.1201  0.2885
  901MPD2    C513254   2.339   1.386  12.274  0.5480 -0.8308  0.7213
  901MPD2     H13255   2.724   1.404  12.296  0.2122 -0.5107  0.6608
  901MPD2    H113256   2.338   1.571  12.378 -0.7880 -0.7769  0.9122
  901MPD2    H213257   2.376   1.189  12.197  2.6660 -0.1140 -0.4447
  901MPD2    H313258   2.231   1.378  12.281  0.4341 -0.0749 -0.2267
  901MPD2     N13259   2.599   1.617  12.409 -0.4880  0.2021  0.4251
  901MPD2    H513260   2.700   1.610  12.418 -0.4964  1.9374  1.9653
  901MPD2    N113261   2.634   1.172  12.195 -0.1404 -0.1154  0.1701
  901MPD2    H713262   2.580   1.089  12.170  0.5095 -0.5366  0.1567
  902MPD2     C13263   2.017   0.251  13.013 -0.0117  0.2062 -0.3827
  902MPD2    C113264   2.045   0.361  12.945 -0.3628 -1.0455  0.0069
  902MPD2    C213265   2.086   0.346  12.815 -0.4381  0.4525 -0.4888
  902MPD2    C313266   2.114   0.224  12.754 -0.0551  0.4646  0.1871
  902MPD2    C413267   2.107   0.118  12.838  0.0308 -0.2498 -0.2474
  902MPD2    C513268   2.055   0.132  12.960 -0.6043  0.3862 -0.3072
  902MPD2     H13269   2.090   0.439  12.760 -2.0666  0.7108 -0.1681
  902MPD2    H113270   2.133   0.016  12.813 -1.9129 -0.6540 -0.5767
  902MPD2    H213271   1.992   0.258  13.118 -2.0942 -1.9087 -0.7132
  902MPD2    H313272   2.062   0.044  13.023  1.1865 -0.7215 -2.0199
  902MPD2     N13273   2.144   0.203  12.617 -0.3194  0.3956  0.1021
  902MPD2    H513274   2.182   0.112  12.592  0.9624  0.5166  1.6163
  902MPD2    N113275   1.989   0.484  12.990 -1.0055 -0.1908  0.1350
  902MPD2    H713276   1.917   0.483  13.062  1.1406 -0.7898  2.2954
  903MPD2     C13277   1.606   0.272  12.498  0.8818 -0.1738 -0.5976
  903MPD2    C113278   1.655   0.210  12.385 -0.0013  0.0707 -0.0266
  903MPD2    C213279   1.568   0.125  12.316  0.3746 -0.2140  0.4853
  903MPD2    C313280   1.437   0.108  12.372  0.3540  0.3030  0.1376
  903MPD2    C413281   1.403   0.160  12.494  0.8210  0.0879  0.6102
  903MPD2    C513282   1.484   0.258  12.551  0.7087  0.4009  0.8323
  903MPD2     H13283   1.596   0.081  12.221  0.9329 -1.7751  1.3661
  903MPD2    H113284   1.310   0.149  12.549  0.1903  0.1377 -0.4318
  903MPD2    H213285   1.676   0.338  12.547  0.8027 -1.2979  1.0327
  903MPD2    H313286   1.461   0.304  12.647  1.4208  2.0245  0.2374
  903MPD2     N13287   1.348   0.025  12.296  0.0732 -0.4642  0.3623
  903MPD2    H513288   1.385   4.720  12.211  0.7678  0.4508  0.2115
  903MPD2    N113289   1.783   0.247  12.344  0.3742  0.5019  0.2443
  903MPD2    H713290   1.834   0.310  12.405 -1.5460 -0.3994  2.7959
  904MPD2     C13291   1.009   4.372  13.717  0.2658  0.6522  0.1377
  904MPD2    C113292   0.983   4.312  13.837  0.1674  0.1182  0.1680
  904MPD2    C213293   1.096   4.278  13.903  0.0255  0.7504 -0.4528
  904MPD2    C313294   1.227   4.303  13.864  0.1549 -0.1367 -0.0727
  904MPD2    C413295   1.245   4.362  13.739  0.0881  0.0490  0.6188
  904MPD2    C513296   1.134   4.392  13.670  0.9395  0.4581 -0.3663
  904MPD2     H13297   1.076   4.236  14.002 -0.0831 -1.3379 -1.3527
  904MPD2    H113298   1.342   4.388  13.699  0.9331 -2.3543  1.1170
  904MPD2    H213299   0.935   4.395  13.641 -0.4598 -0.9823  0.3550
  904MPD2    H313300   1.145   4.443  13.575  3.9185  0.1328 -0.1797
  904MPD2     N13301   1.343   4.265  13.936 -0.4953  0.0099 -0.4590
  904MPD2    H513302   1.332   4.199  14.012  1.3900  1.9074  1.4575
  904MPD2    N113303   0.855   4.275  13.878  0.2283  0.2564 -0.1041
  904MPD2    H713304   0.837   4.252  13.975 -0.3249 -2.0796 -0.7478
  905MPD2     C13305   0.569   4.220  13.317  0.0991  0.1391  0.2818
  905MPD2    C113306   0.627   4.327  13.379 -0.2480 -0.0749  0.6082
  905MPD2    C213307   0.762   4.360  13.345  0.7769 -0.1636 -0.2641
  905MPD2    C313308   0.841   4.267  13.277 -0.7040  0.8754  0.1180
  905MPD2    C413309   0.781   4.161  13.230  0.4368 -0.0142  0.6670
  905MPD2    C513310   0.646   4.142  13.233 -0.0204 -0.1667 -0.0568
  905MPD2     H13311   0.809   4.448  13.387 -0.2179  0.3817 -0.3195
  905MPD2    H113312   0.830   4.089  13.165  1.9339  1.5050  0.1136
  905MPD2    H213313   0.463   4.209  13.338  0.0781  0.1644  0.1875
  905MPD2    H313314   0.607   4.055  13.182  0.0132 -0.1934 -0.0370
  905MPD2     N13315   0.975   4.293  13.255 -0.4657 -0.3966  0.3500
  905MPD2    H513316   0.999   4.383  13.296 -1.1930 -0.1527  0.2475
  905MPD2    N113317   0.549   4.396  13.476  0.5452 -0.1080  0.3541
  905MPD2    H713318   0.461   4.356  13.509  2.1657 -1.7905  2.6398
  906MPD2     C13319   3.553   4.247  11.475  0.2984 -0.4154  0.2288
  906MPD2    C113320   3.483   4.195  11.375  0.5749  0.6488 -0.0118
  906MPD2    C213321   3.375   4.117  11.403 -0.2099  0.3261  0.0425
  906MPD2    C313322   3.347   4.083  11.532  0.5921  0.3345 -0.2860
  906MPD2    C413323   3.410   4.149  11.634  0.0229 -0.8067 -0.2339
  906MPD2    C513324   3.513   4.231  11.605 -0.3048  0.5176 -0.3788
  906MPD2     H13325   3.318   4.086  11.317 -0.7074 -0.2334  0.5720
  906MPD2    H113326   3.381   4.141  11.738 -0.0924  1.3006 -0.1020
  906MPD2    H213327   3.639   4.310  11.455 -0.5882  1.1035  1.1520
  906MPD2    H313328   3.565   4.278  11.688 -0.0698  1.3395 -0.9981
  906MPD2     N13329   3.253   3.984  11.568 -0.0784  0.0330  0.1125
  906MPD2    H513330   3.226   3.977  11.666  2.1180 -1.0418  0.6421
  906MPD2    N113331   3.517   4.217  11.242 -0.0753  0.6708  0.0215
  906MPD2    H713332   3.456   4.175  11.173 -0.9228  1.2574  0.4142
  907MPD2     C13333   1.800   3.403  15.692  0.1499  0.3565 -0.5797
  907MPD2    C113334   1.923   3.361  15.651 -0.1899  0.0451 -0.3174
  907MPD2    C213335   2.013   3.325  15.750 -0.2351 -0.2187 -0.0550
  907MPD2    C313336   1.985   3.335  15.883 -0.6844 -0.2626  0.2821
  907MPD2    C413337   1.864   3.385  15.922 -0.3030  0.5398  0.4183
  907MPD2    C513338   1.773   3.416  15.826  0.7265  0.7181  0.2035
  907MPD2     H13339   2.110   3.291  15.716 -0.5868 -0.8280 -0.4522
  907MPD2    H113340   1.825   3.395  16.022 -0.1171 -0.6829  0.6135
  907MPD2    H213341   1.721   3.420  15.620 -0.1623  1.1686 -0.0478
  907MPD2    H313342   1.672   3.448  15.848  0.8690  0.6348  0.9888
  907MPD2     N13343   2.089   3.303  15.978 -0.3432  0.0481 -0.0797
  907MPD2    H513344   2.172   3.257  15.940 -0.1256 -1.1244  1.7698
  907MPD2    N113345   1.952   3.341  15.514  0.5334  0.2179  0.5003
  907MPD2    H713346   2.045   3.308  15.490  0.2230  1.1282 -1.9195
  908MPD2     C13347   4.588   0.140   9.439  0.0165 -1.1729  0.0201
  908MPD2    C113348   4.593   0.041   9.537 -0.3878  0.4401 -0.4694
  908MPD2    C213349   4.633   0.072   9.667 -0.4600 -0.0390  0.5275
  908MPD2    C313350   4.679   0.202   9.700 -0.7996  0.2534  0.0631
  908MPD2    C413351   4.681   0.301   9.599 -0.0035  0.4852  0.3821
  908MPD2    C513352   4.637   0.262   9.469  0.1622  0.2812  0.0845
  908MPD2     H13353   4.642   4.735   9.745 -0.5122  0.0949  0.6600
  908MPD2    H113354   4.730   0.397   9.604  0.5554  0.3029 -1.6939
  908MPD2    H213355   4.580   0.109   9.336 -0.6827  1.5525 -0.7337
  908MPD2    H313356   4.657   0.340   9.397 -0.5335  0.9494  0.6114
  908MPD2     N13357   4.723   0.224   9.831 -0.1133  0.7855  0.3390
  908MPD2    H513358   4.733   0.140   9.887 -0.8748 -0.7130 -1.7724
  908MPD2    N113359   4.543   4.646   9.504  0.2088 -0.5201  0.2690
  908MPD2    H713360   4.508   4.642   9.409 -1.2641 -0.3113  0.8056
  909MPD2     C13361   0.394   1.993  12.110 -0.3756 -0.2325 -0.7905
  909MPD2    C113362   0.423   2.104  12.026 -0.3368 -0.0910  0.0680
  909MPD2    C213363   0.366   2.227  12.056 -0.2094 -0.2766  0.0693
  909MPD2    C313364   0.298   2.245  12.176  0.1425 -0.5862  0.4137
  909MPD2    C413365   0.275   2.139  12.262 -0.4350  0.1740  0.4462
  909MPD2    C513366   0.326   2.014  12.229  0.3584 -0.5853 -0.7911
  909MPD2     H13367   0.386   2.310  11.989 -0.0338  0.1565  0.6632
  909MPD2    H113368   0.222   2.148  12.356 -3.0134 -0.3403 -0.9571
  909MPD2    H213369   0.438   1.896  12.090  0.4832  0.0462 -0.2043
  909MPD2    H313370   0.305   1.931  12.295  3.9832 -0.1873  0.8897
  909MPD2     N13371   0.264   2.378  12.208 -0.7376  0.2733 -1.0294
  909MPD2    H513372   0.278   2.443  12.131 -0.6415  1.0410 -0.3772
  909MPD2    N113373   0.506   2.094  11.916  0.7539  0.7710  0.4020
  909MPD2    H713374   0.518   2.188  11.880 -0.0129  0.9963  0.7465
  910MPD2     C13375   1.553   4.261  15.990  0.1782  0.0897  0.0629
  910MPD2    C113376   1.517   4.136  15.937 -0.4667  0.4693  0.2479
  910MPD2    C213377   1.482   4.126  15.806  0.2674  0.0414  0.3749
  910MPD2    C313378   1.485   4.242  15.722 -0.1034  0.0178 -0.1151
  910MPD2    C413379   1.524   4.371  15.781 -0.0574 -0.2095 -0.2188
  910MPD2    C513380   1.555   4.374  15.913 -0.3191 -0.1720  0.1918
  910MPD2     H13381   1.458   4.032  15.760  1.5466 -0.8447  1.5160
  910MPD2    H113382   1.523   4.468  15.733  2.6679 -1.1327 -2.1250
  910MPD2    H213383   1.591   4.274  16.091  0.4238  2.2214 -0.3054
  910MPD2    H313384   1.585   4.468  15.958  0.9095  0.4402 -1.8839
  910MPD2     N13385   1.424   4.253  15.596  0.1838 -0.0564 -0.1030
  910MPD2    H513386   1.395   4.345  15.565  0.2164 -0.4245 -1.2198
  910MPD2    N113387   1.524   4.012  16.016  0.0855 -0.6015  0.2643
  910MPD2    H713388   1.503   3.926  15.967 -2.3756 -0.7338  1.5691
  911MPD2     C13389   4.119   4.412  15.947  0.7273  0.2802 -0.4817
  911MPD2    C113390   4.177   4.536  15.969  0.0381  0.1813  0.4656
  911MPD2    C213391   4.115   4.659  15.961  0.8709 -0.1600  0.2859
  911MPD2    C313392   3.984   4.654  15.913 -0.5068  0.8042  0.4718
  911MPD2    C413393   3.921   4.534  15.900 -0.0166  0.1813  0.4640
  911MPD2    C513394   3.989   4.417  15.915  0.0055 -0.7707 -0.0869
  911MPD2     H13395   4.160   0.019  15.973 -0.9119  0.6339  0.5975
  911MPD2    H113396   3.817   4.523  15.869  0.5352 -1.1957 -0.9219
  911MPD2    H213397   4.169   4.316  15.961  1.0889  0.4716 -0.4626
  911MPD2    H313398   3.929   4.329  15.899 -0.8734 -0.4000  1.1872
  911MPD2     N13399   3.906   0.024  15.861 -0.0188 -0.0620 -0.1131
  911MPD2    H513400   3.820   4.734  15.815 -0.0981 -0.1245  0.0690
  911MPD2    N113401   4.317   4.529  15.993 -0.0281  0.4485 -0.0881
  911MPD2    H713402   4.356   4.437  16.014 -2.2073 -0.8411 -1.7777
  912MPD2     C13403   3.802   4.390  15.427  0.1663  0.1047  0.4120
  912MPD2    C113404   3.731   4.470  15.513 -0.4500  0.0838  0.0349
  912MPD2    C213405   3.679   4.410  15.623 -0.1413  0.2605 -0.6375
  912MPD2    C313406   3.703   4.280  15.650  0.0320 -0.1373  0.6783
  912MPD2    C413407   3.775   4.194  15.562  0.1904  0.4840  0.2098
  912MPD2    C513408   3.828   4.260  15.454  0.1228  0.1650  0.4658
  912MPD2     H13409   3.613   4.465  15.689 -2.3124  0.1854 -2.7193
  912MPD2    H113410   3.786   4.087  15.576 -0.6196  0.1531 -1.7359
  912MPD2    H213411   3.859   4.430  15.344  0.8269  1.4919  1.5380
  912MPD2    H313412   3.892   4.202  15.387 -0.2793 -0.6716  0.8061
  912MPD2     N13413   3.659   4.239  15.781 -0.4427  0.0798  0.9303
  912MPD2    H513414   3.605   4.307  15.835  0.7283 -0.7060  3.0825
  912MPD2    N113415   3.736   4.607  15.490  0.2287 -0.6338 -0.3383
  912MPD2    H713416   3.797   4.627  15.411 -0.2060  0.8247 -0.2946
  913MPD2     C13417   0.721   1.879  10.381 -0.0908  0.3669  0.5643
  913MPD2    C113418   0.814   1.946  10.301 -0.6111 -0.3276  0.1635
  913MPD2    C213419   0.771   2.038  10.206  0.3862  0.2819  0.1406
  913MPD2    C313420   0.635   2.058  10.186  0.2648  0.2097 -0.1762
  913MPD2    C413421   0.540   1.989  10.257  0.0765 -0.0248 -0.2889
  913MPD2    C513422   0.584   1.903  10.362 -0.1513  0.0876 -0.1614
  913MPD2     H13423   0.843   2.099  10.153  0.5227  0.2981  0.3473
  913MPD2    H113424   0.436   1.999  10.229  0.1017 -0.5652 -0.5677
  913MPD2    H213425   0.748   1.811  10.462 -0.5084 -1.1053 -0.5325
  913MPD2    H313426   0.505   1.862  10.424  0.7824  0.6172  1.3874
  913MPD2     N13427   0.586   2.149  10.085 -0.7907  0.4692  0.3666
  913MPD2    H513428   0.487   2.142  10.065 -0.7910  0.1398  0.4790
  913MPD2    N113429   0.947   1.913  10.324 -0.0615 -0.4912 -0.1658
  913MPD2    H713430   0.962   1.850  10.403  2.2256 -0.7692 -0.8168
  914MPD2     C13431   3.256   1.580  12.486 -0.4012  0.6258 -0.8817
  914MPD2    C113432   3.156   1.581  12.392  0.1882  0.1280  0.3484
  914MPD2    C213433   3.094   1.463  12.348 -0.2460  0.0622  0.1368
  914MPD2    C313434   3.140   1.338  12.394 -0.0771 -0.3365 -0.2096
  914MPD2    C413435   3.241   1.337  12.486 -0.9350  0.2233  0.2763
  914MPD2    C513436   3.294   1.454  12.533 -0.0871 -0.1083  0.3553
  914MPD2     H13437   3.009   1.464  12.282 -1.4085  0.6053  1.6377
  914MPD2    H113438   3.287   1.241  12.509 -0.9588 -0.3617 -2.0978
  914MPD2    H213439   3.305   1.668  12.526 -2.2531  1.3703 -0.2351
  914MPD2    H313440   3.379   1.447  12.600  1.0674 -1.6442 -1.2513
  914MPD2     N13441   3.090   1.220  12.332 -0.5317 -0.2379 -0.2964
  914MPD2    H513442   3.022   1.240  12.259 -0.9898  1.4634  0.5921
  914MPD2    N113443   3.114   1.709  12.346  0.2656  0.2646  0.0441
  914MPD2    H713444   3.155   1.786  12.398  0.2316  0.9862 -0.9806
  915MPD2     C13445   0.645   1.757  15.539  0.0995  0.0976  0.2215
  915MPD2    C113446   0.660   1.623  15.506  0.7298  0.0858 -0.5437
  915MPD2    C213447   0.687   1.532  15.606  0.6255  0.7091  0.5723
  915MPD2    C313448   0.701   1.568  15.736  0.2060 -0.1408  0.3900
  915MPD2    C413449   0.672   1.704  15.767 -0.2819 -0.5546  0.1301
  915MPD2    C513450   0.643   1.798  15.670 -0.4909 -0.9177  0.0914
  915MPD2     H13451   0.694   1.426  15.587 -2.0708  0.4662  0.9838
  915MPD2    H113452   0.664   1.725  15.873 -3.0059  0.9153 -0.3886
  915MPD2    H213453   0.615   1.836  15.472  0.2464  0.5606  0.6954
  915MPD2    H313454   0.616   1.899  15.698 -0.7927 -1.4663  1.7570
  915MPD2     N13455   0.719   1.464  15.836  0.0482 -0.0351 -0.0241
  915MPD2    H513456   0.716   1.366  15.810  0.4613  0.3445 -1.4982
  915MPD2    N113457   0.651   1.594  15.367 -0.0723 -0.1917  0.2496
  915MPD2    H713458   0.614   1.664  15.303  1.3780  0.8709  0.5675
  916MPD2     C13459   3.262   4.315  15.749  0.3337 -0.2827 -0.3483
  916MPD2    C113460   3.225   4.194  15.806  1.0549  0.7540 -0.3053
  916MPD2    C213461   3.287   4.077  15.757 -0.0848  0.2210  0.2193
  916MPD2    C313462   3.371   4.077  15.643  0.2803  0.1472  0.4555
  916MPD2    C413463   3.402   4.197  15.590 -0.2214 -0.5009  0.2668
  916MPD2    C513464   3.352   4.314  15.648 -0.2534  0.8604  0.0272
  916MPD2     H13465   3.255   3.983  15.799  1.8565 -0.5721 -0.0627
  916MPD2    H113466   3.478   4.210  15.514  0.2862 -0.9931  0.6967
  916MPD2    H213467   3.233   4.414  15.782  3.4031  0.9559 -1.3646
  916MPD2    H313468   3.366   4.405  15.590  3.3231  0.1941 -0.1502
  916MPD2     N13469   3.424   3.958  15.597 -0.1308 -0.3538  0.3900
  916MPD2    H513470   3.391   3.883  15.657  1.0418 -2.3548 -1.4794
  916MPD2    N113471   3.143   4.196  15.919 -0.2291  0.1179 -0.6652
  916MPD2    H713472   3.104   4.288  15.937 -2.3012 -0.9726  0.4122
  917MPD2     C13473   3.905   1.370  10.936 -0.4539  0.3810 -0.2478
  917MPD2    C113474   3.893   1.466  11.026 -0.5174 -0.8874 -0.5383
  917MPD2    C213475   3.956   1.584  11.000 -0.6177  0.0349 -0.4264
  917MPD2    C313476   4.031   1.608  10.888 -0.2653  0.0198  0.2795
  917MPD2    C413477   4.028   1.509  10.792  0.0649  0.1231 -0.8334
  917MPD2    C513478   3.958   1.393  10.813 -0.7203  0.1393  0.0952
  917MPD2     H13479   3.935   1.668  11.065  0.3826 -1.2250  1.5625
  917MPD2    H113480   4.079   1.518  10.697 -1.2817  0.7002 -1.5033
  917MPD2    H213481   3.857   1.274  10.949 -1.3105  0.6946 -1.0954
  917MPD2    H313482   3.958   1.317  10.736 -1.6285 -0.4922  0.7244
  917MPD2     N13483   4.116   1.718  10.864 -0.2172 -0.5471 -0.0715
  917MPD2    H513484   4.153   1.726  10.769 -2.1666 -3.3058 -1.0494
  917MPD2    N113485   3.827   1.432  11.144 -0.3808 -0.2128 -0.1475
  917MPD2    H713486   3.803   1.334  11.154  0.1968 -0.4181 -0.8231
  918MPD2     C13487   3.421   1.900  11.967  0.1705  0.1751  0.2784
  918MPD2    C113488   3.550   1.902  11.915 -0.0867 -0.4642 -0.0217
  918MPD2    C213489   3.581   1.826  11.801  0.4007 -0.4709  0.4795
  918MPD2    C313490   3.485   1.742  11.745  0.7605  0.2346 -0.3926
  918MPD2    C413491   3.357   1.738  11.795  0.6548  0.2427  0.0617
  918MPD2    C513492   3.332   1.821  11.904  0.8744 -0.1796  0.1995
  918MPD2     H13493   3.681   1.829  11.761  0.6715  0.1726  1.2016
  918MPD2    H113494   3.271   1.690  11.749  0.9811 -0.3534  0.0788
  918MPD2    H213495   3.392   1.960  12.053 -0.7939  0.9888 -0.6090
  918MPD2    H313496   3.231   1.827  11.942  0.0963  1.8647 -2.2212
  918MPD2     N13497   3.530   1.653  11.649 -0.0897 -0.3895 -0.3159
  918MPD2    H513498   3.626   1.672  11.622 -1.0611  3.3934 -1.1269
  918MPD2    N113499   3.649   1.990  11.966  0.2414  1.0010 -0.2299
  918MPD2    H713500   3.727   1.999  11.902  0.8152  0.7701  0.4367
  919MPD2     C13501   4.554   1.402  11.464 -0.5011 -0.3110  0.1200
  919MPD2    C113502   4.510   1.279  11.438 -0.4453  0.3398  0.1928
  919MPD2    C213503   4.538   1.221  11.317 -0.4779  0.7124  0.0478
  919MPD2    C313504   4.637   1.273  11.233 -0.5894  0.0021  0.7450
  919MPD2    C413505   4.691   1.392  11.265 -0.8420  0.5083  0.8290
  919MPD2    C513506   4.633   1.466  11.369 -0.1960  0.8410  0.3364
  919MPD2     H13507   4.485   1.134  11.282 -2.7044  1.7719  0.7860
  919MPD2    H113508   0.034   1.434  11.205  1.0356 -0.6704  2.5278
  919MPD2    H213509   4.520   1.455  11.552 -0.7157 -1.6967  0.8768
  919MPD2    H313510   4.677   1.558  11.405  0.8637 -0.2107  1.7292
  919MPD2     N13511   4.667   1.221  11.106  0.2418  0.2043  0.0957
  919MPD2    H513512   4.700   1.294  11.044  0.4658  0.6436  0.7235
  919MPD2    N113513   4.421   1.208  11.519 -0.8680 -0.3898  0.0106
  919MPD2    H713514   4.378   1.130  11.471  0.8795 -2.2085  1.4078
  920MPD2     C13515   4.721   1.452  10.122  0.2651  0.3417  0.2779
  920MPD2    C113516   4.596   1.393  10.144  0.0303 -0.4658  0.4026
  920MPD2    C213517   4.570   1.326  10.260 -0.7461  0.1371 -0.2822
  920MPD2    C313518   4.661   1.327  10.368  0.0784  0.3955  0.6892
  920MPD2    C413519   0.038   1.407  10.357  0.2650  0.4928 -0.2045
  920MPD2    C513520   0.068   1.461  10.233 -0.7088  0.1204 -0.1604
  920MPD2     H13521   4.470   1.285  10.270 -0.7727 -0.3418 -2.6633
  920MPD2    H113522   0.099   1.422  10.445 -0.6083 -2.2570  0.8546
  920MPD2    H213523   0.016   1.495  10.028  0.0352 -0.9112 -0.3725
  920MPD2    H313524   0.164   1.512  10.230 -0.9182  0.6667  3.0041
  920MPD2     N13525   4.613   1.263  10.484  0.3644 -0.4385 -0.4071
  920MPD2    H513526   4.539   1.195  10.469  0.8615 -1.0030 -0.2820
  920MPD2    N113527   4.497   1.383  10.048  0.3039  0.2613  0.1481
  920MPD2    H713528   4.423   1.321  10.080 -0.4428  0.2151 -1.6662
  921MPD2     C13529   0.335   0.289  16.341 -0.3427  0.0589 -0.2109
  921MPD2    C113530   0.337   0.169  16.262  0.4086  0.3512  0.2477
  921MPD2    C213531   0.234   0.085  16.261  0.0035  0.6587 -0.5598
  921MPD2    C313532   0.121   0.121  16.331  0.3670  0.4359 -0.4930
  921MPD2    C413533   0.109   0.244  16.395 -0.4797 -0.6784 -0.3231
  921MPD2    C513534   0.214   0.334  16.398  0.4951 -0.1617  0.5664
  921MPD2     H13535   0.243   4.727  16.212  2.0076  0.9361 -0.7163
  921MPD2    H113536   0.017   0.266  16.447 -0.2031 -1.1887  0.3779
  921MPD2    H213537   0.418   0.359  16.346 -0.2662  0.0486 -1.2983
  921MPD2    H313538   0.212   0.429  16.449  1.5352  0.1571  0.0134
  921MPD2     N13539   0.012   0.033  16.342 -0.5587  0.7724 -0.2302
  921MPD2    H513540   4.658   0.068  16.369 -1.5241 -1.3498 -0.7002
  921MPD2    N113541   0.462   0.128  16.208  0.2126 -0.3994 -0.0065
  921MPD2    H713542   0.540   0.189  16.230  0.7127 -0.7583 -0.7875
  922MPD2     C13543   0.435   2.092   0.079  1.3045 -0.5096 -0.1869
  922MPD2    C113544   0.502   2.214   0.087 -0.1561  0.2938  0.1794
  922MPD2    C213545   0.495   2.296  17.725  0.4181  0.2910 -0.3973
  922MPD2    C313546   0.439   2.255  17.602 -0.7431 -0.7669  0.0032
  922MPD2    C413547   0.362   2.141  17.606  0.2884 -0.5491 -0.0235
  922MPD2    C513548   0.362   2.062  17.714  0.0340  0.4196  0.3238
  922MPD2     H13549   0.546   2.391  17.735 -0.8108  0.7108  1.8638
  922MPD2    H113550   0.302   2.121  17.518  0.8488 -0.6094 -0.3900
  922MPD2    H213551   0.433   2.016   0.157 -0.0505 -0.1538  0.1150
  922MPD2    H313552   0.315   1.964  17.711  2.2910 -0.6464 -0.4775
  922MPD2     N13553   0.470   2.325  17.485 -0.6498  0.3669  0.4820
  922MPD2    H513554   0.497   2.421  17.505  0.6103  0.4160 -1.4152
  922MPD2    N113555   0.585   2.256   0.192 -0.0004 -0.1110  0.2843
  922MPD2    H713556   0.619   2.352   0.185 -3.0135  1.2295  3.8566
  923MPD2     C13557   1.985   0.320   9.164  0.5880  0.2947 -0.5376
  923MPD2    C113558   1.997   0.362   9.035 -0.8766  0.3943 -0.7654
  923MPD2    C213559   2.105   0.319   8.955 -0.5288 -0.5739  0.1611
  923MPD2    C313560   2.208   0.254   9.012 -0.3858 -0.1778 -0.1697
  923MPD2    C413561   2.201   0.209   9.141 -0.4660 -0.1294 -0.6474
  923MPD2    C513562   2.090   0.235   9.220  0.1248 -0.4382 -0.4531
  923MPD2     H13563   2.120   0.353   8.854 -2.4607 -2.2431 -0.6855
  923MPD2    H113564   2.280   0.140   9.168 -0.5423  0.2308  0.5138
  923MPD2    H213565   1.901   0.341   9.230  0.5421  2.4413 -1.2700
  923MPD2    H313566   2.084   0.194   9.321  1.2352 -2.3767 -1.1728
  923MPD2     N13567   2.320   0.211   8.944  0.0333  0.7392 -0.7387
  923MPD2    H513568   2.391   0.163   8.998  0.8382  1.8276 -0.8190
  923MPD2    N113569   1.887   0.430   8.983  0.8005 -0.3860 -0.1077
  923MPD2    H713570   1.804   0.435   9.041  2.1633 -1.7396  1.9889
  924MPD2     C13571   2.050   2.552  16.100  0.1220  0.4219 -0.1138
  924MPD2    C113572   2.054   2.611  16.223 -0.2059  0.5306 -0.0396
  924MPD2    C213573   2.130   2.723  16.237  0.2662  0.4013  0.0536
  924MPD2    C313574   2.208   2.772  16.129  0.2041 -0.0514  0.6441
  924MPD2    C413575   2.202   2.707  16.010  0.3657  0.0504  0.5121
  924MPD2    C513576   2.122   2.595  15.993 -0.4799  0.0661  0.4211
  924MPD2     H13577   2.143   2.769  16.334 -1.5472 -1.5520  1.2208
  924MPD2    H113578   2.244   2.742  15.916 -0.8522  1.8887  0.6510
  924MPD2    H213579   1.980   2.471  16.086  1.1427 -0.3676 -0.6211
  924MPD2    H313580   2.110   2.547  15.896 -2.1338 -2.9983  2.1210
  924MPD2     N13581   2.276   2.896  16.142  0.1282 -0.2847 -0.1774
  924MPD2    H513582   2.313   2.931  16.054 -1.9898  1.2328 -0.4608
  924MPD2    N113583   1.958   2.576  16.321  0.4953  0.8294  0.2727
  924MPD2    H713584   1.879   2.517  16.297  1.2856 -0.2232  0.2174
  925MPD2     C13585   1.512   0.599  14.248 -0.1086  0.3024 -0.1991
  925MPD2    C113586   1.399   0.668  14.219  0.4158 -0.8140 -0.1205
  925MPD2    C213587   1.329   0.713  14.328  0.2339  0.1357  0.4480
  925MPD2    C313588   1.368   0.690  14.457 -0.5485 -0.1969  0.3059
  925MPD2    C413589   1.480   0.615  14.484 -0.0154  0.6763 -0.6706
  925MPD2    C513590   1.551   0.573  14.376 -0.1157 -0.1933  0.0690
  925MPD2     H13591   1.246   0.781  14.310  1.0836  1.7356  2.5808
  925MPD2    H113592   1.512   0.581  14.581 -2.9447 -0.8725 -0.2310
  925MPD2    H213593   1.581   0.569  14.171 -0.4088  0.3670 -0.4953
  925MPD2    H313594   1.648   0.534  14.405 -0.4281 -2.7208 -2.3972
  925MPD2     N13595   1.293   0.723  14.572 -0.7598  0.3963 -0.4457
  925MPD2    H513596   1.324   0.690  14.663 -1.9109  1.0279  0.1812
  925MPD2    N113597   1.346   0.699  14.092 -0.2731  0.0807 -0.8355
  925MPD2    H713598   1.259   0.750  14.078 -0.3735  0.3087  0.7161
  926MPD2     C13599   0.166   3.968  13.165 -0.0341  0.0767 -0.2064
  926MPD2    C113600   0.079   3.963  13.063 -0.6999  0.3451  0.7310
  926MPD2    C213601   0.096   4.039  12.950 -0.4568 -0.1562  0.6500
  926MPD2    C313602   0.209   4.114  12.945 -0.2601  0.3671  0.1779
  926MPD2    C413603   0.310   4.103  13.040  0.4885 -0.2974  0.4086
  926MPD2    C513604   0.275   4.037  13.149  0.6824  0.6151  0.2799
  926MPD2     H13605   0.017   4.046  12.876 -0.5314  0.6995  0.8169
  926MPD2    H113606   0.404   4.156  13.035  0.7358 -0.7897 -0.0746
  926MPD2    H213607   0.155   3.907  13.253  1.4334  3.5125  2.3573
  926MPD2    H313608   0.342   4.032  13.234  0.3979  0.2725  0.4847
  926MPD2     N13609   0.245   4.198  12.838 -0.5070  0.4202 -0.6357
  926MPD2    H513610   0.341   4.228  12.830 -0.6174  0.1305 -3.0058
  926MPD2    N113611   4.707   3.871  13.059  0.2274  0.4925 -0.2421
  926MPD2    H713612   4.662   3.854  12.970 -1.4424  2.1216  0.2975
  927MPD2     C13613   4.677   1.441  17.444 -0.7858 -0.0329 -0.4880
  927MPD2    C113614   4.564   1.391  17.393  0.0230 -0.0583  0.9628
  927MPD2    C213615   4.533   1.413  17.262 -0.2814 -0.3181  0.7187
  927MPD2    C313616   4.610   1.498  17.186 -0.4350  0.3889  1.0905
  927MPD2    C413617   4.725   1.553  17.244 -0.3998 -0.4098 -0.1109
  927MPD2    C513618   0.021   1.517  17.370  0.6293 -0.0397  0.4995
  927MPD2     H13619   4.448   1.371  17.209 -0.7034  1.9989 -0.4747
  927MPD2    H113620   0.059   1.609  17.185 -1.6396  1.3899  0.0924
  927MPD2    H213621   4.702   1.413  17.546  2.7490  2.6875 -0.6090
  927MPD2    H313622   0.116   1.543  17.415  1.3865 -0.0496 -1.0929
  927MPD2     N13623   4.565   1.537  17.052 -0.4062 -0.1539 -0.0468
  927MPD2    H513624   4.495   1.482  17.003  0.6026 -0.1510 -1.5139
  927MPD2    N113625   4.476   1.315  17.484 -0.1449  0.2823 -0.0054
  927MPD2    H713626   4.502   1.324  17.581 -1.5383 -0.2221  0.4027
  928MPD2     C13627   1.818   4.052   0.264 -0.8771 -0.2340 -0.7334
  928MPD2    C113628   1.895   4.125   0.350 -0.0465 -0.4758 -0.8443
  928MPD2    C213629   2.019   4.175   0.309  0.0846  0.1696 -1.5582
  928MPD2    C313630   2.061   4.134   0.180  0.1278 -0.0899 -0.6628
  928MPD2    C413631   1.990   4.050   0.100 -0.4182  0.0323 -0.0772
  928MPD2    C513632   1.869   4.005   0.147  0.5130 -0.8002 -0.5869
  928MPD2     H13633   2.073   4.254   0.359  1.2413 -1.6112  0.0191
  928MPD2    H113634   2.020   4.013   0.002  0.1381  0.6827 -0.1571
  928MPD2    H213635   1.716   4.030   0.294 -0.3962 -3.3054 -1.4029
  928MPD2    H313636   1.800   3.945   0.089 -1.3647  1.4465 -0.6739
  928MPD2     N13637   2.184   4.176   0.122  0.1492  0.2503 -0.1173
  928MPD2    H513638   2.212   4.119   0.043  0.6116 -0.1290  0.3251
  928MPD2    N113639   1.831   4.168   0.470 -0.1387 -0.7984 -0.2026
  928MPD2    H713640   1.742   4.130   0.497  0.1611 -1.6550 -0.4266
  929MPD2     C13641   2.734   4.508   9.700  0.3226 -0.2864  0.0103
  929MPD2    C113642   2.654   4.537   9.810 -0.1256 -0.4496 -0.1768
  929MPD2    C213643   2.606   4.669   9.830 -0.1726 -0.5384 -0.2500
  929MPD2    C313644   2.649   0.028   9.751 -0.3348  0.2461 -0.2327
  929MPD2    C413645   2.715   4.731   9.637 -0.1295 -0.0571  0.6136
  929MPD2    C513646   2.768   4.602   9.615  0.2719 -0.2181  0.2492
  929MPD2     H13647   2.564   4.692   9.927  0.8343  2.2230 -0.4890
  929MPD2    H113648   2.727   0.071   9.562  0.3746  0.5209  1.2909
  929MPD2    H213649   2.781   4.410   9.695  0.6388 -0.0259 -1.8684
  929MPD2    H313650   2.835   4.577   9.533 -1.3438  0.5125 -1.2971
  929MPD2     N13651   2.618   0.168   9.767 -1.0705  0.1405  0.6220
  929MPD2    H513652   2.666   0.230   9.702 -0.9501 -0.0450  0.5352
  929MPD2    N113653   2.636   4.433   9.900  0.4197  0.5442  0.4887
  929MPD2    H713654   2.694   4.352   9.883  1.3124  1.5688 -1.3683
  930MPD2     C13655   4.366   1.663  14.013  0.2891 -0.1167 -1.3792
  930MPD2    C113656   4.473   1.721  13.954 -0.4229  0.3443 -0.5683
  930MPD2    C213657   4.496   1.714  13.820 -0.7016 -0.0509 -0.0664
  930MPD2    C313658   4.405   1.655  13.741  0.1111  0.1385  0.3521
  930MPD2    C413659   4.294   1.601  13.797 -0.2152  0.1750 -0.0107
  930MPD2    C513660   4.273   1.603  13.935 -0.0945 -0.4196  0.1687
  930MPD2     H13661   4.587   1.761  13.787 -0.3141 -1.0445 -0.3976
  930MPD2    H113662   4.229   1.552  13.724  0.5086 -0.7914  0.0004
  930MPD2    H213663   4.362   1.666  14.121 -0.6267  1.3037 -1.4413
  930MPD2    H313664   4.191   1.555  13.987 -0.9413 -0.0774 -0.8533
  930MPD2     N13665   4.426   1.648  13.601 -0.1521 -0.3475  0.1266
  930MPD2    H513666   4.346   1.658  13.540  0.8230 -0.1819 -1.1260
  930MPD2    N113667   4.575   1.795  14.020  0.8862  0.1546 -0.2763
  930MPD2    H713668   4.643   1.840  13.960 -0.3992  1.0511 -1.0715
  931MPD2     C13669   4.600   0.839   0.090 -0.4791  0.5784 -0.9161
  931MPD2    C113670   4.508   0.906   0.168  0.4540  0.1082  0.6468
  931MPD2    C213671   4.503   0.886   0.306 -0.1693  0.2559 -0.4160
  931MPD2    C313672   4.568   0.784   0.362  0.0391  0.5474  0.4652
  931MPD2    C413673   4.663   0.722   0.292  0.2448 -0.0915 -0.5990
  931MPD2    C513674   4.668   0.738   0.156  0.0364  0.4505  0.5003
  931MPD2     H13675   4.418   0.929   0.358 -1.9607 -2.0278 -1.4944
  931MPD2    H113676   4.724   0.643   0.335 -0.6978 -1.8923 -2.5475
  931MPD2    H213677   4.606   0.852  17.731 -1.2457 -0.3834 -1.0796
  931MPD2    H313678   0.001   0.669   0.111 -0.3798  0.8947 -0.8279
  931MPD2     N13679   4.532   0.740   0.494  0.9644 -0.7046  0.5073
  931MPD2    H513680   4.564   0.647   0.518  0.2139 -0.3113  3.0438
  931MPD2    N113681   4.439   1.016   0.109  0.8251 -0.6795 -0.4838
  931MPD2    H713682   4.457   1.029   0.010  1.6712 -1.5529 -0.4426
  932MPD2     C13683   1.336   4.602  11.397 -0.0787  0.6429  0.1015
  932MPD2    C113684   1.434   4.661  11.473  0.4343  0.5528  0.6673
  932MPD2    C213685   1.568   4.610  11.470 -0.0747  0.0641 -0.1783
  932MPD2    C313686   1.598   4.498  11.396 -0.5994  0.0953 -0.6071
  932MPD2    C413687   1.502   4.440  11.319  0.0812 -0.1108  0.2329
  932MPD2    C513688   1.379   4.493  11.324 -0.5773 -0.3681 -0.2469
  932MPD2     H13689   1.634   4.648  11.547 -0.4275  0.1413  0.0827
  932MPD2    H113690   1.513   4.346  11.266 -0.7906  1.0223 -1.9683
  932MPD2    H213691   1.230   4.623  11.400 -0.1053  0.6354 -0.7409
  932MPD2    H313692   1.309   4.427  11.274  1.4720 -1.6046 -1.4923
  932MPD2     N13693   1.728   4.448  11.402 -0.5658  0.3646 -0.6565
  932MPD2    H513694   1.801   4.490  11.458 -1.0194  1.1006 -0.6149
  932MPD2    N113695   1.412   0.049  11.535  0.0773 -0.2317 -0.1075
  932MPD2    H713696   1.491   0.082  11.590 -0.6423 -0.8400  1.2675
  933MPD2     C13697   1.412   3.826   0.820  0.4753 -0.1469  0.1180
  933MPD2    C113698   1.440   3.929   0.896 -0.1601 -0.2433  0.7637
  933MPD2    C213699   1.365   3.961   1.005  0.1699  0.2382 -0.2480
  933MPD2    C313700   1.260   3.875   1.040  0.8016  0.4020  0.2400
  933MPD2    C413701   1.238   3.763   0.966 -0.6868  0.1325  0.3877
  933MPD2    C513702   1.315   3.739   0.863  0.5275  0.3761  0.0265
  933MPD2     H13703   1.369   4.060   1.048 -0.6997  1.1089 -2.2357
  933MPD2    H113704   1.153   3.697   0.979 -0.1624 -0.2667  1.7765
  933MPD2    H213705   1.463   3.828   0.723  1.6233  0.4750  0.7293
  933MPD2    H313706   1.281   3.663   0.793  1.6299  0.4743 -0.6234
  933MPD2     N13707   1.175   3.911   1.149 -0.2167 -0.4057 -0.0902
  933MPD2    H513708   1.199   3.995   1.201 -0.5323 -0.2217 -0.2413
  933MPD2    N113709   1.543   4.018   0.849  0.7079  0.6870 -0.1658
  933MPD2    H713710   1.559   4.019   0.749 -2.8183 -0.7170 -0.7671
  934MPD2     C13711   3.936   1.733   2.102  0.3844  0.3543 -0.2131
  934MPD2    C113712   3.963   1.703   1.966  0.4625 -0.5891  0.6221
  934MPD2    C213713   3.889   1.606   1.896  0.0876 -0.7100  0.4221
  934MPD2    C313714   3.781   1.541   1.959 -0.6034  0.4410 -0.1388
  934MPD2    C413715   3.767   1.558   2.091  0.3545 -0.6115 -0.1094
  934MPD2    C513716   3.832   1.660   2.161  0.7145 -0.7436  0.6938
  934MPD2     H13717   3.910   1.587   1.791 -0.5959  0.5162  0.0589
  934MPD2    H113718   3.691   1.504   2.146  0.8946 -0.3763  0.8561
  934MPD2    H213719   3.998   1.795   2.165  3.1258 -1.0429 -1.5098
  934MPD2    H313720   3.813   1.668   2.267 -0.5507 -1.0556  0.4888
  934MPD2     N13721   3.693   1.450   1.895  0.7246 -0.2958 -0.3104
  934MPD2    H513722   3.612   1.421   1.949  1.3835 -3.4115 -0.9590
  934MPD2    N113723   4.059   1.773   1.890 -0.5973  0.0615 -0.0443
  934MPD2    H713724   4.057   1.745   1.792  2.2725 -0.1723 -0.0546
  935MPD2     C13725   3.947   1.288   1.055  0.0864  0.4740  0.6580
  935MPD2    C113726   3.835   1.205   1.042  0.7026  0.1525  0.1018
  935MPD2    C213727   3.752   1.204   1.158 -0.3639  0.2247  0.1338
  935MPD2    C313728   3.788   1.263   1.278  0.2407 -0.0060  0.5985
  935MPD2    C413729   3.904   1.334   1.281  0.3877 -0.2989 -0.1936
  935MPD2    C513730   3.979   1.352   1.174  0.2751 -0.2454 -0.1512
  935MPD2     H13731   3.660   1.147   1.144 -1.2819  1.5249  0.9221
  935MPD2    H113732   3.926   1.383   1.375 -0.9332 -1.7143  0.8623
  935MPD2    H213733   4.022   1.303   0.978  0.2356  1.2704  0.9633
  935MPD2    H313734   4.061   1.422   1.172  0.4339 -0.4885 -2.0578
  935MPD2     N13735   3.714   1.256   1.396  0.1591 -0.2326 -0.0443
  935MPD2    H513736   3.755   1.281   1.486  1.5792 -0.9277 -0.5032
  935MPD2    N113737   3.816   1.119   0.930  0.7923 -0.2097 -0.3493
  935MPD2    H713738   3.744   1.048   0.939 -1.2063  1.7497 -0.8271
  936MPD2     C13739   2.446   3.512  12.340  0.9158 -0.1858 -0.3961
  936MPD2    C113740   2.400   3.598  12.433 -0.6231  0.7256 -0.3832
  936MPD2    C213741   2.341   3.718  12.393 -0.3150  0.8937 -0.3282
  936MPD2    C313742   2.335   3.755  12.259 -0.3393  0.2680  0.1411
  936MPD2    C413743   2.379   3.667  12.168  0.3166 -0.1641 -0.6579
  936MPD2    C513744   2.434   3.552  12.209  0.1886  0.2773  0.0144
  936MPD2     H13745   2.301   3.779  12.474 -1.7406  0.6140 -0.8242
  936MPD2    H113746   2.369   3.700  12.065  2.1505 -1.0109 -1.0946
  936MPD2    H213747   2.480   3.414  12.372 -0.2115 -0.5531 -0.3396
  936MPD2    H313748   2.480   3.488  12.134 -1.2463  2.6022 -2.8077
  936MPD2     N13749   2.287   3.878  12.215  0.3066 -0.8975 -0.0197
  936MPD2    H513750   2.309   3.913  12.122  0.9317 -2.2529 -0.3831
  936MPD2    N113751   2.387   3.568  12.571  0.1926 -0.2908  0.3293
  936MPD2    H713752   2.331   3.633  12.626  0.3745  0.6482 -0.6034
  937MPD2     C13753   4.479   0.518  11.631  0.2843  0.2147  0.2588
  937MPD2    C113754   4.491   0.647  11.581 -0.6535  0.0560  0.4794
  937MPD2    C213755   4.584   0.672  11.486  0.6700  0.7267  0.1864
  937MPD2    C313756   4.667   0.573  11.434 -0.2679  0.3976  0.4465
  937MPD2    C413757   4.656   0.448  11.492 -0.1509  0.2574 -0.2492
  937MPD2    C513758   4.559   0.419  11.584 -0.5875  0.5094  0.1906
  937MPD2     H13759   4.607   0.774  11.457  0.2700  0.9513  0.6474
  937MPD2    H113760   4.730   0.379  11.452 -0.0516  1.5753 -2.3156
  937MPD2    H213761   4.409   0.499  11.712 -0.8154 -0.5467 -0.8781
  937MPD2    H313762   4.570   0.320  11.627  0.0206 -0.3682 -1.9633
  937MPD2     N13763   0.027   0.601  11.335  0.1131  0.3306 -0.1474
  937MPD2    H513764   0.017   0.692  11.291  1.8300  0.0541 -1.1343
  937MPD2    N113765   4.429   0.757  11.649  0.0436 -0.6497 -0.6023
  937MPD2    H713766   4.478   0.843  11.625  0.8925 -1.1275 -0.5454
  938MPD2     C13767   2.398   1.034   0.537  0.5115 -0.1124  0.8696
  938MPD2    C113768   2.334   1.120   0.631 -0.5475 -0.9815 -0.2815
  938MPD2    C213769   2.258   1.056   0.725  0.5430  0.0214 -0.2723
  938MPD2    C313770   2.233   0.918   0.726 -0.5394  0.8385  0.1778
  938MPD2    C413771   2.297   0.836   0.635 -0.3471  0.4408  0.3858
  938MPD2    C513772   2.373   0.899   0.547  0.2483  0.6047  0.3165
  938MPD2     H13773   2.199   1.118   0.791  0.4643  0.5751 -0.8680
  938MPD2    H113774   2.271   0.731   0.628  0.5912  0.2716 -0.5123
  938MPD2    H213775   2.466   1.066   0.459  0.4413 -0.1806  0.7812
  938MPD2    H313776   2.419   0.838   0.470  1.7528  2.1070  0.0302
  938MPD2     N13777   2.137   0.854   0.814 -0.3800  0.0164 -0.5440
  938MPD2    H513778   2.122   0.753   0.814  0.4279 -0.0966 -1.7108
  938MPD2    N113779   2.352   1.260   0.655 -0.5455  0.1872  0.4389
  938MPD2    H713780   2.292   1.314   0.717  1.2201  3.1767 -0.4483
  939MPD2     C13781   3.847   1.991   0.951 -0.3475 -0.0475  0.2786
  939MPD2    C113782   3.720   2.040   0.919 -0.1414  0.2710  0.5396
  939MPD2    C213783   3.674   2.016   0.783 -0.5348 -0.7352 -0.3229
  939MPD2    C313784   3.754   1.958   0.689  0.5646 -0.5598  1.1104
  939MPD2    C413785   3.878   1.911   0.722  0.7164 -0.0331 -0.2064
  939MPD2    C513786   3.921   1.933   0.845 -0.0427  0.3128 -0.3367
  939MPD2     H13787   3.576   2.043   0.746 -1.3171 -2.3475  0.5937
  939MPD2    H113788   3.947   1.861   0.655 -0.2161 -1.4227 -0.1232
  939MPD2    H213789   3.881   1.997   1.054  0.0393  0.8173  0.1017
  939MPD2    H313790   4.021   1.903   0.873 -1.0029 -1.1943  1.5422
  939MPD2     N13791   3.707   1.954   0.555 -0.5060 -0.6308 -0.5440
  939MPD2    H513792   3.617   1.998   0.536 -1.3433 -1.9576  0.3252
  939MPD2    N113793   3.649   2.110   1.021 -0.4783  0.6361  0.4296
  939MPD2    H713794   3.699   2.115   1.109  1.2886 -1.4068 -0.4693
  940MPD2     C13795   2.713   3.705  12.650 -0.3428  0.1210  1.1043
  940MPD2    C113796   2.805   3.616  12.700 -0.6522 -0.1313  0.2803
  940MPD2    C213797   2.886   3.543  12.616  0.3257  0.8149  1.2155
  940MPD2    C313798   2.880   3.563  12.477  0.3781  0.4990 -0.0595
  940MPD2    C413799   2.786   3.652  12.422 -0.1342 -0.1684  0.8458
  940MPD2    C513800   2.711   3.731  12.510  0.2404 -0.1131 -0.3222
  940MPD2     H13801   2.955   3.479  12.671 -2.7943 -2.3041  1.4776
  940MPD2    H113802   2.770   3.669  12.316  0.3980  0.9555  0.9500
  940MPD2    H213803   2.644   3.766  12.707 -1.0225 -1.3030  1.7878
  940MPD2    H313804   2.644   3.807  12.472  0.4142  0.5712  0.7386
  940MPD2     N13805   2.964   3.491  12.385 -0.2553 -0.4768 -0.3110
  940MPD2    H513806   2.958   3.521  12.288  2.8652 -1.9061 -0.9804
  940MPD2    N113807   2.826   3.583  12.840 -0.1864  0.1265 -0.4067
  940MPD2    H713808   2.893   3.511  12.863 -2.3896 -1.1905  1.9877
  941MPD2     C13809   1.726   3.287  10.292 -0.5065  0.7179 -0.0213
  941MPD2    C113810   1.853   3.236  10.302  0.3584 -0.6922 -0.7670
  941MPD2    C213811   1.871   3.116  10.369 -0.4686  0.0255 -0.4855
  941MPD2    C313812   1.772   3.043  10.418 -0.3533  0.4419 -0.4588
  941MPD2    C413813   1.643   3.096  10.403 -0.5298 -0.2611  0.1128
  941MPD2    C513814   1.631   3.217  10.350 -0.5127 -0.2440 -0.2393
  941MPD2     H13815   1.974   3.085  10.383  0.0525  1.6832 -0.6020
  941MPD2    H113816   1.561   3.043  10.449  1.1536 -2.5403  0.5389
  941MPD2    H213817   1.698   3.379  10.244 -0.5055  2.7360  3.8204
  941MPD2    H313818   1.535   3.267  10.344 -0.4385 -0.1681 -0.8290
  941MPD2     N13819   1.781   2.917  10.471  0.2532  0.2213  0.2943
  941MPD2    H513820   1.697   2.877  10.511 -0.3739  2.1270  0.8791
  941MPD2    N113821   1.974   3.309  10.254 -0.1092 -0.1312 -1.0585
  941MPD2    H713822   2.064   3.262  10.263  0.3355  1.1921  1.5123
  942MPD2     C13823   1.533   0.114   9.624  0.1809  0.2153 -0.1325
  942MPD2    C113824   1.602   0.002   9.582 -0.5155 -0.4529 -0.5312
  942MPD2    C213825   1.646   0.005   9.454  0.5630 -0.6850 -0.0209
  942MPD2    C313826   1.627   0.116   9.364 -0.0316  0.1891 -0.3774
  942MPD2    C413827   1.558   0.222   9.415 -0.0088  0.5090 -0.1971
  942MPD2    C513828   1.513   0.221   9.543  0.4157  0.0250  0.2163
  942MPD2     H13829   1.695   4.651   9.423  4.4494  1.7256 -0.9301
  942MPD2    H113830   1.533   0.306   9.350  1.1986 -1.0527 -2.6703
  942MPD2    H213831   1.495   0.123   9.725 -0.5913 -1.1290 -0.3014
  942MPD2    H313832   1.458   0.307   9.582  1.2346  0.7614 -0.2697
  942MPD2     N13833   1.670   0.120   9.233 -0.2523  0.5932  0.0146
  942MPD2    H513834   1.666   0.210   9.186 -1.7264  0.8133  0.5632
  942MPD2    N113835   1.661   4.647   9.672 -0.1772  0.2202 -0.0762
  942MPD2    H713836   1.725   4.581   9.629  0.2035 -0.1778  1.0914
  943MPD2     C13837   0.648   3.955   9.824  0.1532 -0.1083  0.2276
  943MPD2    C113838   0.656   3.825   9.872  0.1456  0.3352  0.5035
  943MPD2    C213839   0.753   3.800   9.967 -0.4517 -0.4367  0.0895
  943MPD2    C313840   0.830   3.898  10.021  0.3265 -0.3257  0.1928
  943MPD2    C413841   0.817   4.027   9.979  0.0358  0.0077  0.0415
  943MPD2    C513842   0.726   4.054   9.884  0.3623  0.6016  0.4350
  943MPD2     H13843   0.759   3.699  10.004 -1.8164 -1.0533 -1.4134
  943MPD2    H113844   0.876   4.110  10.018 -0.8025 -0.3504  2.0826
  943MPD2    H213845   0.583   3.975   9.740  1.0011 -0.6708 -0.5680
  943MPD2    H313846   0.718   4.158   9.855 -0.4327  0.6300  0.7561
  943MPD2     N13847   0.930   3.868  10.111  0.1051 -0.4082  0.1922
  943MPD2    H513848   0.986   3.948  10.137 -1.4279  0.3450  1.1074
  943MPD2    N113849   0.593   3.724   9.799  0.1264 -0.3141 -0.2551
  943MPD2    H713850   0.548   3.745   9.710  0.1798  0.3985 -0.1144
  944MPD2     C13851   0.144   2.520  10.800  0.9259  0.0562 -0.5542
  944MPD2    C113852   0.206   2.420  10.873 -0.1678  0.0232 -0.3181
  944MPD2    C213853   0.201   2.429  11.012 -0.3363 -0.7185 -0.2602
  944MPD2    C313854   0.132   2.529  11.076  0.3514 -0.1204  0.4008
  944MPD2    C413855   0.072   2.623  10.997 -0.5916 -0.6058  0.3569
  944MPD2    C513856   0.077   2.618  10.863 -0.4769  0.6106 -0.6116
  944MPD2     H13857   0.254   2.356  11.072 -0.2012 -0.8695 -0.5632
  944MPD2    H113858   0.030   2.715  11.036 -1.0045 -2.2879  3.8865
  944MPD2    H213859   0.145   2.518  10.692  0.8893  0.3599 -0.5615
  944MPD2    H313860   0.030   2.695  10.803 -2.0132  1.0099  1.0995
  944MPD2     N13861   0.127   2.519  11.216 -0.5748  0.2451 -0.4786
  944MPD2    H513862   0.185   2.448  11.260 -2.3318 -1.0613 -0.2826
  944MPD2    N113863   0.287   2.315  10.824 -0.6233 -0.2656 -0.0919
  944MPD2    H713864   0.321   2.256  10.899 -1.0639 -1.9641 -1.2386
    1TMC1    C113865   3.440   2.770  14.330  0.2622 -0.1415 -0.1578
    1TMC1    C213866   3.505   2.690  14.243 -0.1553  1.0418  0.0877
    1TMC1    C313867   3.424   2.630  14.148 -0.2037 -0.9034 -0.1631
    1TMC1    C413868   3.301   2.788  14.329  0.0667 -0.3031 -0.0130
    1TMC1    C513869   3.227   2.731  14.224 -0.5215 -0.8583  0.4310
    1TMC1    C613870   3.286   2.648  14.137  0.5515 -0.2371  0.3174
    1TMC1     C13871   3.521   2.822  14.433  0.1657  0.2804  0.6135
    1TMC1     O13872   3.623   2.763  14.458 -0.0750 -0.7704  0.4575
    1TMC1     H13873   3.612   2.672  14.252 -0.3114 -0.0510 -0.3332
    1TMC1    H113874   3.249   2.850  14.400 -0.0790  0.1277 -0.4941
    1TMC1    H213875   3.231   2.602  14.057 -2.0147  0.4395  1.7041
    1TMC1    C713876   3.086   2.744  14.233 -0.5436 -0.6917  0.4443
    1TMC1    C813877   3.486   2.564  14.031 -0.3958 -0.1601 -0.1974
    1TMC1    O113878   3.027   2.795  14.325  0.2834 -0.2782  0.3070
    1TMC1    O213879   3.438   2.559  13.923 -0.4532  0.8808  0.1621
    1TMC1    O313880   3.035   2.755  14.107 -0.4653 -0.0445  0.1907
    1TMC1    H313881   3.066   2.683  14.049 -0.7718 -1.1862  1.4357
    1TMC1    O513882   3.590   2.487  14.074 -0.2744 -0.6396  0.1630
    1TMC1    H513883   3.593   2.478  14.172  0.2917  0.9635  0.2846
    2MPD2     C13884   3.577   3.081  14.865 -0.2811  0.4524  0.1136
    2MPD2    C113885   3.494   3.152  14.771  0.1314 -0.8676  0.2399
    2MPD2    C213886   3.451   3.093  14.655 -0.4660 -0.5753  0.3282
    2MPD2    C313887   3.509   2.976  14.618  0.4876 -0.1427 -0.6118
    2MPD2    C413888   3.605   2.911  14.704 -0.2347 -0.8301  0.5792
    2MPD2    C513889   3.632   2.954  14.834 -0.1648 -0.3720 -0.0895
    2MPD2     H13890   3.384   3.139  14.583  0.4700  0.8627  0.3806
    2MPD2    H113891   3.631   2.807  14.685 -0.9787 -0.8212 -0.5183
    2MPD2    H213892   3.594   3.116  14.966 -1.2252 -0.8012  0.7104
    2MPD2    H313893   3.684   2.894  14.907  0.8252  1.1512  0.4560
    2MPD2     N13894   3.466   2.926  14.496 -0.7030 -0.3333 -0.3615
    2MPD2    H513895   3.389   2.968  14.445  0.7611  2.2547 -0.4585
    2MPD2    N113896   3.448   3.282  14.810  0.5002  0.3595 -0.5653
    2MPD2    H713897   3.487   3.312  14.899  0.0090 -2.0281  0.4601
    3TMC2    C113898   3.370   3.505  14.773 -0.2093  0.3229  0.1162
    3TMC2    C213899   3.389   3.538  14.905 -0.8440 -0.3805  0.6688
    3TMC2    C313900   3.357   3.668  14.944 -0.1318 -0.0273  0.8262
    3TMC2    C413901   3.335   3.588  14.681 -0.3069  0.7159  1.2447
    3TMC2    C513902   3.307   3.718  14.723  0.2650  0.1822 -0.3182
    3TMC2    C613903   3.317   3.760  14.849  0.4974 -0.1662  0.1774
    3TMC2     C13904   3.377   3.366  14.729  0.7989  1.0273 -0.5610
    3TMC2     O13905   3.300   3.347  14.634 -0.4787 -0.4772  0.1003
    3TMC2     H13906   3.426   3.465  14.976 -0.0715 -0.4179  0.2302
    3TMC2    H113907   3.313   3.556  14.580 -0.3066  4.1304  0.1620
    3TMC2    H213908   3.277   3.855  14.884 -3.1282 -1.1373 -1.2457
    3TMC2    C713909   3.239   3.802  14.629 -0.2472 -0.0104 -0.0525
    3TMC2    C813910   3.323   3.679  15.083 -0.6040 -0.4184  0.0705
    3TMC2    O113911   3.162   3.886  14.677 -0.0528  0.6626 -0.0796
    3TMC2    O213912   3.366   3.595  15.160  0.1677 -0.5710 -1.0722
    3TMC2    O513913   3.188   3.691  15.081 -0.0890 -0.4260  0.4194
    3TMC2    H513914   3.152   3.730  14.999 -0.3927 -0.3046  0.6133
    4TMC2    C113915   3.349   3.713  13.625  1.4571 -0.3459  0.6637
    4TMC2    C213916   3.474   3.649  13.604  0.6239  0.6661 -0.2997
    4TMC2    C313917   3.562   3.657  13.703 -0.6937  0.1381 -0.9323
    4TMC2    C413918   3.319   3.773  13.742 -0.2909 -0.3297  0.3956
    4TMC2    C513919   3.410   3.766  13.849  0.0183  0.1484  0.4310
    4TMC2    C613920   3.529   3.706  13.829 -0.1710 -0.1095  0.0713
    4TMC2     C13921   3.291   3.765  13.504 -0.3879 -0.1829  0.6345
    4TMC2     O13922   3.371   3.807  13.421 -0.5757 -0.0654 -0.0231
    4TMC2     H13923   3.501   3.614  13.505  0.5380  1.6284 -0.6616
    4TMC2    H113924   3.223   3.821  13.758  1.4788  3.8832 -1.4616
    4TMC2    H213925   3.609   3.698  13.902 -0.1343  1.0163  0.1487
    4TMC2    C713926   3.365   3.765  13.988  0.2765  0.4297  0.3362
    4TMC2    C813927   3.697   3.635  13.661 -1.0058 -0.4008  0.0369
    4TMC2    O113928   3.439   3.702  14.064 -0.0105  0.0542  0.4480
    4TMC2    O213929   3.737   3.533  13.613  0.2829 -0.1570  0.2414
    4TMC2    O513930   3.776   3.726  13.731 -0.5728 -0.2525 -0.1801
    4TMC2    H513931   3.736   3.815  13.739 -0.9577 -0.5798  1.5372
    5MPD2     C13932   2.915   3.898  13.183 -0.5919  0.3738 -0.5403
    5MPD2    C113933   2.857   3.886  13.307 -0.0646 -0.1861 -0.2108
    5MPD2    C213934   2.942   3.836  13.409  0.4692 -0.0033  0.4123
    5MPD2    C313935   3.077   3.814  13.392  0.5939 -0.2749  0.1760
    5MPD2    C413936   3.131   3.835  13.264  0.2377 -0.4990 -0.2081
    5MPD2    C513937   3.049   3.868  13.159 -0.4762 -0.2320 -0.2828
    5MPD2     H13938   2.898   3.806  13.504  0.0087  0.6722  0.4076
    5MPD2    H113939   3.238   3.823  13.252  0.1532 -0.9118 -0.5255
    5MPD2    H213940   2.859   3.937  13.099 -1.5362 -0.2815 -0.2275
    5MPD2    H313941   3.090   3.879  13.059  3.1734 -0.3241  1.2189
    5MPD2     N13942   3.158   3.777  13.507 -0.0193 -0.1406 -0.1337
    5MPD2    H513943   3.102   3.748  13.587 -1.2381 -1.4937 -1.4710
    5MPD2    N113944   2.725   3.928  13.315 -0.0383 -0.0091  0.1455
    5MPD2    H713945   2.681   3.981  13.241  0.3491  0.5198  0.2919
    6MPD1     C13946   1.367   0.484  13.440  0.0214  0.7065 -0.9931
    6MPD1    C113947   1.335   0.408  13.330 -0.5630 -0.7517 -0.2496
    6MPD1    C213948   1.413   0.294  13.310  0.3128 -0.7517  0.4802
    6MPD1    C313949   1.523   0.260  13.392 -0.0802 -0.5461 -0.5505
    6MPD1    C413950   1.555   0.347  13.497 -0.0634 -0.0504  0.3444
    6MPD1    C513951   1.474   0.454  13.517  0.6002 -0.3686  0.2022
    6MPD1     H13952   1.387   0.226  13.230  2.2902 -2.2996  1.1616
    6MPD1    H113953   1.637   0.331  13.566  1.1340  1.9313 -0.6128
    6MPD1    H213954   1.317   0.579  13.456  0.1934  0.2776  2.0225
    6MPD1    H313955   1.493   0.519  13.602  0.6499  1.7464 -1.4083
    6MPD1     N13956   1.604   0.149  13.376 -0.0128 -0.1210 -0.4528
    6MPD1    H513957   1.664   0.131  13.456  0.0994  0.4266 -0.4111
    6MPD1    N113958   1.224   0.435  13.249 -0.0771  0.2973  0.5733
    6MPD1    H613959   1.208   0.535  13.252  0.6412  0.4510 -0.7437
    6MPD1    H713960   1.254   0.416  13.153 -1.1426  0.9696  0.1043
    7MPD2     C13961   1.755   4.164  13.660 -0.3349  0.0236  0.6742
    7MPD2    C113962   1.872   4.225  13.608 -0.0262 -0.4451 -0.0396
    7MPD2    C213963   1.985   4.143  13.598  0.7248 -0.8990 -0.2923
    7MPD2    C313964   1.977   4.008  13.627  0.2875  0.0859  0.2838
    7MPD2    C413965   1.859   3.945  13.677  0.1086  0.1135 -0.7323
    7MPD2    C513966   1.752   4.029  13.690 -0.5987  0.7532  0.0146
    7MPD2     H13967   2.072   4.185  13.548 -0.1602  2.9959  1.4456
    7MPD2    H113968   1.845   3.839  13.690  0.0019  0.0656 -1.2195
    7MPD2    H213969   1.662   4.214  13.687  0.2936  0.4278  2.0846
    7MPD2    H313970   1.660   3.993  13.735 -1.6555  1.7434 -1.3462
    7MPD2     N13971   2.087   3.920  13.585  0.1353  1.0906  0.5003
    7MPD2    H513972   2.069   3.821  13.574 -0.6355  1.2045  0.7305
    7MPD2    N113973   1.874   4.355  13.568  0.9036  0.6473  0.4157
    7MPD2    H713974   1.961   4.390  13.529  1.9828 -1.9457  0.4528
    8TMC3    C113975   2.311   3.875  13.500  0.1756  0.3959  0.1159
    8TMC3    C213976   2.438   3.920  13.513  0.3669 -0.0338 -0.1784
    8TMC3    C313977   2.516   3.939  13.402 -0.4875  0.2187  0.2226
    8TMC3    C413978   2.264   3.852  13.377  0.8008 -0.2923  0.7790
    8TMC3    C513979   2.337   3.896  13.263  0.1528 -0.0034 -0.5186
    8TMC3    C613980   2.466   3.929  13.273  0.2132 -0.6300 -0.1674
    8TMC3     C13981   2.221   3.961  13.578 -0.1360 -0.1139  0.2434
    8TMC3     O13982   2.274   4.064  13.622  0.3451  0.1877  0.1831
    8TMC3     H13983   2.490   3.944  13.605 -1.3054 -1.6727  1.2054
    8TMC3    H113984   2.158   3.833  13.361  0.1386  2.0910  2.3175
    8TMC3    H213985   2.532   3.941  13.188  0.5717 -0.0545  0.1848
    8TMC3    C713986   2.251   3.977  13.173 -0.6058  0.1652 -0.5149
    8TMC3    C813987   2.652   3.906  13.426  0.4488 -0.0225 -0.2544
    8TMC3    O113988   2.138   3.996  13.219 -0.3208 -0.0677  0.5152
    8TMC3    O213989   2.677   3.839  13.523 -0.4321  0.1579 -0.6010
    9TMC3    C113990   1.692   4.679  13.286 -0.2236  0.0788 -0.4310
    9TMC3    C213991   1.759   4.638  13.171  0.3674  0.2942 -0.1482
    9TMC3    C313992   1.839   4.534  13.190  0.6109 -0.3069 -0.7526
    9TMC3    C413993   1.714   4.631  13.413 -0.0406 -0.2679 -0.3423
    9TMC3    C513994   1.800   4.530  13.426  0.2734 -1.0362 -0.1288
    9TMC3    C613995   1.856   4.474  13.312 -0.6803  0.3684 -0.3202
    9TMC3     C13996   1.612   0.067  13.260  0.4280  0.2954  0.1874
    9TMC3     O13997   1.559   0.079  13.153 -0.8202  0.0519 -0.3002
    9TMC3     H13998   1.740   4.688  13.076 -0.8676 -0.3207 -0.2259
    9TMC3    H113999   1.675   4.678  13.503 -1.3603 -0.0899 -1.0181
    9TMC3    H214000   1.881   4.369  13.309  1.4014  0.8864 -1.0667
    9TMC3    C714001   1.765   4.428  13.525 -0.2600  0.0663 -0.3523
    9TMC3    C814002   1.928   4.503  13.084  0.9691 -0.0620 -0.8215
    9TMC3    O114003   1.657   4.438  13.583  0.4462 -0.4330  0.0688
    9TMC3    O214004   1.920   4.568  12.978 -0.5528  1.1151 -0.6306
   10MPD2     C14005   2.318   4.230  12.916  0.0496 -0.1886 -0.1446
   10MPD2    C114006   2.265   4.167  13.032 -0.2091 -0.5680  0.5921
   10MPD2    C214007   2.172   4.237  13.095 -0.1803  0.5414 -1.1119
   10MPD2    C314008   2.113   4.349  13.041 -0.3771 -0.0017 -0.6046
   10MPD2    C414009   2.153   4.400  12.921 -0.1406  0.7805  0.3023
   10MPD2    C514010   2.253   4.339  12.863  0.5734  0.1937 -0.7204
   10MPD2     H14011   2.129   4.209  13.190  0.8257  0.8141 -0.5764
   10MPD2    H114012   2.114   4.493  12.881 -1.4021  0.3433  0.5142
   10MPD2    H214013   2.395   4.199  12.847  0.5999 -0.7141  0.7117
   10MPD2    H314014   2.300   4.378  12.773  0.4594  1.4627 -0.2295
   10MPD2     N14015   2.011   4.403  13.121  0.3537  0.7329 -0.2248
   10MPD2    H514016   1.981   4.350  13.202  0.7808  0.3132 -0.3394
   10MPD2    N114017   2.324   4.053  13.091 -0.2006 -0.5179  0.2446
   10MPD2    H714018   2.409   4.012  13.054  0.7531  2.8770 -1.3254
   11MPD2     C14019   3.084   3.883  14.391  0.6548 -0.2165  0.0958
   11MPD2    C114020   3.214   3.830  14.382 -0.1998 -0.0987 -0.5775
   11MPD2    C214021   3.263   3.796  14.257  0.1640 -0.0749  0.4082
   11MPD2    C314022   3.188   3.825  14.143  0.1914  0.4303  0.5966
   11MPD2    C414023   3.061   3.876  14.156 -0.0630  0.6212 -0.5997
   11MPD2    C514024   3.015   3.914  14.278 -0.0250  0.6026 -0.1510
   11MPD2     H14025   3.353   3.735  14.251 -0.6035 -1.2603  0.9566
   11MPD2    H114026   2.993   3.895  14.074 -1.1457  0.8245  0.3470
   11MPD2    H214027   3.036   3.892  14.488  0.7932 -0.6926  0.2108
   11MPD2    H314028   2.917   3.960  14.280 -0.4767 -0.4114  1.6453
   11MPD2     N14029   3.239   3.803  14.010  0.0298 -0.2070 -0.2301
   11MPD2    H514030   3.192   3.846  13.932 -0.2478  1.6975  0.9952
   11MPD2    N114031   3.280   3.780  14.497 -0.4757  0.2706 -0.5393
   11MPD2    H714032   3.368   3.734  14.478 -0.3306  0.0284  0.7359
    1MPD1     C14033   0.773   4.706   0.174  0.1602 -0.7357 -0.4609
    1MPD1    C114034   0.762   0.106   0.135 -0.1379 -0.4902 -0.2857
    1MPD1    C214035   0.863   0.168   0.068  0.1414 -0.2797 -0.1722
    1MPD1    C314036   0.972   0.090   0.030 -0.3028 -0.1831  0.7810
    1MPD1    C414037   0.995   4.706   0.088  0.2331 -0.3052  0.4195
    1MPD1    C514038   0.898   4.650   0.159  0.7454  0.1445 -0.2321
    1MPD1     H14039   0.849   0.270   0.037 -1.7319 -0.6420 -0.5099
    1MPD1    H114040   1.083   4.645   0.074  0.2313  0.1331 -1.4682
    1MPD1    H214041   0.702   4.655   0.238 -0.3563  3.7397  2.4701
    1MPD1    H314042   0.915   4.545   0.180  1.8539  0.4852  0.5831
    1MPD1     N14043   1.082   0.135  17.709 -0.5768 -1.0742  0.0776
    1MPD1    H514044   1.164   0.075  17.703  0.5429  0.2590  1.9552
    1MPD1    N114045   0.655   0.173   0.192 -0.7911 -0.1689  0.3487
    1MPD1    H614046   0.634   0.260   0.145 -1.3323 -0.1303  0.6624
    1MPD1    H714047   0.576   0.110   0.201 -1.1353  0.2059 -0.0579
    2MPD1     C14048   1.962   0.121   0.279 -1.0607  0.0601  0.7994
    2MPD1    C114049   1.998   0.190   0.170  0.0353 -0.1436  0.2768
    2MPD1    C214050   1.894   0.231   0.090 -0.1051 -0.1875  0.5856
    2MPD1    C314051   1.760   0.201   0.116  0.4441  0.6096  0.5206
    2MPD1    C414052   1.734   0.109   0.216 -0.1559  0.4660 -0.0215
    2MPD1    C514053   1.835   0.074   0.299  0.7772 -0.0935  0.3136
    2MPD1     H14054   1.911   0.282  17.744 -1.4247  0.5017  0.7298
    2MPD1    H114055   1.636   0.068   0.237  0.3667 -0.7919 -0.0606
    2MPD1    H214056   2.040   0.102   0.352 -2.3371 -1.2399  1.8309
    2MPD1    H314057   1.807   0.008   0.380  0.7340  0.2804  0.6042
    2MPD1     N14058   1.668   0.248   0.018 -0.1539  0.4576  0.4336
    2MPD1    H514059   1.700   0.331  17.718  0.1518 -0.7202 -1.4049
    2MPD1    N114060   2.122   0.248   0.152  0.5541 -0.4653 -0.3242
    2MPD1    H614061   2.189   0.174   0.174 -0.3301 -0.7325  1.4839
    2MPD1    H714062   2.151   0.269   0.057 -0.7835 -3.3620 -1.3667
    3TMC3    C114063   1.453   0.276  17.677 -0.1733  0.0468 -0.4758
    3TMC3    C214064   1.485   0.400  17.633 -0.5472  0.0359  0.0924
    3TMC3    C314065   1.384   0.469  17.571 -0.0793  0.4494  0.6558
    3TMC3    C414066   1.335   0.217  17.664  0.4472  0.1857 -0.5804
    3TMC3    C514067   1.230   0.298  17.625  0.9122  0.3024  0.7670
    3TMC3    C614068   1.248   0.423  17.578 -0.1152 -0.3953  0.1354
    3TMC3     C14069   1.536   0.193   0.008  0.2525  0.0159  0.3936
    3TMC3     O14070   1.489   0.098   0.065 -0.8933 -0.4001 -0.0828
    3TMC3     H14071   1.586   0.438  17.637 -0.8825  0.7150  1.8787
    3TMC3    H114072   1.313   0.113  17.685 -4.0473  0.5397 -3.4021
    3TMC3    H214073   1.166   0.484  17.540 -0.1793 -0.1933  0.6032
    3TMC3    C714074   1.094   0.259  17.645 -0.9661  0.3583 -0.3222
    3TMC3    C814075   1.401   0.611  17.576 -0.3771 -0.0758 -0.2985
    3TMC3    O114076   1.006   0.339  17.621  0.0982 -0.5957 -0.0908
    3TMC3    O214077   1.508   0.648  17.624 -0.3710  0.1400  0.9085
    4MPD1     C14078   1.295   1.077  17.369 -0.1593 -0.2422  0.0064
    4MPD1    C114079   1.244   0.980  17.281  0.0360 -0.0475 -0.0729
    4MPD1    C214080   1.257   0.849  17.331  0.8017  0.1669 -0.0359
    4MPD1    C314081   1.325   0.810  17.440  0.8931 -0.1694  0.6838
    4MPD1    C414082   1.384   0.908  17.516  0.1695 -0.2168  0.6182
    4MPD1    C514083   1.365   1.033  17.479 -0.5240  0.0189  0.7470
    4MPD1     H14084   1.207   0.772  17.273  0.1249 -0.7811  1.8197
    4MPD1    H114085   1.418   0.878  17.614  2.0333 -1.9024 -0.5351
    4MPD1    H214086   1.277   1.183  17.357 -1.4253 -0.5014 -0.3640
    4MPD1    H314087   1.397   1.112  17.545 -0.7470 -0.6838  1.7006
    4MPD1     N14088   1.325   0.672  17.476 -0.2801  0.6852  0.2896
    4MPD1    H514089   1.256   0.618  17.425  0.3733 -0.6779  0.8343
    4MPD1    N114090   1.166   1.014  17.166 -0.1626 -0.2633  0.4579
    4MPD1    H614091   1.205   1.097  17.122  3.1014 -0.8816  2.2049
    4MPD1    H714092   1.164   0.934  17.102 -0.8556  0.3891 -0.3320
    1TCq1    O114093   2.878   4.402  11.134 -0.1215  0.1056  0.0909
    1TCq1    C114094   2.756   4.357  11.126  0.1955 -0.4576 -0.4869
    1TCq1    O214095   2.712   4.277  11.046  0.1146 -0.1431 -0.2703
    1TCq1    C214096   2.693   4.387  11.253 -0.5778  0.2774  0.4884
    1TCq1    C314097   2.591   4.304  11.291 -0.2872 -0.2824 -0.4613
    1TCq1    C414098   2.517   4.336  11.400  0.4917 -0.6100  0.2293
    1TCq1    C514099   2.566   4.427  11.491  0.6592  0.3924 -0.1351
    1TCq1    C614100   2.664   4.512  11.451 -0.3096 -0.7310  0.4945
    1TCq1    C714101   2.725   4.497  11.331 -0.4232  0.7663 -0.4403
    1TCq1    C814102   2.747   4.575  11.564  0.4090 -0.6416 -0.0969
    1TCq1    O414103   2.866   4.589  11.536 -0.5387 -0.3309 -0.1581
    1TCq1    C914104   2.441   4.224  11.453  0.3615  0.1108  0.7335
    1TCq1    O514105   2.409   4.226  11.573  0.2368  0.0868  0.8429
    1TCq1    O614106   2.403   4.129  11.380  0.0812  0.4642  0.2755
    1TCq1    H114107   2.901   4.453  11.214 -0.6737  1.6528 -0.7356
    1TCq1    H214108   2.563   4.229  11.219  1.3534 -0.3325 -1.0479
    1TCq1    H314109   2.536   4.416  11.595  2.1467  1.1567  0.3744
    1TCq1    H414110   2.800   4.567  11.296  1.0423 -1.8155 -2.5819
    2MPD1     C14111   2.835   0.003  12.034  0.0683 -1.0078  0.9312
    2MPD1    C114112   2.700   4.725  12.027 -0.6058  0.0816  0.3009
    2MPD1    C214113   2.648   4.702  11.902  0.1809  0.1681  1.0882
    2MPD1    C314114   2.738   4.662  11.796 -0.1848 -1.2998 -0.8687
    2MPD1    C414115   2.877   4.669  11.812 -0.2821 -0.3197 -0.4626
    2MPD1    C514116   2.923   4.715  11.927  0.1385  0.3789 -0.7521
    2MPD1     H14117   2.542   4.700  11.880  0.5755  0.8221 -0.8893
    2MPD1    H114118   2.956   4.637  11.746  0.5633  2.1746 -0.6595
    2MPD1    H214119   2.884   0.024  12.128  0.9038  0.5414  0.1593
    2MPD1    H314120   3.031   4.713  11.938 -0.1899  1.5060  2.7454
    2MPD1     N14121   2.676   4.618  11.677 -0.2958 -0.3878 -0.0568
    2MPD1    H514122   2.575   4.630  11.674 -0.1238  0.4495 -2.9520
    2MPD1    N114123   2.625   0.033  12.135 -0.1057  0.6668 -0.2597
    2MPD1    H614124   2.534   4.731  12.156  0.7005 -1.9039 -1.6353
    2MPD1    H714125   2.678   0.032  12.222  0.1142  0.0794 -0.3985
    1TMC1    C114126   0.686   2.390   1.600  0.7439 -0.1055  0.2086
    1TMC1    C214127   0.816   2.410   1.565 -0.1307  0.1627  0.7101
    1TMC1    C314128   0.880   2.517   1.623  0.0137 -0.9354 -0.0707
    1TMC1    C414129   0.620   2.465   1.689  0.0684 -0.1533  0.2903
    1TMC1    C514130   0.687   2.577   1.744 -0.0807  0.3998 -1.1611
    1TMC1    C614131   0.825   2.599   1.720 -0.2103  0.1201  0.4206
    1TMC1     C14132   0.626   2.279   1.538 -0.7141  0.2039 -0.1429
    1TMC1     O14133   0.664   2.237   1.427  0.1829 -0.5219 -0.0989
    1TMC1     H14134   0.863   2.346   1.491 -3.3299  0.1968 -1.3595
    1TMC1    H114135   0.523   2.437   1.728  0.2258 -0.6521  0.3200
    1TMC1    H214136   0.876   2.685   1.761 -2.2499  1.4422  0.1902
    1TMC1    C714137   0.608   2.664   1.829  0.6250 -0.5831  0.0643
    1TMC1    C814138   1.018   2.518   1.602  0.2790 -0.3083 -0.2055
    1TMC1    O114139   0.487   2.680   1.806 -0.4383 -0.3899 -0.0703
    1TMC1    O214140   1.075   2.413   1.589  0.6556  0.4414 -0.0114
    1TMC1    O314141   0.650   2.637   1.958 -0.6809 -0.0692 -0.1377
    1TMC1    H314142   0.744   2.607   1.955  0.2177  2.4562  2.3726
    1TMC1    O514143   1.040   2.632   1.533  0.2184  0.1099 -0.4749
    1TMC1    H514144   0.974   2.703   1.552 -1.8706 -1.7282 -0.7814
    2MPD1     C14145   0.179   2.005   1.463 -0.3013  0.0423 -0.0192
    2MPD1    C114146   0.202   2.027   1.602 -0.2287 -0.9801  0.4675
    2MPD1    C214147   0.317   2.099   1.641  0.0491  0.5754 -0.7184
    2MPD1    C314148   0.406   2.149   1.547 -0.7593  0.2673 -0.4103
    2MPD1    C414149   0.383   2.123   1.410  0.3487  0.0442 -0.8387
    2MPD1    C514150   0.271   2.053   1.374 -0.5730 -0.0877 -0.2078
    2MPD1     H14151   0.333   2.115   1.747 -0.4178  0.6659 -0.6590
    2MPD1    H114152   0.446   2.165   1.333  2.5263  0.0025  0.9320
    2MPD1    H214153   0.101   1.947   1.416  0.1259  0.7168 -1.5734
    2MPD1    H314154   0.259   2.028   1.269 -0.3880 -1.1769  0.0313
    2MPD1     N14155   0.513   2.227   1.602 -0.1486  0.4928  0.3531
    2MPD1    H514156   0.501   2.260   1.697  0.4490  0.4992  0.4286
    2MPD1    N114157   0.130   1.956   1.696 -0.2839  0.0241  0.3123
    2MPD1    H614158   0.104   2.007   1.780  1.6754 -1.2101  1.6808
    2MPD1    H714159   0.043   1.924   1.656 -0.8559  0.6406  1.0547
    1MPD1     C14160   3.236   4.158  12.497  0.4909  0.0432  0.2806
    1MPD1    C114161   3.202   4.279  12.545 -0.1210 -0.0295 -0.1529
    1MPD1    C214162   3.279   4.393  12.524  0.6941 -0.9351  0.1598
    1MPD1    C314163   3.402   4.384  12.459 -0.1489  0.2452  0.0663
    1MPD1    C414164   3.436   4.261  12.401  0.1292  0.0595  0.6874
    1MPD1    C514165   3.356   4.148  12.432 -0.5054  0.5042 -0.3794
    1MPD1     H14166   3.247   4.487  12.567  0.2621 -0.6760 -0.7331
    1MPD1    H114167   3.531   4.239  12.353 -0.0457 -0.9224  0.7889
    1MPD1    H214168   3.177   4.068  12.512 -0.6696  1.2137  2.8332
    1MPD1    H314169   3.392   4.052  12.396 -2.0079  0.5044 -1.9219
    1MPD1     N14170   3.483   4.498  12.437 -0.0260  0.0091  0.2984
    1MPD1    H514171   3.446   4.586  12.469  1.0413  0.6259 -0.1512
    1MPD1    N114172   3.074   4.294  12.599  0.8283  0.2138  0.0270
    1MPD1    H614173   3.061   4.380  12.651  0.6868  0.3360 -0.2076
    1MPD1    H714174   3.055   4.222  12.668 -0.2006 -1.3184 -1.8392
    2MPD1     C14175   3.632   4.659   9.842 -0.4697 -0.2588  0.1592
    2MPD1    C114176   3.740   4.639   9.929 -1.1092  0.5922  0.6085
    2MPD1    C214177   3.751   4.724  10.034  0.1295 -0.0313 -0.1367
    2MPD1    C314178   3.682   0.105  10.048  0.2660 -0.1822  0.0299
    2MPD1    C414179   3.593   0.133   9.951 -0.4191 -0.4892 -0.5302
    2MPD1    C514180   3.571   0.048   9.845 -0.1981 -0.7399  0.5006
    2MPD1     H14181   3.833   4.700  10.102 -0.2707  0.6807  0.6072
    2MPD1    H114182   3.536   0.226   9.950  0.4056 -0.0022 -2.5470
    2MPD1    H214183   3.611   4.596   9.757  1.5383  1.8904 -1.9206
    2MPD1    H314184   3.510   0.082   9.763 -0.0449 -1.4478  0.0924
    2MPD1     N14185   3.704   0.193  10.152  0.3713  0.7559  0.5560
    2MPD1    H514186   3.654   0.281  10.136  0.0137  0.1767 -1.5327
    2MPD1    N114187   3.814   4.526   9.921 -0.3506 -0.0239 -0.8128
    2MPD1    H614188   3.906   4.538   9.963 -0.0682 -2.3200 -0.7810
    2MPD1    H714189   3.823   4.481   9.830 -2.5223  0.4315 -1.2556
    3MPD1     C14190   3.409   0.995  10.679  0.3850  0.3289 -0.4054
    3MPD1    C114191   3.362   0.889  10.754  0.1363  0.4241  0.4144
    3MPD1    C214192   3.395   0.764  10.703 -0.4721  0.6882 -0.1722
    3MPD1    C314193   3.479   0.736  10.601 -0.1267  0.4603  0.3044
    3MPD1    C414194   3.529   0.844  10.540 -0.0258  0.2929 -0.6652
    3MPD1    C514195   3.496   0.969  10.578  0.1409  0.2517  0.1875
    3MPD1     H14196   3.358   0.679  10.759 -0.1378  0.4211 -0.3615
    3MPD1    H114197   3.598   0.826  10.458 -0.8183 -1.1474 -0.9929
    3MPD1    H214198   3.372   1.095  10.699  0.9727  0.8309 -1.8459
    3MPD1    H314199   3.533   1.054  10.522  1.4744 -1.8714 -2.2286
    3MPD1     N14200   3.505   0.601  10.566 -0.8121 -0.3903 -0.6721
    3MPD1    H514201   3.463   0.531  10.626  1.3903 -1.2267 -0.0865
    3MPD1    N114202   3.266   0.912  10.851  0.6061 -0.4078  0.9325
    3MPD1    H614203   3.267   0.845  10.927  0.4217 -0.6992  0.6737
    3MPD1    H714204   3.281   1.004  10.892 -0.0074  0.9218 -1.8080
    4MPD2     C14205   3.485   0.383  12.089  0.0931  0.4253 -0.2675
    4MPD2    C114206   3.615   0.342  12.095  0.1519 -0.8538  0.3000
    4MPD2    C214207   3.707   0.373  11.986 -0.2841  0.0602 -0.8021
    4MPD2    C314208   3.655   0.439  11.869 -0.0823 -0.3805  0.5049
    4MPD2    C414209   3.522   0.479  11.863  0.1351 -0.0754  0.4139
    4MPD2    C514210   3.441   0.457  11.977  0.2095 -0.4039 -0.1497
    4MPD2     H14211   3.809   0.335  11.985 -0.0028  0.7185  1.6194
    4MPD2    H114212   3.485   0.525  11.772  0.0154 -0.7681  0.1118
    4MPD2    H214213   3.417   0.361  12.170 -1.1878  0.4563 -1.3145
    4MPD2    H314214   3.340   0.492  11.961 -0.2730 -0.9494  1.6600
    4MPD2     N14215   3.748   0.447  11.761  0.5709  0.2597 -0.0400
    4MPD2    H514216   3.842   0.417  11.783  0.6660  0.8996  0.4450
    4MPD2    N114217   3.668   0.263  12.199  0.2914  0.2218 -0.0730
    4MPD2    H714218   3.765   0.232  12.195  0.2796 -0.0509  1.6531
    5TMC3    C114219   3.676   0.120  12.383  0.0255  0.5847 -0.2885
    5TMC3    C214220   3.613   0.001  12.395  0.3849  0.4037  0.3535
    5TMC3    C314221   3.685   4.623  12.380  0.8971  0.2484 -0.8423
    5TMC3    C414222   3.816   0.128  12.375  0.5547 -0.2296 -0.2139
    5TMC3    C514223   3.870   0.019  12.319 -0.3954 -0.7267 -0.2709
    5TMC3    C614224   3.816   4.631  12.337  0.3250 -0.1625 -0.3832
    5TMC3     C14225   3.601   0.219  12.306  0.1444 -0.9947 -0.4843
    5TMC3     O14226   3.486   0.238  12.343  0.1725 -0.3010 -0.7440
    5TMC3     H14227   3.506   0.002  12.376  0.2732  0.4788  0.9700
    5TMC3    H114228   3.861   0.226  12.376  1.3799 -0.6108  0.1558
    5TMC3    H214229   3.879   4.547  12.310  0.9789  0.0445  0.4979
    5TMC3    C714230   3.957   0.045  12.206  0.9275  0.2653 -1.0565
    5TMC3    C814231   3.618   4.495  12.403  0.2583  0.3481  0.1858
    5TMC3    O114232   3.943   0.166  12.184 -0.2697 -0.1407 -0.3747
    5TMC3    O214233   3.698   4.404  12.385  0.2761 -0.3956 -0.0451
    6TMC3    C114234   3.721   0.238  10.385  0.1623  0.1256 -0.0947
    6TMC3    C214235   3.642   0.347  10.363 -0.8226  0.8764  0.7205
    6TMC3    C314236   3.605   0.413  10.473 -1.3805 -0.3104 -0.2410
    6TMC3    C414237   3.751   0.196  10.508 -0.9055 -0.2870  0.1802
    6TMC3    C514238   3.710   0.267  10.620 -0.4791 -0.2015 -0.3384
    6TMC3    C614239   3.627   0.375  10.601  0.4200 -0.3880  0.0363
    6TMC3     C14240   3.765   0.161  10.273 -0.4070 -0.3331  1.0677
    6TMC3     O14241   3.821   0.058  10.304  0.5599 -0.9969  0.3047
    6TMC3     H14242   3.637   0.397  10.267 -1.0076 -1.4637 -0.5025
    6TMC3    H114243   3.814   0.108  10.514 -1.6090 -0.6897  1.5285
    6TMC3    H214244   3.592   0.434  10.685 -0.1433  1.7969 -1.7347
    6TMC3    C714245   3.779   0.258  10.742 -0.3918 -0.8631  0.0582
    6TMC3    C814246   3.581   0.559  10.461 -0.2124  0.2505  0.0320
    6TMC3    O114247   3.714   0.293  10.842 -0.1695 -0.1888  0.2441
    6TMC3    O214248   3.624   0.613  10.361  0.4062  0.0952  0.1288
    7MPD2     C14249   4.196   4.656  11.776  0.2145 -0.2962  0.0930
    7MPD2    C114250   4.128   0.032  11.806  0.2974  0.0924  0.4689
    7MPD2    C214251   4.081   0.047  11.931  1.2802  1.0151  0.1999
    7MPD2    C314252   4.078   4.674  12.024 -0.4530 -0.0315 -0.2409
    7MPD2    C414253   4.149   4.561  11.985  0.1811 -0.4733 -0.5369
    7MPD2    C514254   4.214   4.557  11.866  0.2473 -0.0105 -0.2143
    7MPD2     H14255   4.033   0.139  11.963  0.9667  0.8744  0.1356
    7MPD2    H114256   4.144   4.474  12.049 -1.0032 -0.3798 -0.4938
    7MPD2    H214257   4.235   4.627  11.680  3.5534  0.6983  1.1317
    7MPD2    H314258   4.257   4.466  11.827 -2.1892 -1.2067 -0.1601
    7MPD2     N14259   4.014   4.673  12.144  0.1211 -0.2589  0.2940
    7MPD2    H514260   4.006   4.582  12.187 -2.4776 -0.6392 -1.0153
    7MPD2    N114261   4.104   0.115  11.697 -0.3353 -0.2600 -0.2542
    7MPD2    H714262   4.142   0.084  11.608 -1.7106 -2.5825 -0.0294
    8TMC3    C114263   4.010   0.297  11.578  0.1517 -0.0022 -0.2041
    8TMC3    C214264   3.974   0.208  11.491 -0.9322  0.0389  0.1602
    8TMC3    C314265   3.858   0.234  11.415 -0.5623 -0.0221 -0.4578
    8TMC3    C414266   3.943   0.418  11.597  0.8148 -0.1454  0.1307
    8TMC3    C514267   3.816   0.429  11.545 -0.2672 -0.3151  0.1962
    8TMC3    C614268   3.776   0.344  11.444 -0.8334 -0.2202  0.0446
    8TMC3     C14269   4.052   0.242  11.707  0.0104 -0.3243 -0.4142
    8TMC3     O14270   4.025   0.303  11.808  1.0524  0.1722  0.2594
    8TMC3     H14271   4.042   0.128  11.465  0.1627  0.2751  2.3664
    8TMC3    H114272   3.976   0.494  11.667 -0.1734 -0.2272  0.6801
    8TMC3    H214273   3.681   0.347  11.392 -0.6800  0.0968 -0.2152
    8TMC3    C714274   3.712   0.476  11.631  0.3334 -0.5578  0.2411
    8TMC3    C814275   3.847   0.202  11.270  0.1506 -0.0197 -0.2548
    8TMC3    O114276   3.603   0.506  11.587 -0.7528  0.0112  0.3532
    8TMC3    O214277   3.745   0.228  11.209  0.4401 -0.2450  0.3383
    9MPD2     C14278   4.140   0.130  11.068 -0.2924  0.0431 -0.5268
    9MPD2    C114279   4.014   0.145  11.087 -0.1587  0.0276  0.1703
    9MPD2    C214280   3.935   0.167  10.982 -0.4116 -0.1193 -0.3946
    9MPD2    C314281   3.983   0.178  10.852 -0.7280  0.3873 -0.6481
    9MPD2    C414282   4.117   0.148  10.832 -0.1061 -0.0948 -0.0685
    9MPD2    C514283   4.189   0.113  10.941 -0.6457 -0.2007  0.1558
    9MPD2     H14284   3.829   0.176  11.000 -0.0649 -2.4068  2.8316
    9MPD2    H114285   4.161   0.146  10.733  0.1927  0.1237  0.0593
    9MPD2    H214286   4.208   0.110  11.149 -1.5548 -0.6831  0.3632
    9MPD2    H314287   4.296   0.098  10.946 -0.5009  0.6956 -0.3290
    9MPD2     N14288   3.906   0.208  10.738 -0.4924 -0.1383 -0.2582
    9MPD2    H514289   3.954   0.188  10.650 -1.6751 -1.5995 -0.5622
    9MPD2    N114290   3.969   0.153  11.223  0.2418  0.3102 -0.0731
    9MPD2    H714291   4.047   0.134  11.285 -1.2572 -0.1473  1.6914
    1MPD1     C14292   2.856   3.149  16.616  0.3252  0.2013  0.2086
    1MPD1    C114293   2.825   3.175  16.487 -0.1529 -0.1847  0.7185
    1MPD1    C214294   2.926   3.175  16.391 -0.3807 -0.1951  0.2968
    1MPD1    C314295   3.062   3.171  16.425 -0.1491 -0.3470  0.0366
    1MPD1    C414296   3.092   3.146  16.562  0.4463 -0.3976  0.7543
    1MPD1    C514297   2.990   3.136  16.656  0.4543  0.4651 -0.2098
    1MPD1     H14298   2.912   3.180  16.284  1.1817 -1.7817  0.0289
    1MPD1    H114299   3.186   3.132  16.615  0.6349 -0.3483  0.4280
    1MPD1    H214300   2.779   3.123  16.687  2.5597 -1.7044  1.9517
    1MPD1    H314301   3.017   3.109  16.757  1.7118 -1.0592 -0.9597
    1MPD1     N14302   3.165   3.196  16.332  0.1949  0.7059 -0.7077
    1MPD1    H514303   3.259   3.165  16.358  0.7552  0.2444 -3.2646
    1MPD1    N114304   2.694   3.156  16.446  0.3013 -0.2268 -0.0907
    1MPD1    H614305   2.675   3.219  16.368 -1.2448 -0.0108  0.4429
    1MPD1    H714306   2.625   3.196  16.509  0.6416  1.7046 -0.9422
    2TMC2    C114307   3.383   3.402  15.966  0.2476 -0.4415  0.1338
    2TMC2    C214308   3.474   3.299  15.954 -0.0283 -0.0135 -0.1830
    2TMC2    C314309   3.473   3.201  16.047 -0.4728  0.2664 -0.2231
    2TMC2    C414310   3.283   3.393  16.057  0.9398  0.4620  0.1414
    2TMC2    C514311   3.281   3.280  16.148  0.6832 -0.4733  0.1685
    2TMC2    C614312   3.381   3.185  16.148  0.7064 -0.4295 -0.7861
    2TMC2     C14313   3.344   3.442  15.828 -0.1259  0.9209 -0.2741
    2TMC2     O14314   3.372   3.364  15.742  0.0080  0.7606 -0.5600
    2TMC2     H14315   3.535   3.287  15.865  0.6773  0.1501  0.2852
    2TMC2    H114316   3.195   3.453  16.035  0.6563 -0.3211 -0.8585
    2TMC2    H214317   3.376   3.107  16.223  2.0770 -1.4151 -1.7009
    2TMC2    C714318   3.150   3.262  16.210 -0.1203  0.4913 -0.2634
    2TMC2    C814319   3.522   3.077  15.992 -0.7758 -0.7812 -0.2279
    2TMC2    O114320   3.063   3.342  16.182  0.4784  0.0604 -0.1957
    2TMC2    O214321   3.494   3.036  15.882  0.6901 -0.0038  0.4874
    2TMC2    O514322   3.544   3.011  16.104 -0.8354 -0.1682 -0.2458
    2TMC2    H514323   3.579   3.060  16.182 -0.8533  0.9306 -0.9281
    3MPD1     C14324   3.152   3.780  15.496 -0.3216  0.5258  0.4205
    3MPD1    C114325   3.117   3.823  15.621  0.3128 -0.1083  0.7384
    3MPD1    C214326   3.179   3.756  15.726 -0.5458 -0.4116  0.3483
    3MPD1    C314327   3.253   3.641  15.709 -0.2844  0.0992  0.4194
    3MPD1    C414328   3.283   3.597  15.582 -1.0479  0.7400 -0.0023
    3MPD1    C514329   3.232   3.670  15.476 -0.6000 -0.5037  0.2867
    3MPD1     H14330   3.166   3.791  15.828 -1.4552 -0.0371  0.1031
    3MPD1    H114331   3.343   3.508  15.569  0.1903  1.4632  0.6928
    3MPD1    H214332   3.109   3.835  15.413  2.0537  2.9610  0.7747
    3MPD1    H314333   3.251   3.639  15.374 -1.5940 -3.1071  0.8935
    3MPD1     N14334   3.285   3.568  15.824  1.0989  0.1827  0.9664
    3MPD1    H514335   3.264   3.611  15.913 -0.8494  1.1643  0.0232
    3MPD1    N114336   3.015   3.923  15.643 -0.0593 -0.7884  0.3870
    3MPD1    H614337   3.007   3.988  15.565 -1.3373 -0.0209  1.1582
    3MPD1    H714338   3.027   3.973  15.731  0.9299  0.6752 -0.6067
    1TMC1    C114339   2.248   2.731  12.618 -0.0749 -0.5405 -0.5455
    1TMC1    C214340   2.285   2.857  12.588  0.2512  0.8181 -0.3461
    1TMC1    C314341   2.210   2.930  12.501  0.3159  0.4274  0.1500
    1TMC1    C414342   2.131   2.681  12.565 -0.6603 -0.6358 -0.4906
    1TMC1    C514343   2.056   2.765  12.487  0.9809 -0.2838  1.0714
    1TMC1    C614344   2.106   2.883  12.435  0.2764  0.3126 -0.3444
    1TMC1     C14345   2.324   2.648  12.704 -0.2129 -0.6985  0.0969
    1TMC1     O14346   2.308   2.525  12.701 -0.3787  0.7852 -0.0095
    1TMC1     H14347   2.384   2.887  12.620 -0.1310  0.7954  0.8496
    1TMC1    H114348   2.086   2.588  12.599  1.2443 -0.6054  2.0831
    1TMC1    H214349   2.050   2.948  12.369 -1.6602 -0.1075  0.8607
    1TMC1    C714350   1.928   2.735  12.436 -0.7318 -0.3454  0.1275
    1TMC1    C814351   2.240   3.067  12.463 -0.2525 -0.0570  0.0527
    1TMC1    O114352   1.904   2.766  12.319  0.4598 -0.2901  0.9372
    1TMC1    O214353   2.177   3.114  12.371 -0.4366  0.3071 -0.3812
    1TMC1    O314354   1.863   2.645  12.507 -0.6209  0.1579 -0.0571
    1TMC1    H314355   1.900   2.627  12.596  0.0543 -0.1031 -0.3884
    1TMC1    O514356   2.287   3.124  12.572  0.1216 -0.3538  0.5969
    1TMC1    H514357   2.314   3.058  12.640 -0.3437 -1.9592 -0.8032
    2MPD2     C14358   2.529   2.562  12.907 -0.6033 -0.3774  0.1590
    2MPD2    C114359   2.458   2.686  12.904  0.4594  0.0987 -0.4855
    2MPD2    C214360   2.463   2.767  13.013  0.0191 -0.4121 -0.3991
    2MPD2    C314361   2.531   2.733  13.128  0.6828 -0.2538  0.1280
    2MPD2    C414362   2.606   2.618  13.123  0.0891 -0.3373  0.4790
    2MPD2    C514363   2.603   2.537  13.018 -0.2009 -0.4977 -0.1185
    2MPD2     H14364   2.397   2.853  13.017  0.4302 -0.0431 -1.6042
    2MPD2    H114365   2.655   2.578  13.211 -1.3349 -0.8025  1.0743
    2MPD2    H214366   2.531   2.497  12.820 -0.2772 -2.0837  1.4486
    2MPD2    H314367   2.664   2.447  13.018 -0.0991 -0.4268 -0.9573
    2MPD2     N14368   2.516   2.804  13.241  0.1613 -0.3951 -0.1913
    2MPD2    H514369   2.444   2.875  13.244 -0.3250 -0.8180 -2.0728
    2MPD2    N114370   2.378   2.722  12.799 -0.5318 -0.0106  0.1256
    2MPD2    H714371   2.342   2.817  12.809 -1.2552 -0.1797 -0.9222
    3TCq1    O114372   2.603   2.853  13.923 -0.0979 -0.6081  0.0503
    3TCq1    C114373   2.645   2.909  13.811  0.1287 -0.0566  0.2972
    3TCq1    O214374   2.759   2.954  13.796  0.2542  0.1175 -0.5484
    3TCq1    C214375   2.552   2.861  13.706 -0.6505  0.0792  0.0012
    3TCq1    C314376   2.418   2.892  13.724  0.4219  0.0402  0.0833
    3TCq1    C414377   2.344   2.873  13.615  0.3540 -0.0614  0.5246
    3TCq1    C514378   2.397   2.850  13.489 -0.0959  0.0995 -0.0540
    3TCq1    C614379   2.531   2.832  13.475 -0.1497  0.1270 -0.0634
    3TCq1    C714380   2.612   2.831  13.586  0.1178 -0.5099 -0.2025
    3TCq1    C814381   2.597   2.785  13.350  0.2431 -0.3799 -0.3319
    3TCq1    O414382   2.710   2.749  13.368 -0.5002  0.4824 -0.5678
    3TCq1    C914383   2.203   2.889  13.637 -0.0258  0.5161 -0.5635
    3TCq1    O514384   2.140   2.858  13.534 -0.0525 -0.2518 -0.0643
    3TCq1    O614385   2.160   2.946  13.740  0.0717 -0.5922  0.1197
    3TCq1    H114386   2.516   2.807  13.920 -0.4911  0.3377 -2.8136
    3TCq1    H214387   2.384   2.935  13.818  0.4044  0.2870 -0.0357
    3TCq1    H314388   2.329   2.856  13.405 -1.4499  2.3429  1.2157
    3TCq1    H414389   2.719   2.813  13.586  0.5214  1.9171  0.8396
    1MPD2     C14390   0.803   4.353  14.553  0.3182  0.1090  0.1457
    1MPD2    C114391   0.793   4.219  14.534  0.5227  0.3321  0.0303
    1MPD2    C214392   0.916   4.145  14.539 -0.1504  0.2681  0.4437
    1MPD2    C314393   1.036   4.204  14.570 -0.2136 -0.1240  0.1472
    1MPD2    C414394   1.045   4.336  14.593 -0.1780  0.1314  0.1106
    1MPD2    C514395   0.929   4.408  14.573 -0.5107  0.3462  0.0248
    1MPD2     H14396   0.910   4.038  14.522  2.3317  0.3342 -0.8256
    1MPD2    H114397   1.141   4.383  14.605 -0.1811 -0.5426  2.6749
    1MPD2    H214398   0.715   4.416  14.556  0.8923  0.8539  1.7217
    1MPD2    H314399   0.943   4.516  14.569  1.6287  0.0991  0.8204
    1MPD2     N14400   1.156   4.123  14.583 -0.7105 -0.4428 -0.3677
    1MPD2    H514401   1.245   4.169  14.566 -1.4049  0.4740 -1.4468
    1MPD2    N114402   0.666   4.162  14.508  0.5631  0.3841  0.1088
    1MPD2    H714403   0.584   4.220  14.520  0.7412  0.8015 -0.7205
    2TMC3    C114404   0.507   4.008  14.419 -0.2846 -0.2489 -0.7040
    2TMC3    C214405   0.504   3.879  14.375 -0.5981 -0.6192  0.9525
    2TMC3    C314406   0.457   3.847  14.253  0.2901  0.0550 -0.3815
    2TMC3    C414407   0.462   4.103  14.340 -0.0908  0.1714 -0.2146
    2TMC3    C514408   0.431   4.073  14.207 -0.3035  0.0381 -0.3911
    2TMC3    C614409   0.433   3.945  14.166 -0.4062  0.3163 -0.0677
    2TMC3     C14410   0.642   4.029  14.475 -0.2185  0.4762 -0.0994
    2TMC3     O14411   0.719   3.932  14.472  0.1738 -0.0789  0.0858
    2TMC3     H14412   0.536   3.803  14.445 -1.6785 -1.6612  0.2928
    2TMC3    H114413   0.449   4.200  14.388  0.0913 -0.1062  0.3897
    2TMC3    H214414   0.405   3.925  14.063  1.5874 -0.4207 -0.4778
    2TMC3    C714415   0.404   4.181  14.107 -0.3603 -0.0824 -0.8263
    2TMC3    C814416   0.524   3.732  14.196  0.1754  0.4409  0.5408
    2TMC3    O114417   0.373   4.145  13.993 -1.0673 -0.2298  0.1646
    2TMC3    O214418   0.475   3.669  14.103  0.2764  0.3091 -0.1817
    3TCq1    O114419   0.887   0.633  14.120 -0.4429 -0.1173 -0.2468
    3TCq1    C114420   0.773   0.577  14.171 -0.4525  0.9422  0.4624
    3TCq1    O214421   0.664   0.634  14.175  0.1732  0.5678 -0.0566
    3TCq1    C214422   0.782   0.428  14.166 -0.1680  0.5807 -0.0683
    3TCq1    C314423   0.880   0.367  14.236  0.0661 -0.5601  0.1100
    3TCq1    C414424   0.877   0.235  14.244 -0.1584 -0.2297  0.4223
    3TCq1    C514425   0.768   0.156  14.195  0.0321 -1.3607  0.4625
    3TCq1    C614426   0.668   0.226  14.135 -0.4715 -0.0316  0.2305
    3TCq1    C714427   0.675   0.360  14.116  0.1810  0.3686  0.7505
    3TCq1    C814428   0.548   0.152  14.098  0.0562 -0.1903  0.0801
    3TCq1    O414429   0.467   0.216  14.031 -0.0823 -0.1656 -0.3666
    3TCq1    C914430   0.978   0.163  14.314  0.7962 -0.0056 -0.0058
    3TCq1    O514431   1.081   0.231  14.339  0.1750 -0.3012 -0.2280
    3TCq1    O614432   0.945   0.057  14.378  0.3644 -0.3685 -0.5293
    3TCq1    H114433   0.957   0.565  14.105 -1.1336 -0.7736 -0.5275
    3TCq1    H214434   0.951   0.432  14.286 -0.3758 -3.1313  4.1114
    3TCq1    H314435   0.778   0.050  14.211  1.5220 -1.0897  1.2662
    3TCq1    H414436   0.599   0.415  14.061  0.3674 -0.8633 -0.7353
    4MPD2     C14437   0.357   4.679  13.998 -0.3655  0.8087 -0.2268
    4MPD2    C114438   0.459   4.661  14.093 -0.0806  0.1295 -0.4853
    4MPD2    C214439   0.474   4.538  14.147  0.1741  0.4114 -0.1338
    4MPD2    C314440   0.405   4.426  14.098 -0.8924 -0.4754 -0.2284
    4MPD2    C414441   0.307   4.451  14.008 -0.4725 -0.4739  0.0198
    4MPD2    C514442   0.279   4.580  13.964 -0.8272 -0.4630  0.2767
    4MPD2     H14443   0.541   4.505  14.226  0.6381  1.6562 -0.0064
    4MPD2    H114444   0.251   4.365  13.976 -0.8287 -0.0598 -0.4679
    4MPD2    H214445   0.331   0.036  13.951 -0.4795  0.6309 -0.5218
    4MPD2    H314446   0.196   4.592  13.896 -1.9514  1.7609  2.0288
    4MPD2     N14447   0.436   4.307  14.156 -0.8155 -0.2971  0.8776
    4MPD2    H514448   0.505   4.305  14.230 -1.1860 -3.6786  1.1537
    4MPD2    N114449   0.551   0.018  14.133 -0.2207 -0.0494 -0.1573
    4MPD2    H714450   0.632   4.725  14.184  1.2080 -0.1233 -2.4871
    5TMC2    C114451   1.280   3.792  14.370 -0.6174  0.1880 -0.4002
    5TMC2    C214452   1.290   3.681  14.446 -0.0420  0.8380  1.2592
    5TMC2    C314453   1.283   3.685  14.582  0.0753 -0.3238 -0.9335
    5TMC2    C414454   1.285   3.921  14.436 -0.1929  0.0779  0.7948
    5TMC2    C514455   1.267   3.918  14.576  0.2321 -0.1887 -0.4485
    5TMC2    C614456   1.277   3.801  14.654  0.0292 -0.2986  0.5330
    5TMC2     C14457   1.158   3.800  14.286  0.1360 -0.3885 -0.7538
    5TMC2     O14458   1.099   3.906  14.282 -0.4105  0.3235 -0.6632
    5TMC2     H14459   1.283   3.587  14.393  2.3779 -0.2610  2.8678
    5TMC2    H114460   1.277   4.006  14.370 -1.9809 -0.7916 -0.0996
    5TMC2    H214461   1.260   3.808  14.761 -2.4632  2.6408 -0.0687
    5TMC2    C714462   1.158   3.989  14.623  0.0462 -0.4348  0.2436
    5TMC2    C814463   1.291   3.568  14.658 -0.3495 -0.4837  0.6652
    5TMC2    O114464   1.065   3.924  14.671 -0.4870  0.1438 -0.3687
    5TMC2    O214465   1.343   3.568  14.773  0.0292  0.0541  0.0431
    5TMC2    O514466   1.261   3.457  14.586 -0.1292  0.0588 -0.1530
    5TMC2    H514467   1.191   3.481  14.521 -0.4316 -0.2782  0.0535
    6MPD2     C14468   0.755   3.582  14.089 -0.4261 -0.3300 -0.5787
    6MPD2    C114469   0.761   3.680  14.180 -0.0894  0.1110  0.5999
    6MPD2    C214470   0.885   3.728  14.219 -0.0985  0.6121 -0.4382
    6MPD2    C314471   0.996   3.666  14.171 -0.1673 -0.0211  0.4384
    6MPD2    C414472   0.982   3.563  14.080  0.2743 -0.0004 -0.3211
    6MPD2    C514473   0.866   3.528  14.035 -0.2627 -0.2030 -0.4504
    6MPD2     H14474   0.890   3.800  14.300  1.7597 -0.3242  0.2754
    6MPD2    H114475   1.071   3.523  14.032  1.4824 -1.9768  3.5542
    6MPD2    H214476   0.661   3.549  14.047  0.7666 -1.3655 -2.4612
    6MPD2    H314477   0.857   3.459  13.952  1.6937  0.1125 -0.9188
    6MPD2     N14478   1.119   3.685  14.223  0.0674 -0.2207 -0.4398
    6MPD2    H514479   1.181   3.605  14.215 -1.2631 -1.2533 -0.4261
    6MPD2    N114480   0.651   3.737  14.241  0.2663  0.3694  0.3913
    6MPD2    H714481   0.679   3.809  14.308  1.1425 -0.8181  1.3115
  945NH4     N114482   1.506   4.039   9.178  0.3967 -0.0014  0.1785
  945NH4     H214483   1.521   4.066   9.078  0.6539  1.3295  0.5806
  945NH4     H314484   1.475   4.119   9.237 -1.9246 -0.9698  0.2408
  945NH4     H414485   1.593   3.999   9.219  0.0322  0.0573  0.9932
  945NH4     H514486   1.434   3.965   9.188 -0.4029  0.9867  1.6719
  946SOD     NA14487   0.949   4.350  12.800 -0.2088  0.0879 -0.0608
  947SOD     NA14488   0.357   4.592  14.902 -0.0419  0.2504 -0.0715
  948SOD     NA14489   3.875   2.123  13.939 -0.1747  0.1576 -0.5495
  949SOD     NA14490   1.013   0.979  14.338 -0.1784  0.0524  0.1528
  950SOD     NA14491   2.476   2.703  16.390  0.2487  0.4607  0.0734
  951SOD     NA14492   0.284   2.207   5.955 -0.1842 -0.3976 -0.0859
  952SOD     NA14493   2.191   2.118  11.250  0.4051 -0.1360 -0.6931
  953SOL     OW14494   0.629   4.611   1.666 -0.1719 -0.2488 -0.5439
  953SOL    HW114495   0.533   4.604   1.664 -0.2612  1.3254 -1.6523
  953SOL    HW214496   0.644   4.536   1.608  0.3934 -0.5667  0.0166
  954SOL     OW14497   4.545   1.372  13.670  0.3405 -0.2524 -0.3862
  954SOL    HW114498   4.613   1.371  13.738 -0.5183  1.1454  0.4926
  954SOL    HW214499   4.484   1.438  13.703 -0.2188 -1.2229  0.4963
  955SOL     OW14500   1.212   4.382   7.686 -0.4901  0.3000 -0.1004
  955SOL    HW114501   1.279   4.357   7.623  1.2163 -2.0636  2.6346
  955SOL    HW214502   1.136   4.340   7.647  0.1658 -2.0219  1.1190
  956SOL     OW14503   2.342   1.633  15.919  0.1164 -0.6587  0.5499
  956SOL    HW114504   2.317   1.592  15.836  1.2059 -0.2334  0.0110
  956SOL    HW214505   2.264   1.623  15.972 -1.7765  0.0618 -2.0687
  957SOL     OW14506   3.907   1.685  13.778  0.1854  0.0582 -0.5889
  957SOL    HW114507   3.864   1.703  13.694  1.4413  1.6335 -0.8773
  957SOL    HW214508   3.898   1.589  13.781  4.2014 -0.3205 -0.0877
  958SOL     OW14509   1.238   2.620   7.476  0.6728 -0.0268 -0.0626
  958SOL    HW114510   1.244   2.604   7.382 -1.0076  1.5998 -0.4321
  958SOL    HW214511   1.152   2.581   7.490  0.2524  0.6841 -0.7106
  959SOL     OW14512   1.097   1.174   9.656  0.3930 -0.6167 -0.1735
  959SOL    HW114513   1.079   1.251   9.603 -0.7533 -0.0292  1.0761
  959SOL    HW214514   1.181   1.200   9.693 -0.0405  0.7576 -0.1629
  960SOL     OW14515   0.102   1.855  12.077  0.5940  0.0106 -0.0653
  960SOL    HW114516   0.080   1.768  12.111  0.2000  1.0269  2.2694
  960SOL    HW214517   0.157   1.905  12.138 -0.1029 -0.6268  1.0758
  961SOL     OW14518   3.332   3.027  13.407  0.2891 -0.2705  0.5621
  961SOL    HW114519   3.271   3.041  13.479  0.7760  1.5019  0.6416
  961SOL    HW214520   3.414   3.062  13.444  0.7699  0.0065 -0.7827
  962SOL     OW14521   2.908   1.684  14.345  0.0328 -0.7251 -0.2273
  962SOL    HW114522   2.856   1.661  14.268 -0.2773 -0.0287 -0.2319
  962SOL    HW214523   2.991   1.699  14.301 -1.6629  0.4645 -3.0379
  963SOL     OW14524   3.149   4.562   5.565 -0.3384 -0.3083 -0.2940
  963SOL    HW114525   3.165   4.593   5.476 -0.5231  1.2843  0.2178
  963SOL    HW214526   3.227   4.603   5.602 -0.6364 -0.7901  0.8794
  964SOL     OW14527   3.323   4.219   7.295  0.7535  0.0887  0.2109
  964SOL    HW114528   3.258   4.247   7.360  1.0817 -1.3603  1.1556
  964SOL    HW214529   3.260   4.218   7.223  1.9742  0.1756 -0.8589
  965SOL     OW14530   1.763   0.704   2.617  0.0725  0.0281 -0.0563
  965SOL    HW114531   1.681   0.692   2.569  0.1875 -1.1858  0.0346
  965SOL    HW214532   1.771   0.799   2.607 -1.1579 -0.0076 -1.3001
  966SOL     OW14533   3.673   1.157  15.422  0.3458 -0.6234  0.2257
  966SOL    HW114534   3.630   1.124  15.500 -1.1810 -1.5445 -0.9945
  966SOL    HW214535   3.673   1.251  15.443  1.5050 -0.1161 -2.0427
  967SOL     OW14536   1.773   3.713   4.601 -0.6949 -0.1109 -0.1546
  967SOL    HW114537   1.729   3.633   4.629  0.8093 -1.2162 -0.9538
  967SOL    HW214538   1.770   3.698   4.506  1.6241  2.7489 -0.6915
  968SOL     OW14539   4.663   0.571   5.156 -0.7824 -0.1461 -0.0048
  968SOL    HW114540   4.678   0.586   5.063 -0.1708  1.6836  0.3849
  968SOL    HW214541   4.623   0.484   5.156 -1.9389  0.3804  0.4215
  969SOL     OW14542   2.274   2.367   9.505  0.0335 -0.2757 -0.3538
  969SOL    HW114543   2.255   2.448   9.458 -0.9795 -1.3299 -1.7550
  969SOL    HW214544   2.354   2.391   9.553 -1.0594 -1.0308  1.8216
  970SOL     OW14545   1.355   4.025   4.182 -0.1322  0.5867  0.1510
  970SOL    HW114546   1.294   4.098   4.192  0.3534  0.6804  2.3573
  970SOL    HW214547   1.389   4.016   4.271 -3.4494 -1.8716  1.1659
  971SOL     OW14548   2.558   3.725  17.404  0.1074 -0.2853  0.3302
  971SOL    HW114549   2.526   3.814  17.418  0.2722 -0.3866  1.3800
  971SOL    HW214550   2.504   3.687  17.474 -2.5554  0.5613 -1.2755
  972SOL     OW14551   3.973   3.596  14.790 -0.2772 -0.0377 -0.1077
  972SOL    HW114552   3.995   3.689  14.792  0.0349 -0.1204  0.3320
  972SOL    HW214553   3.905   3.590  14.858  0.4720  1.9943  0.8336
  973SOL     OW14554   3.714   1.694   7.443 -0.0911  0.2706 -0.3078
  973SOL    HW114555   3.777   1.623   7.433 -1.8945 -1.3634 -0.1266
  973SOL    HW214556   3.670   1.692   7.358  0.6727 -2.0745 -0.6427
  974SOL     OW14557   3.075   0.662   7.084  0.2843  0.8281 -0.1754
  974SOL    HW114558   3.148   0.714   7.051 -0.7761  1.0981 -2.1340
  974SOL    HW214559   3.107   0.621   7.164  0.5454 -0.4073 -0.8960
  975SOL     OW14560   1.774   3.778   5.769  0.6402  0.6592  0.2001
  975SOL    HW114561   1.842   3.846   5.769  1.2591  0.0550  2.0323
  975SOL    HW214562   1.690   3.822   5.770  0.6721  0.7047  0.6858
  976SOL     OW14563   1.161   2.788  12.370  0.0707  0.1982  0.7176
  976SOL    HW114564   1.210   2.715  12.406 -1.3426 -1.1312 -0.0531
  976SOL    HW214565   1.146   2.832  12.454 -0.1321  0.9382  0.3005
  977SOL     OW14566   3.934   1.920   3.778 -0.8074 -0.3761  0.2526
  977SOL    HW114567   3.978   1.906   3.694 -0.3814  1.3021  0.2082
  977SOL    HW214568   4.009   1.931   3.836  0.3169 -1.1647 -1.0638
  978SOL     OW14569   2.032   2.926  10.130  0.1208  0.9235 -0.0940
  978SOL    HW114570   2.099   2.885  10.075  2.0728  0.2685  2.8163
  978SOL    HW214571   2.050   2.880  10.212  0.0721  0.3151 -0.4166
  979SOL     OW14572   1.941   0.253  10.218 -0.0950 -0.2255 -0.0179
  979SOL    HW114573   2.035   0.267  10.229  0.0684 -1.5562  0.2888
  979SOL    HW214574   1.923   0.197  10.294  1.4606 -0.5154  0.1343
  980SOL     OW14575   2.355   4.600   6.645 -0.2837  0.3437 -0.2104
  980SOL    HW114576   2.360   4.517   6.598 -0.6107  1.7948 -2.8119
  980SOL    HW214577   2.259   4.610   6.644 -0.2400  0.8497  1.3859
  981SOL     OW14578   1.898   2.872  17.279 -0.1219  0.7263 -0.2627
  981SOL    HW114579   1.987   2.898  17.302 -0.3360 -0.2429  1.7044
  981SOL    HW214580   1.869   2.823  17.356 -0.6042 -1.9412 -2.1534
  982SOL     OW14581   2.495   1.979   3.428  0.1133 -0.5625  0.1302
  982SOL    HW114582   2.542   1.969   3.511 -1.3379  0.4056  1.0544
  982SOL    HW214583   2.455   1.894   3.411 -0.2455  0.2612 -3.1276
  983SOL     OW14584   4.391   0.275  15.536  0.3175 -0.1732  0.2073
  983SOL    HW114585   4.387   0.267  15.632  0.5976  1.4071  0.3635
  983SOL    HW214586   4.300   0.251  15.522  0.1654  0.1598  0.6111
  984SOL     OW14587   3.872   0.862   4.521 -0.5071 -0.1797  0.0394
  984SOL    HW114588   3.919   0.819   4.450 -2.0464  2.1623 -2.4401
  984SOL    HW214589   3.821   0.924   4.468  0.5983  0.7125  0.0052
  985SOL     OW14590   3.552   3.356   2.871 -0.2125 -0.1338  0.2909
  985SOL    HW114591   3.591   3.392   2.950  2.6497 -1.6354 -0.4247
  985SOL    HW214592   3.459   3.363   2.895 -0.6322 -5.3445  0.2183
  986SOL     OW14593   2.290   3.526  13.924  0.5165  0.1679 -0.0952
  986SOL    HW114594   2.325   3.548  14.010  1.7523 -0.0748 -0.5317
  986SOL    HW214595   2.330   3.440  13.916  1.6567  0.7395 -0.5747
  987SOL     OW14596   4.453   0.141  11.321 -0.2880 -0.5050  0.1143
  987SOL    HW114597   4.479   0.115  11.410 -2.1122 -0.1344  0.7405
  987SOL    HW214598   4.521   0.088  11.279 -0.6271 -0.0634 -0.9655
  988SOL     OW14599   4.128   2.590  12.144  0.4447  0.3889 -0.3772
  988SOL    HW114600   4.213   2.561  12.112  0.2591  0.4652 -0.9432
  988SOL    HW214601   4.142   2.681  12.171 -0.7150  0.8878 -1.4769
  989SOL     OW14602   3.813   1.728  14.709 -0.6065  0.5415 -0.0078
  989SOL    HW114603   3.725   1.735  14.745 -0.1972  0.6710  0.9855
  989SOL    HW214604   3.853   1.802  14.754 -0.3562 -0.4864  1.4778
  990SOL     OW14605   3.121   0.897   7.300  0.2559  0.2561  0.0975
  990SOL    HW114606   3.127   0.823   7.360 -1.1125 -0.0158 -0.0908
  990SOL    HW214607   3.105   0.966   7.364 -3.6155 -0.2445 -0.3163
  991SOL     OW14608   2.146   2.611   7.659  0.2024  0.8921  0.1190
  991SOL    HW114609   2.204   2.677   7.698  0.2127  1.5418 -0.9841
  991SOL    HW214610   2.062   2.657   7.665 -0.2322  0.3033 -1.4160
  992SOL     OW14611   3.846   1.536   7.279 -0.0137  0.0832  0.0011
  992SOL    HW114612   3.848   1.603   7.212 -1.3783  1.1285  1.0035
  992SOL    HW214613   3.788   1.474   7.234 -1.0162  1.3429 -0.4273
  993SOL     OW14614   3.566   0.697   6.625 -0.2158 -0.4582  0.3240
  993SOL    HW114615   3.516   0.735   6.553 -0.6846  2.1698  2.0324
  993SOL    HW214616   3.608   0.621   6.584 -0.2112  0.1990 -0.9031
  994SOL     OW14617   2.897   2.114   4.873 -0.0972  0.1791 -0.0753
  994SOL    HW114618   2.811   2.093   4.836 -1.1083  2.0818  1.2573
  994SOL    HW214619   2.935   2.027   4.861 -1.3972 -0.3309 -0.5263
  995SOL     OW14620   2.739   2.656   9.102  0.2115 -0.8525  0.0855
  995SOL    HW114621   2.789   2.733   9.076 -0.5186 -0.6375 -0.6809
  995SOL    HW214622   2.767   2.620   9.186  0.6711 -1.3289 -0.2682
  996SOL     OW14623   3.701   0.484   2.645  0.1745  0.9051 -0.3059
  996SOL    HW114624   3.690   0.574   2.617  2.4325  1.4959  0.6801
  996SOL    HW214625   3.701   0.450   2.555 -0.7633  1.6415 -0.5758
  997SOL     OW14626   3.193   4.691   6.526 -0.2523  0.1721  0.1816
  997SOL    HW114627   3.171   0.006   6.448  0.7839 -0.8670 -0.8102
  997SOL    HW214628   3.217   0.024   6.585  0.2942  1.3959 -1.5050
  998SOL     OW14629   0.602   4.306   3.267  0.3761 -0.2973  0.3735
  998SOL    HW114630   0.579   4.223   3.307  0.5368 -1.1592 -1.3286
  998SOL    HW214631   0.687   4.283   3.229  1.5139  0.3428  2.5182
  999SOL     OW14632   3.439   4.707  13.365  0.2044 -0.2005  0.6539
  999SOL    HW114633   3.432   4.629  13.309  0.1356 -0.7926  1.4848
  999SOL    HW214634   3.362   4.695  13.420  0.4875 -0.9612  0.8811
 1000SOL     OW14635   2.248   4.736   7.052 -0.5859  0.2631 -0.1369
 1000SOL    HW114636   2.266   0.071   7.112 -0.2789 -1.4461  1.8660
 1000SOL    HW214637   2.302   0.035   6.982 -0.3594 -0.3378 -0.2838
 1001SOL     OW14638   2.490   2.441   8.520 -0.2683  0.3674  0.0483
 1001SOL    HW114639   2.552   2.428   8.592 -0.6126 -1.8924 -0.0643
 1001SOL    HW214640   2.503   2.535   8.506  0.8487  0.2902  0.5416
 1002SOL     OW14641   2.226   4.198   2.571 -0.2870  0.3940  0.7115
 1002SOL    HW114642   2.287   4.217   2.642 -0.1844 -0.7523  0.9214
 1002SOL    HW214643   2.274   4.118   2.549 -0.6443  0.1735  0.7538
 1003SOL     OW14644   0.599   4.118   6.736 -0.1841  0.2047 -0.0632
 1003SOL    HW114645   0.683   4.073   6.723  0.2604  0.6189  1.3525
 1003SOL    HW214646   0.530   4.054   6.719 -0.9103  0.5200  1.6586
 1004SOL     OW14647   1.980   1.713   7.236  0.2967  0.0151  0.2505
 1004SOL    HW114648   2.067   1.744   7.212  0.3244 -0.6949 -0.5536
 1004SOL    HW214649   1.923   1.770   7.183  0.7394 -1.0707 -1.3882
 1005SOL     OW14650   2.004   4.572   9.690 -0.2049  0.3383  0.7162
 1005SOL    HW114651   1.993   4.599   9.599  0.4302 -0.6637  0.3556
 1005SOL    HW214652   2.023   4.657   9.731  1.6110 -0.3700  1.3212
 1006SOL     OW14653   3.162   0.015   4.603 -0.5965 -0.0392 -0.6476
 1006SOL    HW114654   3.256   0.026   4.587 -0.9416  3.6661 -0.0862
 1006SOL    HW214655   3.124   0.069   4.533  0.3817  2.1425  0.5118
 1007SOL     OW14656   3.407   0.774   1.402 -0.7683  0.7555  0.3571
 1007SOL    HW114657   3.361   0.712   1.345 -0.0001  0.0113  0.5450
 1007SOL    HW214658   3.445   0.842   1.347  1.0153 -1.0738 -0.6671
 1008SOL     OW14659   0.701   1.401   9.457 -0.0489  0.7526 -0.2295
 1008SOL    HW114660   0.687   1.483   9.504  1.3893  1.2966 -0.7562
 1008SOL    HW214661   0.736   1.427   9.371 -0.1042  1.1266 -0.1392
 1009SOL     OW14662   0.472   3.660   6.311 -0.0875  0.0089 -0.3111
 1009SOL    HW114663   0.432   3.611   6.383  0.5260 -0.0133  0.0069
 1009SOL    HW214664   0.460   3.593   6.243 -0.5464  0.2017 -0.4235
 1010SOL     OW14665   1.664   0.452   8.317 -0.4202 -0.1702 -0.4458
 1010SOL    HW114666   1.599   0.449   8.387 -1.2167  1.0661 -1.1510
 1010SOL    HW214667   1.743   0.491   8.355 -1.1113  1.7618 -1.0206
 1011SOL     OW14668   3.219   4.272   7.731  0.3211  0.3014 -0.3212
 1011SOL    HW114669   3.176   4.243   7.812 -0.7563 -1.0175 -1.3753
 1011SOL    HW214670   3.214   4.368   7.735  2.9219  0.3912  1.0502
 1012SOL     OW14671   0.141   2.042  14.491 -0.3435 -0.2879 -0.2298
 1012SOL    HW114672   0.149   2.009  14.580  1.4960 -0.8575 -0.5997
 1012SOL    HW214673   0.115   2.134  14.498 -2.2042 -0.6567 -2.1959
 1013SOL     OW14674   3.703   2.735   3.031 -0.0145 -0.4577  0.7983
 1013SOL    HW114675   3.684   2.662   2.972  1.7303  0.3848 -0.8036
 1013SOL    HW214676   3.652   2.703   3.105 -1.6140  0.7638  0.2403
 1014SOL     OW14677   4.687   1.396   5.711 -0.1202 -0.1397 -0.2142
 1014SOL    HW114678   4.630   1.444   5.771  2.4369 -1.9198  3.5623
 1014SOL    HW214679   0.034   1.429   5.741 -1.0213  1.7034  0.3221
 1015SOL     OW14680   2.496   0.235  10.839  0.5814 -0.2425  0.8628
 1015SOL    HW114681   2.440   0.191  10.903  0.3537  0.1274  0.9152
 1015SOL    HW214682   2.507   0.323  10.874  1.2623  0.8823 -2.2484
 1016SOL     OW14683   3.890   4.435   5.613 -0.4678  0.4617  0.3670
 1016SOL    HW114684   3.867   4.342   5.607  1.8984 -0.1535  0.8733
 1016SOL    HW214685   3.984   4.424   5.603 -0.7926 -3.1406  1.5221
 1017SOL     OW14686   0.630   2.181   6.311  0.0133 -0.5904 -0.2569
 1017SOL    HW114687   0.688   2.201   6.237 -0.0112  2.3420  0.5051
 1017SOL    HW214688   0.610   2.265   6.353  1.4162 -0.5285  0.2896
 1018SOL     OW14689   2.730   2.483  16.173 -0.0131 -0.0350  0.4772
 1018SOL    HW114690   2.772   2.441  16.248 -0.8814 -0.3059  0.8193
 1018SOL    HW214691   2.658   2.421  16.158 -0.0708 -0.2762  1.7363
 1019SOL     OW14692   3.012   1.375   6.231 -0.0686 -0.0476  0.5450
 1019SOL    HW114693   2.932   1.343   6.273 -0.7439 -0.9303 -1.3889
 1019SOL    HW214694   3.069   1.369   6.307  1.1594  0.1705 -0.3660
 1020SOL     OW14695   2.165   1.747  13.728  0.2952 -0.2600 -0.2196
 1020SOL    HW114696   2.131   1.710  13.810 -1.7591  1.1066 -0.4542
 1020SOL    HW214697   2.124   1.834  13.729  0.8761  0.0264 -3.7498
 1021SOL     OW14698   0.994   3.899  12.646 -0.1422  0.0215  0.4167
 1021SOL    HW114699   0.996   3.993  12.666 -0.1809  0.3604 -1.1740
 1021SOL    HW214700   1.061   3.891  12.578 -0.0696 -1.5775  0.6827
 1022SOL     OW14701   0.526   0.972   1.684 -0.4189  0.3169  0.2025
 1022SOL    HW114702   0.600   0.965   1.746  0.6263 -2.6499 -1.3515
 1022SOL    HW214703   0.520   1.063   1.656 -0.4817 -0.2019 -1.4441
 1023SOL     OW14704   0.697   2.588  11.845 -0.1828 -0.2331 -0.0459
 1023SOL    HW114705   0.755   2.559  11.774  0.6468  2.4777 -0.4844
 1023SOL    HW214706   0.757   2.641  11.896 -1.7931  1.7337 -0.2071
 1024SOL     OW14707   0.090   3.293   5.464 -0.2671 -0.3335 -0.2499
 1024SOL    HW114708   0.078   3.239   5.386  1.1734 -0.0707 -0.6617
 1024SOL    HW214709   0.034   3.245   5.525 -0.1870  0.5414  0.5045
 1025SOL     OW14710   1.016   0.728  12.963  0.0710  0.1831  0.4993
 1025SOL    HW114711   1.058   0.698  12.882 -0.1739  3.4899 -0.8606
 1025SOL    HW214712   0.931   0.684  12.965  0.7381 -1.1040  0.4426
 1026SOL     OW14713   2.256   0.952   7.930  0.1046 -0.0717  0.6965
 1026SOL    HW114714   2.277   0.869   7.973  2.7310 -0.7444 -1.8600
 1026SOL    HW214715   2.341   0.995   7.945  0.1567  0.0055  0.1977
 1027SOL     OW14716   0.765   3.529   3.911  0.3002  0.1033  0.6014
 1027SOL    HW114717   0.683   3.507   3.954  0.1381  1.3550  0.9208
 1027SOL    HW214718   0.819   3.450   3.920 -2.4865 -1.9608 -0.6895
 1028SOL     OW14719   3.671   2.125  14.050 -0.5862  0.0423  0.5711
 1028SOL    HW114720   3.625   2.209  14.057  1.7637  1.6168 -2.6089
 1028SOL    HW214721   3.611   2.058  14.081 -0.3834  0.2863  1.4679
 1029SOL     OW14722   2.141   0.906   7.354 -0.0363 -0.1253 -0.1775
 1029SOL    HW114723   2.126   0.997   7.327  2.1269  0.4706  0.5763
 1029SOL    HW214724   2.235   0.889   7.362  0.4923  2.3208 -0.9714
 1030SOL     OW14725   3.668   1.315   2.355  0.7946 -0.7928  0.3475
 1030SOL    HW114726   3.600   1.382   2.353  3.2840  1.7765  2.3561
 1030SOL    HW214727   3.620   1.232   2.358  1.5448 -1.2354  0.0126
 1031SOL     OW14728   3.306   1.537   3.686  0.4249 -0.1056 -0.0444
 1031SOL    HW114729   3.326   1.443   3.686 -0.8020 -0.3717  0.3568
 1031SOL    HW214730   3.398   1.560   3.671  0.2681  0.3170 -0.3406
 1032SOL     OW14731   2.132   1.802   3.819 -0.4700 -0.2789 -0.2078
 1032SOL    HW114732   2.053   1.766   3.777  1.1930 -3.3085 -0.7769
 1032SOL    HW214733   2.168   1.724   3.862  1.0736 -0.6617 -2.2055
 1033SOL     OW14734   1.285   2.235   3.493  0.2962 -0.2384  0.0164
 1033SOL    HW114735   1.332   2.295   3.550 -1.7577  0.2144  1.2134
 1033SOL    HW214736   1.359   2.199   3.443  1.4015  0.2113  1.3286
 1034SOL     OW14737   1.516   0.663  12.587  0.5946 -0.1868 -0.2802
 1034SOL    HW114738   1.587   0.606  12.619 -1.4795 -2.8060 -0.3487
 1034SOL    HW214739   1.547   0.752  12.604  0.6950 -0.0389 -1.2213
 1035SOL     OW14740   2.118   2.809   7.114  0.5210  0.0267  0.1035
 1035SOL    HW114741   2.062   2.757   7.171 -1.8133  2.4012 -0.0047
 1035SOL    HW214742   2.091   2.778   7.027  1.5582  1.8351 -0.8634
 1036SOL     OW14743   2.007   3.457   4.063 -0.7974 -0.3429 -0.7222
 1036SOL    HW114744   1.998   3.502   3.979 -1.1504  1.5902  0.3414
 1036SOL    HW214745   1.943   3.386   4.065  1.0302 -1.9648 -0.3574
 1037SOL     OW14746   0.553   3.679   3.135  0.2443  0.0060 -0.1592
 1037SOL    HW114747   0.503   3.743   3.085  0.8164 -0.4726 -1.3408
 1037SOL    HW214748   0.524   3.696   3.225  1.2238 -0.0210  0.1673
 1038SOL     OW14749   4.440   0.987  10.350  0.1980  0.2632 -0.2293
 1038SOL    HW114750   4.445   0.908  10.297 -0.3189  0.5446 -0.6852
 1038SOL    HW214751   4.398   0.957  10.431  0.4083 -1.3664 -0.7269
 1039SOL     OW14752   1.802   1.474   6.628 -0.9059  0.3133  0.0396
 1039SOL    HW114753   1.817   1.413   6.700  1.6559 -0.2761 -0.9883
 1039SOL    HW214754   1.738   1.417   6.585  2.5792 -1.9355 -2.1704
 1040SOL     OW14755   0.004   1.974   3.624 -0.3850 -0.0556 -0.1678
 1040SOL    HW114756   4.698   2.058   3.606 -2.7832 -0.8156  2.0055
 1040SOL    HW214757   0.074   2.014   3.676 -0.6357  1.4891 -1.0055
 1041SOL     OW14758   4.605   1.124  16.945  0.1826  0.4865 -0.1414
 1041SOL    HW114759   4.643   1.047  16.903 -1.5738 -1.5531  1.8992
 1041SOL    HW214760   4.686   1.169  16.968 -0.4948  1.6683 -0.0677
 1042SOL     OW14761   4.444   4.483  11.309 -0.5588 -0.8644 -0.4198
 1042SOL    HW114762   4.354   4.450  11.309 -0.4401 -1.1861  0.1935
 1042SOL    HW214763   4.456   4.494  11.404  2.9101  2.3409 -1.2208
 1043SOL     OW14764   4.306   3.891   7.540 -0.0888  0.1483  0.0287
 1043SOL    HW114765   4.296   3.801   7.509  2.4595 -1.3211  3.5106
 1043SOL    HW214766   4.363   3.878   7.615 -0.7564  0.0637  0.5221
 1044SOL     OW14767   1.603   2.172   7.114 -0.6087  0.0050 -0.3557
 1044SOL    HW114768   1.696   2.194   7.118 -0.4326 -1.0455  1.1628
 1044SOL    HW214769   1.607   2.087   7.071 -0.6652 -0.0741 -0.2060
 1045SOL     OW14770   2.780   0.745   3.374 -0.3614  0.5364 -0.0585
 1045SOL    HW114771   2.823   0.825   3.344  1.1477 -0.5837 -0.8960
 1045SOL    HW214772   2.811   0.741   3.465  1.4152 -0.0198 -0.6819
 1046SOL     OW14773   1.551   3.116   8.973  0.0305  0.0929 -0.1265
 1046SOL    HW114774   1.525   3.181   9.038  2.0764  1.5342 -0.7489
 1046SOL    HW214775   1.536   3.162   8.891 -0.3396 -1.8896 -1.1700
 1047SOL     OW14776   0.603   0.599  16.706  0.1471 -0.2918  0.3949
 1047SOL    HW114777   0.586   0.506  16.689 -0.5043 -0.1087  0.0397
 1047SOL    HW214778   0.549   0.624  16.630  1.0804  2.0659  0.5194
 1048SOL     OW14779   3.218   4.632   8.897  0.0360 -0.2990  0.0602
 1048SOL    HW114780   3.270   4.713   8.897  0.2106 -0.4263  2.7773
 1048SOL    HW214781   3.151   4.657   8.832 -0.7378 -0.8357  0.6564
 1049SOL     OW14782   4.653   2.282  10.795 -0.8229 -0.1986 -0.6772
 1049SOL    HW114783   4.724   2.345  10.783 -1.8871  1.2010  0.4075
 1049SOL    HW214784   4.682   2.248  10.879 -1.5729  0.4309 -0.1677
 1050SOL     OW14785   2.266   1.953  11.112  0.5787 -0.0487  0.5562
 1050SOL    HW114786   2.239   1.864  11.093 -0.5198  0.1306  1.2697
 1050SOL    HW214787   2.357   1.940  11.082  0.9049 -0.0513  1.5550
 1051SOL     OW14788   2.072   3.954   8.360 -0.4942 -0.8402 -0.2682
 1051SOL    HW114789   2.064   3.969   8.454 -0.3264 -2.0553 -0.0513
 1051SOL    HW214790   2.096   3.861   8.355  3.5215  0.2188 -0.6217
 1052SOL     OW14791   2.288   3.010   7.252 -0.0792  0.1384 -0.6031
 1052SOL    HW114792   2.216   3.069   7.230  0.1998  0.3206 -1.0300
 1052SOL    HW214793   2.245   2.927   7.231 -0.7232 -0.0018  1.2992
 1053SOL     OW14794   3.918   0.728   7.603  0.5683 -0.3275 -0.3676
 1053SOL    HW114795   3.926   0.819   7.575 -1.1184  0.4409  1.6113
 1053SOL    HW214796   3.823   0.716   7.604  0.8085 -2.3387 -0.2300
 1054SOL     OW14797   0.032   1.925   5.716  0.5329  0.5925  0.3562
 1054SOL    HW114798   0.113   1.881   5.689 -0.6746 -0.9727 -0.6972
 1054SOL    HW214799   4.730   1.928   5.629 -0.7549 -2.7869  0.8180
 1055SOL     OW14800   0.326   0.934   8.109  0.0461 -0.1273  0.3949
 1055SOL    HW114801   0.346   0.971   8.195  0.3411  0.5036  0.0598
 1055SOL    HW214802   0.373   0.851   8.119  1.4775  0.7560  1.0286
 1056SOL     OW14803   3.961   4.289  13.998 -0.3631 -0.0244  0.3652
 1056SOL    HW114804   4.034   4.228  13.987  0.7718  1.4036 -0.0318
 1056SOL    HW214805   3.911   4.275  13.918 -1.1369  1.2701  0.6178
 1057SOL     OW14806   3.166   1.579   8.767 -0.0083  0.0617  0.1217
 1057SOL    HW114807   3.116   1.583   8.686 -1.9395 -1.9698  1.1878
 1057SOL    HW214808   3.252   1.593   8.726 -1.6514  1.6508 -2.7715
 1058SOL     OW14809   3.986   3.375   6.874 -0.1660 -0.6891 -0.2553
 1058SOL    HW114810   3.947   3.380   6.787 -0.6500  3.4480  0.1947
 1058SOL    HW214811   3.953   3.455   6.916  2.1913  0.0030  0.2832
 1059SOL     OW14812   3.649   2.216   5.163 -0.1762  0.0975 -0.3182
 1059SOL    HW114813   3.621   2.143   5.218  2.7765  0.2033  1.3458
 1059SOL    HW214814   3.741   2.227   5.188  0.2326  3.5410 -3.3927
 1060SOL     OW14815   1.336   4.004   8.949 -0.3189 -0.2754 -0.6041
 1060SOL    HW114816   1.398   3.979   8.880 -1.1222  0.5914 -1.6464
 1060SOL    HW214817   1.280   3.927   8.953  0.7809 -1.1285 -1.3659
 1061SOL     OW14818   1.958   1.344   9.482 -0.7750 -0.0861  0.1792
 1061SOL    HW114819   2.009   1.268   9.454 -0.6445 -0.2683  0.9220
 1061SOL    HW214820   1.909   1.359   9.401 -1.1262  0.0786  0.4194
 1062SOL     OW14821   2.264   2.903  11.134  0.1451  0.0065 -0.1420
 1062SOL    HW114822   2.240   2.817  11.168 -1.9158  1.5514  2.3449
 1062SOL    HW214823   2.227   2.910  11.046  0.1350 -1.0893 -0.2213
 1063SOL     OW14824   2.914   4.654   6.083  0.3343 -0.0794 -0.1427
 1063SOL    HW114825   2.912   4.639   5.989 -0.3810 -0.1369 -0.1201
 1063SOL    HW214826   2.848   4.723   6.091 -1.4880 -1.9534  1.2737
 1064SOL     OW14827   1.781   3.319   5.547  0.1535  0.0483  0.6840
 1064SOL    HW114828   1.873   3.293   5.544 -0.3564 -1.6880  0.1921
 1064SOL    HW214829   1.792   3.411   5.573 -0.4804  0.3421 -0.0874
 1065SOL     OW14830   0.856   1.762   8.965  0.1377 -0.7935  0.2282
 1065SOL    HW114831   0.785   1.697   8.961 -1.7586  1.1520  2.1842
 1065SOL    HW214832   0.898   1.748   8.880 -1.1807 -1.7637 -0.2818
 1066SOL     OW14833   3.630   4.506   2.276 -0.1006 -0.8178 -0.4882
 1066SOL    HW114834   3.718   4.482   2.305 -0.0439 -1.0283 -0.8327
 1066SOL    HW214835   3.618   4.469   2.188 -0.6736  0.5286 -0.9849
 1067SOL     OW14836   3.433   4.358   6.146 -0.7475 -0.0762  0.5535
 1067SOL    HW114837   3.399   4.444   6.171 -0.2423  0.1417  0.4798
 1067SOL    HW214838   3.453   4.335   6.237 -2.5082  1.8944  1.4391
 1068SOL     OW14839   4.728   3.071   6.697  0.0974  0.5993  0.4450
 1068SOL    HW114840   0.084   3.088   6.706  0.0778  1.5575 -1.0968
 1068SOL    HW214841   4.710   3.034   6.783  0.8198  1.4249  0.9565
 1069SOL     OW14842   4.182   3.681   6.382 -0.5507  0.3563  0.0737
 1069SOL    HW114843   4.097   3.637   6.377  0.2898 -1.4892  1.8931
 1069SOL    HW214844   4.166   3.759   6.329 -1.0408 -0.0600 -0.4005
 1070SOL     OW14845   4.598   4.694   6.436  0.0365  0.0985 -0.2642
 1070SOL    HW114846   4.666   0.011   6.394 -1.1281  1.7931  0.0416
 1070SOL    HW214847   4.658   4.670   6.507  0.4864  0.2763 -0.5794
 1071SOL     OW14848   3.199   1.072  16.387  0.3712 -0.3836  0.2307
 1071SOL    HW114849   3.225   1.088  16.296 -1.0150 -2.5367 -0.5575
 1071SOL    HW214850   3.126   1.012  16.370 -1.3681  1.3377  1.6726
 1072SOL     OW14851   4.354   2.641  10.789  0.5950  0.9430 -0.1447
 1072SOL    HW114852   4.407   2.615  10.864 -2.9557 -1.1474  1.6050
 1072SOL    HW214853   4.384   2.567  10.736  0.7552  0.6261  0.3992
 1073SOL     OW14854   3.134   4.303  10.502  0.6276  0.2271 -0.3461
 1073SOL    HW114855   3.082   4.241  10.552  0.5937  0.9046  0.4692
 1073SOL    HW214856   3.179   4.244  10.442  0.1043  0.6119 -1.1032
 1074SOL     OW14857   3.363   4.422   8.810  0.1655 -0.0274 -0.0069
 1074SOL    HW114858   3.327   4.505   8.844 -0.8485 -1.2088  1.7765
 1074SOL    HW214859   3.301   4.358   8.843 -0.0424 -0.0413 -0.4240
 1075SOL     OW14860   1.645   0.646  13.300  0.0269 -0.3748  0.5606
 1075SOL    HW114861   1.591   0.670  13.376 -0.7013 -1.0059  0.2457
 1075SOL    HW214862   1.603   0.695  13.230  2.3428  1.0904  0.2239
 1076SOL     OW14863   0.480   3.398  14.016  0.3036  0.3623 -0.1066
 1076SOL    HW114864   0.409   3.382  14.077 -1.3548  0.0510 -2.1245
 1076SOL    HW214865   0.476   3.493  14.006 -0.4476  0.4533  1.0656
 1077SOL     OW14866   3.837   0.187  14.954  0.2857 -0.9137 -0.3152
 1077SOL    HW114867   3.757   0.152  14.994 -0.2230  1.4402  0.7006
 1077SOL    HW214868   3.822   0.269  15.000 -0.5312 -1.6296  0.6941
 1078SOL     OW14869   3.400   2.602   4.367 -0.2250  0.0022  0.7547
 1078SOL    HW114870   3.449   2.616   4.286  1.0179  2.9180  1.9877
 1078SOL    HW214871   3.425   2.512   4.387  1.1557  0.1656 -0.2576
 1079SOL     OW14872   2.849   0.497   6.436  0.0480 -0.1533 -0.7366
 1079SOL    HW114873   2.764   0.525   6.402 -1.4085 -3.9288 -0.1760
 1079SOL    HW214874   2.896   0.579   6.453 -0.6254  0.5006 -2.0112
 1080SOL     OW14875   0.083   1.936  13.578  0.1780  0.1204 -0.0711
 1080SOL    HW114876   0.000   1.976  13.550  0.5007 -0.5914 -2.0542
 1080SOL    HW214877   0.044   1.868  13.634 -0.1575  1.7668  1.7090
 1081SOL     OW14878   4.632   1.976   4.300  0.4469  0.5693 -0.3738
 1081SOL    HW114879   4.691   2.020   4.361  0.9284 -0.1876 -0.2926
 1081SOL    HW214880   4.696   1.908   4.281  3.1762  2.7873  0.9150
 1082SOL     OW14881   0.709   0.667  11.871 -0.3961  0.3894  0.0543
 1082SOL    HW114882   0.682   0.646  11.960 -0.9646  1.7203  0.2066
 1082SOL    HW214883   0.799   0.640  11.890 -0.1385  1.4065  0.3026
 1083SOL     OW14884   0.551   1.558   0.865  0.4544  0.0777  0.1664
 1083SOL    HW114885   0.510   1.527   0.785  0.1706 -0.3853  0.4955
 1083SOL    HW214886   0.493   1.519   0.930  0.3669  1.0863  0.6932
 1084SOL     OW14887   3.495   3.797   8.084  0.0144 -0.3813 -0.3089
 1084SOL    HW114888   3.422   3.812   8.143  0.2404 -2.1899  0.4265
 1084SOL    HW214889   3.456   3.839   8.008 -0.2963 -1.6405 -0.8355
 1085SOL     OW14890   0.156   1.528   7.541 -0.1166 -0.1587 -0.1923
 1085SOL    HW114891   0.212   1.515   7.617 -0.1225 -0.2622 -0.2058
 1085SOL    HW214892   0.221   1.494   7.479 -1.7215  1.7672 -2.9745
 1086SOL     OW14893   3.473   1.509   7.161  0.5074 -0.2915  0.3429
 1086SOL    HW114894   3.560   1.469   7.160  0.1387 -1.1204  1.1015
 1086SOL    HW214895   3.415   1.433   7.157  0.2427 -0.1228  1.0378
 1087SOL     OW14896   2.734   1.129   2.108  0.2067 -0.5217 -0.0071
 1087SOL    HW114897   2.704   1.063   2.045 -0.4714  0.4042 -0.6403
 1087SOL    HW214898   2.825   1.128   2.080 -0.5810  0.0318 -2.5572
 1088SOL     OW14899   3.353   2.889   3.110 -0.5105 -0.0691  0.3593
 1088SOL    HW114900   3.427   2.841   3.146 -0.0186  1.3787  1.2657
 1088SOL    HW214901   3.328   2.944   3.184 -0.5901 -1.2508  1.2084
 1089SOL     OW14902   1.155   1.055   6.778 -0.3787 -0.5029 -0.0535
 1089SOL    HW114903   1.243   1.045   6.742 -1.0283 -1.2548 -1.4584
 1089SOL    HW214904   1.177   1.120   6.845  2.8699 -1.4875 -0.1674
 1090SOL     OW14905   3.732   0.232   1.581  0.0312 -0.5487 -0.6957
 1090SOL    HW114906   3.686   0.174   1.642  0.0917 -0.9519 -1.0304
 1090SOL    HW214907   3.663   0.233   1.514  1.1439 -0.8395 -1.8439
 1091SOL     OW14908   0.605   3.445   6.932 -0.4811  0.1114  0.1114
 1091SOL    HW114909   0.633   3.463   7.022  0.0274 -0.3494  0.0514
 1091SOL    HW214910   0.555   3.525   6.920 -2.8676 -1.3864 -0.0137
 1092SOL     OW14911   3.901   0.659   6.768  0.1015 -0.2209 -0.1825
 1092SOL    HW114912   3.811   0.650   6.799 -0.0410  0.6990 -0.3292
 1092SOL    HW214913   3.886   0.713   6.691  1.6431 -0.5427 -0.7012
 1093SOL     OW14914   0.116   1.538   4.701 -0.4564  0.1500  0.3875
 1093SOL    HW114915   0.031   1.530   4.659 -0.9948  2.6137  1.0392
 1093SOL    HW214916   0.142   1.629   4.696  0.6057 -0.0796  1.7271
 1094SOL     OW14917   2.925   0.756   2.425 -0.1057 -0.2742 -0.4465
 1094SOL    HW114918   2.958   0.839   2.393 -1.1933  0.6519  0.8245
 1094SOL    HW214919   2.863   0.738   2.354 -0.0366  1.5008 -0.9594
 1095SOL     OW14920   1.423   1.470  17.429 -0.2803 -0.5031 -0.1629
 1095SOL    HW114921   1.408   1.389  17.379  0.1600 -0.4228 -0.4321
 1095SOL    HW214922   1.516   1.451  17.440 -0.1902  0.1130  0.1409
 1096SOL     OW14923   0.502   0.829   0.559  0.1777  0.2320  0.1190
 1096SOL    HW114924   0.494   0.735   0.571  0.9675  0.2896  1.1238
 1096SOL    HW214925   0.581   0.831   0.506 -1.1929  0.7326 -1.8790
 1097SOL     OW14926   1.068   1.272   6.540 -0.4035 -0.0591 -0.2307
 1097SOL    HW114927   0.978   1.247   6.559  0.0788 -1.7840 -0.2893
 1097SOL    HW214928   1.088   1.320   6.621 -2.4645 -1.9842  1.3999
 1098SOL     OW14929   2.853   0.490   4.018  0.0944 -0.3371  0.0462
 1098SOL    HW114930   2.851   0.570   4.071 -0.0712  0.5740 -1.3533
 1098SOL    HW214931   2.759   0.495   3.999  0.2970  1.8741 -0.3103
 1099SOL     OW14932   1.550   3.054   8.224  0.3111 -0.1910  0.2325
 1099SOL    HW114933   1.481   3.002   8.267  0.1308  0.4151  0.6745
 1099SOL    HW214934   1.561   3.010   8.140  0.1374 -1.5890  0.9299
 1100SOL     OW14935   4.216   3.866  15.946  0.0477 -0.2317  0.3927
 1100SOL    HW114936   4.142   3.806  15.934  0.9280 -1.6506  2.0695
 1100SOL    HW214937   4.245   3.858  16.037 -0.1505  0.0130  0.4802
 1101SOL     OW14938   1.245   0.517  16.334 -0.1626  0.0175 -0.8983
 1101SOL    HW114939   1.265   0.531  16.427 -0.8810 -1.8123 -0.4732
 1101SOL    HW214940   1.297   0.440  16.309 -1.0930 -1.5545  2.0930
 1102SOL     OW14941   1.384   2.000   7.634 -0.4560 -0.4536  0.2733
 1102SOL    HW114942   1.428   2.046   7.706 -1.7896 -0.1971  0.9357
 1102SOL    HW214943   1.292   2.009   7.658 -0.5241 -0.4632  0.0102
 1103SOL     OW14944   2.902   3.013  10.713  0.4354 -0.0641  0.2494
 1103SOL    HW114945   2.952   3.095  10.716 -1.5868  1.1717  0.2757
 1103SOL    HW214946   2.813   3.031  10.745  1.7305  1.6727  2.7940
 1104SOL     OW14947   4.301   0.620   7.650 -0.2237  0.2098 -0.5253
 1104SOL    HW114948   4.330   0.550   7.709  2.2675  2.3842  0.8172
 1104SOL    HW214949   4.260   0.683   7.709 -0.2518 -1.2456  1.0072
 1105SOL     OW14950   3.997   1.454   3.161 -0.4406  0.3867 -0.2148
 1105SOL    HW114951   3.927   1.463   3.096 -3.8693  4.4030  4.0893
 1105SOL    HW214952   3.987   1.359   3.163 -1.0262  0.4101 -1.7650
 1106SOL     OW14953   3.068   4.279   6.049 -0.2110 -0.2073  0.2375
 1106SOL    HW114954   2.996   4.316   6.099 -0.2218 -1.0026  0.8097
 1106SOL    HW214955   3.052   4.184   6.044 -0.3889 -0.0671 -2.1174
 1107SOL     OW14956   2.683   2.264   6.347 -0.5335 -0.3234  0.0280
 1107SOL    HW114957   2.648   2.230   6.430  1.8517  1.8876  1.9427
 1107SOL    HW214958   2.606   2.319   6.331 -2.4790 -2.1617  3.1301
 1108SOL     OW14959   1.988   1.562   2.693 -0.3041 -0.3579  0.3308
 1108SOL    HW114960   1.989   1.641   2.640  0.4864  1.4445  3.0279
 1108SOL    HW214961   1.944   1.502   2.633 -0.1794  0.2215 -0.3430
 1109SOL     OW14962   3.061   0.429   3.165 -0.1158  0.0883 -0.3462
 1109SOL    HW114963   3.152   0.459   3.169 -0.2605  0.1116  2.7310
 1109SOL    HW214964   3.052   0.391   3.252 -0.3829  0.9486 -0.0001
 1110SOL     OW14965   3.258   1.046  13.068  0.2651 -0.2961  0.4082
 1110SOL    HW114966   3.314   1.001  13.004  0.2648  0.8195 -0.3911
 1110SOL    HW214967   3.306   1.128  13.079 -1.9017  0.6131  2.8725
 1111SOL     OW14968   3.131   1.106  16.790  0.3333  0.2774 -0.2411
 1111SOL    HW114969   3.155   1.017  16.763 -1.9153 -0.0298 -1.1546
 1111SOL    HW214970   3.209   1.139  16.744  0.1360 -0.1923 -0.8986
 1112SOL     OW14971   0.655   1.308   3.617 -0.2036 -0.2994 -0.4450
 1112SOL    HW114972   0.685   1.308   3.527  3.0599 -0.3180  0.6494
 1112SOL    HW214973   0.578   1.365   3.619 -1.4923 -1.9897 -1.8169
 1113SOL     OW14974   4.526   4.446   1.768  0.9934  0.0292  0.7738
 1113SOL    HW114975   4.520   4.359   1.807 -2.3514  0.9234  2.2378
 1113SOL    HW214976   4.451   4.445   1.709  1.4558  0.8798  0.1696
 1114SOL     OW14977   3.097   1.520   4.694  0.1627 -0.2470 -0.1125
 1114SOL    HW114978   3.064   1.589   4.637  0.0918 -1.4854 -1.5975
 1114SOL    HW214979   3.098   1.570   4.775  0.9056  1.0802 -0.9476
 1115SOL     OW14980   1.717   1.893   2.917  0.3089 -0.5536  0.0785
 1115SOL    HW114981   1.653   1.962   2.935  0.5956 -0.3025  0.1271
 1115SOL    HW214982   1.753   1.889   3.005 -1.6119  0.6292  0.9291
 1116SOL     OW14983   0.558   3.533   8.255 -0.1644  0.1781  0.3063
 1116SOL    HW114984   0.478   3.574   8.221 -1.3810 -1.7885  0.7573
 1116SOL    HW214985   0.623   3.571   8.197 -1.4252  1.2625 -0.4092
 1117SOL     OW14986   3.743   0.069   3.673 -0.2066 -0.5102  0.1986
 1117SOL    HW114987   3.654   0.051   3.703  0.2706 -1.7993  0.8559
 1117SOL    HW214988   3.786   4.731   3.712  0.3642 -1.6927 -2.7241
 1118SOL     OW14989   2.816   3.226   7.565  0.5763  0.3038  0.0607
 1118SOL    HW114990   2.907   3.240   7.595  0.9287  1.8515 -1.7612
 1118SOL    HW214991   2.781   3.311   7.594  0.8705  0.8667 -1.2292
 1119SOL     OW14992   0.773   0.981   2.617  0.1083  0.0317 -0.2420
 1119SOL    HW114993   0.805   0.964   2.528 -2.4669  1.0470 -1.3847
 1119SOL    HW214994   0.811   0.907   2.663 -1.0036  0.4292  1.3012
 1120SOL     OW14995   0.341   2.988   9.368  0.2385  0.5930 -0.1955
 1120SOL    HW114996   0.291   2.931   9.426 -2.0390  0.9907 -1.7601
 1120SOL    HW214997   0.404   3.019   9.433  1.2182  1.6444 -1.6331
 1121SOL     OW14998   1.077   3.161  11.957 -0.5137  0.0789  0.1793
 1121SOL    HW114999   1.095   3.139  12.049 -1.3324 -2.1316 -0.1963
 1121SOL    HW215000   1.020   3.087  11.939  1.5529 -1.0800 -1.5172
 1122SOL     OW15001   2.618   4.401   4.113  0.5141 -0.3877  0.3574
 1122SOL    HW115002   2.689   4.460   4.088  2.2215 -1.4445  2.7178
 1122SOL    HW215003   2.595   4.360   4.030  0.8073  1.5964 -0.6947
 1123SOL     OW15004   1.825   3.933  15.077 -0.2698 -0.2108 -0.3253
 1123SOL    HW115005   1.773   4.010  15.053 -0.0408  0.9567  2.8691
 1123SOL    HW215006   1.764   3.906  15.146 -1.6013  0.6324 -1.1662
 1124SOL     OW15007   3.478   2.686  15.613 -0.1107 -0.9420 -1.0460
 1124SOL    HW115008   3.398   2.666  15.564 -2.0190  3.4075  0.3071
 1124SOL    HW215009   3.463   2.780  15.618 -1.2033 -1.0460 -2.3395
 1125SOL     OW15010   2.125   4.026  14.947 -0.1745 -0.5493  0.1814
 1125SOL    HW115011   2.093   4.102  14.996  1.7605 -0.0459  0.6961
 1125SOL    HW215012   2.215   4.015  14.977 -0.0389  2.1813  0.7402
 1126SOL     OW15013   1.293   0.169  10.521 -0.0429  0.2694 -0.0365
 1126SOL    HW115014   1.286   0.174  10.425  1.5304 -1.1599 -0.2307
 1126SOL    HW215015   1.272   0.254  10.558  1.9421  1.7740 -2.3275
 1127SOL     OW15016   3.541   3.525   0.846 -0.4892 -0.3518  0.8016
 1127SOL    HW115017   3.459   3.565   0.875 -0.7527 -0.5227  0.2864
 1127SOL    HW215018   3.512   3.441   0.813 -1.6679 -0.4126  1.9815
 1128SOL     OW15019   4.668   3.353   0.833  0.2241 -0.0350  0.6539
 1128SOL    HW115020   4.633   3.343   0.922 -1.7109 -3.2378 -0.4374
 1128SOL    HW215021   0.018   3.315   0.841  0.4194  0.1400 -0.5915
 1129SOL     OW15022   0.195   2.584   3.197 -0.3446  0.0443 -0.3396
 1129SOL    HW115023   0.221   2.633   3.119 -1.6139  0.8963 -0.2170
 1129SOL    HW215024   0.283   2.548   3.210 -0.3951  0.1072  0.1874
 1130SOL     OW15025   3.328   0.980   4.191  0.3645  0.5551  0.2342
 1130SOL    HW115026   3.289   1.061   4.156  2.0231  1.3858  0.3436
 1130SOL    HW215027   3.244   0.935   4.201 -1.1648  3.3671  0.0488
 1131SOL     OW15028   2.310   1.998   2.320  0.2183 -0.0764 -0.2908
 1131SOL    HW115029   2.322   1.983   2.226  0.9205  2.3240 -0.5862
 1131SOL    HW215030   2.233   2.055   2.313  1.6492  1.9258 -0.0224
 1132SOL     OW15031   2.283   4.644   3.416  0.8015 -0.3415 -0.0256
 1132SOL    HW115032   2.283   4.721   3.359 -1.5201  0.3790  0.9335
 1132SOL    HW215033   2.354   4.597   3.372  2.5476  2.3263 -0.0830
 1133SOL     OW15034   1.484   4.541   3.642 -0.2946  0.4545 -1.0352
 1133SOL    HW115035   1.548   4.604   3.609 -0.0562  0.3871 -0.7001
 1133SOL    HW215036   1.410   4.600   3.659  0.1753  1.5235 -2.6470
 1134SOL     OW15037   3.580   3.122   7.016  0.0694  0.1482 -0.1975
 1134SOL    HW115038   3.668   3.161   7.014 -0.2650  0.8606 -1.4608
 1134SOL    HW215039   3.544   3.179   7.084 -0.3862  2.3852 -2.2986
 1135SOL     OW15040   4.337   3.732   4.207 -0.2165 -0.5269  0.8344
 1135SOL    HW115041   4.257   3.682   4.225 -1.8971  1.6680 -0.5935
 1135SOL    HW215042   4.305   3.818   4.233  1.4847 -0.2943  2.1698
 1136SOL     OW15043   1.666   0.416   5.644 -0.3210  0.1950  0.2107
 1136SOL    HW115044   1.685   0.410   5.738 -0.5647  2.2471  0.4085
 1136SOL    HW215045   1.707   0.337   5.612 -0.1148  0.8912 -1.2152
 1137SOL     OW15046   2.051   0.580   8.110  0.1808  0.2359  0.1568
 1137SOL    HW115047   1.981   0.531   8.065  1.7565 -0.8655 -1.0814
 1137SOL    HW215048   1.994   0.651   8.139 -0.9007  0.9671 -3.7367
 1138SOL     OW15049   3.506   0.829  13.093  0.0570  0.0232  0.3810
 1138SOL    HW115050   3.469   0.854  13.008 -0.6708  1.9910  1.2867
 1138SOL    HW215051   3.520   0.735  13.081  0.3574  0.4293 -2.3075
 1139SOL     OW15052   0.273   4.444   5.523 -0.2491 -0.1598  0.1356
 1139SOL    HW115053   0.317   4.433   5.607  0.4375  0.1371 -0.1914
 1139SOL    HW215054   0.208   4.513   5.532  1.8612  2.0213 -1.3305
 1140SOL     OW15055   4.116   0.416  10.305  0.5937 -0.0840  0.1058
 1140SOL    HW115056   4.210   0.428  10.296  1.1405 -2.1788  2.9771
 1140SOL    HW215057   4.082   0.380  10.223 -1.2389  1.9183  0.0036
 1141SOL     OW15058   3.295   1.088   2.091  0.0703 -0.3937  0.1924
 1141SOL    HW115059   3.300   1.074   2.185 -2.5864 -1.5283  0.1919
 1141SOL    HW215060   3.361   1.032   2.051  0.9795  0.4646  0.4930
 1142SOL     OW15061   1.433   2.832   1.133  0.0524  0.3061  0.0238
 1142SOL    HW115062   1.358   2.795   1.086 -0.3157  1.3899 -0.2387
 1142SOL    HW215063   1.394   2.908   1.176  0.7159  1.4332 -1.3784
 1143SOL     OW15064   1.910   0.147   4.785 -0.3017 -0.5732  0.0372
 1143SOL    HW115065   1.996   0.120   4.754  0.5992  0.4174  1.6617
 1143SOL    HW215066   1.923   0.221   4.845  0.4409 -0.1932 -0.5897
 1144SOL     OW15067   4.335   4.734   2.176 -0.8486  0.1879 -0.0035
 1144SOL    HW115068   4.290   4.660   2.136  0.3966 -0.1485 -0.7694
 1144SOL    HW215069   4.265   0.062   2.176 -1.3376 -0.3557  2.7157
 1145SOL     OW15070   0.166   3.439   8.844 -0.2475  0.1466  0.3824
 1145SOL    HW115071   0.203   3.350   8.848 -2.8561 -0.9556 -0.0949
 1145SOL    HW215072   0.185   3.472   8.931  1.3230  0.6845 -0.1544
 1146SOL     OW15073   0.194   0.030   2.360 -0.0870  0.3564 -0.2960
 1146SOL    HW115074   0.268   0.025   2.300  1.0617  0.7076  1.0835
 1146SOL    HW215075   0.246   0.036   2.440  0.4351  0.7264 -0.6622
 1147SOL     OW15076   3.735   4.379  13.087 -0.7647  0.1081  0.0493
 1147SOL    HW115077   3.746   4.382  13.182 -1.5066  1.4536  0.0809
 1147SOL    HW215078   3.654   4.327  13.084 -1.0021  0.3760  1.6625
 1148SOL     OW15079   1.207   4.279   8.196 -0.2114  0.1078  0.4261
 1148SOL    HW115080   1.292   4.295   8.235 -0.5379 -0.0475  1.1970
 1148SOL    HW215081   1.211   4.332   8.117  0.2879 -1.1203 -0.3729
 1149SOL     OW15082   3.989   2.746   4.643 -0.4751  0.0738 -0.5936
 1149SOL    HW115083   3.995   2.826   4.590 -2.0430 -0.2194 -1.2025
 1149SOL    HW215084   4.018   2.783   4.726 -0.4484 -1.7525  0.2036
 1150SOL     OW15085   2.753   1.653   4.943 -0.4878 -0.2406  0.3876
 1150SOL    HW115086   2.684   1.607   4.896  0.8512 -1.1971 -0.6682
 1150SOL    HW215087   2.704   1.714   4.998 -0.9573  0.3571 -0.6885
 1151SOL     OW15088   1.706   2.973   9.684  0.3328 -0.0127  0.2992
 1151SOL    HW115089   1.754   2.949   9.604 -1.1798  1.4326 -1.0484
 1151SOL    HW215090   1.619   2.943   9.656  0.2305  0.4113  0.1638
 1152SOL     OW15091   0.675   4.675   9.765  0.0446  0.4416 -0.0673
 1152SOL    HW115092   0.701   4.681   9.673  1.6282 -1.2022  0.2926
 1152SOL    HW215093   0.626   0.017   9.786  0.2307  0.7054 -0.6396
 1153SOL     OW15094   0.599   2.601   7.418  0.7217  0.1626 -0.0292
 1153SOL    HW115095   0.649   2.649   7.352  0.2085  0.4727 -0.1888
 1153SOL    HW215096   0.619   2.650   7.497 -0.1023 -2.9668  2.1252
 1154SOL     OW15097   2.716   4.238  15.445 -0.1406  0.2150  0.1265
 1154SOL    HW115098   2.694   4.170  15.508  3.1019  0.4694  1.5451
 1154SOL    HW215099   2.793   4.191  15.412 -0.0245  2.4019 -2.7345
 1155SOL     OW15100   1.445   1.155   4.145  0.6859  0.2706  0.0394
 1155SOL    HW115101   1.535   1.187   4.142  1.1550 -1.1165 -0.9439
 1155SOL    HW215102   1.399   1.235   4.117  0.8595  0.0044 -1.0055
 1156SOL     OW15103   2.321   1.799   8.475  0.3094  0.2957 -0.2230
 1156SOL    HW115104   2.354   1.764   8.558  0.8148 -0.2326 -0.6476
 1156SOL    HW215105   2.228   1.818   8.489  0.1405  0.2695 -1.2630
 1157SOL     OW15106   1.376   3.283   6.284  0.6325 -0.5546  0.4474
 1157SOL    HW115107   1.310   3.260   6.350 -0.3519 -2.5320 -1.2567
 1157SOL    HW215108   1.327   3.338   6.223 -0.3765  0.3068  2.0110
 1158SOL     OW15109   1.929   0.720   5.967  0.6430 -0.2614 -0.0867
 1158SOL    HW115110   1.913   0.805   6.007  0.0232 -0.8101  0.8419
 1158SOL    HW215111   1.865   0.714   5.896  1.0307  0.9938 -0.5340
 1159SOL     OW15112   1.253   4.599  12.783 -0.6179 -0.3128 -0.3521
 1159SOL    HW115113   1.298   4.648  12.714 -0.0119  1.5282  1.3531
 1159SOL    HW215114   1.306   4.618  12.860 -0.6855 -0.1317 -0.3502
 1160SOL     OW15115   1.117   4.306   0.912  0.7908 -0.3249  0.6010
 1160SOL    HW115116   1.038   4.344   0.951  0.7979  0.8695 -0.5632
 1160SOL    HW215117   1.142   4.372   0.848 -0.6202  0.6690  1.0757
 1161SOL     OW15118   4.730   4.612  17.740 -0.4472  0.5177 -0.6627
 1161SOL    HW115119   4.689   4.698  17.738 -1.1981  0.1915  0.5471
 1161SOL    HW215120   4.669   4.568   0.050 -0.4241  0.4244 -0.7070
 1162SOL     OW15121   2.646   4.645  15.183  0.6244  0.1717 -0.3465
 1162SOL    HW115122   2.618   4.625  15.094  1.2871  0.9472 -0.7184
 1162SOL    HW215123   2.633   4.561  15.227  0.3333 -1.1000 -2.8607
 1163SOL     OW15124   3.137   2.849  14.994  0.2571  0.0402 -0.3342
 1163SOL    HW115125   3.095   2.871  15.077  1.0415 -0.5414  0.2124
 1163SOL    HW215126   3.076   2.871  14.923 -0.5155 -0.2924  0.2386
 1164SOL     OW15127   2.672   1.926   3.637 -0.4752  0.0736  0.1004
 1164SOL    HW115128   2.619   1.944   3.715 -0.3429 -0.6856  0.3650
 1164SOL    HW215129   2.757   1.912   3.680  1.1680 -1.7435 -3.7838
 1165SOL     OW15130   1.307   2.652   8.724 -0.1407 -0.0348 -0.0551
 1165SOL    HW115131   1.296   2.722   8.788 -0.3841 -0.4062  0.3090
 1165SOL    HW215132   1.374   2.599   8.769 -1.6253 -2.1746 -0.3625
 1166SOL     OW15133   1.806   4.538   6.885  0.5094  0.7411 -0.3059
 1166SOL    HW115134   1.847   4.600   6.944  0.6662  1.7466 -1.4807
 1166SOL    HW215135   1.883   4.495   6.847 -0.7739 -1.0272 -0.9484
 1167SOL     OW15136   3.850   1.011   6.319 -0.2846  0.4588  0.0507
 1167SOL    HW115137   3.880   0.962   6.243  0.8808  1.7358 -0.3263
 1167SOL    HW215138   3.777   1.059   6.279 -1.8283 -1.1101  0.9554
 1168SOL     OW15139   4.391   3.172  16.893  0.2436  0.4477  0.1024
 1168SOL    HW115140   4.427   3.157  16.981  0.9233 -0.0967 -0.2687
 1168SOL    HW215141   4.303   3.199  16.919 -0.2750 -1.7421  0.6267
 1169SOL     OW15142   4.624   3.642  12.486  0.2751 -0.3193  0.2364
 1169SOL    HW115143   4.537   3.609  12.507 -0.4437  0.7291 -1.1017
 1169SOL    HW215144   4.609   3.735  12.503 -2.6064 -0.9660  1.2349
 1170SOL     OW15145   2.641   0.991  11.198  0.2208  0.2656 -0.6823
 1170SOL    HW115146   2.678   0.927  11.138  0.1210 -0.2050 -0.2455
 1170SOL    HW215147   2.708   1.059  11.192  1.3531 -0.6921  1.0381
 1171SOL     OW15148   4.190   0.541   8.896  0.5579 -0.0619 -0.2684
 1171SOL    HW115149   4.258   0.553   8.829  1.9433  1.1712  1.3318
 1171SOL    HW215150   4.226   0.457   8.924  0.2967  0.3316  1.2295
 1172SOL     OW15151   4.358   2.252   2.792  0.1938  0.1405 -0.1124
 1172SOL    HW115152   4.414   2.285   2.862  1.8677  2.6354 -2.6052
 1172SOL    HW215153   4.310   2.321   2.746 -0.7556  0.1277  0.8743
 1173SOL     OW15154   1.067   0.029  14.604 -0.2463 -0.2341  0.4478
 1173SOL    HW115155   1.142   0.036  14.545  0.5841  0.1765  1.5260
 1173SOL    HW215156   1.008   0.047  14.531 -0.8770  1.2319  1.3249
 1174SOL     OW15157   0.833   3.538   4.211  0.4572  0.2808  0.6425
 1174SOL    HW115158   0.903   3.535   4.146 -1.3341 -1.2294 -1.1826
 1174SOL    HW215159   0.754   3.503   4.171 -0.0116  1.8056  0.2170
 1175SOL     OW15160   0.439   0.071   7.894 -0.2794  0.1472  0.0012
 1175SOL    HW115161   0.366   0.125   7.923 -0.8902  1.4636 -4.0151
 1175SOL    HW215162   0.416   0.046   7.804 -1.7279 -1.1725  0.7320
 1176SOL     OW15163   2.916   2.947   6.868 -0.3175  0.3566 -0.7887
 1176SOL    HW115164   2.928   2.940   6.963  0.1439 -0.4876 -0.9183
 1176SOL    HW215165   2.822   2.931   6.874 -0.2221  0.7938  2.0766
 1177SOL     OW15166   0.622   0.158  15.399  0.1194  0.0631 -0.1591
 1177SOL    HW115167   0.628   0.071  15.438  0.3351 -0.4690 -1.4006
 1177SOL    HW215168   0.712   0.189  15.415  0.6458 -1.4373 -0.2282
 1178SOL     OW15169   1.812   0.815   7.334 -0.5593  0.2092  0.5948
 1178SOL    HW115170   1.828   0.892   7.388 -0.2876  0.8882 -0.4341
 1178SOL    HW215171   1.718   0.802   7.349 -0.1975 -1.4669  1.4186
 1179SOL     OW15172   3.304   1.136   6.178  0.3342  0.3951  0.1079
 1179SOL    HW115173   3.298   1.043   6.158  0.9168  0.2269  0.7155
 1179SOL    HW215174   3.309   1.130   6.273 -1.2639  1.0326  0.2260
 1180SOL     OW15175   0.627   1.544   3.978 -0.0803 -0.2597  0.8399
 1180SOL    HW115176   0.554   1.524   3.918  0.7284  0.6436 -0.4483
 1180SOL    HW215177   0.652   1.457   4.008 -0.7632 -0.2169  1.5370
 1181SOL     OW15178   2.473   3.567   3.515  0.3348 -0.1575 -0.0621
 1181SOL    HW115179   2.385   3.583   3.482  0.7800 -0.8984 -1.5830
 1181SOL    HW215180   2.495   3.480   3.480  0.3489 -1.0056  2.0125
 1182SOL     OW15181   4.325   0.154   8.655  0.3413 -0.1923 -0.5033
 1182SOL    HW115182   4.400   0.097   8.640  2.7850  2.8484  0.3348
 1182SOL    HW215183   4.263   0.086   8.683 -1.0689  1.2739 -0.0605
 1183SOL     OW15184   2.697   3.866   6.147  0.5189  0.4264 -0.7020
 1183SOL    HW115185   2.702   3.848   6.053  0.2084  1.2764 -0.8816
 1183SOL    HW215186   2.607   3.838   6.162  0.4717  1.4108  0.8445
 1184SOL     OW15187   3.944   4.032   6.666 -0.0033  0.5884  0.3182
 1184SOL    HW115188   4.036   4.007   6.661 -0.1379  0.1173  0.2076
 1184SOL    HW215189   3.909   3.959   6.717  3.2731 -0.4221  1.1137
 1185SOL     OW15190   2.192   4.233   3.622 -0.2529 -0.0607  1.0745
 1185SOL    HW115191   2.228   4.180   3.694 -1.6018  0.5592  2.2081
 1185SOL    HW215192   2.198   4.319   3.662 -1.2660 -0.6131  2.4168
 1186SOL     OW15193   3.972   3.722   7.245 -0.5793  0.0230  0.2599
 1186SOL    HW115194   4.042   3.673   7.289  0.1650  1.2004  0.3992
 1186SOL    HW215195   3.931   3.768   7.318 -1.8060 -0.2910 -0.2244
 1187SOL     OW15196   4.556   4.190   1.835 -0.0806  0.0653 -0.6685
 1187SOL    HW115197   4.614   4.121   1.867 -0.5690 -1.7385 -3.6879
 1187SOL    HW215198   4.474   4.145   1.853  1.0808 -0.9173  2.1825
 1188SOL     OW15199   3.450   3.769   3.729 -0.0443  0.0552  0.2304
 1188SOL    HW115200   3.405   3.853   3.737 -0.7564 -0.4082  1.0628
 1188SOL    HW215201   3.391   3.712   3.681  2.0338 -0.6330 -1.5281
 1189SOL     OW15202   2.268   1.257   7.218  0.1923 -0.0162  0.0876
 1189SOL    HW115203   2.342   1.259   7.279 -0.2879  1.0920  0.6454
 1189SOL    HW215204   2.205   1.212   7.274 -1.3605  0.4299 -1.3162
 1190SOL     OW15205   3.012   2.906   7.801  0.7950 -0.1132 -0.1497
 1190SOL    HW115206   3.080   2.902   7.868  0.7619 -0.7038 -0.1506
 1190SOL    HW215207   3.062   2.920   7.720  1.0176 -0.3594 -0.0551
 1191SOL     OW15208   3.727   3.445   2.171 -0.6706  0.0437  0.1144
 1191SOL    HW115209   3.796   3.381   2.188  0.0641  0.4912 -1.1878
 1191SOL    HW215210   3.647   3.400   2.199 -0.0135 -0.0796  1.7814
 1192SOL     OW15211   4.127   1.397   2.245 -0.2400  0.1635  0.1726
 1192SOL    HW115212   4.044   1.353   2.225  0.7478 -0.8395 -1.7072
 1192SOL    HW215213   4.191   1.340   2.202 -1.3132 -0.4810 -0.5855
 1193SOL     OW15214   3.622   1.817   7.679 -0.1370  0.6090  0.0945
 1193SOL    HW115215   3.632   1.769   7.597 -0.6905  1.9872 -0.7690
 1193SOL    HW215216   3.713   1.846   7.686  0.1064 -0.3920  1.3183
 1194SOL     OW15217   1.324   0.101   4.903  0.1291 -0.3596  0.2748
 1194SOL    HW115218   1.252   0.153   4.867  1.3511  0.2825 -1.2229
 1194SOL    HW215219   1.355   0.044   4.833 -1.4389 -0.2824 -0.4941
 1195SOL     OW15220   0.815   1.789   4.885 -0.2474  0.0696  0.3918
 1195SOL    HW115221   0.755   1.714   4.887 -0.9336  0.6286  1.4957
 1195SOL    HW215222   0.900   1.763   4.851 -0.7359 -1.2660  0.1559
 1196SOL     OW15223   1.225   4.102   6.876  0.0388 -0.5036  0.5561
 1196SOL    HW115224   1.229   4.165   6.804  0.4801 -0.8619  0.2640
 1196SOL    HW215225   1.157   4.142   6.930 -0.5614 -0.6837 -0.0550
 1197SOL     OW15226   1.902   3.536  13.739 -0.2954  0.1875  0.6077
 1197SOL    HW115227   1.983   3.522  13.690  0.0903  1.8298  0.7761
 1197SOL    HW215228   1.939   3.589  13.810  0.2647  1.0283 -0.3149
 1198SOL     OW15229   0.809   3.616   7.446  0.2200  0.2163  0.1401
 1198SOL    HW115230   0.904   3.631   7.439  0.1968 -0.1043 -0.9207
 1198SOL    HW215231   0.782   3.696   7.402 -0.3890  0.4488  0.9392
 1199SOL     OW15232   3.263   2.875   1.575  0.0982  0.6604 -0.0044
 1199SOL    HW115233   3.270   2.968   1.595  1.3859  0.8786 -1.4696
 1199SOL    HW215234   3.306   2.826   1.645  0.4943  0.3865 -0.4370
 1200SOL     OW15235   3.626   1.028   8.068 -0.1184 -0.0841 -0.1043
 1200SOL    HW115236   3.549   1.016   8.123 -1.4530  2.4027 -1.4104
 1200SOL    HW215237   3.695   1.060   8.127  0.0227 -0.2634 -0.1700
 1201SOL     OW15238   1.834   4.299   6.563 -0.4353 -0.2870  0.3505
 1201SOL    HW115239   1.769   4.328   6.627  0.6253 -0.8362  1.6637
 1201SOL    HW215240   1.813   4.206   6.558 -0.5532 -0.1449 -1.9492
 1202SOL     OW15241   2.645   2.394   8.729 -0.8296  0.4482  0.0704
 1202SOL    HW115242   2.622   2.401   8.822 -0.7946 -2.3502  0.2707
 1202SOL    HW215243   2.712   2.327   8.745  1.7267  2.7842 -0.8155
 1203SOL     OW15244   1.453   4.650   7.377  0.1229 -0.2698  0.1213
 1203SOL    HW115245   1.374   4.618   7.421 -0.0650 -1.1382 -0.8134
 1203SOL    HW215246   1.463   4.736   7.417 -0.2982  0.1397 -0.6306
 1204SOL     OW15247   4.647   4.170   7.313 -0.3992  0.1950 -0.3382
 1204SOL    HW115248   4.688   4.085   7.325 -1.1729  0.1464  2.0264
 1204SOL    HW215249   4.556   4.141   7.320 -0.2207 -0.0214  1.1304
 1205SOL     OW15250   0.402   3.877  15.674  0.3424 -0.5671 -0.3182
 1205SOL    HW115251   0.345   3.838  15.741  2.1886 -1.8248  0.5473
 1205SOL    HW215252   0.424   3.802  15.618 -1.5745 -1.4165  0.0844
 1206SOL     OW15253   0.504   1.544   3.159 -0.3415 -0.0021  0.0496
 1206SOL    HW115254   0.546   1.491   3.091 -0.1632  2.0138 -1.4206
 1206SOL    HW215255   0.547   1.504   3.235 -2.7697  0.0087  1.4181
 1207SOL     OW15256   0.533   2.389  11.833  0.0231 -0.6380 -0.3999
 1207SOL    HW115257   0.595   2.457  11.859  0.9294 -0.9961 -1.6067
 1207SOL    HW215258   0.477   2.446  11.781  0.5999 -1.6472 -2.1422
 1208SOL     OW15259   3.672   2.011  15.060 -0.1021  0.3265 -0.4233
 1208SOL    HW115260   3.705   2.067  15.130 -2.9714  0.8080  0.5275
 1208SOL    HW215261   3.754   2.009  15.010  0.0045  1.4799 -0.2969
 1209SOL     OW15262   4.223   2.944   5.183 -0.3334 -0.5488  0.0865
 1209SOL    HW115263   4.293   3.007   5.198 -0.4133 -0.6511  0.9358
 1209SOL    HW215264   4.147   3.002   5.177 -0.7718 -1.2331 -0.7935
 1210SOL     OW15265   2.635   3.103   6.361 -0.2795  0.2361 -0.3349
 1210SOL    HW115266   2.658   3.017   6.397 -0.5059  1.1838  2.0693
 1210SOL    HW215267   2.546   3.093   6.329  0.4042  0.1750 -2.1735
 1211SOL     OW15268   1.542   4.360   6.601  0.6336  0.2143 -0.3033
 1211SOL    HW115269   1.575   4.444   6.570  0.6180  0.5947  0.7166
 1211SOL    HW215270   1.450   4.375   6.624  0.1481 -0.8867 -1.5041
 1212SOL     OW15271   4.709   0.923   4.262 -0.1525 -0.1879  0.3361
 1212SOL    HW115272   4.684   1.015   4.260  0.7401  0.0541  0.3046
 1212SOL    HW215273   4.642   0.890   4.321 -1.2318  1.2684 -0.0904
 1213SOL     OW15274   3.195   3.222   7.336 -0.1874  0.0368 -0.2372
 1213SOL    HW115275   3.215   3.285   7.405 -0.6776 -0.0351 -0.0271
 1213SOL    HW215276   3.109   3.247   7.303  0.3566  1.7307 -0.3694
 1214SOL     OW15277   1.709   1.013  15.674  0.4749  0.3660 -0.0679
 1214SOL    HW115278   1.752   0.947  15.729  1.0917  0.2032 -0.7426
 1214SOL    HW215279   1.720   1.092  15.727  1.4082  1.7231 -2.3063
 1215SOL     OW15280   3.723   0.647  10.820  0.3738  0.1209  0.5231
 1215SOL    HW115281   3.775   0.727  10.813 -1.5672  1.2594 -0.7867
 1215SOL    HW215282   3.696   0.649  10.911 -0.5625  1.1292  0.2319
 1216SOL     OW15283   2.104   0.998   1.523 -0.3846  0.4924  0.2683
 1216SOL    HW115284   2.068   1.022   1.608 -2.1903  2.4014 -1.0408
 1216SOL    HW215285   2.027   1.004   1.467  0.6106  2.1548 -0.9112
 1217SOL     OW15286   1.601   0.469   7.895  0.3173 -0.1804  0.1154
 1217SOL    HW115287   1.523   0.524   7.890  1.3064  1.1102 -0.8985
 1217SOL    HW215288   1.608   0.430   7.808  1.9329 -0.6979  0.4710
 1218SOL     OW15289   2.818   1.046   4.850  0.2438 -0.6997 -0.6445
 1218SOL    HW115290   2.832   0.983   4.922  0.8547  1.3832  1.0506
 1218SOL    HW215291   2.907   1.078   4.841 -0.0046 -1.0572 -4.4093
 1219SOL     OW15292   4.703   0.167   5.779  0.0915  0.2564 -0.3672
 1219SOL    HW115293   4.736   0.089   5.734 -0.1828 -0.6556  1.0440
 1219SOL    HW215294   4.672   0.219   5.704 -1.0681  2.4230  1.6435
 1220SOL     OW15295   2.933   3.390   9.068  0.1018  0.1291 -0.3139
 1220SOL    HW115296   2.953   3.296   9.068 -0.6303 -0.0379 -2.2752
 1220SOL    HW215297   2.993   3.423   9.134 -1.0145 -1.2887  1.4144
 1221SOL     OW15298   2.159   1.153   3.124 -0.1415  0.3746  0.0177
 1221SOL    HW115299   2.240   1.133   3.170  1.0100  0.3613 -1.9840
 1221SOL    HW215300   2.177   1.179   3.033 -1.2602  0.2214 -0.2434
 1222SOL     OW15301   0.192   3.069  11.283 -0.5938 -0.0148 -0.3270
 1222SOL    HW115302   0.226   3.126  11.352  0.4933 -1.3606  0.2573
 1222SOL    HW215303   0.252   3.085  11.211 -0.9922 -1.0987 -0.9005
 1223SOL     OW15304   1.876   2.386  10.920 -0.0485 -0.2851  0.2190
 1223SOL    HW115305   1.914   2.406  11.006  0.2850  2.4956 -0.5808
 1223SOL    HW215306   1.896   2.292  10.917 -1.0841 -0.5353  1.1028
 1224SOL     OW15307   1.751   1.265   5.278 -0.2521 -0.6101 -0.2557
 1224SOL    HW115308   1.770   1.271   5.372  1.4802 -0.9244 -0.5794
 1224SOL    HW215309   1.838   1.260   5.238 -0.7303  0.2807 -1.4024
 1225SOL     OW15310   3.687   2.263   5.926  0.4309  0.7283  0.4131
 1225SOL    HW115311   3.713   2.345   5.884  2.5010  0.8733  1.9683
 1225SOL    HW215312   3.611   2.299   5.971  0.0221 -0.8089  0.9519
 1226SOL     OW15313   1.020   0.102   2.173  0.7309  0.5582  0.1341
 1226SOL    HW115314   1.065   0.132   2.252  0.2451  1.9421 -0.1191
 1226SOL    HW215315   1.022   0.007   2.181  0.4360  0.4932 -0.5890
 1227SOL     OW15316   4.485   2.901   4.109 -1.2609  0.0491  0.5391
 1227SOL    HW115317   4.426   2.849   4.163 -0.5750  0.0443  1.3035
 1227SOL    HW215318   4.500   2.983   4.157 -0.9307 -1.7544  3.5179
 1228SOL     OW15319   4.419   1.071  10.090 -0.2642  0.1444 -0.0652
 1228SOL    HW115320   4.453   0.997  10.040 -0.2576 -0.0779  0.2668
 1228SOL    HW215321   4.436   1.045  10.181  1.4159 -0.6451 -0.6016
 1229SOL     OW15322   4.122   4.609   5.765 -0.0479 -0.1711 -0.3054
 1229SOL    HW115323   4.146   4.580   5.853  0.0239 -0.4342 -0.4114
 1229SOL    HW215324   4.073   4.530   5.742  2.0703 -1.6529  0.2813
 1230SOL     OW15325   0.186   0.699  16.429  0.6307  0.2792  0.0633
 1230SOL    HW115326   0.092   0.682  16.421  0.7843 -2.2975  3.4808
 1230SOL    HW215327   0.199   0.739  16.343 -0.9375  0.0184 -0.2916
 1231SOL     OW15328   0.068   0.476  17.222  0.2341  0.0750  0.0063
 1231SOL    HW115329   0.047   0.394  17.266 -0.2545  0.1503 -0.0821
 1231SOL    HW215330   0.022   0.463  17.138 -0.0926 -0.8390  0.3287
 1232SOL     OW15331   4.072   2.560  10.769  0.1609  0.1853  0.1241
 1232SOL    HW115332   4.067   2.498  10.696 -0.4080  2.0880 -1.4569
 1232SOL    HW215333   3.981   2.588  10.774  0.4477  1.2882 -0.9495
 1233SOL     OW15334   1.850   4.102   5.791  0.3020  0.0382 -0.6839
 1233SOL    HW115335   1.911   4.054   5.736  3.0699  0.3591  2.0946
 1233SOL    HW215336   1.792   4.136   5.723 -0.3119 -0.9142 -0.6241
 1234SOL     OW15337   0.351   1.672  10.064  0.4416  0.4705  0.5371
 1234SOL    HW115338   0.433   1.622  10.065 -0.8788 -1.6680  0.6282
 1234SOL    HW215339   0.313   1.639   9.983  0.7209 -1.5217  1.2329
 1235SOL     OW15340   3.916   1.052   4.858 -0.0029  0.4152 -0.3966
 1235SOL    HW115341   3.979   1.015   4.797 -1.0348 -2.2981  0.2102
 1235SOL    HW215342   3.975   1.067   4.932  0.4066 -0.6195 -0.5146
 1236SOL     OW15343   1.774   1.310   3.417  0.4859  0.7611  0.3283
 1236SOL    HW115344   1.837   1.273   3.356  0.2659 -3.1057  2.4331
 1236SOL    HW215345   1.819   1.293   3.500 -2.2835  0.3587  1.7660
 1237SOL     OW15346   3.385   3.772   9.273  0.2449 -0.2836 -0.2174
 1237SOL    HW115347   3.466   3.741   9.313  0.4003 -0.7535 -0.8878
 1237SOL    HW215348   3.410   3.864   9.277 -0.9991  0.0242  0.4048
 1238SOL     OW15349   4.372   3.046   4.745 -0.4195  0.0924 -0.5414
 1238SOL    HW115350   4.302   3.084   4.797  2.0365  2.8268  0.7311
 1238SOL    HW215351   4.417   3.124   4.712  1.4552 -0.7321  0.1030
 1239SOL     OW15352   0.525   2.997   7.068  0.6089  0.5795  0.4785
 1239SOL    HW115353   0.496   3.043   6.989 -1.4558 -2.8815 -0.7940
 1239SOL    HW215354   0.453   3.004   7.131 -0.0286 -0.7683 -0.0903
 1240SOL     OW15355   0.816   3.669   7.709  0.4715 -0.1355  0.6918
 1240SOL    HW115356   0.897   3.701   7.748  0.4620  1.9650 -0.9952
 1240SOL    HW215357   0.837   3.652   7.617 -1.3117 -1.0513  0.4462
 1241SOL     OW15358   0.269   0.563   8.815 -0.3170 -0.2518 -0.1272
 1241SOL    HW115359   0.293   0.577   8.907 -0.5240 -1.3937  0.1045
 1241SOL    HW215360   0.347   0.514   8.790 -0.2903  0.4161 -1.3622
 1242SOL     OW15361   1.338   0.384  12.984 -0.3917  0.6837  0.8804
 1242SOL    HW115362   1.417   0.334  13.003  1.0808  2.3455 -0.8324
 1242SOL    HW215363   1.362   0.452  12.921  1.0605 -0.7066 -0.0922
 1243SOL     OW15364   3.671   2.038   2.140  0.3687  0.4549  0.3564
 1243SOL    HW115365   3.649   2.078   2.225  0.5168 -0.7601  0.9636
 1243SOL    HW215366   3.748   2.089   2.113  1.2438 -2.0328 -1.7428
 1244SOL     OW15367   1.342   1.965   2.911 -0.8682  0.0394  0.0549
 1244SOL    HW115368   1.383   1.887   2.873 -0.9864 -1.8879  3.9905
 1244SOL    HW215369   1.284   1.989   2.838 -1.7992  0.3507  0.9090
 1245SOL     OW15370   3.067   1.919  15.222 -0.1091  0.4393  0.1604
 1245SOL    HW115371   3.019   1.932  15.304  0.7311  1.9407  0.4017
 1245SOL    HW215372   3.025   1.836  15.200 -1.3141  0.7677  1.1710
 1246SOL     OW15373   1.138   2.715  17.567  0.4431  0.1677 -0.0087
 1246SOL    HW115374   1.046   2.738  17.580  0.3331 -0.0792 -0.3344
 1246SOL    HW215375   1.149   2.713  17.472  1.6871  0.9372  0.1192
 1247SOL     OW15376   3.749   2.683  15.121  0.2890  0.3707 -0.2218
 1247SOL    HW115377   3.731   2.613  15.185  0.8174  0.1164 -0.3514
 1247SOL    HW215378   3.727   2.768  15.158 -1.3506 -1.1909  2.4613
 1248SOL     OW15379   0.167   4.403   9.900  0.1566  0.6001  0.0407
 1248SOL    HW115380   0.146   4.495   9.882  0.0616  0.3050 -1.3401
 1248SOL    HW215381   0.109   4.392   9.976  1.4154 -0.5939  0.8317
 1249SOL     OW15382   3.626   1.806   9.466 -0.3317  0.1041 -0.2134
 1249SOL    HW115383   3.649   1.719   9.498  1.6829  0.5412 -0.4923
 1249SOL    HW215384   3.534   1.786   9.449 -0.8010  1.6540  0.5590
 1250SOL     OW15385   1.068   0.042  10.071  0.3011  0.1741  0.3850
 1250SOL    HW115386   1.041   4.697  10.112  2.0905  0.1700  1.5669
 1250SOL    HW215387   0.999   0.064  10.009 -0.0226  0.6004  0.8964
 1251SOL     OW15388   2.250   2.852   4.874  0.3539  0.3332  0.1308
 1251SOL    HW115389   2.312   2.790   4.836  0.5046 -0.3031  1.4288
 1251SOL    HW215390   2.192   2.861   4.798  3.2127 -0.7110 -2.1541
 1252SOL     OW15391   2.755   1.356   9.465 -0.8072  0.2850 -0.0932
 1252SOL    HW115392   2.669   1.324   9.439 -0.8380  0.7736 -0.5858
 1252SOL    HW215393   2.750   1.334   9.558 -0.5079 -2.8074 -0.7826
 1253SOL     OW15394   4.439   3.380   9.045 -0.0576  0.5712 -0.0525
 1253SOL    HW115395   4.512   3.386   9.107 -0.4736  0.7222  0.4214
 1253SOL    HW215396   4.486   3.412   8.968  2.0338 -0.4198  0.8013
 1254SOL     OW15397   4.104   1.903   6.382  0.7578  0.2557  0.0650
 1254SOL    HW115398   4.023   1.924   6.427 -0.7642 -1.2462 -1.9868
 1254SOL    HW215399   4.154   1.954   6.446 -1.4433  1.1736  1.0336
 1255SOL     OW15400   1.428   3.020   7.554 -0.0282  0.1205 -0.0530
 1255SOL    HW115401   1.407   3.026   7.461 -0.1166  0.9236  0.0152
 1255SOL    HW215402   1.430   2.927   7.577 -2.4149  0.0005 -0.2649
 1256SOL     OW15403   2.328   2.032   5.396 -0.2621 -0.3864  0.3907
 1256SOL    HW115404   2.421   2.008   5.405  0.4354  2.0356 -0.1407
 1256SOL    HW215405   2.326   2.053   5.302 -1.0532  0.1193  0.5220
 1257SOL     OW15406   3.386   2.258  10.189  0.3650 -0.6084 -0.0880
 1257SOL    HW115407   3.346   2.325  10.133  1.5838 -0.4172 -0.7105
 1257SOL    HW215408   3.440   2.217  10.121  1.9074  0.1578  0.6976
 1258SOL     OW15409   4.528   3.338  17.136  0.6233 -0.3976  0.2024
 1258SOL    HW115410   4.572   3.406  17.188  0.8960 -0.3574 -0.0852
 1258SOL    HW215411   4.591   3.267  17.139 -1.9261 -2.6963 -1.2984
 1259SOL     OW15412   4.154   0.779  14.128  0.4841  0.9109 -0.0764
 1259SOL    HW115413   4.233   0.794  14.074  0.3485 -3.7894 -1.6288
 1259SOL    HW215414   4.131   0.686  14.118  0.0318  0.9744  0.4180
 1260SOL     OW15415   2.717   2.637   5.381 -0.6500  0.3256 -0.3370
 1260SOL    HW115416   2.801   2.600   5.353  0.0188  0.1414  1.9594
 1260SOL    HW215417   2.665   2.560   5.359  1.6346 -0.5908 -2.5085
 1261SOL     OW15418   3.727   1.249   4.974  0.1306  0.2536  0.1764
 1261SOL    HW115419   3.705   1.214   4.887 -2.0609 -0.1091  0.8609
 1261SOL    HW215420   3.685   1.192   5.038  1.5112  0.9282  1.6642
 1262SOL     OW15421   2.151   2.171   8.900 -0.6031  0.3248  0.2970
 1262SOL    HW115422   2.169   2.126   8.982  0.3498 -0.7166 -0.4898
 1262SOL    HW215423   2.238   2.178   8.862 -0.9183 -0.2538 -0.5425
 1263SOL     OW15424   3.347   1.230   7.087 -0.1329 -0.3919  0.2419
 1263SOL    HW115425   3.298   1.269   7.160  1.4082  1.7208  0.1614
 1263SOL    HW215426   3.347   1.135   7.102  0.1496  0.0209  2.9366
 1264SOL     OW15427   0.377   1.464   7.354  0.3969  0.1474  0.7460
 1264SOL    HW115428   0.412   1.531   7.294 -1.1035 -1.6414 -2.1066
 1264SOL    HW215429   0.451   1.418   7.393 -0.4025 -1.7628  0.0036
 1265SOL     OW15430   3.111   4.311  17.335 -0.3789 -0.2586  0.0005
 1265SOL    HW115431   3.157   4.227  17.335  0.4416  0.1940 -0.1863
 1265SOL    HW215432   3.185   4.360  17.369 -0.2551 -0.4927  0.0684
 1266SOL     OW15433   4.098   2.896  10.304  0.3140  0.4593 -0.1546
 1266SOL    HW115434   4.119   2.945  10.383 -0.1912  2.0896 -1.0336
 1266SOL    HW215435   4.187   2.882  10.272  1.0819  1.5593  1.5407
 1267SOL     OW15436   2.037   1.891  14.182  0.4800 -0.1337 -0.4903
 1267SOL    HW115437   2.040   1.821  14.117 -2.6865 -0.8027  0.0807
 1267SOL    HW215438   2.107   1.854  14.237 -0.8121 -0.8305  0.7017
 1268SOL     OW15439   3.745   0.620   6.037 -0.3232  0.0192 -0.8291
 1268SOL    HW115440   3.730   0.558   5.966  1.3315 -0.1975 -1.0091
 1268SOL    HW215441   3.677   0.683   6.016 -3.2423 -2.4275  1.2476
 1269SOL     OW15442   4.632   3.685   3.445 -0.4102 -0.4298  0.8688
 1269SOL    HW115443   4.723   3.659   3.458 -0.0949 -0.4386 -1.4393
 1269SOL    HW215444   4.581   3.605   3.435  1.1309 -1.1822 -0.8491
 1270SOL     OW15445   3.262   4.128   2.517  0.3625  0.8247  0.4800
 1270SOL    HW115446   3.312   4.210   2.514  0.3937  0.8003  0.3190
 1270SOL    HW215447   3.323   4.054   2.520 -0.2448  0.2951 -0.3346
 1271SOL     OW15448   1.764   2.350  16.207 -0.4689 -0.4341 -0.3507
 1271SOL    HW115449   1.736   2.420  16.148  0.2856 -0.0975 -0.3036
 1271SOL    HW215450   1.819   2.298  16.148  0.5010  1.5472 -1.1782
 1272SOL     OW15451   3.869   2.704  14.556  0.3577  0.3529  0.4064
 1272SOL    HW115452   3.903   2.669  14.474 -1.6275  0.2002 -0.3457
 1272SOL    HW215453   3.779   2.722  14.529 -0.4819 -1.8543  1.7158
 1273SOL     OW15454   1.227   0.695   2.004 -0.0167 -0.0843 -0.6975
 1273SOL    HW115455   1.137   0.709   2.031  1.1585  1.4215  2.4061
 1273SOL    HW215456   1.225   0.614   1.953  2.7431 -1.3269  1.1064
 1274SOL     OW15457   0.371   0.958  15.719  0.1702  0.0666 -0.0132
 1274SOL    HW115458   0.323   0.986  15.641  2.1726  1.4552 -0.7550
 1274SOL    HW215459   0.430   0.914  15.659 -2.4701 -3.2091 -0.2094
 1275SOL     OW15460   2.824   1.077   6.060 -0.5702  0.1581 -0.3174
 1275SOL    HW115461   2.770   1.074   5.981 -0.3352  3.4874 -0.5859
 1275SOL    HW215462   2.902   1.122   6.027  0.7580 -0.5193  1.8630
 1276SOL     OW15463   0.828   0.963   2.354  0.0523  0.1359  0.7079
 1276SOL    HW115464   0.798   1.037   2.301  1.9087 -1.8288 -3.0701
 1276SOL    HW215465   0.819   0.888   2.295 -0.0905 -0.8137  1.9372
 1277SOL     OW15466   3.683   3.137   8.911  0.6169 -0.4338 -0.2778
 1277SOL    HW115467   3.658   3.097   8.828  0.1440  0.4936 -0.5855
 1277SOL    HW215468   3.597   3.177   8.927  0.9662 -0.2018  1.0274
 1278SOL     OW15469   0.468   4.396  14.949  0.6749 -0.3889  0.1451
 1278SOL    HW115470   0.418   4.359  15.022 -1.3306  1.0371 -0.5196
 1278SOL    HW215471   0.522   4.319  14.930  3.1361  1.3631  0.0546
 1279SOL     OW15472   2.316   1.945  15.094  0.1780  0.5555  0.7029
 1279SOL    HW115473   2.358   1.981  15.172  0.4219  0.5952  0.5554
 1279SOL    HW215474   2.247   2.008  15.075 -0.0630 -0.5908 -2.3191
 1280SOL     OW15475   4.578   0.245   6.032 -0.6346  0.7341  0.7584
 1280SOL    HW115476   4.595   0.174   6.093 -3.6949 -1.8556 -1.4049
 1280SOL    HW215477   4.656   0.229   5.979 -1.7824  1.7876 -1.2575
 1281SOL     OW15478   1.316   3.466  14.167  0.3102  0.1414  0.3447
 1281SOL    HW115479   1.382   3.499  14.107  0.6250  0.7656  1.0308
 1281SOL    HW215480   1.316   3.373  14.146 -0.7964 -0.2298  1.9257
 1282SOL     OW15481   4.314   3.961   2.413 -0.4074 -0.0068 -0.0847
 1282SOL    HW115482   4.393   3.939   2.363 -0.1581  2.8993 -1.0220
 1282SOL    HW215483   4.346   3.968   2.503  0.0182  1.6959 -0.3613
 1283SOL     OW15484   2.485   1.998   4.224  0.0232 -0.0942 -0.0511
 1283SOL    HW115485   2.580   1.985   4.230  0.2985  0.5792 -2.9482
 1283SOL    HW215486   2.459   1.912   4.258  0.5915  0.1153  0.8910
 1284SOL     OW15487   0.160   1.649  11.163 -0.3047 -0.0407 -0.6296
 1284SOL    HW115488   0.254   1.665  11.156 -0.5647  1.9617  0.2881
 1284SOL    HW215489   0.157   1.613  11.251  0.3479 -3.1306 -1.9038
 1285SOL     OW15490   4.458   3.112   3.638  0.5423  0.0242 -0.1408
 1285SOL    HW115491   4.496   3.199   3.650  1.1781 -0.3012  0.1775
 1285SOL    HW215492   4.483   3.069   3.720 -0.5103 -3.0359 -1.4038
 1286SOL     OW15493   0.764   1.495   8.142  0.2481  0.0824 -0.3091
 1286SOL    HW115494   0.852   1.491   8.105 -0.0457  0.5228 -1.0531
 1286SOL    HW215495   0.736   1.411   8.106  1.0293 -0.7702  1.0790
 1287SOL     OW15496   0.382   2.627   3.619  0.0953 -0.3558  0.3302
 1287SOL    HW115497   0.297   2.588   3.640 -0.1056  0.7629  1.5938
 1287SOL    HW215498   0.426   2.545   3.596  0.4134  0.8931 -3.4181
 1288SOL     OW15499   0.563   3.650   2.616 -0.0404 -0.3534  0.0154
 1288SOL    HW115500   0.478   3.683   2.646  0.8800  0.8995  1.2364
 1288SOL    HW215501   0.543   3.556   2.616 -3.1647  0.3343 -0.1870
 1289SOL     OW15502   3.215   1.069   2.952  0.4013  0.6211 -0.2946
 1289SOL    HW115503   3.185   0.985   2.987 -0.3128  0.4784 -1.2515
 1289SOL    HW215504   3.226   1.114   3.036 -0.2039 -1.2822  0.8220
 1290SOL     OW15505   1.017   0.584   7.131 -0.2056  0.2202  0.0277
 1290SOL    HW115506   1.029   0.491   7.109  0.1533 -0.3957  2.8827
 1290SOL    HW215507   0.940   0.596   7.075  0.4073  2.3044 -0.3494
 1291SOL     OW15508   0.746   2.212   3.891 -0.3750  0.3211 -0.0561
 1291SOL    HW115509   0.802   2.207   3.969  0.4903 -0.1335 -0.7016
 1291SOL    HW215510   0.666   2.165   3.914 -1.1072  1.3832 -0.3946
 1292SOL     OW15511   3.225   0.393   5.516 -0.1744 -0.0432  0.0302
 1292SOL    HW115512   3.173   0.316   5.492 -0.7458  0.0134  1.0937
 1292SOL    HW215513   3.276   0.362   5.590  0.7239 -1.2243 -1.0724
 1293SOL     OW15514   2.432   0.193  14.374 -0.2052  0.3761  0.4681
 1293SOL    HW115515   2.395   0.144  14.447  0.8090  0.0529  0.7740
 1293SOL    HW215516   2.512   0.232  14.411  1.4504 -1.8333 -0.8194
 1294SOL     OW15517   0.723   2.330   5.526 -0.1879 -0.4941  0.1386
 1294SOL    HW115518   0.793   2.315   5.463  0.5926  1.3441  0.5913
 1294SOL    HW215519   0.712   2.242   5.563 -0.3068 -0.4531  0.2019
 1295SOL     OW15520   2.752   2.546   2.077  0.0356  0.1747  0.2081
 1295SOL    HW115521   2.740   2.500   1.993 -2.4037 -1.3309  1.3708
 1295SOL    HW215522   2.672   2.523   2.124 -0.5270  0.5781 -0.5425
 1296SOL     OW15523   1.710   3.015  17.458 -0.2509  0.3814  0.6973
 1296SOL    HW115524   1.791   3.014  17.406 -0.2853 -0.3369  0.6577
 1296SOL    HW215525   1.719   3.096  17.508  1.0890  0.2484  0.6693
 1297SOL     OW15526   2.209   0.071   2.375 -0.2104  0.2857 -0.0826
 1297SOL    HW115527   2.114   0.083   2.374 -0.4105 -1.3794 -1.5399
 1297SOL    HW215528   2.244   0.160   2.366 -2.7554  1.4988  1.9599
 1298SOL     OW15529   2.393   1.722   4.307  0.0461  0.2084  0.1905
 1298SOL    HW115530   2.390   1.640   4.257 -0.7682  0.1196  0.3901
 1298SOL    HW215531   2.375   1.684   4.393 -0.3437  1.9237  0.8597
 1299SOL     OW15532   2.932   1.019   3.837 -0.5510  0.3502  0.1492
 1299SOL    HW115533   3.022   1.033   3.808 -0.9456  1.8894 -0.3335
 1299SOL    HW215534   2.876   1.037   3.762  0.3888  0.0804 -0.6125
 1300SOL     OW15535   0.979   2.727   7.626  0.0705 -0.4533 -0.2931
 1300SOL    HW115536   0.993   2.649   7.573  0.0972  0.7570 -2.0714
 1300SOL    HW215537   0.987   2.693   7.715  0.5380  0.7141  0.1170
 1301SOL     OW15538   0.103   1.274  16.985 -0.0938 -0.1367  0.7195
 1301SOL    HW115539   0.064   1.276  17.073  2.8582 -0.4604  2.0155
 1301SOL    HW215540   0.142   1.361  16.977 -0.5575 -0.0735 -0.9426
 1302SOL     OW15541   0.946   2.853  15.662 -0.2933  0.5104 -0.1712
 1302SOL    HW115542   0.929   2.765  15.697 -2.4939  0.2725 -1.8508
 1302SOL    HW215543   1.024   2.840  15.609  0.1169 -0.5543  0.6805
 1303SOL     OW15544   3.675   3.850   5.524 -0.0962 -0.3577 -0.4986
 1303SOL    HW115545   3.637   3.818   5.606  1.2575  0.4466  0.4421
 1303SOL    HW215546   3.691   3.942   5.546 -0.8400 -0.4280  0.3415
 1304SOL     OW15547   3.071   1.926   9.795  0.7522  0.1672  0.2533
 1304SOL    HW115548   3.076   2.021   9.809  0.0106  0.0045  1.6537
 1304SOL    HW215549   3.143   1.923   9.858 -0.8924  1.7084  2.2169
 1305SOL     OW15550   1.271   4.365   7.111  0.1668  0.3264 -0.6867
 1305SOL    HW115551   1.181   4.363   7.078 -0.6108  2.0212  1.3400
 1305SOL    HW215552   1.316   4.417   7.045 -2.4503  1.5204 -1.5095
 1306SOL     OW15553   3.045   4.504  11.354 -0.2055 -0.0890 -0.0956
 1306SOL    HW115554   3.002   4.546  11.429 -1.0019  0.0800 -0.6455
 1306SOL    HW215555   3.121   4.471  11.402 -0.0316  1.8330  0.9609
 1307SOL     OW15556   3.914   4.084  16.503 -0.3023 -0.0360  0.0227
 1307SOL    HW115557   3.819   4.094  16.502 -0.4056 -0.9048  0.6372
 1307SOL    HW215558   3.932   3.994  16.474  2.0643  1.1514 -2.1642
 1308SOL     OW15559   0.251   2.513   2.835  0.4890 -0.1058 -0.6099
 1308SOL    HW115560   0.244   2.587   2.895 -0.2113 -1.8949  1.5176
 1308SOL    HW215561   0.166   2.471   2.846  0.3930  0.1238 -0.4649
 1309SOL     OW15562   3.047   1.304   9.138 -0.0944  0.1600 -0.3080
 1309SOL    HW115563   3.053   1.321   9.232 -1.6169 -0.6270 -0.0722
 1309SOL    HW215564   3.066   1.394   9.112 -1.2137  0.8172  1.1827
 1310SOL     OW15565   0.831   1.131   3.258  0.2957 -0.2904  0.8864
 1310SOL    HW115566   0.829   1.095   3.170  1.4819 -1.1217  1.2011
 1310SOL    HW215567   0.921   1.124   3.292 -0.3121 -0.5920  2.4529
 1311SOL     OW15568   3.536   2.268   8.956  0.3158  0.4287 -0.4463
 1311SOL    HW115569   3.620   2.306   8.929  0.9695 -0.4280  0.3789
 1311SOL    HW215570   3.487   2.349   8.946 -1.6740 -0.6940  0.3656
 1312SOL     OW15571   3.904   3.106   3.937  0.0596  0.0149  0.4544
 1312SOL    HW115572   3.833   3.159   3.902 -0.2370  0.8233  2.2736
 1312SOL    HW215573   3.969   3.155   3.887  0.0346 -1.4932 -1.0454
 1313SOL     OW15574   0.884   3.388  17.722 -0.3801 -0.1620 -0.0208
 1313SOL    HW115575   0.854   3.298  17.729  1.9727 -1.0557 -1.4098
 1313SOL    HW215576   0.885   3.402  17.627  0.0617 -1.8907 -0.2697
 1314SOL     OW15577   1.984   2.397   9.602  0.0662 -0.5898 -0.1349
 1314SOL    HW115578   2.069   2.435   9.582 -0.5655  1.2532  0.6792
 1314SOL    HW215579   1.952   2.449   9.676  1.0022 -1.0263  0.5820
 1315SOL     OW15580   1.636   2.686  15.475  0.0660  0.3459  0.3383
 1315SOL    HW115581   1.703   2.733  15.426  1.0727 -0.6701  0.7175
 1315SOL    HW215582   1.560   2.712  15.424  0.2064  1.3791  0.6703
 1316SOL     OW15583   0.412   4.102   3.165 -0.1988  0.4069  0.1421
 1316SOL    HW115584   0.472   4.134   3.232  2.5092 -1.0453 -1.5681
 1316SOL    HW215585   0.471   4.071   3.096  0.0406  1.8099 -0.2805
 1317SOL     OW15586   2.344   0.521   5.268  0.1007  0.2695 -0.1547
 1317SOL    HW115587   2.385   0.558   5.346  0.6463 -3.5208  1.3640
 1317SOL    HW215588   2.353   0.426   5.278  1.8256  0.5806  1.1719
 1318SOL     OW15589   2.430   0.570   4.487  0.1491  0.8658 -0.3775
 1318SOL    HW115590   2.475   0.644   4.528 -0.4969  1.5788 -0.9375
 1318SOL    HW215591   2.372   0.608   4.420 -0.3911  1.4098  0.4000
 1319SOL     OW15592   3.243   2.576   5.766  0.1172 -0.1772 -0.1481
 1319SOL    HW115593   3.230   2.671   5.766  0.7196 -0.1110  3.1570
 1319SOL    HW215594   3.201   2.553   5.683 -0.0093 -0.7906  0.0878
 1320SOL     OW15595   4.414   1.397   5.381 -0.1389 -0.1615  0.3090
 1320SOL    HW115596   4.408   1.399   5.476 -0.8404 -0.1033  0.2618
 1320SOL    HW215597   4.508   1.398   5.366 -0.0141  1.3560  1.2268
 1321SOL     OW15598   1.724   0.651   1.545  0.3280  0.6166 -0.5244
 1321SOL    HW115599   1.704   0.599   1.467 -0.6520 -1.8910  1.3990
 1321SOL    HW215600   1.768   0.727   1.507  0.8005  1.9762  2.7258
 1322SOL     OW15601   1.414   0.333   6.967  0.1228  0.5766 -0.0965
 1322SOL    HW115602   1.342   0.396   6.957  0.1208  0.1382 -2.7145
 1322SOL    HW215603   1.372   0.289   7.041  2.1758  0.7143  1.1540
 1323SOL     OW15604   0.710   3.505   7.184  0.2611 -0.4603  0.3454
 1323SOL    HW115605   0.678   3.443   7.249  0.0003 -0.1714  0.4898
 1323SOL    HW215606   0.722   3.585   7.234  1.9111 -2.3653  2.9968
 1324SOL     OW15607   0.432   1.151   2.967  0.5466  0.1515  0.1182
 1324SOL    HW115608   0.355   1.194   2.931 -0.1501 -1.3251 -0.1491
 1324SOL    HW215609   0.448   1.083   2.901 -0.7166 -0.6892  0.6791
 1325SOL     OW15610   1.998   3.594  14.776 -0.0440 -0.2438  0.4922
 1325SOL    HW115611   1.994   3.689  14.783  0.2651 -0.1395 -0.7784
 1325SOL    HW215612   1.911   3.560  14.755  0.0643 -0.6517  0.7003
 1326SOL     OW15613   0.750   1.254   8.037  0.1610 -0.7473  0.0911
 1326SOL    HW115614   0.737   1.176   8.092 -0.1550  0.7798  2.1974
 1326SOL    HW215615   0.779   1.219   7.953 -1.6647  0.4083 -1.0028
 1327SOL     OW15616   2.603   3.514   8.574  0.1519 -0.4860 -0.4253
 1327SOL    HW115617   2.533   3.567   8.537 -0.1847 -1.5650 -1.3182
 1327SOL    HW215618   2.655   3.493   8.496 -1.3737 -0.6508 -1.3890
 1328SOL     OW15619   3.804   0.473   7.721 -1.1575 -0.1007 -0.0489
 1328SOL    HW115620   3.884   0.495   7.673 -0.6955 -3.0047 -0.6426
 1328SOL    HW215621   3.741   0.536   7.688 -0.6944  1.0989  1.3788
 1329SOL     OW15622   2.323   3.046   8.439 -0.3188  1.0232  0.0382
 1329SOL    HW115623   2.275   3.041   8.356 -2.0724 -0.8881  1.1865
 1329SOL    HW215624   2.326   2.952   8.457  0.6025  0.7142 -1.7172
 1330SOL     OW15625   2.456   3.862  15.698  0.7717  0.2442  0.1563
 1330SOL    HW115626   2.483   3.937  15.645 -0.0493  2.1653  2.4920
 1330SOL    HW215627   2.397   3.900  15.763  0.6861  1.9452 -0.9383
 1331SOL     OW15628   1.159   2.759  17.308 -0.4538 -0.3397 -0.3241
 1331SOL    HW115629   1.249   2.732  17.288  0.1175  1.0321  0.3607
 1331SOL    HW215630   1.131   2.787  17.221  0.0603 -0.2079 -0.4501
 1332SOL     OW15631   1.650   2.711   2.155 -0.0591 -0.7655  0.0793
 1332SOL    HW115632   1.590   2.683   2.224 -0.2015 -2.3961 -0.7065
 1332SOL    HW215633   1.718   2.753   2.208 -1.5869  1.8624 -0.0708
 1333SOL     OW15634   4.669   1.699   8.162  0.7985 -0.0442  0.4676
 1333SOL    HW115635   4.663   1.642   8.238 -0.9778 -0.3191  0.1136
 1333SOL    HW215636   4.604   1.671   8.097  3.7863 -1.5317 -1.9249
 1334SOL     OW15637   3.807   2.193   9.228  0.4286 -0.5219 -0.5919
 1334SOL    HW115638   3.873   2.131   9.198  2.1239  0.4435  1.1044
 1334SOL    HW215639   3.725   2.146   9.223  0.2920 -0.1313 -1.9466
 1335SOL     OW15640   1.276   4.413   7.960 -0.0617 -0.5141 -0.6966
 1335SOL    HW115641   1.232   4.404   7.876  0.6419  0.9349 -1.2199
 1335SOL    HW215642   1.296   4.506   7.958 -2.4746 -0.0030 -0.9727
 1336SOL     OW15643   2.810   0.187   4.170  0.3193  0.5045 -0.4128
 1336SOL    HW115644   2.797   0.275   4.204  0.5648 -0.6082  2.5276
 1336SOL    HW215645   2.776   0.188   4.080 -1.0718 -0.3833  0.1094
 1337SOL     OW15646   3.353   4.086  13.367  0.2331 -0.4173  0.0782
 1337SOL    HW115647   3.284   4.123  13.422  2.6489  1.6092  1.7254
 1337SOL    HW215648   3.343   3.991  13.377  0.5752 -0.2713  1.7462
 1338SOL     OW15649   2.358   2.302   5.441 -0.0282  0.0693 -0.3060
 1338SOL    HW115650   2.337   2.209   5.436  1.1508 -0.2568  1.0401
 1338SOL    HW215651   2.271   2.343   5.447 -0.2043 -0.3032 -0.3503
 1339SOL     OW15652   1.338   3.291  14.818  0.1681 -0.1741 -0.1972
 1339SOL    HW115653   1.278   3.340  14.761 -0.2484 -0.2979  0.1318
 1339SOL    HW215654   1.392   3.362  14.853 -0.9783  0.6666 -0.1215
 1340SOL     OW15655   1.150   2.670   1.937  0.4818 -0.2045  0.6945
 1340SOL    HW115656   1.180   2.597   1.991 -0.5132 -1.4913 -0.4812
 1340SOL    HW215657   1.169   2.742   1.997 -0.6981  1.1755 -0.5758
 1341SOL     OW15658   3.535   1.550  15.255  0.4302  0.4656  0.3640
 1341SOL    HW115659   3.448   1.584  15.274  0.8351  0.4288  2.2693
 1341SOL    HW215660   3.588   1.629  15.271 -1.3174  1.5758  0.6959
 1342SOL     OW15661   2.658   1.973   5.206  0.0748  0.1023 -0.4558
 1342SOL    HW115662   2.638   1.996   5.297  0.8280  0.2113 -0.3158
 1342SOL    HW215663   2.618   1.887   5.199 -0.1123  0.0844  0.7728
 1343SOL     OW15664   3.157   2.252   8.636  0.4852  0.3853 -0.7337
 1343SOL    HW115665   3.155   2.293   8.550 -2.5488 -0.7725 -1.2150
 1343SOL    HW215666   3.166   2.325   8.698  0.2556 -2.5002  2.7344
 1344SOL     OW15667   0.741   4.635   8.494  0.7269  0.0373 -0.8591
 1344SOL    HW115668   0.660   4.643   8.444  1.2156  2.7856 -1.1629
 1344SOL    HW215669   0.804   4.686   8.443  1.3881 -0.6910 -0.7812
 1345SOL     OW15670   3.217   2.796  17.453  0.1469 -0.0344 -0.1014
 1345SOL    HW115671   3.202   2.844  17.535 -1.2723  1.9831 -1.5481
 1345SOL    HW215672   3.237   2.875  17.403  1.0843  0.2334  0.6963
 1346SOL     OW15673   3.346   1.161  16.639 -0.8793 -0.1368 -0.3469
 1346SOL    HW115674   3.401   1.238  16.624  0.5620 -1.0900  0.1142
 1346SOL    HW215675   3.301   1.138  16.558  0.2711 -2.6916 -0.2613
 1347SOL     OW15676   1.650   1.554   9.364 -0.0340 -0.2071 -0.0280
 1347SOL    HW115677   1.583   1.516   9.307 -1.1333 -0.7892  1.6448
 1347SOL    HW215678   1.726   1.507   9.330  1.1959  0.6827  1.4883
 1348SOL     OW15679   0.416   1.258  12.988 -0.0845 -0.0446 -0.4203
 1348SOL    HW115680   0.493   1.305  12.954 -1.1473  0.0117 -2.7538
 1348SOL    HW215681   0.393   1.223  12.902  2.6931  0.3693 -1.3447
 1349SOL     OW15682   2.148   2.987   9.120 -0.1866 -0.2213 -0.2557
 1349SOL    HW115683   2.091   2.913   9.140 -1.0858  1.0847  2.0856
 1349SOL    HW215684   2.155   2.979   9.025 -1.1097 -1.6750 -0.1883
 1350SOL     OW15685   2.459   2.637   1.278  0.7509  0.7171 -0.1617
 1350SOL    HW115686   2.433   2.666   1.191  0.8677 -0.2331 -0.5131
 1350SOL    HW215687   2.548   2.610   1.254  1.0810  0.0280  1.8451
 1351SOL     OW15688   2.532   1.888   6.418  0.2909 -0.3223  0.0637
 1351SOL    HW115689   2.528   1.803   6.463 -1.2226  1.1005  2.6133
 1351SOL    HW215690   2.521   1.853   6.329 -1.6728  1.0707 -0.2389
 1352SOL     OW15691   2.925   3.599  10.921 -0.7999  0.1130 -0.4153
 1352SOL    HW115692   2.936   3.525  10.862  0.0407 -2.5970  3.1854
 1352SOL    HW215693   3.015   3.606  10.953 -0.7695 -2.3557 -0.0224
 1353SOL     OW15694   2.231   4.503  16.805 -0.3744  0.6246  0.6821
 1353SOL    HW115695   2.230   4.555  16.724  0.9995  0.0086  0.2633
 1353SOL    HW215696   2.224   4.413  16.772 -0.3943  1.2213 -0.9624
 1354SOL     OW15697   2.283   2.522   3.102 -0.5232  0.4277 -0.2320
 1354SOL    HW115698   2.209   2.486   3.053  0.6359 -1.1978 -0.8216
 1354SOL    HW215699   2.349   2.512   3.033 -0.6299  0.5687 -0.3530
 1355SOL     OW15700   0.585   4.065   6.341 -0.1553  0.3760  0.0146
 1355SOL    HW115701   0.583   4.159   6.358 -0.9398  0.4565 -0.5128
 1355SOL    HW215702   0.496   4.047   6.369 -0.4881  0.5078 -0.9515
 1356SOL     OW15703   4.492   4.420   1.199  0.3487  0.4147 -1.0230
 1356SOL    HW115704   4.485   4.506   1.240  0.9894 -0.7266  1.4913
 1356SOL    HW215705   4.522   4.367   1.274 -1.6005  0.1429 -0.4463
 1357SOL     OW15706   3.224   1.860   7.471 -0.0822  0.0431  0.4860
 1357SOL    HW115707   3.207   1.784   7.526 -0.6726  1.2396  1.9689
 1357SOL    HW215708   3.196   1.827   7.386 -0.1707 -0.1570  0.5921
 1358SOL     OW15709   3.917   3.608   7.005  0.0583  0.2937 -0.1094
 1358SOL    HW115710   3.976   3.646   7.071 -0.7267  2.9770 -0.9313
 1358SOL    HW215711   3.841   3.624   7.061 -0.9983 -0.1017 -1.4365
 1359SOL     OW15712   0.393   2.610  10.488 -0.3032 -0.0061  0.7693
 1359SOL    HW115713   0.354   2.534  10.531  1.0269 -1.9798 -1.5334
 1359SOL    HW215714   0.364   2.577  10.403 -0.2101  1.1647  0.2717
 1360SOL     OW15715   1.164   2.072   7.361  0.1123 -0.0487 -0.0435
 1360SOL    HW115716   1.250   2.108   7.339 -0.9742  3.0933  0.9541
 1360SOL    HW215717   1.186   1.980   7.379 -1.1759 -0.8760 -2.6704
 1361SOL     OW15718   3.446   1.575   4.108  0.0943  0.1435 -0.3988
 1361SOL    HW115719   3.523   1.609   4.063  1.1851  0.2603  1.5680
 1361SOL    HW215720   3.402   1.659   4.093 -1.0267 -0.7501 -2.1650
 1362SOL     OW15721   3.614   2.433   3.402  0.3358  0.3806 -0.0630
 1362SOL    HW115722   3.573   2.484   3.472 -1.4034 -1.3836  0.2158
 1362SOL    HW215723   3.694   2.484   3.391  2.1263 -2.4116 -0.0856
 1363SOL     OW15724   4.728   3.003   2.602 -0.3660  0.2351  0.4221
 1363SOL    HW115725   4.698   2.959   2.522 -0.7697 -0.6818  1.0730
 1363SOL    HW215726   0.030   3.085   2.574  2.2890 -0.2174  2.8613
 1364SOL     OW15727   4.537   3.869  12.585  0.4528 -0.5163  0.3306
 1364SOL    HW115728   4.510   3.889  12.496  0.9149  1.9499  0.7591
 1364SOL    HW215729   4.556   3.960  12.605  0.1384 -0.6661  1.3058
 1365SOL     OW15730   0.032   1.130   5.695 -0.7418  0.0166 -0.1633
 1365SOL    HW115731   0.008   1.222   5.694  1.3513  0.5426 -3.5141
 1365SOL    HW215732   0.110   1.131   5.750 -0.4366  1.7804 -0.6370
 1366SOL     OW15733   1.636   1.061  17.083 -0.3771 -0.0246  0.2158
 1366SOL    HW115734   1.576   0.995  17.049  0.9797 -0.3665 -1.4936
 1366SOL    HW215735   1.646   1.030  17.174 -0.5759 -1.9336 -0.3998
 1367SOL     OW15736   2.711   2.672  10.506  1.0402  0.4437 -0.2205
 1367SOL    HW115737   2.686   2.638  10.591 -0.0215  2.3115  0.2179
 1367SOL    HW215738   2.652   2.635  10.441 -0.3507  1.6786  0.3409
 1368SOL     OW15739   1.160   4.080  15.756 -0.2798  0.3177  0.2677
 1368SOL    HW115740   1.098   4.143  15.791  0.1918  0.4030  0.9436
 1368SOL    HW215741   1.239   4.131  15.775 -0.5172  1.0181 -0.6313
 1369SOL     OW15742   1.813   3.193   9.540 -0.0159 -0.0949 -0.7312
 1369SOL    HW115743   1.881   3.227   9.599 -1.2293  1.0220  0.0116
 1369SOL    HW215744   1.783   3.116   9.588  3.1308 -0.9612 -0.1374
 1370SOL     OW15745   0.343   0.186   4.725  0.6533  0.1842 -0.3341
 1370SOL    HW115746   0.310   0.098   4.744  1.2616  0.3933  1.6002
 1370SOL    HW215747   0.431   0.158   4.700  0.2141  1.1065 -2.8828
 1371SOL     OW15748   2.931   1.146   1.714 -0.5393  0.4057  0.2666
 1371SOL    HW115749   2.836   1.151   1.721 -0.6335 -2.1081  0.9462
 1371SOL    HW215750   2.955   1.163   1.805  0.8288  2.4342 -0.4566
 1372SOL     OW15751   3.438   1.086   2.765  0.0931  0.5698 -0.0584
 1372SOL    HW115752   3.357   1.072   2.814  0.9141 -2.3339  0.5157
 1372SOL    HW215753   3.441   1.009   2.709  1.8071 -0.2508  1.1511
 1373SOL     OW15754   2.602   4.191   3.755 -0.2596 -0.5014  0.2636
 1373SOL    HW115755   2.612   4.283   3.780  1.1414 -0.4054 -0.6216
 1373SOL    HW215756   2.649   4.137   3.819  1.7315  0.2568 -0.5649
 1374SOL     OW15757   1.803   3.684   1.415 -0.6128 -0.0608 -0.6744
 1374SOL    HW115758   1.892   3.680   1.379  0.6504  0.4762  2.3832
 1374SOL    HW215759   1.767   3.737   1.345  0.9359  0.5621 -1.0055
 1375SOL     OW15760   2.272   1.344   6.936  0.2662 -0.0440 -0.0820
 1375SOL    HW115761   2.348   1.298   6.900  0.3724 -0.0646  0.1693
 1375SOL    HW215762   2.264   1.300   7.020  1.7798  0.4614  0.3240
 1376SOL     OW15763   3.033   2.759  12.355 -0.0466 -0.2848  0.4913
 1376SOL    HW115764   3.048   2.807  12.273  2.5723 -0.7286  0.7328
 1376SOL    HW215765   3.089   2.683  12.341 -0.6908 -0.4291 -1.3734
 1377SOL     OW15766   0.115   1.443   8.027 -0.6074  0.1135 -0.5816
 1377SOL    HW115767   0.136   1.492   8.106 -2.3107 -0.0871  0.0008
 1377SOL    HW215768   0.138   1.355   8.055  1.4451  1.4773  2.0212
 1378SOL     OW15769   3.182   3.029   4.485 -0.4005 -0.5829 -0.2783
 1378SOL    HW115770   3.213   3.095   4.424 -1.1600  0.7108  0.7360
 1378SOL    HW215771   3.251   2.964   4.478  0.4720  0.2115  0.9144
 1379SOL     OW15772   3.458   2.899   9.032 -0.5223 -0.5143  0.0882
 1379SOL    HW115773   3.403   2.821   9.043  2.5293 -2.7436 -0.2282
 1379SOL    HW215774   3.522   2.857   8.974  0.8467  1.3421  0.2662
 1380SOL     OW15775   2.974   4.368  13.955  0.2601  0.7761 -0.0937
 1380SOL    HW115776   2.886   4.401  13.973  1.0047  2.1133  1.0347
 1380SOL    HW215777   2.982   4.281  13.995 -0.7961  0.5666 -0.3305
 1381SOL     OW15778   1.891   0.516   8.516 -0.0315  0.5756  0.4758
 1381SOL    HW115779   1.950   0.441   8.514  1.4390  1.7761 -0.8479
 1381SOL    HW215780   1.905   0.539   8.608 -1.3034  0.0854  0.7873
 1382SOL     OW15781   0.350   1.089  14.429 -0.1641  0.0557 -0.1769
 1382SOL    HW115782   0.355   0.998  14.401  0.3981  0.2770 -0.7712
 1382SOL    HW215783   0.378   1.139  14.353  4.0823  1.1018  2.1170
 1383SOL     OW15784   2.328   4.724  10.172  0.2079  0.0880 -0.6072
 1383SOL    HW115785   2.405   0.023  10.215  0.5174  0.1618 -1.2196
 1383SOL    HW215786   2.370   4.659  10.114  0.6798  0.0342 -0.2082
 1384SOL     OW15787   0.041   2.832   6.105  1.1556 -0.4500 -0.2765
 1384SOL    HW115788   0.080   2.746   6.118  1.3867 -0.6874 -2.5936
 1384SOL    HW215789   0.038   2.834   6.010  0.9564 -0.8071 -0.2793
 1385SOL     OW15790   1.187   1.787   8.123  0.6550  0.0859 -1.1466
 1385SOL    HW115791   1.241   1.733   8.180  1.3075  1.6050 -0.3207
 1385SOL    HW215792   1.106   1.762   8.167  1.3844  0.0454  0.1623
 1386SOL     OW15793   1.268   0.020   5.681  0.6511 -0.0955  0.1366
 1386SOL    HW115794   1.340   4.699   5.705  1.0330  0.5460  0.5457
 1386SOL    HW215795   1.235   4.707   5.607  0.7381  1.6609 -1.1068
 1387SOL     OW15796   4.198   4.217   2.945 -0.5646  0.1834  0.1178
 1387SOL    HW115797   4.289   4.190   2.959 -0.5363  0.5561  0.6355
 1387SOL    HW215798   4.208   4.312   2.954 -2.3647  0.4346 -0.5845
 1388SOL     OW15799   0.718   4.669  14.450  0.2958 -0.3231 -0.3495
 1388SOL    HW115800   0.701   4.685  14.543 -0.1422 -0.6589 -0.3749
 1388SOL    HW215801   0.794   4.725  14.434 -0.9379  0.4781 -3.2709
 1389SOL     OW15802   2.369   1.123   1.014  0.0270 -0.1104 -0.2005
 1389SOL    HW115803   2.282   1.093   0.989  0.2960 -1.3319  0.3405
 1389SOL    HW215804   2.369   1.215   0.989  0.4153 -0.6130 -2.0573
 1390SOL     OW15805   1.844   0.290   2.699  0.2571 -0.1270 -0.2979
 1390SOL    HW115806   1.934   0.260   2.690 -0.6036 -2.7283 -0.1344
 1390SOL    HW215807   1.835   0.357   2.631  1.2341  1.0320  0.7061
 1391SOL     OW15808   1.133   2.435   9.515  0.0007 -0.0601 -0.3670
 1391SOL    HW115809   1.083   2.399   9.441  0.4497  0.9929 -1.1841
 1391SOL    HW215810   1.161   2.354   9.557  0.4122  0.3137  0.0774
 1392SOL     OW15811   1.210   0.731  13.149  0.2478  0.3317 -0.4420
 1392SOL    HW115812   1.143   0.732  13.080  0.4266 -0.1165 -0.6233
 1392SOL    HW215813   1.281   0.683  13.107 -0.2128 -1.7124  1.1382
 1393SOL     OW15814   0.669   4.645  10.789 -0.3536  0.2290 -0.1305
 1393SOL    HW115815   0.701   4.639  10.879 -1.5422  0.0560  0.2755
 1393SOL    HW215816   0.649   4.552  10.778  3.1261 -0.2786 -2.2458
 1394SOL     OW15817   0.298   3.602   2.177 -0.1251  1.0052 -0.0190
 1394SOL    HW115818   0.253   3.570   2.255 -1.0444  1.8614 -0.2006
 1394SOL    HW215819   0.358   3.527   2.179 -0.7383  0.5033 -0.4238
 1395SOL     OW15820   0.507   0.565   0.608 -0.0214  0.0661  0.4710
 1395SOL    HW115821   0.497   0.497   0.541  1.3703 -0.4035  0.7440
 1395SOL    HW215822   0.603   0.560   0.613 -0.0230  1.8972  2.0320
 1396SOL     OW15823   3.181   0.945   9.126  0.0037 -0.6648 -0.2220
 1396SOL    HW115824   3.244   0.874   9.131  0.4298 -0.2869 -0.2050
 1396SOL    HW215825   3.251   1.009   9.118  0.7430 -1.4185  0.2599
 1397SOL     OW15826   0.368   4.629   0.556  0.0990  0.4595 -0.9992
 1397SOL    HW115827   0.396   4.709   0.513 -1.5152  1.7588  0.3618
 1397SOL    HW215828   0.429   4.624   0.629 -1.9787 -0.2173  0.7187
 1398SOL     OW15829   3.299   4.255   8.598 -0.2632  0.3492 -0.9781
 1398SOL    HW115830   3.341   4.322   8.652  0.3800  0.2438 -1.3433
 1398SOL    HW215831   3.211   4.251   8.635 -0.4545  1.4479 -1.3092
 1399SOL     OW15832   0.821   4.155   2.464 -0.4448  0.3701  0.1708
 1399SOL    HW115833   0.867   4.235   2.440  2.9020 -1.6316 -0.0218
 1399SOL    HW215834   0.867   4.106   2.532 -1.0823 -1.4117 -0.6839
 1400SOL     OW15835   3.900   0.993   7.566  0.5969  0.5372 -0.4323
 1400SOL    HW115836   3.887   1.057   7.637  2.0963  0.0016  0.3292
 1400SOL    HW215837   3.968   1.048   7.526  0.6230 -0.5363 -1.8555
 1401SOL     OW15838   2.939   1.037   9.159 -0.2609  0.0896  0.0544
 1401SOL    HW115839   2.967   1.128   9.150  1.4956 -0.2500  2.1427
 1401SOL    HW215840   3.021   0.992   9.140 -0.7036 -0.6713 -0.0638
 1402SOL     OW15841   0.423   1.137   6.296 -0.0317 -0.0927 -0.1812
 1402SOL    HW115842   0.451   1.169   6.210 -0.0640  0.4255  0.0028
 1402SOL    HW215843   0.438   1.216   6.347  0.1017 -0.3946  0.2464
 1403SOL     OW15844   4.680   4.163   2.702 -0.0178  0.2571  0.2482
 1403SOL    HW115845   0.028   4.166   2.659 -0.5313 -1.5598 -0.8912
 1403SOL    HW215846   4.625   4.184   2.627  1.9348 -1.4350 -1.6252
 1404SOL     OW15847   1.845   1.668   3.728  0.1745 -0.3160 -0.4591
 1404SOL    HW115848   1.920   1.645   3.673  2.9456  2.5920  2.0899
 1404SOL    HW215849   1.785   1.594   3.717 -1.6241  1.2365 -1.0154
 1405SOL     OW15850   2.892   3.048   3.852  0.5982  0.4277 -0.6409
 1405SOL    HW115851   2.854   3.101   3.922 -2.1296 -1.3394 -0.7818
 1405SOL    HW215852   2.891   3.114   3.783  0.5383  0.1620 -0.8983
 1406SOL     OW15853   2.904   3.111   7.113 -0.1817  0.3351  0.1385
 1406SOL    HW115854   2.959   3.164   7.171  1.0022  1.2050 -1.7999
 1406SOL    HW215855   2.896   3.176   7.044  2.4045  0.2256 -0.2793
 1407SOL     OW15856   1.921   3.085   8.243  0.1927  0.4545  0.2063
 1407SOL    HW115857   2.012   3.066   8.218  0.6258  3.0999 -0.2700
 1407SOL    HW215858   1.876   3.008   8.209  3.0751 -1.5943  1.0549
 1408SOL     OW15859   4.460   1.727   7.271 -0.0994  0.0176 -0.0013
 1408SOL    HW115860   4.514   1.736   7.193 -0.8170  0.9635 -0.3932
 1408SOL    HW215861   4.413   1.811   7.265 -1.0998 -0.5367 -0.0111
 1409SOL     OW15862   3.090   3.102   8.076  0.0075 -0.0404 -0.1988
 1409SOL    HW115863   3.169   3.057   8.044  1.0706  0.6929  1.3904
 1409SOL    HW215864   3.116   3.117   8.166 -1.2586  0.3238  0.0929
 1410SOL     OW15865   0.021   2.738   2.160  0.1751 -0.3619 -0.3937
 1410SOL    HW115866   0.037   2.645   2.146 -0.5373 -0.3695 -1.1375
 1410SOL    HW215867   0.032   2.777   2.073 -1.1242  0.7273 -0.0720
 1411SOL     OW15868   1.028   2.630   4.314 -0.1920  0.8125 -0.2965
 1411SOL    HW115869   1.097   2.585   4.363 -1.2610  1.4011  1.7461
 1411SOL    HW215870   0.985   2.553   4.275 -0.4940  0.9616 -0.2603
 1412SOL     OW15871   3.673   3.976  13.096 -0.1156 -0.5685 -0.3790
 1412SOL    HW115872   3.644   3.966  13.187  0.6412  0.7868  0.0052
 1412SOL    HW215873   3.622   4.053  13.071  0.4017 -0.9397 -2.6151
 1413SOL     OW15874   0.727   0.369   3.571 -0.2831 -0.5216 -0.9330
 1413SOL    HW115875   0.679   0.328   3.643  0.7134  0.7409  0.4636
 1413SOL    HW215876   0.710   0.305   3.502  1.1694  0.4029 -2.1263
 1414SOL     OW15877   2.144   3.505   4.622  0.8170  0.7714  0.1414
 1414SOL    HW115878   2.108   3.594   4.614 -1.9641 -0.3890 -0.4908
 1414SOL    HW215879   2.078   3.480   4.687 -1.4843  0.7326 -2.1912
 1415SOL     OW15880   1.021   0.876  10.504 -0.7846  0.3504  0.3056
 1415SOL    HW115881   1.081   0.923  10.562  0.9446 -0.7485 -0.5921
 1415SOL    HW215882   0.975   0.809  10.554 -1.0647 -1.1799 -1.9746
 1416SOL     OW15883   1.363   0.275   8.518  0.4250 -0.5046 -0.5984
 1416SOL    HW115884   1.422   0.201   8.524  2.1037  0.9370  0.5667
 1416SOL    HW215885   1.417   0.338   8.565  2.0664 -2.2127 -0.2325
 1417SOL     OW15886   1.705   4.268   7.536  0.0732 -0.2665 -0.0252
 1417SOL    HW115887   1.650   4.210   7.483  0.9112 -0.7862 -0.3329
 1417SOL    HW215888   1.793   4.250   7.501  0.3822  1.9055 -0.3439
 1418SOL     OW15889   1.427   3.334   4.496  0.3383  0.4886 -0.6991
 1418SOL    HW115890   1.425   3.403   4.430  1.6648  0.4353 -0.7854
 1418SOL    HW215891   1.392   3.388   4.567 -1.2086 -1.3670 -0.0365
 1419SOL     OW15892   2.630   4.088  17.620  0.2642  0.3202  0.0394
 1419SOL    HW115893   2.651   4.133  17.539  1.4590  0.5192  0.4709
 1419SOL    HW215894   2.560   4.034  17.584  0.3132 -0.2691  0.8104
 1420SOL     OW15895   2.272   1.304  11.950 -0.5106 -0.3641 -0.3484
 1420SOL    HW115896   2.225   1.348  11.880 -4.3916 -1.6620  1.4773
 1420SOL    HW215897   2.360   1.341  11.954 -1.7043  2.4198 -0.2350
 1421SOL     OW15898   0.049   3.937   9.172  0.2669 -0.0810  0.0365
 1421SOL    HW115899   0.077   3.899   9.255  1.5040 -0.1126 -0.4090
 1421SOL    HW215900   0.133   3.969   9.140 -0.0712  2.1933  1.3583
 1422SOL     OW15901   1.437   1.453   3.494  0.3278 -0.1828  0.5226
 1422SOL    HW115902   1.392   1.536   3.475  2.2733 -0.1161 -3.6816
 1422SOL    HW215903   1.363   1.394   3.505 -1.2258  1.6945  0.1866
 1423SOL     OW15904   0.452   2.511   3.210  0.0864  0.1455 -0.5286
 1423SOL    HW115905   0.534   2.538   3.169  0.2172 -1.0307 -1.0310
 1423SOL    HW215906   0.472   2.417   3.204 -0.6167 -0.1462  1.7205
 1424SOL     OW15907   0.223   1.874  12.744  0.5075 -0.0310 -0.1400
 1424SOL    HW115908   0.274   1.922  12.809  0.2413  0.6409 -0.4192
 1424SOL    HW215909   0.144   1.928  12.741  0.1794 -0.6070 -1.9210
 1425SOL     OW15910   0.684   2.028   2.273  0.0223 -0.2682 -0.0869
 1425SOL    HW115911   0.627   1.952   2.290 -0.3921  0.3022  1.0494
 1425SOL    HW215912   0.645   2.087   2.337  2.5409 -0.5362  1.6761
 1426SOL     OW15913   1.729   2.635   7.172 -0.7222 -0.4088  0.2402
 1426SOL    HW115914   1.774   2.704   7.221 -1.0687 -1.0054  1.3899
 1426SOL    HW215915   1.690   2.683   7.098  1.9892 -0.3412 -1.1652
 1427SOL     OW15916   3.857   3.949   2.820  0.3165  0.3554 -0.4825
 1427SOL    HW115917   3.944   3.949   2.780  0.6486  3.3209  0.2248
 1427SOL    HW215918   3.863   4.022   2.882 -1.6586  0.1173 -0.0188
 1428SOL     OW15919   4.268   2.475   2.680  0.5482 -0.1804 -0.7816
 1428SOL    HW115920   4.336   2.518   2.628  1.3801 -0.0262  0.4520
 1428SOL    HW215921   4.195   2.479   2.618 -0.3622  1.4994  0.3943
 1429SOL     OW15922   3.367   2.195  15.911  0.2710 -0.5031  0.0940
 1429SOL    HW115923   3.336   2.268  15.858  0.2129 -1.3279 -0.9981
 1429SOL    HW215924   3.335   2.218  15.999 -0.9040  0.4284 -0.5855
 1430SOL     OW15925   4.005   0.450   4.433 -0.6065 -0.4391 -0.8138
 1430SOL    HW115926   4.006   0.538   4.397 -0.0995 -0.9702 -2.1081
 1430SOL    HW215927   3.917   0.417   4.418 -1.5615  0.4611  2.7780
 1431SOL     OW15928   4.561   2.247   5.541 -0.8782 -0.4055 -0.0579
 1431SOL    HW115929   4.529   2.320   5.595 -1.1557  1.3476 -2.5724
 1431SOL    HW215930   4.608   2.293   5.472 -2.2434  0.3847 -0.4749
 1432SOL     OW15931   2.334   4.220  16.336  0.0527 -0.2958  0.8210
 1432SOL    HW115932   2.294   4.305  16.354  1.6514 -0.1978  3.9015
 1432SOL    HW215933   2.391   4.240  16.262  0.8892 -1.7369  1.0842
 1433SOL     OW15934   0.948   3.310   3.973 -0.6562 -0.7438 -0.1950
 1433SOL    HW115935   1.006   3.247   4.016 -0.9836  1.3867  3.3554
 1433SOL    HW215936   0.873   3.250   3.970 -0.1177 -1.3304 -1.7585
 1434SOL     OW15937   3.294   0.125   6.697  0.7382  0.0323 -0.3928
 1434SOL    HW115938   3.376   0.089   6.733 -0.3235 -1.3924  0.6216
 1434SOL    HW215939   3.317   0.218   6.692 -0.2481  0.2234 -1.3943
 1435SOL     OW15940   2.374   0.997   2.491 -0.2964  0.9051  0.1831
 1435SOL    HW115941   2.291   0.950   2.480  0.4740  0.0495 -2.0367
 1435SOL    HW215942   2.392   1.032   2.404 -1.0929 -1.0722 -0.7956
 1436SOL     OW15943   3.947   2.179  14.697 -0.4681 -0.0199  0.4520
 1436SOL    HW115944   4.036   2.174  14.662 -0.7869  0.8459 -0.4602
 1436SOL    HW215945   3.930   2.273  14.701  0.0250  0.0994 -0.3983
 1437SOL     OW15946   1.347   0.286   7.723  0.5366  0.0320 -0.2299
 1437SOL    HW115947   1.270   0.284   7.778 -0.1032  1.7788 -1.0461
 1437SOL    HW215948   1.405   0.260   7.795 -1.9128 -0.5940  1.4937
 1438SOL     OW15949   1.906   0.225  13.342 -0.2067  0.1910  0.3981
 1438SOL    HW115950   1.901   0.295  13.407  2.3466  0.4960  0.2546
 1438SOL    HW215951   1.847   0.267  13.279  2.2249  0.0649 -1.9671
 1439SOL     OW15952   2.404   2.150  15.281  0.0195  0.0091  0.3153
 1439SOL    HW115953   2.496   2.174  15.290 -0.1706 -0.0895  2.6903
 1439SOL    HW215954   2.377   2.188  15.365 -1.8508 -0.5913 -0.0104
 1440SOL     OW15955   0.419   1.769   3.744  0.4155  0.1566  0.0136
 1440SOL    HW115956   0.398   1.683   3.780 -2.5111  0.2482 -1.4346
 1440SOL    HW215957   0.449   1.816   3.822 -0.6924  0.8944  0.0015
 1441SOL     OW15958   2.214   1.259   5.768 -0.1203  0.4947 -0.9903
 1441SOL    HW115959   2.158   1.186   5.792  0.3012  0.0786 -1.2781
 1441SOL    HW215960   2.167   1.290   5.691  0.7728  0.7213 -1.4474
 1442SOL     OW15961   2.629   3.009   6.940  0.5835 -0.2786 -0.4235
 1442SOL    HW115962   2.636   2.931   6.994 -0.7205 -0.7376 -0.9257
 1442SOL    HW215963   2.645   3.077   7.006  0.6828  2.2857 -3.0441
 1443SOL     OW15964   0.223   4.360   2.118  0.0982 -0.5586 -0.0623
 1443SOL    HW115965   0.152   4.423   2.131  2.9356  3.1845 -2.5948
 1443SOL    HW215966   0.285   4.415   2.070 -0.9314 -0.5026 -1.3186
 1444SOL     OW15967   0.050   3.119   5.264 -0.7807  0.3843 -0.7010
 1444SOL    HW115968   0.093   3.141   5.182  1.0225 -0.6469 -0.0337
 1444SOL    HW215969   0.026   3.028   5.245 -1.7248  1.0639 -2.8086
 1445SOL     OW15970   4.484   2.854   7.274 -0.0354 -0.3258  0.3948
 1445SOL    HW115971   4.432   2.855   7.354 -2.3483  2.3056 -1.1780
 1445SOL    HW215972   4.421   2.876   7.205  1.3277  0.1301 -0.7140
 1446SOL     OW15973   0.438   0.583   2.800 -0.1134  0.6664 -0.2130
 1446SOL    HW115974   0.379   0.511   2.819  0.7124 -0.7464 -2.9960
 1446SOL    HW215975   0.437   0.628   2.885  1.8838 -0.3216  0.3367
 1447SOL     OW15976   3.676   0.248   6.058  0.5620 -0.1154  0.8681
 1447SOL    HW115977   3.601   0.292   6.098  0.6414 -0.7390  1.7148
 1447SOL    HW215978   3.733   0.220   6.130  1.4562 -0.0825  0.1715
 1448SOL     OW15979   4.464   2.924   8.654 -0.2431  0.2276 -0.0531
 1448SOL    HW115980   4.405   2.854   8.626  1.1683 -0.8586 -0.3244
 1448SOL    HW215981   4.434   2.988   8.589  1.4651 -0.7870 -1.8411
 1449SOL     OW15982   2.518   1.646   6.536  0.5654 -0.1978 -0.5407
 1449SOL    HW115983   2.550   1.557   6.518 -4.0133 -1.7904 -1.1129
 1449SOL    HW215984   2.444   1.636   6.596 -0.1013 -0.7426 -1.4422
 1450SOL     OW15985   1.254   2.664   4.770 -0.6276  0.2045  0.0298
 1450SOL    HW115986   1.249   2.604   4.845 -0.8961  1.1587  0.7767
 1450SOL    HW215987   1.241   2.746   4.818 -1.6088 -0.7954  1.4472
 1451SOL     OW15988   4.076   1.586   3.953  0.3501  0.7553 -0.1222
 1451SOL    HW115989   3.997   1.607   4.003 -1.2259 -1.3945 -1.7009
 1451SOL    HW215990   4.067   1.491   3.944  0.3329  0.8919 -1.4911
 1452SOL     OW15991   4.413   1.097   7.428 -0.3891 -0.4309 -0.0873
 1452SOL    HW115992   4.448   1.155   7.360  0.5309  1.3695  1.9405
 1452SOL    HW215993   4.453   1.016   7.396 -1.3738  0.2151 -2.9850
 1453SOL     OW15994   3.020   2.239  12.508 -0.2324  0.2529  0.1798
 1453SOL    HW115995   3.066   2.295  12.445 -0.4976  0.6433  0.3326
 1453SOL    HW215996   3.065   2.271  12.585  0.1459  2.7581 -1.0834
 1454SOL     OW15997   3.630   2.862   5.969 -0.0379  0.0703  0.2598
 1454SOL    HW115998   3.615   2.949   6.007 -0.0571 -0.4885  1.5545
 1454SOL    HW215999   3.573   2.815   6.030 -0.8465  1.1197  0.3061
 1455SOL     OW16000   4.553   0.434   2.487  0.0603 -0.9789  0.0330
 1455SOL    HW116001   4.508   0.396   2.412  0.1119  1.6709 -1.3517
 1455SOL    HW216002   4.504   0.516   2.486  0.4096 -0.7652  0.6784
 1456SOL     OW16003   2.197   3.570   8.008  0.2522  0.2092 -0.0254
 1456SOL    HW116004   2.207   3.664   7.994 -2.2016  0.8295  2.4372
 1456SOL    HW216005   2.218   3.559   8.101 -1.7142 -0.9263  0.2842
 1457SOL     OW16006   0.985   2.618   5.334 -0.1409 -0.1968  0.2018
 1457SOL    HW116007   1.004   2.682   5.265 -0.2734  0.3096  0.6390
 1457SOL    HW216008   0.894   2.629   5.361  0.1419  0.8643  0.7272
 1458SOL     OW16009   3.182   3.652   5.953  1.2079 -0.6034 -0.1950
 1458SOL    HW116010   3.180   3.698   5.869 -0.0539 -0.0311  0.1519
 1458SOL    HW216011   3.103   3.690   5.990 -0.2849 -3.7346 -0.1154
 1459SOL     OW16012   2.443   0.455  16.457  0.2867 -0.1264 -0.0068
 1459SOL    HW116013   2.412   0.374  16.499  0.2549 -0.9937 -1.7036
 1459SOL    HW216014   2.487   0.508  16.523 -0.5829  1.4533 -0.6945
 1460SOL     OW16015   0.871   0.076  11.053 -0.1914  0.0560 -0.5318
 1460SOL    HW116016   0.798   0.018  11.074  0.8772 -0.5918  1.4471
 1460SOL    HW216017   0.926   0.061  11.130  0.1035  0.7490 -0.6064
 1461SOL     OW16018   3.529   3.466   3.475 -0.0180 -0.0745 -0.1404
 1461SOL    HW116019   3.616   3.469   3.437  0.1607  0.7455  0.3462
 1461SOL    HW216020   3.547   3.490   3.566 -0.6148 -0.4147  0.0724
 1462SOL     OW16021   1.384   3.753   4.669 -0.0760  0.4782  0.0738
 1462SOL    HW116022   1.302   3.704   4.676  0.6249 -0.8008 -0.5847
 1462SOL    HW216023   1.421   3.698   4.600  0.0859  1.1074 -0.3371
 1463SOL     OW16024   4.448   1.421   1.943 -0.3139  0.3487 -0.2167
 1463SOL    HW116025   4.475   1.432   1.851  0.0025 -1.2174 -0.3096
 1463SOL    HW216026   4.458   1.514   1.966  0.0082  0.0077  0.9961
 1464SOL     OW16027   3.190   3.602   6.687 -0.6219  1.1739  0.1917
 1464SOL    HW116028   3.105   3.559   6.674  0.3143 -0.1548 -1.5382
 1464SOL    HW216029   3.166   3.693   6.674 -2.0176  0.7736  0.0004
 1465SOL     OW16030   0.959   1.764   2.820  0.6452  0.6100 -0.3112
 1465SOL    HW116031   0.904   1.698   2.778 -0.7195  1.7755 -0.3553
 1465SOL    HW216032   0.885   1.811   2.859  0.2612 -0.2033 -0.0614
 1466SOL     OW16033   2.968   4.160   4.588  0.0299 -0.5494 -0.6606
 1466SOL    HW116034   2.992   4.113   4.667 -1.8712 -1.8073 -0.8109
 1466SOL    HW216035   3.012   4.245   4.591  1.5533 -1.4212  1.1172
 1467SOL     OW16036   3.662   0.291   2.414  0.9928  0.2113  0.8101
 1467SOL    HW116037   3.608   0.364   2.382  0.2149 -0.9364 -0.5142
 1467SOL    HW216038   3.624   0.213   2.373 -0.0405  0.2975  1.5837
 1468SOL     OW16039   4.668   2.420   2.642 -0.1087 -0.2792 -0.2150
 1468SOL    HW116040   4.679   2.388   2.553  0.4727 -0.7471  0.0208
 1468SOL    HW216041   4.669   2.340   2.694  1.7534 -1.6282 -2.3797
 1469SOL     OW16042   0.155   0.935  17.320 -0.8295  0.1962  0.2773
 1469SOL    HW116043   0.104   1.015  17.311 -2.6810 -1.1676 -1.4324
 1469SOL    HW216044   0.079   0.887  17.352 -1.2956  0.5418 -0.3156
 1470SOL     OW16045   3.521   2.620   3.194  0.6399 -0.0271  0.0263
 1470SOL    HW116046   3.539   2.582   3.281 -1.0654 -1.9281 -0.4565
 1470SOL    HW216047   3.426   2.626   3.189  0.7775  1.7885 -0.2790
 1471SOL     OW16048   3.087   0.429   5.909  0.4957 -0.0996  0.3950
 1471SOL    HW116049   3.041   0.452   5.828 -1.3372  0.5997  1.6431
 1471SOL    HW216050   3.054   0.492   5.972 -0.8346 -0.3070 -0.0951
 1472SOL     OW16051   0.259   3.064   6.920  0.0231  0.5409 -0.2880
 1472SOL    HW116052   0.328   3.128   6.902  0.5684 -0.1198 -0.5141
 1472SOL    HW216053   0.241   3.079   7.013  1.6228  0.0175  0.0988
 1473SOL     OW16054   0.169   1.594   8.779 -0.1023  0.0720 -0.3366
 1473SOL    HW116055   0.237   1.634   8.725  0.4582 -0.7849 -0.2465
 1473SOL    HW216056   0.119   1.536   8.722 -1.0749  1.2170 -0.6693
 1474SOL     OW16057   0.816   1.288   3.841  0.0372  0.2423 -0.3803
 1474SOL    HW116058   0.761   1.258   3.914  0.5660  2.7570  1.0384
 1474SOL    HW216059   0.752   1.278   3.770 -0.2571 -1.8690  0.1842
 1475SOL     OW16060   1.895   1.470   2.455 -0.1593 -0.3145  0.0525
 1475SOL    HW116061   1.832   1.541   2.445  0.0156 -0.5963 -3.1630
 1475SOL    HW216062   1.974   1.516   2.427 -1.8241  1.1697 -2.1605
 1476SOL     OW16063   1.917   4.052  14.659 -0.9544  0.9063  0.2529
 1476SOL    HW116064   1.912   3.965  14.699  2.2921  0.2504 -0.7461
 1476SOL    HW216065   1.883   4.107  14.729 -0.1228 -0.1827  1.5434
 1477SOL     OW16066   3.873   2.918  10.505  0.6021  0.3539  0.1120
 1477SOL    HW116067   3.820   2.971  10.565 -0.4409  0.4832 -0.9266
 1477SOL    HW216068   3.957   2.919  10.551  0.7303  1.3659 -0.1556
 1478SOL     OW16069   3.715   2.016   7.320  0.4801 -0.6675  0.2183
 1478SOL    HW116070   3.688   1.928   7.345  1.4389 -1.7895 -2.6752
 1478SOL    HW216071   3.637   2.039   7.269  0.2602  0.1530  0.9280
 1479SOL     OW16072   2.017   3.640   5.073  0.5048  0.0400  0.2986
 1479SOL    HW116073   2.085   3.676   5.016 -0.3158  4.1877  1.9405
 1479SOL    HW216074   1.941   3.696   5.053 -1.5143 -1.8205  2.7130
 1480SOL     OW16075   4.416   2.188   9.802 -0.3559 -0.1107  0.3701
 1480SOL    HW116076   4.511   2.192   9.800 -0.2548 -2.2155  0.6958
 1480SOL    HW216077   4.401   2.101   9.839 -0.1600 -0.6046 -0.7206
 1481SOL     OW16078   4.379   2.833   3.353 -0.2881 -0.3961  0.1291
 1481SOL    HW116079   4.317   2.808   3.285  1.0160 -0.4612 -1.0253
 1481SOL    HW216080   4.325   2.838   3.432  0.7647  3.4855  0.5840
 1482SOL     OW16081   1.222   0.785   3.279  0.3791  0.1822 -0.1447
 1482SOL    HW116082   1.260   0.707   3.318 -1.1370 -0.5147 -0.0370
 1482SOL    HW216083   1.131   0.771   3.305 -0.3428 -0.3843 -2.9675
 1483SOL     OW16084   1.179   4.228   5.042 -0.2769 -0.7931  0.2233
 1483SOL    HW116085   1.163   4.263   5.130  1.6674 -0.5585  0.4743
 1483SOL    HW216086   1.167   4.135   5.060 -2.7915 -0.4083  0.6044
 1484SOL     OW16087   2.699   2.991  11.938 -0.3108 -0.1320 -0.1952
 1484SOL    HW116088   2.689   2.986  12.033  3.0425 -0.3336  0.1504
 1484SOL    HW216089   2.606   2.992  11.915 -0.5291  0.9126  0.6888
 1485SOL     OW16090   3.091   0.153  13.405 -0.6360  0.9947  0.0948
 1485SOL    HW116091   3.030   0.094  13.361 -0.6877  1.1598 -0.0531
 1485SOL    HW216092   3.147   0.098  13.460 -0.2419 -1.4778 -2.7391
 1486SOL     OW16093   2.370   0.480   8.056  0.6106 -0.1026 -0.2439
 1486SOL    HW116094   2.326   0.396   8.046  1.4308 -0.1231 -3.7763
 1486SOL    HW216095   2.463   0.459   8.055  0.7031  0.2062  1.5493
 1487SOL     OW16096   3.009   4.399   4.872  0.4730  0.6414  0.3290
 1487SOL    HW116097   2.958   4.346   4.932 -0.2526 -0.2882 -1.1040
 1487SOL    HW216098   3.092   4.350   4.869 -0.9408 -1.6335 -1.9542
 1488SOL     OW16099   4.464   3.296   4.350  0.0965 -0.1857  0.2226
 1488SOL    HW116100   4.543   3.256   4.316 -0.1039  0.3347 -0.8533
 1488SOL    HW216101   4.408   3.289   4.273 -1.2981 -2.1923  1.4209
 1489SOL     OW16102   2.656   4.125   6.969 -0.0535 -0.6384 -0.4721
 1489SOL    HW116103   2.592   4.093   6.905 -1.6804 -0.9114  1.2731
 1489SOL    HW216104   2.665   4.054   7.033  2.7895  1.9195  1.9113
 1490SOL     OW16105   0.271   2.860   2.596  0.1681  0.1867  0.7294
 1490SOL    HW116106   0.248   2.890   2.508  1.3891 -2.7524 -0.5950
 1490SOL    HW216107   0.235   2.772   2.585  0.6141 -0.1406  1.8504
 1491SOL     OW16108   0.451   0.850  12.302 -0.1229  0.0339  0.0312
 1491SOL    HW116109   0.493   0.771  12.335 -0.5218  1.4209  3.8896
 1491SOL    HW216110   0.493   0.855  12.216  0.9059 -2.1427  0.4199
 1492SOL     OW16111   2.495   0.153   3.459  0.1875 -0.2577  0.8971
 1492SOL    HW116112   2.508   0.136   3.552 -0.3812 -0.4415  0.9471
 1492SOL    HW216113   2.495   0.248   3.458 -0.7299 -0.2594  0.1192
 1493SOL     OW16114   4.185   1.750   4.813 -0.3817 -0.3278  0.6399
 1493SOL    HW116115   4.158   1.818   4.752 -0.8137 -0.6178  0.5126
 1493SOL    HW216116   4.273   1.776   4.843 -0.5653  1.6562 -0.5766
 1494SOL     OW16117   1.037   4.383   2.415  0.3164  0.2568 -0.1456
 1494SOL    HW116118   1.064   4.453   2.356  5.3594 -0.0234  1.8507
 1494SOL    HW216119   1.116   4.384   2.469  0.5556 -1.6840 -0.4417
 1495SOL     OW16120   0.148   0.145   3.074 -0.1603 -0.5223 -0.1328
 1495SOL    HW116121   0.236   0.143   3.035 -1.1443 -2.6370 -2.1987
 1495SOL    HW216122   0.092   0.106   3.007 -1.0169 -1.3523  1.0793
 1496SOL     OW16123   2.204   0.695  10.384  0.1679  0.2873  0.2698
 1496SOL    HW116124   2.229   0.647  10.306 -1.5127  0.1636 -0.2095
 1496SOL    HW216125   2.263   0.653  10.446  1.0847  1.4038  0.1618
 1497SOL     OW16126   2.084   1.676  13.983  0.0432  0.2250  0.3596
 1497SOL    HW116127   2.027   1.607  13.951  2.0172 -0.5741 -1.4229
 1497SOL    HW216128   2.140   1.621  14.037  0.8027  0.5357 -0.1192
 1498SOL     OW16129   3.349   4.728   4.206  0.2061 -0.2245  0.0010
 1498SOL    HW116130   3.280   4.665   4.224  0.5896 -0.7276 -0.3067
 1498SOL    HW216131   3.289   0.065   4.196  1.7681  0.7980 -1.6580
 1499SOL     OW16132   2.337   3.614  15.198  0.7669 -0.0022  0.0632
 1499SOL    HW116133   2.307   3.584  15.112  0.9893  0.1562 -0.0700
 1499SOL    HW216134   2.318   3.707  15.190  0.0075 -0.0184  1.6914
 1500SOL     OW16135   0.747   3.162  10.820  0.8493  0.1476  0.3698
 1500SOL    HW116136   0.786   3.240  10.860 -0.3217  1.0180 -0.1955
 1500SOL    HW216137   0.823   3.117  10.781  1.4305  0.2375  1.4004
 1501SOL     OW16138   3.327   3.379   3.319 -0.5006  0.6434 -0.1552
 1501SOL    HW116139   3.379   3.421   3.387  0.4134  1.5006 -1.3871
 1501SOL    HW216140   3.243   3.361   3.361 -0.2554  3.1586  1.3942
 1502SOL     OW16141   3.876   3.763   4.285  0.1113  0.0478 -0.8891
 1502SOL    HW116142   3.954   3.713   4.261 -0.2883  0.8901 -3.9400
 1502SOL    HW216143   3.914   3.851   4.285  2.7451 -1.0890  1.0083
 1503SOL     OW16144   1.025   4.270   9.628  0.1988 -0.9664 -0.1175
 1503SOL    HW116145   1.098   4.329   9.612 -1.9505  1.6127 -0.4916
 1503SOL    HW216146   0.951   4.317   9.590  0.1634  1.2489  2.6866
 1504SOL     OW16147   2.159   3.968   4.397  0.1929  0.0648  0.1322
 1504SOL    HW116148   2.099   4.028   4.440  1.0605  2.3800 -1.8550
 1504SOL    HW216149   2.139   3.972   4.303  2.0513 -1.6586 -0.3335
 1505SOL     OW16150   2.886   3.120  12.635  0.2031  0.0501  0.2994
 1505SOL    HW116151   2.890   3.044  12.577  1.2996 -2.0054  3.0871
 1505SOL    HW216152   2.814   3.173  12.601  0.3389  0.5176  0.7442
 1506SOL     OW16153   0.654   2.642   3.039 -0.2005 -1.0280  0.0670
 1506SOL    HW116154   0.740   2.600   3.031  0.4749  0.1603  0.9934
 1506SOL    HW216155   0.672   2.736   3.048  1.3465 -1.3313  0.2594
 1507SOL     OW16156   3.616   3.454  17.347 -0.0867  0.4505 -0.2655
 1507SOL    HW116157   3.621   3.468  17.253  1.0485  0.2980 -0.2264
 1507SOL    HW216158   3.670   3.376  17.360 -3.0499 -1.0521  3.2214
 1508SOL     OW16159   3.764   4.071   7.323  0.1438  0.3851 -0.2952
 1508SOL    HW116160   3.669   4.056   7.320  0.2339 -0.3564  0.7296
 1508SOL    HW216161   3.794   4.044   7.236 -1.5812 -1.3367 -0.3501
 1509SOL     OW16162   0.359   0.377   4.457 -0.0992  0.3755  0.0240
 1509SOL    HW116163   0.387   0.291   4.427 -3.9450 -0.7895 -0.2385
 1509SOL    HW216164   0.435   0.396   4.513  1.4145 -2.8842 -0.9449
 1510SOL     OW16165   3.203   4.621   5.310 -0.2744  0.0348  0.5899
 1510SOL    HW116166   3.281   4.655   5.267 -1.5716  2.9953  0.5824
 1510SOL    HW216167   3.148   4.598   5.235  0.8476  0.7248 -0.4450
 1511SOL     OW16168   4.375   2.172   5.053 -0.7995 -0.0321  0.3565
 1511SOL    HW116169   4.317   2.111   5.098  0.2555 -0.4895  1.1156
 1511SOL    HW216170   4.305   2.234   5.034 -1.1204  0.2058  2.3040
 1512SOL     OW16171   1.164   2.862  15.272 -0.2063 -0.4410  0.5836
 1512SOL    HW116172   1.133   2.952  15.272 -0.3094 -0.4766  0.9903
 1512SOL    HW216173   1.106   2.826  15.339  1.6981  0.4576  2.7375
 1513SOL     OW16174   2.848   0.069   6.364  0.3418 -0.3243 -1.0395
 1513SOL    HW116175   2.802   0.103   6.440  0.5260 -1.3665 -0.4529
 1513SOL    HW216176   2.774   0.060   6.303  1.1805 -0.5873 -2.0226
 1514SOL     OW16177   2.754   2.949  15.248  0.0244 -0.7322  0.4266
 1514SOL    HW116178   2.754   2.880  15.181  0.9213  1.2251 -1.5836
 1514SOL    HW216179   2.847   2.970  15.256  0.1232 -1.6657  1.7496
 1515SOL     OW16180   3.659   0.883   4.937  0.1478  0.3755  0.1620
 1515SOL    HW116181   3.683   0.952   4.998  0.8858 -0.6860  1.0725
 1515SOL    HW216182   3.728   0.882   4.871  0.6593  1.5058  0.6878
 1516SOL     OW16183   0.975   1.628   2.432  0.0787  0.2479 -0.1376
 1516SOL    HW116184   0.886   1.593   2.425  0.6920 -1.0551 -1.2079
 1516SOL    HW216185   1.017   1.563   2.488  1.1884 -0.8521 -2.2603
 1517SOL     OW16186   2.961   1.978   9.455  0.1332 -0.3469 -0.1211
 1517SOL    HW116187   2.877   1.934   9.453  0.4196 -0.8641 -0.6987
 1517SOL    HW216188   2.995   1.992   9.367  2.1910 -2.5088  0.3167
 1518SOL     OW16189   1.872   1.477  12.806  0.3863 -0.0109  0.4415
 1518SOL    HW116190   1.839   1.387  12.809  1.1387 -0.2206  3.0683
 1518SOL    HW216191   1.966   1.466  12.795  0.4119 -0.1400  0.7660
 1519SOL     OW16192   0.710   4.656  12.703  0.4733  0.1660 -0.0521
 1519SOL    HW116193   0.722   4.623  12.792 -1.8715 -1.7167 -0.4251
 1519SOL    HW216194   0.796   4.693  12.683 -0.3031  1.3932 -1.0756
 1520SOL     OW16195   4.431   3.364   7.019  0.1204 -0.5399 -0.6163
 1520SOL    HW116196   4.462   3.357   7.109  0.1802  2.1378 -0.4286
 1520SOL    HW216197   4.403   3.276   6.994  0.2843 -1.2720  1.8077
 1521SOL     OW16198   2.514   1.761  13.613  0.1461  0.0938 -0.5894
 1521SOL    HW116199   2.464   1.841  13.626  0.5148  0.3187 -0.5397
 1521SOL    HW216200   2.575   1.771  13.687 -1.0643 -2.4475  0.7801
 1522SOL     OW16201   3.952   3.527   3.829  0.2994  0.0312 -0.3501
 1522SOL    HW116202   3.879   3.476   3.864 -0.2375  1.5486  0.7099
 1522SOL    HW216203   4.023   3.518   3.893  0.5123 -2.7666 -0.9489
 1523SOL     OW16204   0.973   0.834   2.714  1.0090  0.0263 -0.1430
 1523SOL    HW116205   1.021   0.839   2.796 -0.8859  3.3619  0.7799
 1523SOL    HW216206   1.047   0.849   2.655 -0.4411  1.5478 -1.6000
 1524SOL     OW16207   1.711   4.035  10.710 -0.1547  0.4572 -0.2155
 1524SOL    HW116208   1.696   3.952  10.666 -0.6204  0.0150  0.7712
 1524SOL    HW216209   1.806   4.023  10.709 -0.4522 -2.0713  0.3256
 1525SOL     OW16210   1.470   3.579   6.391  0.7979  0.0444 -0.4866
 1525SOL    HW116211   1.451   3.581   6.297  0.4798  0.9668 -0.4001
 1525SOL    HW216212   1.381   3.584   6.424  1.1508  1.8929  0.1949
 1526SOL     OW16213   0.475   0.222   6.585  0.0044  0.1134  0.1341
 1526SOL    HW116214   0.401   0.164   6.568 -0.2632  0.8437 -1.1937
 1526SOL    HW216215   0.509   0.193   6.669  1.1557 -1.6073 -0.9156
 1527SOL     OW16216   2.097   1.849  11.640  0.0883  0.2511 -0.4773
 1527SOL    HW116217   2.119   1.874  11.730  0.1920 -4.0134  0.6710
 1527SOL    HW216218   2.004   1.871  11.640 -0.1003 -0.5154  2.7768
 1528SOL     OW16219   2.041   4.650  16.975 -0.5464 -0.0320  0.6212
 1528SOL    HW116220   2.102   4.589  16.934 -1.3360 -0.4847  0.1348
 1528SOL    HW216221   2.034   4.603  17.058 -1.5230  1.3252  1.2979
 1529SOL     OW16222   0.819   2.479   6.640 -0.0616  0.2377 -0.2312
 1529SOL    HW116223   0.833   2.560   6.689 -0.4002  0.3022 -0.2431
 1529SOL    HW216224   0.868   2.421   6.699 -0.3149 -1.7504 -1.9928
 1530SOL     OW16225   0.586   4.576   5.145 -0.2387  0.1566 -0.3452
 1530SOL    HW116226   0.665   4.612   5.186 -0.9249  0.9937  0.2447
 1530SOL    HW216227   0.603   4.482   5.151 -0.0336  0.1772 -0.5848
 1531SOL     OW16228   2.043   3.866   2.856 -0.0335 -0.6504 -0.1735
 1531SOL    HW116229   2.067   3.774   2.853  0.9822 -0.3470 -1.3400
 1531SOL    HW216230   2.067   3.885   2.765 -0.3277 -1.1206 -0.3467
 1532SOL     OW16231   0.199   4.268   5.109 -0.0793  0.2394  0.0539
 1532SOL    HW116232   0.262   4.284   5.179 -0.1003 -1.2555  0.4068
 1532SOL    HW216233   0.171   4.181   5.137  1.4511 -0.2740 -0.0016
 1533SOL     OW16234   3.339   0.094  16.785  0.7823 -0.2541 -0.0418
 1533SOL    HW116235   3.300   0.009  16.765 -1.5057  0.4576  1.3789
 1533SOL    HW216236   3.334   0.148  16.706 -1.6521  0.3458  0.5208
 1534SOL     OW16237   4.144   1.890   5.361  0.0340 -0.1325  0.2752
 1534SOL    HW116238   4.123   1.886   5.454 -2.1288  1.7582 -0.1189
 1534SOL    HW216239   4.209   1.821   5.359  0.1405 -0.0105 -0.4394
 1535SOL     OW16240   0.408   1.399  15.508  0.1050 -0.5059 -0.0905
 1535SOL    HW116241   0.465   1.456  15.559  0.0007  0.7204 -1.3409
 1535SOL    HW216242   0.326   1.409  15.558  0.8171 -0.5934  1.0872
 1536SOL     OW16243   1.425   2.456   6.643  0.1892 -0.0117  0.5018
 1536SOL    HW116244   1.438   2.437   6.550  1.3525  1.6134  0.3236
 1536SOL    HW216245   1.387   2.543   6.645  0.9356  0.3258 -0.0039
 1537SOL     OW16246   2.340   1.435   9.078  0.4053 -0.2691 -0.0685
 1537SOL    HW116247   2.392   1.355   9.083  1.8599  0.5308 -2.7741
 1537SOL    HW216248   2.329   1.444   9.173  0.8502 -1.1929  0.0732
 1538SOL     OW16249   2.198   4.131   5.676 -0.0586 -0.3990  0.5486
 1538SOL    HW116250   2.188   4.188   5.599 -1.6800 -0.6390  0.5821
 1538SOL    HW216251   2.256   4.187   5.728  0.6023  0.0354 -0.6416
 1539SOL     OW16252   0.101   1.811   8.480  0.1995 -0.3591  0.1204
 1539SOL    HW116253   0.170   1.760   8.437  0.1230  0.0406 -0.4721
 1539SOL    HW216254   0.116   1.902   8.455  0.2691 -0.4593 -0.2178
 1540SOL     OW16255   1.666   3.479   7.634 -0.9094 -0.6941 -0.2763
 1540SOL    HW116256   1.713   3.539   7.576 -0.7203 -1.7528 -1.2173
 1540SOL    HW216257   1.586   3.455   7.587 -1.5166  0.2464  0.2761
 1541SOL     OW16258   1.543   2.234  14.342 -0.2148 -0.3828 -0.0737
 1541SOL    HW116259   1.592   2.307  14.305 -0.9775  1.3186  2.2987
 1541SOL    HW216260   1.472   2.268  14.397 -0.3835  0.7297 -0.9827
 1542SOL     OW16261   4.495   4.330  17.711  0.1815  0.4365  0.2000
 1542SOL    HW116262   4.414   4.367  17.677  0.4041 -1.4981 -2.4282
 1542SOL    HW216263   4.464   4.242  17.734  0.1763 -0.1825 -2.1843
 1543SOL     OW16264   3.688   1.573   2.513  0.2421  0.3208  0.0724
 1543SOL    HW116265   3.706   1.546   2.422  0.7418 -2.9035  1.1065
 1543SOL    HW216266   3.625   1.644   2.511 -1.5896 -1.2793  0.6606
 1544SOL     OW16267   2.839   2.844   3.362  0.4779 -0.5214  0.6103
 1544SOL    HW116268   2.859   2.759   3.399  2.8124 -1.7859 -3.5434
 1544SOL    HW216269   2.758   2.827   3.315  0.9916 -0.0069 -0.4667
 1545SOL     OW16270   2.830   2.802  17.715 -0.0105 -0.3155 -0.0207
 1545SOL    HW116271   2.752   2.750  17.734 -1.3274  2.0751  1.1420
 1545SOL    HW216272   2.787   2.862  17.653 -0.8643  0.6599  1.5091
 1546SOL     OW16273   1.789   0.438  13.208  0.6866  0.9341 -0.2830
 1546SOL    HW116274   1.724   0.400  13.149 -0.9244  2.6488  0.3738
 1546SOL    HW216275   1.738   0.508  13.249 -0.4709 -0.7611  1.1881
 1547SOL     OW16276   2.379   0.090   4.770  0.0483  0.1931 -0.4467
 1547SOL    HW116277   2.446   0.054   4.712  1.6174  0.7388  0.9985
 1547SOL    HW216278   2.425   0.167   4.804  1.3293 -0.1699 -1.3388
 1548SOL     OW16279   2.710   1.135   5.812  0.7867 -0.2089  0.2324
 1548SOL    HW116280   2.633   1.146   5.869  1.3107 -0.4052  0.9848
 1548SOL    HW216281   2.662   1.124   5.730  1.0086  3.6640 -0.4368
 1549SOL     OW16282   2.519   3.890   3.674  0.5282  0.1886 -0.0712
 1549SOL    HW116283   2.437   3.912   3.629  0.8825  0.7872 -0.4203
 1549SOL    HW216284   2.566   3.973   3.675  0.4749  0.2213 -1.4250
 1550SOL     OW16285   2.050   3.251   3.716 -0.1682 -0.0536 -0.0374
 1550SOL    HW116286   2.031   3.173   3.768  0.2384 -0.3010 -0.2586
 1550SOL    HW216287   2.099   3.214   3.643 -1.5424  0.2945 -1.1328
 1551SOL     OW16288   3.570   2.005   8.139  0.5708  0.2031  0.1971
 1551SOL    HW116289   3.508   1.932   8.140  2.2991 -1.2919 -1.8382
 1551SOL    HW216290   3.642   1.957   8.098  1.3684  1.3763  0.2213
 1552SOL     OW16291   0.712   1.794   2.065 -0.1511  0.1544 -0.0799
 1552SOL    HW116292   0.706   1.875   2.115  0.3979  1.8198 -2.6737
 1552SOL    HW216293   0.806   1.780   2.060 -0.0927 -0.2744  2.2309
 1553SOL     OW16294   2.219   0.677   8.305 -0.0150 -0.0047 -0.9956
 1553SOL    HW116295   2.302   0.684   8.258 -0.0832 -1.7943 -1.3598
 1553SOL    HW216296   2.160   0.618   8.259 -0.2093 -1.9168  1.7726
 1554SOL     OW16297   3.201   0.790   2.192 -0.0300  0.2034  0.1024
 1554SOL    HW116298   3.136   0.808   2.124  2.1622  0.0062 -2.0511
 1554SOL    HW216299   3.178   0.847   2.265  1.1793  2.0173 -0.9270
 1555SOL     OW16300   3.340   1.888   8.716  0.8103  0.3323 -0.3898
 1555SOL    HW116301   3.412   1.951   8.723  1.1600 -0.0104 -0.9250
 1555SOL    HW216302   3.288   1.942   8.657  0.5385 -1.4066 -1.7357
 1556SOL     OW16303   3.203   1.391   7.260  0.3632  0.0554  0.4050
 1556SOL    HW116304   3.251   1.421   7.337  3.9473 -2.2175 -0.9587
 1556SOL    HW216305   3.122   1.441   7.274  0.8391  0.9604 -0.0625
 1557SOL     OW16306   0.775   1.030   5.015  0.7098  0.1782  0.1876
 1557SOL    HW116307   0.719   1.035   5.093 -0.0329 -0.5587 -0.2930
 1557SOL    HW216308   0.765   0.937   4.996 -0.2142  0.4045 -0.4148
 1558SOL     OW16309   4.052   1.873   3.552 -0.7367 -0.1104 -0.1494
 1558SOL    HW116310   4.054   1.812   3.478 -1.6557 -0.2604 -0.0468
 1558SOL    HW216311   4.052   1.961   3.515  2.4115 -0.7825 -1.7784
 1559SOL     OW16312   4.614   4.183   3.594 -0.1573 -0.1947 -0.2669
 1559SOL    HW116313   4.542   4.203   3.534 -0.9990  0.6052  1.0140
 1559SOL    HW216314   4.587   4.223   3.677 -1.4736  0.1173 -0.8496
 1560SOL     OW16315   2.823   4.411  10.689  0.1422 -0.4950 -0.2683
 1560SOL    HW116316   2.795   4.449  10.772  3.1796  1.4640 -0.1482
 1560SOL    HW216317   2.825   4.319  10.718  0.9301 -0.8934 -1.5630
 1561SOL     OW16318   3.644   3.576   7.122 -0.3676  0.3954 -0.4097
 1561SOL    HW116319   3.602   3.662   7.127 -0.5763  0.3112 -0.7205
 1561SOL    HW216320   3.585   3.524   7.177  0.0874  0.0537 -0.2428
 1562SOL     OW16321   3.053   4.711  15.812  0.2793 -0.2333 -0.3712
 1562SOL    HW116322   2.997   0.036  15.857  1.3905 -0.1194  0.8227
 1562SOL    HW216323   3.022   4.733  15.724 -0.8324  2.5186  0.7102
 1563SOL     OW16324   1.260   2.791   2.168  0.2608  0.1657  0.6568
 1563SOL    HW116325   1.286   2.704   2.198  1.4445  0.5734  0.8411
 1563SOL    HW216326   1.173   2.796   2.208  0.4204 -1.3922  1.1857
 1564SOL     OW16327   1.107   0.564   6.098  0.1132  0.0496  0.2076
 1564SOL    HW116328   1.036   0.628   6.088  0.5382  0.2251 -1.7229
 1564SOL    HW216329   1.132   0.556   6.006 -0.5189 -0.0451  0.0383
 1565SOL     OW16330   3.909   4.656   8.944 -0.2543 -0.3190 -0.2505
 1565SOL    HW116331   3.911   4.571   8.989 -0.2828  0.5903  1.4569
 1565SOL    HW216332   3.891   4.718   9.014  0.3943  1.7861 -1.9637
 1566SOL     OW16333   2.986   3.840   7.797  0.3943  0.0256  0.3016
 1566SOL    HW116334   3.068   3.792   7.784  0.0949 -0.8262  1.5863
 1566SOL    HW216335   3.013   3.932   7.791  1.3677 -0.2680  0.1955
 1567SOL     OW16336   0.021   0.391  15.004 -0.3716  0.9517 -0.1345
 1567SOL    HW116337   4.710   0.308  15.005 -0.8508  1.2200 -1.2453
 1567SOL    HW216338   0.109   0.356  14.990 -1.2288 -0.2058 -2.7245
 1568SOL     OW16339   3.331   3.482   4.997  0.0435  0.5286 -1.0364
 1568SOL    HW116340   3.317   3.549   4.930  2.4555 -0.8979 -2.9678
 1568SOL    HW216341   3.394   3.421   4.959 -1.8285 -2.5605  0.8209
 1569SOL     OW16342   3.503   3.340  11.690  0.1311 -0.4416 -0.3960
 1569SOL    HW116343   3.511   3.314  11.781  0.1156 -0.4697 -0.4028
 1569SOL    HW216344   3.596   3.348  11.672  0.0729  1.9501  0.3801
 1570SOL     OW16345   3.950   4.378   6.021  0.3958 -0.6513 -0.4345
 1570SOL    HW116346   3.859   4.396   6.046 -0.3960 -3.2721 -1.4850
 1570SOL    HW216347   3.998   4.460   6.034  0.3879 -0.9402  1.4685
 1571SOL     OW16348   2.643   4.035   3.994  0.1003 -0.3414  0.0156
 1571SOL    HW116349   2.662   3.950   4.034 -0.5413  0.3560  1.8262
 1571SOL    HW216350   2.574   4.062   4.055  0.0797 -0.0793 -0.1251
 1572SOL     OW16351   4.111   1.005   0.431 -0.4125 -0.2733  0.6885
 1572SOL    HW116352   4.065   1.078   0.473 -1.1612 -1.2766  1.6201
 1572SOL    HW216353   4.181   1.054   0.388 -1.1247  0.1381  0.0102
 1573SOL     OW16354   4.089   4.071   7.499 -0.1243 -0.0624  0.1409
 1573SOL    HW116355   4.164   4.022   7.534  0.0191 -1.0157 -1.5097
 1573SOL    HW216356   4.112   4.057   7.407  0.9395  1.5077  0.1763
 1574SOL     OW16357   3.146   3.075   2.711  0.7549 -0.7858  0.0218
 1574SOL    HW116358   3.123   3.167   2.702  0.1701 -0.9162  0.1970
 1574SOL    HW216359   3.225   3.078   2.657 -0.1861 -0.9192 -1.3531
 1575SOL     OW16360   0.078   1.307   1.553  0.4816  0.3944  0.1537
 1575SOL    HW116361   0.081   1.342   1.464  0.1691  0.4055  0.1456
 1575SOL    HW216362   0.131   1.371   1.601  1.3529  0.7254 -1.2599
 1576SOL     OW16363   0.923   0.650   1.301  0.0621 -0.3545 -0.0472
 1576SOL    HW116364   0.845   0.691   1.266  0.4537 -0.3052 -0.8581
 1576SOL    HW216365   0.978   0.688   1.233 -3.0192 -0.4954 -2.6111
 1577SOL     OW16366   3.436   0.440   4.158  0.2719  0.8005  0.4562
 1577SOL    HW116367   3.519   0.462   4.115  0.7002  1.4629  1.6378
 1577SOL    HW216368   3.419   0.353   4.120  0.3724  1.4830 -1.1724
 1578SOL     OW16369   1.243   2.744   9.232  0.9890 -0.3890 -0.1108
 1578SOL    HW116370   1.305   2.813   9.257  1.3980 -0.7066 -0.2597
 1578SOL    HW216371   1.167   2.760   9.289  0.6217  1.7665 -1.1926
 1579SOL     OW16372   2.056   4.481  17.188 -0.2815 -0.0797  0.6261
 1579SOL    HW116373   1.961   4.483  17.195 -0.1814  0.1316  2.0728
 1579SOL    HW216374   2.075   4.400  17.237 -1.7528 -1.8511 -1.7279
 1580SOL     OW16375   0.875   0.041  16.712  0.3330 -0.0045 -0.2393
 1580SOL    HW116376   0.807   4.716  16.737 -0.4947  1.4872  1.2036
 1580SOL    HW216377   0.844   0.117  16.761  1.3468  0.3069 -0.0782
 1581SOL     OW16378   2.542   3.206   8.444  0.0077  0.7237 -0.1940
 1581SOL    HW116379   2.454   3.170   8.456 -0.1898  0.7797 -1.4652
 1581SOL    HW216380   2.550   3.214   8.349 -1.4900 -1.0608 -0.4677
 1582SOL     OW16381   2.454   2.880   0.197  0.3851 -0.1395 -0.2499
 1582SOL    HW116382   2.534   2.910   0.240 -0.0109  1.4473 -0.6075
 1582SOL    HW216383   2.485   2.814   0.135 -0.6291 -0.6204 -0.2436
 1583SOL     OW16384   4.348   0.298   7.513 -0.3136  0.0789  0.2194
 1583SOL    HW116385   4.339   0.204   7.527 -0.5336 -0.2935 -2.3616
 1583SOL    HW216386   4.362   0.339   7.598 -2.6100  1.9992 -0.3252
 1584SOL     OW16387   0.518   0.865   7.342  0.6226  0.0285  0.2848
 1584SOL    HW116388   0.591   0.927   7.334  0.3747  0.6748  2.7719
 1584SOL    HW216389   0.562   0.781   7.346 -2.1155 -1.4232  0.0473
 1585SOL     OW16390   3.819   1.852  14.164 -0.0958  0.0903 -0.1219
 1585SOL    HW116391   3.783   1.935  14.195 -1.4061 -0.5831  0.1627
 1585SOL    HW216392   3.853   1.814  14.245 -1.2784  0.3293  0.4931
 1586SOL     OW16393   2.204   3.112   4.373  0.2188 -0.0864  0.2708
 1586SOL    HW116394   2.196   3.093   4.467  1.2522 -0.9840  0.1791
 1586SOL    HW216395   2.235   3.202   4.380 -0.1442  0.0712 -0.1625
 1587SOL     OW16396   2.582   1.968   7.716 -0.3636 -0.7924  0.5492
 1587SOL    HW116397   2.556   2.032   7.650  0.6040 -3.4557 -2.4082
 1587SOL    HW216398   2.496   1.947   7.755 -0.5483 -1.9616 -0.4906
 1588SOL     OW16399   4.568   0.569   8.545 -0.4619  0.3052 -0.3229
 1588SOL    HW116400   4.653   0.614   8.550  0.2906 -1.2301  0.8084
 1588SOL    HW216401   4.515   0.631   8.495  0.0279 -0.4170 -1.7408
 1589SOL     OW16402   0.794   1.540   7.819 -0.8752  0.2639 -0.5407
 1589SOL    HW116403   0.707   1.510   7.845 -0.4479 -0.9385 -0.4679
 1589SOL    HW216404   0.843   1.509   7.896  1.7579 -0.2351 -2.4207
 1590SOL     OW16405   2.916   2.401  11.895 -0.4812  0.1668  1.0475
 1590SOL    HW116406   2.915   2.414  11.989  0.4351  0.7378  0.9789
 1590SOL    HW216407   2.859   2.462  11.848 -0.4633  0.7301  1.7621
 1591SOL     OW16408   2.707   4.728  13.868  0.1741  0.0196 -0.3367
 1591SOL    HW116409   2.760   0.031  13.799  2.1385 -3.1604 -0.6923
 1591SOL    HW216410   2.621   4.719  13.828 -0.3771  0.5020  0.7423
 1592SOL     OW16411   1.368   4.658  13.040 -0.1274 -0.2414 -0.3101
 1592SOL    HW116412   1.432   4.726  13.058 -0.4225  0.6802 -2.7813
 1592SOL    HW216413   1.328   4.641  13.126 -0.5045  0.3935 -0.3638
 1593SOL     OW16414   3.841   2.663  10.727 -0.5533  0.2271 -0.0335
 1593SOL    HW116415   3.820   2.607  10.801 -2.2367  0.6548 -0.1821
 1593SOL    HW216416   3.754   2.686  10.692 -0.3741  2.3890  0.9485
 1594SOL     OW16417   0.754   2.981   6.422  0.3830  0.2303 -0.3271
 1594SOL    HW116418   0.747   2.980   6.327  0.0889 -2.8429 -0.2725
 1594SOL    HW216419   0.731   3.071   6.442 -0.2971  0.3116 -1.4835
 1595SOL     OW16420   1.695   1.387   9.612 -0.8814  0.4630 -0.3323
 1595SOL    HW116421   1.787   1.376   9.590 -0.7358  0.7777  0.1089
 1595SOL    HW216422   1.670   1.455   9.550  2.5285  1.1334 -0.9472
 1596SOL     OW16423   3.025   4.500   1.756  0.3163 -0.1769  0.2999
 1596SOL    HW116424   3.089   4.462   1.696  1.1454  1.9911 -0.2129
 1596SOL    HW216425   3.020   4.584   1.710  1.0573  0.2409  0.9727
 1597SOL     OW16426   1.100   2.969  12.195  0.1466  0.2141  0.6085
 1597SOL    HW116427   1.124   2.888  12.239  4.0016  1.3099  0.5708
 1597SOL    HW216428   1.148   3.020  12.260  0.0899 -0.5282  1.2290
 1598SOL     OW16429   1.220   3.785   5.470 -0.3610  0.6369  0.3435
 1598SOL    HW116430   1.245   3.871   5.502  3.3237 -0.0482 -0.6492
 1598SOL    HW216431   1.231   3.804   5.377  0.6505  1.9757  0.7320
 1599SOL     OW16432   2.543   1.345   7.360 -0.0460 -0.5148  0.2474
 1599SOL    HW116433   2.526   1.424   7.309  0.5858 -0.0167  0.8170
 1599SOL    HW216434   2.636   1.331   7.344 -0.0620  1.0233 -1.1631
 1600SOL     OW16435   1.058   3.094  17.324 -0.4071 -0.2866  0.1707
 1600SOL    HW116436   1.116   3.054  17.388 -0.9798 -0.8368  0.3480
 1600SOL    HW216437   1.007   3.015  17.305 -0.3267 -0.0523 -1.0341
 1601SOL     OW16438   4.689   0.531   7.671  0.2339 -0.4217  0.6329
 1601SOL    HW116439   4.720   0.443   7.651 -0.2022 -0.6921  1.1359
 1601SOL    HW216440   0.026   0.566   7.721 -0.5797  1.9116  0.2223
 1602SOL     OW16441   4.439   4.551   4.991 -0.2957  0.4600 -0.0480
 1602SOL    HW116442   4.496   4.620   5.024 -0.6254  0.7747 -0.1441
 1602SOL    HW216443   4.372   4.531   5.057  1.0894 -1.9408  0.6625
 1603SOL     OW16444   4.401   1.791   6.445  0.6244  0.8175 -0.4555
 1603SOL    HW116445   4.461   1.863   6.466  1.0976  0.6728 -1.3140
 1603SOL    HW216446   4.374   1.811   6.355 -3.0250  0.3229  0.5499
 1604SOL     OW16447   0.608   0.917   3.093  0.4821  0.1965 -0.1981
 1604SOL    HW116448   0.542   0.919   3.023 -0.2037 -2.5707  0.3911
 1604SOL    HW216449   0.681   0.869   3.056 -1.6103 -1.4490 -2.2006
 1605SOL     OW16450   0.203   2.917   2.313 -0.2949 -0.0824  0.0290
 1605SOL    HW116451   0.239   2.976   2.247 -2.8564  0.3056 -1.0162
 1605SOL    HW216452   0.129   2.886   2.261 -0.4373  0.8357 -0.3161
 1606SOL     OW16453   0.410   0.112   4.178 -0.5947  0.2265 -0.5001
 1606SOL    HW116454   0.343   0.098   4.245  2.2215 -0.4509  2.1603
 1606SOL    HW216455   0.472   0.044   4.202  0.6790  1.8462  0.8003
 1607SOL     OW16456   3.893   0.592  17.666  0.2306 -0.2890  0.8911
 1607SOL    HW116457   3.820   0.605  17.726 -0.2956  0.4466  0.0887
 1607SOL    HW216458   3.957   0.650  17.707  0.0932 -0.2456  1.0451
 1608SOL     OW16459   1.248   0.562   4.368  0.6501  0.5004 -0.4643
 1608SOL    HW116460   1.203   0.630   4.318  1.0771  0.9123 -0.2993
 1608SOL    HW216461   1.335   0.603   4.362  1.0035 -0.6862 -2.9917
 1609SOL     OW16462   3.307   1.586  15.536 -0.0397 -0.2419  0.1291
 1609SOL    HW116463   3.307   1.600  15.441 -0.3163  2.3115  0.5023
 1609SOL    HW216464   3.310   1.679  15.560 -0.8117 -0.5007  1.2032
 1610SOL     OW16465   4.638   3.245   8.700 -0.5097 -0.0024  0.0390
 1610SOL    HW116466   4.701   3.180   8.731 -1.5066 -0.2048  1.6485
 1610SOL    HW216467   4.635   3.302   8.776 -2.5268  2.6207 -1.9960
 1611SOL     OW16468   4.716   2.328   5.060 -0.1952 -0.0571 -0.1553
 1611SOL    HW116469   0.009   2.262   4.998 -0.8962 -0.4325 -0.1119
 1611SOL    HW216470   4.670   2.386   4.999 -0.3837  2.1798  2.1303
 1612SOL     OW16471   1.656   3.797  17.626  0.5551  0.3507 -0.2708
 1612SOL    HW116472   1.714   3.782  17.701  2.3879 -0.1831 -1.8108
 1612SOL    HW216473   1.652   3.709  17.590  1.8213  1.6627 -3.6059
 1613SOL     OW16474   1.279   0.127   9.277 -0.0554 -0.0941 -0.0557
 1613SOL    HW116475   1.247   0.092   9.360 -0.4708 -1.4862 -0.8130
 1613SOL    HW216476   1.364   0.084   9.266 -0.2285 -0.3983 -0.1772
 1614SOL     OW16477   2.363   4.656   4.100  0.2925  0.6649 -0.3299
 1614SOL    HW116478   2.271   4.641   4.122 -0.1983  2.2469 -1.2738
 1614SOL    HW216479   2.406   4.592   4.156 -1.7885  2.3304  3.1584
 1615SOL     OW16480   3.251   1.819   1.978  0.5173 -0.0943  0.7546
 1615SOL    HW116481   3.324   1.804   1.918 -1.1498 -0.4749 -1.1565
 1615SOL    HW216482   3.291   1.787   2.059  0.4704  1.0888  1.2540
 1616SOL     OW16483   4.525   2.792   8.198 -0.3577 -0.1309  0.3334
 1616SOL    HW116484   4.532   2.813   8.105  2.0122 -0.5570  0.4211
 1616SOL    HW216485   4.441   2.831   8.222  0.1393 -0.5070  2.6604
 1617SOL     OW16486   1.324   2.052   2.289  0.8927 -0.1430 -0.0100
 1617SOL    HW116487   1.334   2.013   2.376  0.4716  1.4095  0.7299
 1617SOL    HW216488   1.354   2.137   2.321 -0.9959  1.7705 -3.2989
 1618SOL     OW16489   0.220   3.380   3.692 -0.4612  0.2020 -0.2194
 1618SOL    HW116490   0.136   3.353   3.730  0.4405 -0.2643  1.4837
 1618SOL    HW216491   0.245   3.306   3.637 -0.5764 -0.3378  0.4553
 1619SOL     OW16492   1.823   2.359   4.389 -0.0843 -1.1872  0.4567
 1619SOL    HW116493   1.785   2.280   4.427  0.7913 -1.2131  1.2859
 1619SOL    HW216494   1.897   2.316   4.344 -0.8990 -2.6910  0.5651
 1620SOL     OW16495   4.542   3.927  16.003  0.4405  0.2816  0.6514
 1620SOL    HW116496   4.473   3.935  15.938 -0.3228 -2.5383  1.1088
 1620SOL    HW216497   4.491   3.909  16.082 -0.4468 -0.3869 -0.0760
 1621SOL     OW16498   2.673   3.047   2.442  0.8390  0.0502 -0.0041
 1621SOL    HW116499   2.754   3.097   2.454  1.2196 -0.6162  0.2095
 1621SOL    HW216500   2.684   3.002   2.358  1.1352  0.5002 -0.2030
 1622SOL     OW16501   0.810   1.520   6.944 -0.1919  0.1057 -0.7414
 1622SOL    HW116502   0.800   1.441   6.998  0.4967  1.5427  1.4684
 1622SOL    HW216503   0.889   1.551   6.987 -0.2095  0.0065 -0.6377
 1623SOL     OW16504   3.638   3.652  17.531  0.0687 -0.2607 -0.1377
 1623SOL    HW116505   3.681   3.719  17.477  1.9398 -1.8993 -0.6804
 1623SOL    HW216506   3.613   3.590  17.462 -0.9495 -0.0224  0.0148
 1624SOL     OW16507   3.321   4.383   5.251 -0.2890  0.5261 -0.2983
 1624SOL    HW116508   3.264   4.458   5.266  0.1494  0.8016 -0.0255
 1624SOL    HW216509   3.382   4.386   5.324  1.1241  0.2047 -1.4613
 1625SOL     OW16510   1.905   0.684   4.627  0.3036  0.4228 -0.0907
 1625SOL    HW116511   1.987   0.692   4.579  1.3455 -1.0465  1.4451
 1625SOL    HW216512   1.930   0.709   4.716 -3.2364  0.9042  0.7898
 1626SOL     OW16513   0.208   3.264  15.650 -0.3812 -0.3671 -0.0912
 1626SOL    HW116514   0.282   3.207  15.632 -0.5650 -0.3810 -0.7755
 1626SOL    HW216515   0.196   3.259  15.745 -0.2581  0.3374 -0.0410
 1627SOL     OW16516   2.572   0.542  16.676  0.0034 -0.0521  0.1846
 1627SOL    HW116517   2.483   0.556  16.705  0.2034 -0.0004  0.7701
 1627SOL    HW216518   2.614   0.518  16.759 -0.8743  1.2081  0.9746
 1628SOL     OW16519   0.272   3.169   7.684  0.2567  0.4203  0.7092
 1628SOL    HW116520   0.344   3.111   7.705 -0.3164 -0.8617 -0.9080
 1628SOL    HW216521   0.285   3.236   7.752  2.6162  0.1057  0.5613
 1629SOL     OW16522   2.296   3.464   8.416  0.8727  0.3106  0.3792
 1629SOL    HW116523   2.302   3.369   8.405  0.0256  0.2542  0.4392
 1629SOL    HW216524   2.212   3.486   8.378  1.9339  2.4652 -0.7447
 1630SOL     OW16525   2.094   0.448   0.558 -0.7966 -0.5865  0.2217
 1630SOL    HW116526   2.148   0.369   0.564  0.3892  0.1767 -0.4558
 1630SOL    HW216527   2.044   0.424   0.480 -2.8556  0.2796  1.2710
 1631SOL     OW16528   2.113   0.494   5.654 -0.2400  0.4302  0.2833
 1631SOL    HW116529   2.068   0.452   5.580  1.1057 -1.4791  0.5572
 1631SOL    HW216530   2.061   0.574   5.653 -2.3441 -0.9628 -1.6483
 1632SOL     OW16531   2.610   1.492   4.507  0.1758 -0.3557 -0.4414
 1632SOL    HW116532   2.529   1.539   4.487  0.1041 -1.1982 -2.1276
 1632SOL    HW216533   2.588   1.409   4.465 -0.0116 -1.1989  1.3722
 1633SOL     OW16534   2.307   3.396   7.239 -0.1312 -0.1189  0.3257
 1633SOL    HW116535   2.227   3.344   7.231 -0.6869  0.9039 -0.6586
 1633SOL    HW216536   2.275   3.485   7.251 -0.5258 -0.3265  0.8417
 1634SOL     OW16537   2.618   2.883   6.097  0.0302 -0.0893  0.0194
 1634SOL    HW116538   2.593   2.846   6.012  1.6376 -1.4196  0.1458
 1634SOL    HW216539   2.545   2.944   6.112 -2.2414 -2.8887  0.2501
 1635SOL     OW16540   1.977   4.129  16.269  0.2401 -0.5183  0.1566
 1635SOL    HW116541   1.928   4.071  16.211  0.8465  0.3030 -1.1741
 1635SOL    HW216542   1.966   4.209  16.219 -0.5162 -0.0340  1.0804
 1636SOL     OW16543   1.226   0.300   3.223 -0.4399 -0.4071 -0.4113
 1636SOL    HW116544   1.206   0.315   3.130 -0.5738  3.7552  0.2724
 1636SOL    HW216545   1.215   0.207   3.242 -2.7186 -0.2378 -0.9342
 1637SOL     OW16546   2.960   2.215   2.342  0.2605 -0.2775 -0.5223
 1637SOL    HW116547   2.931   2.282   2.404 -1.6109 -3.2891  1.9030
 1637SOL    HW216548   2.879   2.189   2.298  1.0764  1.7218 -3.1867
 1638SOL     OW16549   1.233   2.937   5.915 -0.1468  0.8115 -0.2059
 1638SOL    HW116550   1.163   2.906   5.857 -0.4454 -0.5607  0.8693
 1638SOL    HW216551   1.315   2.908   5.875  0.5308 -1.1928  2.6423
 1639SOL     OW16552   0.929   2.823   0.363  0.0400  0.5486  0.1410
 1639SOL    HW116553   0.907   2.899   0.416  3.2074  0.4085  1.6495
 1639SOL    HW216554   0.932   2.860   0.275  0.1081 -0.5790 -0.3276
 1640SOL     OW16555   3.961   2.652   8.881  0.0787 -0.3794  0.7279
 1640SOL    HW116556   4.027   2.698   8.933  0.7432 -0.1754 -0.3082
 1640SOL    HW216557   4.000   2.565   8.873  0.2354 -0.3787  1.4896
 1641SOL     OW16558   1.316   2.374   4.154 -0.0485  0.5001 -0.3026
 1641SOL    HW116559   1.365   2.370   4.071 -0.0296 -0.6303 -0.2406
 1641SOL    HW216560   1.324   2.469   4.164  2.9147  0.3719 -1.6067
 1642SOL     OW16561   1.762   0.268  14.580  0.2549  0.5094  0.3411
 1642SOL    HW116562   1.774   0.362  14.589 -2.2227  0.8097  0.3375
 1642SOL    HW216563   1.813   0.241  14.503  0.3428  0.0280  0.5667
 1643SOL     OW16564   2.173   2.785   0.109 -0.5035  0.0983 -0.7447
 1643SOL    HW116565   2.244   2.839   0.075 -0.7281  1.0629  0.3534
 1643SOL    HW216566   2.220   2.705   0.134 -1.7049  0.2721  2.0433
 1644SOL     OW16567   2.311   2.490   8.915  0.4406  0.3658 -0.5736
 1644SOL    HW116568   2.403   2.492   8.944  1.2584 -0.7934 -3.1064
 1644SOL    HW216569   2.323   2.543   8.837  1.3301  0.6817 -0.2242
 1645SOL     OW16570   1.414   3.621   8.053  0.0615  0.0412  0.0245
 1645SOL    HW116571   1.435   3.651   8.141 -1.3923  4.0664 -1.0262
 1645SOL    HW216572   1.493   3.588   8.009  0.8087  1.6932  0.1377
 1646SOL     OW16573   4.567   3.570   0.700 -0.0625  0.1899  0.3297
 1646SOL    HW116574   4.483   3.596   0.738 -0.5652 -0.9926  0.0350
 1646SOL    HW216575   4.584   3.497   0.760 -0.7499  0.6910  1.1262
 1647SOL     OW16576   0.672   0.107   2.326 -0.5050 -0.3438 -0.0517
 1647SOL    HW116577   0.745   0.049   2.344  0.7894  1.7134  1.3342
 1647SOL    HW216578   0.655   0.133   2.417 -1.1968 -1.3449  0.1016
 1648SOL     OW16579   2.368   2.500   0.551 -0.1488 -0.3847  0.2564
 1648SOL    HW116580   2.444   2.480   0.496  0.3913 -1.2736  1.3203
 1648SOL    HW216581   2.323   2.416   0.550 -0.9538  0.0302  1.8271
 1649SOL     OW16582   0.866   4.456   3.980 -0.4992  0.3370 -0.0305
 1649SOL    HW116583   0.920   4.477   4.056  1.7971  0.2575 -1.6374
 1649SOL    HW216584   0.860   4.361   3.991 -1.1791  0.2316 -1.4045
 1650SOL     OW16585   1.335   1.660   8.300 -0.2544  0.8144  0.1822
 1650SOL    HW116586   1.284   1.627   8.374  1.0954  0.4009  0.9228
 1650SOL    HW216587   1.387   1.586   8.268  0.5615  2.1004 -1.4694
 1651SOL     OW16588   1.214   1.392   2.817 -0.1425  0.0414 -0.0343
 1651SOL    HW116589   1.271   1.372   2.891 -0.7155 -1.2471  0.0548
 1651SOL    HW216590   1.170   1.308   2.806  1.1871 -1.0470  2.8990
 1652SOL     OW16591   2.280   0.309   7.719 -0.4429 -0.2012  0.3977
 1652SOL    HW116592   2.247   0.385   7.767 -1.2816 -0.6685  0.5625
 1652SOL    HW216593   2.350   0.347   7.666  0.6376 -2.5909  0.1116
 1653SOL     OW16594   1.033   3.529  14.487  0.1560 -0.2404  0.5635
 1653SOL    HW116595   0.968   3.598  14.500 -0.1157  0.0968 -2.4738
 1653SOL    HW216596   0.985   3.461  14.441  1.4458 -1.3061  0.7872
 1654SOL     OW16597   1.829   4.517  12.706 -0.0987  0.3807  0.2648
 1654SOL    HW116598   1.896   4.463  12.663 -0.7342 -0.6816  0.5912
 1654SOL    HW216599   1.855   4.521  12.798 -3.5688 -2.2999  1.3594
 1655SOL     OW16600   0.015   2.610   3.402 -0.5634  0.4457  0.4323
 1655SOL    HW116601   0.068   2.615   3.322  0.0978  2.6856  1.0288
 1655SOL    HW216602   0.015   2.515   3.414  0.1004  0.5138  0.9247
 1656SOL     OW16603   3.288   1.217   8.095 -0.1383 -0.1393 -0.4615
 1656SOL    HW116604   3.358   1.219   8.030  0.0966 -1.7189 -0.2432
 1656SOL    HW216605   3.307   1.135   8.140  0.1484 -0.2612 -0.8150
 1657SOL     OW16606   4.554   1.086  14.882  0.2430 -0.3530  0.1549
 1657SOL    HW116607   4.610   1.115  14.809 -0.9831  1.1034 -0.1906
 1657SOL    HW216608   4.543   0.993  14.861  0.4670 -0.2897 -0.2543
 1658SOL     OW16609   3.995   1.627   0.402 -0.1259  0.4550 -0.3451
 1658SOL    HW116610   3.957   1.568   0.467 -0.1673  0.4888 -0.3382
 1658SOL    HW216611   3.945   1.707   0.417 -1.1393 -0.2569  0.0754
 1659SOL     OW16612   4.052   1.611   8.230 -0.0411 -0.0055 -0.4094
 1659SOL    HW116613   4.058   1.516   8.229 -0.4866 -0.0390  0.0859
 1659SOL    HW216614   4.093   1.637   8.148 -0.3834 -0.4922 -0.7267
 1660SOL     OW16615   1.128   2.696   5.533 -0.0336 -1.1829  0.2063
 1660SOL    HW116616   1.082   2.641   5.469 -0.6478  1.6249 -1.7541
 1660SOL    HW216617   1.204   2.725   5.482 -0.7210 -0.3729 -0.3554
 1661SOL     OW16618   3.447   2.284   2.153 -0.7672 -0.1353  0.0679
 1661SOL    HW116619   3.391   2.208   2.169 -0.6481 -0.1258  0.5346
 1661SOL    HW216620   3.508   2.279   2.226 -2.2041 -1.6061  1.1575
 1662SOL     OW16621   1.809   2.576   8.291  0.2591  0.8370  0.3191
 1662SOL    HW116622   1.821   2.501   8.350  1.9133  1.8873  1.3376
 1662SOL    HW216623   1.736   2.621   8.333 -1.3827  0.8199 -2.5808
 1663SOL     OW16624   4.436   1.673   2.065  0.0960 -0.5933 -0.0104
 1663SOL    HW116625   4.362   1.716   2.107  0.4004  0.5104 -0.5920
 1663SOL    HW216626   4.483   1.750   2.031 -1.1147  0.0747 -0.1686
 1664SOL     OW16627   2.413   0.178  17.303 -0.0994 -0.4626  0.5068
 1664SOL    HW116628   2.369   0.117  17.243  0.5693 -0.6158  0.1632
 1664SOL    HW216629   2.348   0.247  17.316  0.8705  0.4614  0.4269
 1665SOL     OW16630   1.383   0.863   1.868  0.1089  0.2704  0.1194
 1665SOL    HW116631   1.305   0.809   1.882  1.6624 -2.1744 -0.6064
 1665SOL    HW216632   1.413   0.809   1.795 -0.5578 -0.6100  0.5033
 1666SOL     OW16633   4.080   1.330   2.519 -0.7104  0.1003 -0.1942
 1666SOL    HW116634   4.128   1.370   2.591  1.1886 -1.4940 -0.5951
 1666SOL    HW216635   4.118   1.373   2.443 -2.1929 -2.0860 -2.1697
 1667SOL     OW16636   1.009   0.998   7.400 -0.2810 -0.4129 -0.4328
 1667SOL    HW116637   1.040   0.947   7.325 -0.1017 -0.6595 -0.1923
 1667SOL    HW216638   1.064   1.075   7.387 -0.6115 -0.1915 -0.5127
 1668SOL     OW16639   3.037   3.476  15.238  0.1118  1.0071 -0.2990
 1668SOL    HW116640   2.958   3.496  15.189 -0.8895 -0.0587  0.8906
 1668SOL    HW216641   3.102   3.532  15.196  0.7976 -1.4916 -2.5390
 1669SOL     OW16642   2.216   3.720  16.843  0.2241  0.6239 -0.5361
 1669SOL    HW116643   2.238   3.630  16.870 -0.9910 -0.5341 -3.4114
 1669SOL    HW216644   2.225   3.712  16.748  0.9200 -0.8045 -0.3602
 1670SOL     OW16645   4.529   1.662   5.853  0.5732 -0.3057 -0.6754
 1670SOL    HW116646   4.610   1.654   5.903 -1.0661 -1.1442  1.8343
 1670SOL    HW216647   4.486   1.579   5.873  4.2805 -2.3232 -1.2707
 1671SOL     OW16648   0.796   0.168   6.574  0.3301 -0.3350  0.3375
 1671SOL    HW116649   0.764   0.190   6.486  0.4434 -0.8731  0.1608
 1671SOL    HW216650   0.810   0.251   6.620 -1.3159  0.6671 -0.9863
 1672SOL     OW16651   4.173   3.593   1.731  0.0627  0.5294  0.2659
 1672SOL    HW116652   4.099   3.593   1.792  0.4465  2.4900  0.7312
 1672SOL    HW216653   4.193   3.500   1.728 -2.1256  0.0362  1.1305
 1673SOL     OW16654   1.265   4.538  17.135  0.4355 -0.9113  0.0342
 1673SOL    HW116655   1.209   4.460  17.131  0.1067 -0.6970  0.4019
 1673SOL    HW216656   1.284   4.538  17.229 -0.4140 -0.2187  0.2078
 1674SOL     OW16657   1.850   3.685   0.057 -0.2023  0.2801  0.0140
 1674SOL    HW116658   1.841   3.671   0.152  2.4293 -0.7252  0.0980
 1674SOL    HW216659   1.945   3.691   0.054 -0.1660  0.5170  1.6030
 1675SOL     OW16660   4.365   1.465   0.242  0.3887  0.3875 -1.2860
 1675SOL    HW116661   4.331   1.549   0.211  2.4174  2.2043  1.4338
 1675SOL    HW216662   4.282   1.425   0.268  0.3811  0.6793 -0.8751
 1676SOL     OW16663   2.116   2.456   5.204 -0.3692 -0.2154  0.1556
 1676SOL    HW116664   2.207   2.486   5.203 -0.7282  0.8749  0.1863
 1676SOL    HW216665   2.097   2.482   5.294  0.7755 -0.1394  0.3789
 1677SOL     OW16666   3.902   0.359   0.090 -0.3690 -0.0376  0.0110
 1677SOL    HW116667   3.891   0.423   0.020 -2.1329 -1.2970 -0.8678
 1677SOL    HW216668   3.950   0.294   0.039  0.8277  0.4673  0.4960
 1678SOL     OW16669   4.166   2.804  10.644 -0.2690 -0.1395  0.0253
 1678SOL    HW116670   4.092   2.745  10.661  0.5133 -1.2953 -0.5148
 1678SOL    HW216671   4.236   2.744  10.671  1.5339  1.4091 -1.2268
 1679SOL     OW16672   2.152   1.013   7.643 -0.2098 -0.0099 -0.8365
 1679SOL    HW116673   2.199   1.040   7.722  0.0517  0.6736 -1.2284
 1679SOL    HW216674   2.069   0.982   7.681  0.0825  1.3556  0.9443
 1680SOL     OW16675   1.903   2.573  13.353 -0.0198 -0.0776  0.2551
 1680SOL    HW116676   1.879   2.515  13.425 -0.8157  0.6841  0.5972
 1680SOL    HW216677   1.823   2.574  13.301 -0.1116 -1.9516  0.3792
 1681SOL     OW16678   2.891   0.146  17.325  0.1509  0.1456 -0.1670
 1681SOL    HW116679   2.840   0.077  17.368  2.7185 -2.0434 -0.6284
 1681SOL    HW216680   2.829   0.206  17.284  0.9504  2.5204  2.0894
 1682SOL     OW16681   0.651   1.558   8.966  0.7022  0.5660 -0.3488
 1682SOL    HW116682   0.582   1.545   9.031  1.2595  0.3717  0.2011
 1682SOL    HW216683   0.717   1.495   8.996  0.6576 -0.1468 -1.7104
 1683SOL     OW16684   2.406   0.254   0.839 -0.0087 -0.1858 -0.4723
 1683SOL    HW116685   2.462   0.317   0.885  1.3460 -3.3516  2.2357
 1683SOL    HW216686   2.369   0.305   0.767 -1.1128 -0.0166  0.2258
 1684SOL     OW16687   3.384   3.537   6.510 -0.1061  0.0154  0.3654
 1684SOL    HW116688   3.305   3.553   6.561  0.2059  0.6439  0.6478
 1684SOL    HW216689   3.387   3.615   6.453  0.6333 -0.0017  0.3836
 1685SOL     OW16690   4.020   0.897   5.292  0.0423 -0.1628 -0.5764
 1685SOL    HW116691   4.032   0.957   5.218  2.5261  0.9978  0.7666
 1685SOL    HW216692   3.941   0.930   5.336 -1.0651 -0.2980 -2.4259
 1686SOL     OW16693   2.514   4.323   6.510 -0.3797  0.4899  0.3707
 1686SOL    HW116694   2.560   4.406   6.491 -0.1753  0.8359  2.3229
 1686SOL    HW216695   2.522   4.283   6.424 -0.8770  0.7026  0.2289
 1687SOL     OW16696   2.422   3.595  14.151  0.2226 -0.0335  0.0865
 1687SOL    HW116697   2.494   3.532  14.154 -0.5969 -0.9306  0.9440
 1687SOL    HW216698   2.413   3.601  14.246  0.6187  0.4985  0.0866
 1688SOL     OW16699   0.966   4.052   1.913 -0.4545 -0.5796 -0.3228
 1688SOL    HW116700   0.943   4.099   1.833  0.7215 -2.1891 -1.6104
 1688SOL    HW216701   0.972   4.118   1.982 -0.3300  1.1595 -1.9916
 1689SOL     OW16702   1.310   0.039   6.485  0.2961 -0.2492  0.1261
 1689SOL    HW116703   1.263   0.120   6.465  0.3909 -0.3507 -0.4995
 1689SOL    HW216704   1.366   0.071   6.555  0.9393 -1.9213  0.3889
 1690SOL     OW16705   2.137   1.319   2.149  0.0427 -0.3374 -0.1959
 1690SOL    HW116706   2.231   1.301   2.145  0.3320  0.4514  2.8463
 1690SOL    HW216707   2.135   1.388   2.216 -0.8395  2.6784 -3.3290
 1691SOL     OW16708   2.244   2.305   4.054 -0.0963  0.3279 -0.0975
 1691SOL    HW116709   2.318   2.342   4.006  1.8712 -2.0457  1.0786
 1691SOL    HW216710   2.263   2.212   4.047 -1.9381 -0.0200 -0.4109
 1692SOL     OW16711   3.171   3.166  12.990  0.3976 -0.1797 -0.2610
 1692SOL    HW116712   3.177   3.083  13.037  0.8061  0.3328  0.5939
 1692SOL    HW216713   3.179   3.230  13.062  2.6896 -0.5006 -0.2292
 1693SOL     OW16714   2.635   0.565   7.636  0.5543 -0.3679  0.6651
 1693SOL    HW116715   2.586   0.503   7.583 -1.3482  2.1482 -0.5326
 1693SOL    HW216716   2.727   0.539   7.633  0.2083 -1.8773  3.2012
 1694SOL     OW16717   1.698   1.109   7.404  0.1069  0.2491 -0.3364
 1694SOL    HW116718   1.617   1.132   7.451  0.8837 -0.0259  1.1397
 1694SOL    HW216719   1.754   1.177   7.440 -1.6039  1.7642 -0.5380
 1695SOL     OW16720   1.738   3.638   4.343  0.4475 -0.1699 -0.2120
 1695SOL    HW116721   1.776   3.673   4.262  0.1045  2.8115  0.9322
 1695SOL    HW216722   1.756   3.544   4.337  2.0594  0.2467 -1.9126
 1696SOL     OW16723   0.640   3.255   1.758 -0.6697  0.5619 -0.1770
 1696SOL    HW116724   0.734   3.257   1.738 -0.7640 -1.1142 -0.7501
 1696SOL    HW216725   0.597   3.278   1.676 -0.5549  1.3184 -0.0220
 1697SOL     OW16726   3.096   0.336   7.020 -0.0318 -0.3046 -0.1164
 1697SOL    HW116727   3.101   0.362   7.112  1.8241  0.9203 -0.5508
 1697SOL    HW216728   3.189   0.321   7.000  0.1406 -0.3607  0.7172
 1698SOL     OW16729   1.688   0.744   5.386  0.3543  0.4261  0.0764
 1698SOL    HW116730   1.652   0.689   5.317  0.7893 -2.3556  2.0566
 1698SOL    HW216731   1.657   0.827   5.351  0.1558  0.2282 -0.2129
 1699SOL     OW16732   3.001   4.016   8.594  0.8693  0.0628  0.1349
 1699SOL    HW116733   2.997   3.934   8.544  0.7708 -0.4728  1.0135
 1699SOL    HW216734   2.925   4.011   8.652 -0.9284  1.4759 -2.1369
 1700SOL     OW16735   1.786   2.478   2.615  0.2565 -0.6004 -0.0898
 1700SOL    HW116736   1.764   2.392   2.580 -2.4005 -0.3641  1.0620
 1700SOL    HW216737   1.719   2.503   2.678  0.6563 -1.0095  0.5020
 1701SOL     OW16738   0.971   3.553   5.362  0.1769 -0.1861  0.2388
 1701SOL    HW116739   0.971   3.468   5.407 -0.0570 -0.6265 -0.5879
 1701SOL    HW216740   1.054   3.550   5.315 -0.2699 -0.7816 -0.5090
 1702SOL     OW16741   4.008   3.164  11.211  0.3188 -0.0318 -0.6042
 1702SOL    HW116742   3.979   3.248  11.177 -0.2108  0.9010  2.1827
 1702SOL    HW216743   3.932   3.137  11.262  0.4129 -0.8321 -0.8731
 1703SOL     OW16744   3.322   4.309   9.535  0.4904  0.1586 -0.4095
 1703SOL    HW116745   3.339   4.402   9.527 -1.4091  0.6711  1.5357
 1703SOL    HW216746   3.394   4.284   9.593 -0.6347 -1.2644  0.3897
 1704SOL     OW16747   3.511   2.449   7.921  0.5670  0.2904 -0.4181
 1704SOL    HW116748   3.548   2.374   7.966 -0.4932  0.7083  1.1171
 1704SOL    HW216749   3.523   2.427   7.828 -2.1149 -1.0088 -0.4338
 1705SOL     OW16750   2.711   1.895   1.103 -0.2162  0.0686 -0.6418
 1705SOL    HW116751   2.649   1.862   1.169 -0.9813  2.2482 -0.2760
 1705SOL    HW216752   2.713   1.824   1.038  0.8874 -0.4918  0.0057
 1706SOL     OW16753   1.997   1.152   8.930 -0.0221  0.3877  0.0618
 1706SOL    HW116754   2.047   1.224   8.891 -0.0654  2.3569  3.7247
 1706SOL    HW216755   2.013   1.167   9.023 -2.4092 -1.3864  0.7595
 1707SOL     OW16756   2.365   3.887   8.967 -0.0812  0.0475  0.4339
 1707SOL    HW116757   2.449   3.857   8.932  0.7489 -0.0920  2.5421
 1707SOL    HW216758   2.367   3.853   9.056  2.0310 -1.8711 -0.3300
 1708SOL     OW16759   0.732   3.610   8.513 -0.1629  0.4539  0.0103
 1708SOL    HW116760   0.690   3.686   8.474 -1.0952 -0.8773 -1.5754
 1708SOL    HW216761   0.727   3.540   8.448  0.3537 -1.3378  1.8877
 1709SOL     OW16762   3.416   0.256   4.984  0.0506 -0.0437  0.1061
 1709SOL    HW116763   3.403   0.204   4.905  2.9517 -0.4912 -0.0567
 1709SOL    HW216764   3.346   0.222   5.040  2.1353  1.0040  3.3451
 1710SOL     OW16765   4.064   3.559   2.419 -1.0260 -0.4052  0.4481
 1710SOL    HW116766   4.034   3.562   2.328  6.1614  2.0675 -1.8170
 1710SOL    HW216767   4.001   3.614   2.465  0.4928  1.5007  0.2229
 1711SOL     OW16768   3.548   0.930   0.013 -0.3191 -0.5410 -0.1893
 1711SOL    HW116769   3.559   0.973  17.676  0.5200  0.2048  0.2904
 1711SOL    HW216770   3.480   0.991   0.041 -1.1162 -2.1143  1.2375
 1712SOL     OW16771   3.962   3.211   8.816 -0.1203  0.6212 -0.1509
 1712SOL    HW116772   4.020   3.233   8.889 -0.1705 -1.6462  0.5678
 1712SOL    HW216773   3.874   3.206   8.854  0.7459  0.1193  1.8217
 1713SOL     OW16774   1.211   3.735   2.222 -0.0560  0.6154  0.2572
 1713SOL    HW116775   1.228   3.829   2.227 -2.5984  1.0922  0.0093
 1713SOL    HW216776   1.144   3.735   2.154 -1.5896  1.7823  1.7593
 1714SOL     OW16777   4.727   2.964   7.244  0.1455  0.0923 -0.2049
 1714SOL    HW116778   4.643   2.918   7.246 -0.1304  0.6171  0.3673
 1714SOL    HW216779   0.057   2.896   7.251  0.4096  0.5774  2.2178
 1715SOL     OW16780   3.068   2.212   8.953  0.0199  0.3980 -0.2542
 1715SOL    HW116781   3.094   2.227   9.044 -1.2629  0.7465  0.0623
 1715SOL    HW216782   3.123   2.137   8.933 -0.2069 -0.2647  1.5966
 1716SOL     OW16783   1.441   2.198   0.632  0.3039  0.2048  0.0775
 1716SOL    HW116784   1.396   2.145   0.566  0.0327 -0.9343  1.2004
 1716SOL    HW216785   1.408   2.285   0.610  1.8054  1.3017  2.1419
 1717SOL     OW16786   1.882   3.501   5.251  0.2542  0.7625  0.0382
 1717SOL    HW116787   1.900   3.539   5.337 -1.1600  0.8085  0.3203
 1717SOL    HW216788   1.950   3.540   5.197  0.8839  0.2408  0.4497
 1718SOL     OW16789   4.418   1.504   7.419 -0.3321  0.3684 -0.0706
 1718SOL    HW116790   4.426   1.593   7.385 -0.9169  0.6324  0.4962
 1718SOL    HW216791   4.381   1.470   7.338 -0.1356  0.3315 -0.1464
 1719SOL     OW16792   0.765   0.443  12.504 -0.2969  0.1945 -0.1362
 1719SOL    HW116793   0.777   0.363  12.554  0.0449 -1.5039 -2.9583
 1719SOL    HW216794   0.837   0.427  12.443 -0.1333 -1.0516  0.4026
 1720SOL     OW16795   2.848   3.672   7.647  0.2088 -0.2928  0.0146
 1720SOL    HW116796   2.919   3.613   7.623 -0.5345 -0.9298 -0.6330
 1720SOL    HW216797   2.896   3.748   7.677 -0.3156  0.8165 -1.9790
 1721SOL     OW16798   2.476   2.364   9.103  0.1451 -0.3832  0.1625
 1721SOL    HW116799   2.442   2.301   9.167  0.4214  0.2597  0.9401
 1721SOL    HW216800   2.547   2.405   9.153  0.3966 -1.5893  0.7984
 1722SOL     OW16801   4.136   3.722  16.750  0.3668  0.3020  0.6852
 1722SOL    HW116802   4.150   3.803  16.701 -0.9852  0.5363  0.6877
 1722SOL    HW216803   4.203   3.735  16.817  0.2623  0.6209  0.7273
 1723SOL     OW16804   0.496   1.340   0.364  0.1173 -0.2023  0.2380
 1723SOL    HW116805   0.407   1.367   0.339  1.1713  1.7848 -1.3867
 1723SOL    HW216806   0.490   1.245   0.372 -0.0411 -0.0832  1.5481
 1724SOL     OW16807   4.411   0.948   2.054  0.1851  0.3462  0.3292
 1724SOL    HW116808   4.489   1.004   2.058  0.7818 -0.3676 -1.2358
 1724SOL    HW216809   4.442   0.870   2.099  0.9135  1.3770  1.6105
 1725SOL     OW16810   1.969   1.044  12.533  0.2258  0.0490  0.3831
 1725SOL    HW116811   2.037   1.076  12.591 -0.3465 -0.8662  1.5650
 1725SOL    HW216812   1.992   0.952  12.523  0.9429  0.6158 -2.9982
 1726SOL     OW16813   4.263   3.739   3.249 -1.2623 -0.7758 -0.1588
 1726SOL    HW116814   4.315   3.661   3.228 -0.4378 -0.5328  1.0061
 1726SOL    HW216815   4.325   3.792   3.299 -0.7485  0.8315 -2.4872
 1727SOL     OW16816   2.675   3.680   8.208 -0.2721 -0.4321  0.0520
 1727SOL    HW116817   2.742   3.710   8.147 -1.4049 -0.0536 -0.9999
 1727SOL    HW216818   2.722   3.637   8.280  0.0331  1.7837  1.1676
 1728SOL     OW16819   3.482   4.737   3.719 -0.6203 -0.1129 -0.3829
 1728SOL    HW116820   3.507   4.705   3.632  0.2138  1.5939 -0.7708
 1728SOL    HW216821   3.400   0.045   3.699 -0.0867  1.1807  0.4309
 1729SOL     OW16822   4.422   4.670  12.319 -0.1847  0.1615 -0.2687
 1729SOL    HW116823   4.330   4.649  12.335 -0.4284  0.5933 -1.0978
 1729SOL    HW216824   4.453   4.580  12.323 -1.6623 -0.4455 -2.3309
 1730SOL     OW16825   3.608   1.804   8.997 -0.4304 -0.2307 -0.3179
 1730SOL    HW116826   3.583   1.857   8.921  0.0442 -0.8974 -0.9343
 1730SOL    HW216827   3.698   1.784   8.973 -0.4978  2.2548 -2.6564
 1731SOL     OW16828   0.302   0.150  15.676 -0.1663 -0.9006 -0.6598
 1731SOL    HW116829   0.216   0.191  15.666  0.1820 -0.4706 -1.7709
 1731SOL    HW216830   0.280   0.063  15.710  0.8395 -0.3997  1.3317
 1732SOL     OW16831   3.071   1.400   3.971  0.0836 -0.0422 -0.3068
 1732SOL    HW116832   2.993   1.383   3.918 -2.0477 -1.4045  3.2563
 1732SOL    HW216833   3.104   1.311   3.985 -0.0794 -0.1698 -0.7297
 1733SOL     OW16834   3.164   2.302   1.917 -0.2693 -0.2990 -0.8059
 1733SOL    HW116835   3.241   2.340   1.875  1.1964 -0.2993  1.8814
 1733SOL    HW216836   3.184   2.209   1.908  2.3123  0.4465 -2.8025
 1734SOL     OW16837   2.207   4.574   2.150  0.3895 -0.1347 -0.0714
 1734SOL    HW116838   2.180   4.649   2.096  1.9121 -0.4375 -1.2540
 1734SOL    HW216839   2.223   4.607   2.238 -1.1025 -2.2231  0.9782
 1735SOL     OW16840   2.010   0.378   4.510  0.2401 -0.1315 -0.2655
 1735SOL    HW116841   2.064   0.340   4.440  0.0385  1.5461 -1.3082
 1735SOL    HW216842   2.025   0.313   4.579 -0.0136 -1.5982 -1.5995
 1736SOL     OW16843   4.715   1.099  12.867  0.4354 -0.1629  0.0477
 1736SOL    HW116844   0.056   1.060  12.829  0.5573 -0.7656  0.9101
 1736SOL    HW216845   4.737   1.191  12.851  1.1673 -0.3634 -0.0890
 1737SOL     OW16846   1.529   3.981   0.544 -0.6066  0.1111 -0.0640
 1737SOL    HW116847   1.550   3.889   0.558 -1.7446 -0.3592 -1.5010
 1737SOL    HW216848   1.485   3.979   0.459 -2.5105 -0.3736  0.9395
 1738SOL     OW16849   4.073   1.253  13.014 -0.6150  0.3555 -0.3086
 1738SOL    HW116850   4.125   1.311  13.069  0.6010 -0.9747 -0.0469
 1738SOL    HW216851   4.142   1.190  12.994  0.4820  0.5308  2.9742
 1739SOL     OW16852   3.972   3.486   6.310  0.0069  0.1063  0.3774
 1739SOL    HW116853   4.037   3.477   6.240 -0.3131  0.8716 -0.0113
 1739SOL    HW216854   3.952   3.392   6.316 -1.0175  0.3439  0.6845
 1740SOL     OW16855   3.885   1.790   8.682  0.2231 -0.4153 -0.7595
 1740SOL    HW116856   3.797   1.793   8.643 -0.9137 -0.5633  1.7663
 1740SOL    HW216857   3.898   1.884   8.696  1.2336 -0.5920 -0.4845
 1741SOL     OW16858   4.156   4.373   5.569  0.5916  0.0158  0.2286
 1741SOL    HW116859   4.248   4.393   5.585  0.9958  0.5766 -2.7200
 1741SOL    HW216860   4.155   4.280   5.587  1.6036 -0.4312 -1.9546
 1742SOL     OW16861   1.347   3.068   3.000 -0.1060 -0.1828 -0.7633
 1742SOL    HW116862   1.432   3.070   2.957  0.3463 -2.3332  0.0449
 1742SOL    HW216863   1.290   3.117   2.941 -1.7092  0.1555  1.0330
 1743SOL     OW16864   3.652   3.911   0.241 -0.1305 -0.0456  0.1517
 1743SOL    HW116865   3.621   3.995   0.208  0.0595  0.7979  2.1341
 1743SOL    HW216866   3.612   3.850   0.179  0.2173  0.1312 -0.2459
 1744SOL     OW16867   1.290   1.400   2.159 -0.4073 -0.7691 -0.1009
 1744SOL    HW116868   1.301   1.313   2.195 -0.1880 -0.7630 -0.1485
 1744SOL    HW216869   1.216   1.428   2.212  0.1446 -0.9318  0.7430
 1745SOL     OW16870   4.237   3.992   6.391  0.0576 -0.2996 -0.2981
 1745SOL    HW116871   4.324   3.953   6.404  1.2685  2.4347 -0.1910
 1745SOL    HW216872   4.217   4.007   6.483  0.2833  3.0734 -0.8065
 1746SOL     OW16873   0.193   3.849   9.375 -0.2393 -0.4244 -0.0452
 1746SOL    HW116874   0.207   3.769   9.427  0.5254  2.1513  3.7044
 1746SOL    HW216875   0.164   3.909   9.443 -0.1399  0.9083 -1.1848
 1747SOL     OW16876   3.660   2.577  11.094 -0.2657 -0.0649 -0.6956
 1747SOL    HW116877   3.709   2.541  11.020  0.6738 -0.8009  0.2938
 1747SOL    HW216878   3.598   2.631  11.044 -1.9819  0.6527  2.2216
 1748SOL     OW16879   3.733   4.504   5.426 -0.1691  0.1941  0.4846
 1748SOL    HW116880   3.799   4.479   5.491  1.8959  2.4362 -0.8049
 1748SOL    HW216881   3.784   4.491   5.346 -1.2119 -0.7396 -0.0340
 1749SOL     OW16882   2.211   2.513  14.240 -0.5879 -0.2323  0.1590
 1749SOL    HW116883   2.267   2.589  14.226  0.1497 -1.3228 -2.7449
 1749SOL    HW216884   2.163   2.546  14.316 -0.9645  0.2340 -0.2807
 1750SOL     OW16885   3.311   0.277   1.571 -0.1493  0.4103 -0.5402
 1750SOL    HW116886   3.251   0.293   1.498 -0.1394 -1.7038 -1.0054
 1750SOL    HW216887   3.284   0.348   1.629 -0.9722 -1.3856  1.2913
 1751SOL     OW16888   4.109   2.170  15.370  0.3865 -0.1455  0.8663
 1751SOL    HW116889   4.050   2.157  15.296 -0.1135  0.8011  1.0994
 1751SOL    HW216890   4.151   2.083  15.369 -0.4009 -0.5437  1.8648
 1752SOL     OW16891   3.279   3.150  15.585 -0.1575 -0.2521  0.0382
 1752SOL    HW116892   3.319   3.222  15.633  1.7896  0.1615 -2.1964
 1752SOL    HW216893   3.211   3.191  15.531 -0.5397 -0.6548  0.2102
 1753SOL     OW16894   2.483   3.386  13.102 -0.5106  0.0289 -0.2322
 1753SOL    HW116895   2.547   3.371  13.032 -2.6386 -0.3827 -2.0687
 1753SOL    HW216896   2.439   3.302  13.098  1.1429 -1.0317  3.4009
 1754SOL     OW16897   0.444   0.215  11.977  1.1426 -0.4239  0.1010
 1754SOL    HW116898   0.389   0.274  12.029 -0.8039 -3.9355  2.0584
 1754SOL    HW216899   0.523   0.213  12.031  2.8364  1.5451 -2.3138
 1755SOL     OW16900   1.753   1.465   8.864  0.4203 -0.8415 -0.2344
 1755SOL    HW116901   1.741   1.508   8.779  1.9162  0.4779  0.2320
 1755SOL    HW216902   1.748   1.373   8.838  0.1293 -1.9237  3.6787
 1756SOL     OW16903   3.218   3.078   1.860  0.4107  0.3935 -0.2368
 1756SOL    HW116904   3.288   3.124   1.907 -0.1773 -1.5643  2.5659
 1756SOL    HW216905   3.221   3.110   1.770 -0.9674  1.1411 -0.0218
 1757SOL     OW16906   3.519   3.129   7.831  0.5423 -0.2242 -0.3769
 1757SOL    HW116907   3.567   3.209   7.852 -1.1910  1.0517 -1.3507
 1757SOL    HW216908   3.586   3.071   7.793  2.7884  3.3622 -1.9085
 1758SOL     OW16909   0.189   0.171  11.454 -0.0552  0.2759 -0.4694
 1758SOL    HW116910   0.206   0.264  11.435  0.1303  0.5425  1.0710
 1758SOL    HW216911   0.148   0.149  11.370 -1.9385  1.9599  0.0105
 1759SOL     OW16912   2.041   1.333  17.256  0.0632 -0.1224  0.0998
 1759SOL    HW116913   1.984   1.339  17.180  0.7159 -0.0378 -0.3828
 1759SOL    HW216914   1.976   1.361  17.321  0.1219 -0.4769  0.3101
 1760SOL     OW16915   4.341   0.060   6.467  0.1877  0.3609  0.4530
 1760SOL    HW116916   4.436   0.056   6.458 -0.0843 -1.0218 -1.9452
 1760SOL    HW216917   4.320   4.733   6.534  2.8476 -1.3386 -0.3715
 1761SOL     OW16918   4.536   0.219   0.229 -0.0651 -0.3311 -0.0134
 1761SOL    HW116919   4.548   0.126   0.249 -0.1670 -0.3040  0.1713
 1761SOL    HW216920   4.450   0.235   0.265  0.5825  1.4155  0.7251
 1762SOL     OW16921   2.471   1.121   2.244  0.1932  0.3024  0.1344
 1762SOL    HW116922   2.553   1.115   2.195  1.3363 -2.0124  2.2497
 1762SOL    HW216923   2.404   1.093   2.182  0.4950  1.1473 -0.5685
 1763SOL     OW16924   2.552   2.344   6.884 -0.3290  0.2813 -0.7055
 1763SOL    HW116925   2.587   2.280   6.945 -2.9549 -0.1472  0.3745
 1763SOL    HW216926   2.566   2.294   6.803 -1.2594 -0.3961 -0.4514
 1764SOL     OW16927   3.275   3.027  10.581 -0.0379 -0.4742  0.7054
 1764SOL    HW116928   3.260   3.094  10.648  0.0753  0.8048 -0.5497
 1764SOL    HW216929   3.190   3.026  10.536  0.1982 -1.0892  0.2734
 1765SOL     OW16930   0.093   4.180   4.365 -0.3742  0.1395  0.5288
 1765SOL    HW116931   0.140   4.247   4.415 -0.0221  0.3237 -0.0426
 1765SOL    HW216932   0.033   4.243   4.324 -0.7037 -0.2348  0.4425
 1766SOL     OW16933   1.489   2.490   7.266  0.0995 -1.2047  0.4402
 1766SOL    HW116934   1.571   2.541   7.269 -0.3064 -0.4339 -1.5397
 1766SOL    HW216935   1.505   2.450   7.352  0.8956  0.7592  1.2331
 1767SOL     OW16936   4.654   3.030   9.565 -0.8415 -0.2846 -0.2570
 1767SOL    HW116937   4.605   3.107   9.536  0.3987  0.7594  0.4112
 1767SOL    HW216938   4.631   2.955   9.509 -0.1994 -0.6531 -0.0208
 1768SOL     OW16939   1.825   3.654   1.959 -0.1769  0.5570 -0.3251
 1768SOL    HW116940   1.880   3.591   2.007 -0.8457 -0.6639 -1.1726
 1768SOL    HW216941   1.764   3.657   2.033  0.1876 -2.6912  0.1344
 1769SOL     OW16942   4.341   4.257  13.730  0.7633  0.0059 -0.9815
 1769SOL    HW116943   4.390   4.203  13.669  0.7755 -1.5478  0.4095
 1769SOL    HW216944   4.419   4.293  13.773 -0.3483  1.5201 -0.2047
 1770SOL     OW16945   1.927   1.274   4.278  0.4666 -0.1327  0.0900
 1770SOL    HW116946   1.854   1.323   4.317  1.6650  0.1532  1.9566
 1770SOL    HW216947   1.872   1.229   4.214  1.8257  1.3116 -2.0758
 1771SOL     OW16948   1.606   2.854   8.631 -0.2743  0.0597 -0.4582
 1771SOL    HW116949   1.637   2.938   8.599  2.2407  0.9207  4.2303
 1771SOL    HW216950   1.522   2.876   8.671  0.3044  1.2810  0.0550
 1772SOL     OW16951   3.283   2.311  15.522  1.1155 -0.2171 -0.2598
 1772SOL    HW116952   3.232   2.293  15.444 -0.6085  0.3351  0.7357
 1772SOL    HW216953   3.220   2.321  15.594 -0.6322 -1.3942 -1.6224
 1773SOL     OW16954   4.469   2.702  12.137 -0.4822  0.6221 -0.0676
 1773SOL    HW116955   4.548   2.746  12.106 -1.6790  1.3993 -2.0699
 1773SOL    HW216956   4.417   2.780  12.156 -1.2617  0.2949 -0.8068
 1774SOL     OW16957   3.918   4.520  11.131  0.0150 -0.4254 -0.4804
 1774SOL    HW116958   3.852   4.579  11.167  2.3624  1.1780  1.1880
 1774SOL    HW216959   3.880   4.436  11.159  1.0224 -0.6548  0.2101
 1775SOL     OW16960   0.443   0.051   1.915  1.2617 -0.3699  0.3311
 1775SOL    HW116961   0.473   0.085   1.831 -0.1996  0.1420  0.0125
 1775SOL    HW216962   0.521   0.040   1.969  1.9471 -0.2193 -0.6241
 1776SOL     OW16963   2.804   3.783  16.939  0.7167  0.3764 -0.6087
 1776SOL    HW116964   2.795   3.799  16.845 -0.6781 -3.6665 -1.1525
 1776SOL    HW216965   2.859   3.861  16.946  1.7827 -0.4086 -0.2337
 1777SOL     OW16966   3.466   4.409   0.103 -0.3777 -0.1935  0.4166
 1777SOL    HW116967   3.374   4.424   0.081 -0.8320 -0.6800  2.0029
 1777SOL    HW216968   3.503   4.420   0.015  0.7677 -1.6118  0.7135
 1778SOL     OW16969   1.863   2.259  15.896 -0.4189  0.4394 -0.3026
 1778SOL    HW116970   1.779   2.255  15.850 -0.7881 -1.4285  0.5216
 1778SOL    HW216971   1.907   2.325  15.842  1.3973  0.2621  0.9595
 1779SOL     OW16972   1.284   4.662   7.789 -0.5836 -0.1807  0.1974
 1779SOL    HW116973   1.374   4.632   7.783 -0.2835  0.8608 -0.4453
 1779SOL    HW216974   1.297   0.016   7.812 -0.8958 -0.5443  1.8329
 1780SOL     OW16975   2.411   1.694   2.111  0.5592 -0.0344 -0.0306
 1780SOL    HW116976   2.370   1.780   2.099  0.4618  0.0500  0.9119
 1780SOL    HW216977   2.498   1.712   2.075  0.3163 -0.5596 -0.8776
 1781SOL     OW16978   1.940   4.375   3.932  0.3584 -0.3649  0.4398
 1781SOL    HW116979   1.916   4.284   3.917 -0.5463  0.5556 -3.7203
 1781SOL    HW216980   1.860   4.417   3.900 -0.7134 -1.6965  1.4154
 1782SOL     OW16981   1.464   3.050   0.048 -0.0070 -0.4146 -0.0700
 1782SOL    HW116982   1.553   3.022   0.028 -0.4881 -2.7936  1.1223
 1782SOL    HW216983   1.467   3.056   0.144  3.1923  1.8621 -0.3028
 1783SOL     OW16984   2.559   3.977  17.130 -0.0330 -0.4192 -0.1574
 1783SOL    HW116985   2.551   4.004  17.038  0.0409 -1.6015 -0.5097
 1783SOL    HW216986   2.520   3.890  17.134 -0.1931 -0.3629 -0.4249
 1784SOL     OW16987   3.134   2.640   4.480 -0.6940 -0.0828  0.4394
 1784SOL    HW116988   3.179   2.628   4.564  2.4414 -1.6720 -1.4725
 1784SOL    HW216989   3.207   2.624   4.421 -0.9286  0.4720 -0.0002
 1785SOL     OW16990   1.990   1.162  10.006 -0.2299  0.0230 -0.1873
 1785SOL    HW116991   1.999   1.218   9.929 -1.2415 -0.7009 -0.8313
 1785SOL    HW216992   1.963   1.222  10.075  1.4807  0.7087 -0.1302
 1786SOL     OW16993   4.588   0.424   6.993  0.2272  0.2894  0.4310
 1786SOL    HW116994   4.544   0.368   6.929 -0.8630  0.4115  1.0684
 1786SOL    HW216995   4.522   0.491   7.006  0.4461  0.6093 -0.1252
 1787SOL     OW16996   2.600   0.911  11.458  0.3592 -0.0791  0.3332
 1787SOL    HW116997   2.527   0.849  11.463  0.4851 -0.3987 -1.6489
 1787SOL    HW216998   2.606   0.928  11.364 -1.4094 -1.0918  0.0369
 1788SOL     OW16999   2.968   4.556   2.488 -0.0171  0.3277  0.2813
 1788SOL    HW117000   3.010   4.471   2.471 -2.3519 -0.6674 -0.4405
 1788SOL    HW217001   2.915   4.554   2.409  0.7255  2.3640 -0.2510
 1789SOL     OW17002   4.267   2.808   4.723  0.1144  0.3890  0.2813
 1789SOL    HW117003   4.194   2.832   4.780 -1.5043 -2.4288 -0.5584
 1789SOL    HW217004   4.329   2.876   4.747 -1.0448  1.6036 -0.1897
 1790SOL     OW17005   3.212   4.144   5.142  0.0248  0.2380  0.3128
 1790SOL    HW117006   3.225   4.239   5.150 -1.5031  0.3579  1.5010
 1790SOL    HW217007   3.300   4.116   5.167 -0.3460 -1.7071 -0.6070
 1791SOL     OW17008   0.898   3.786   4.289  0.3866  0.8645 -0.3556
 1791SOL    HW117009   0.881   3.695   4.264 -0.6364  0.8274  0.4665
 1791SOL    HW217010   0.809   3.812   4.312  0.0293 -1.0782  0.5081
 1792SOL     OW17011   4.173   2.951   2.831  0.3575 -0.2541 -0.2398
 1792SOL    HW117012   4.175   3.015   2.759  1.8555  0.5224  0.4916
 1792SOL    HW217013   4.200   2.871   2.785 -0.7967 -0.5631 -0.3811
 1793SOL     OW17014   1.246   1.261   3.493 -0.9084 -0.1383 -0.4323
 1793SOL    HW117015   1.161   1.260   3.537 -0.9118 -1.7225 -0.4601
 1793SOL    HW217016   1.242   1.176   3.449 -0.5381 -1.2069  1.5970
 1794SOL     OW17017   0.733   1.141   6.310  0.3470 -0.5203  0.3452
 1794SOL    HW117018   0.810   1.149   6.254  0.7250 -1.7308  0.6859
 1794SOL    HW217019   0.669   1.105   6.248 -2.2806  1.1565  2.0976
 1795SOL     OW17020   1.735   1.393   7.740  0.4312  0.0558 -0.5083
 1795SOL    HW117021   1.695   1.463   7.688  1.0048 -0.2826 -1.3997
 1795SOL    HW217022   1.666   1.331   7.764 -0.2911  0.8880 -0.4628
 1796SOL     OW17023   3.265   2.452   9.464  0.2817  0.2815 -0.5749
 1796SOL    HW117024   3.359   2.445   9.445  0.5090 -0.4241  0.7980
 1796SOL    HW217025   3.248   2.358   9.458  2.4834 -0.0822 -1.1556
 1797SOL     OW17026   2.669   1.143  11.882  0.0536  0.0417  0.4374
 1797SOL    HW117027   2.703   1.060  11.848  1.1948  0.2282  1.1603
 1797SOL    HW217028   2.583   1.108  11.906  0.6719 -0.7175  1.5040
 1798SOL     OW17029   4.430   2.062  16.778 -0.3508 -0.3720 -0.9701
 1798SOL    HW117030   4.428   2.158  16.783  3.5189 -0.3305  0.3999
 1798SOL    HW217031   4.348   2.033  16.819 -0.6324  0.4176 -0.9801
 1799SOL     OW17032   3.945   1.923  15.414  0.1756  0.3441 -0.4959
 1799SOL    HW117033   3.992   1.890  15.490 -1.3234  0.7131  0.5954
 1799SOL    HW217034   3.874   1.957  15.469 -0.4191 -1.7486  0.0317
 1800SOL     OW17035   1.189   0.896   2.554  0.2031 -0.2749 -0.2666
 1800SOL    HW117036   1.185   0.889   2.458  2.6455  1.4855 -0.4977
 1800SOL    HW217037   1.277   0.900   2.591 -0.0567  0.0596  0.3040
 1801SOL     OW17038   4.066   1.067   5.075  0.2512  0.5096  0.1534
 1801SOL    HW117039   4.013   1.145   5.097 -1.6365 -0.1489 -2.0754
 1801SOL    HW217040   4.141   1.112   5.036 -0.9628  1.0923 -1.5040
 1802SOL     OW17041   4.253   1.347   3.427  0.1667  0.4095  0.1086
 1802SOL    HW117042   4.160   1.361   3.446  0.1648 -1.7582  1.6714
 1802SOL    HW217043   4.260   1.260   3.466 -0.2904 -0.7169 -2.3596
 1803SOL     OW17044   2.383   3.750   2.277 -0.0935  0.3170 -0.2939
 1803SOL    HW117045   2.415   3.728   2.190  0.7979 -1.1106  0.3983
 1803SOL    HW217046   2.434   3.828   2.302  0.1163 -0.0070  0.3003
 1804SOL     OW17047   0.623   2.549   4.008 -0.5422 -0.4193 -0.1269
 1804SOL    HW117048   0.531   2.534   3.987 -0.7897 -1.5217  1.7783
 1804SOL    HW217049   0.655   2.555   3.918 -3.1809  0.0516 -1.0487
 1805SOL     OW17050   2.523   1.127   4.040 -0.4268  0.6011 -0.4148
 1805SOL    HW117051   2.540   1.035   4.024  1.7595  0.9454 -0.0216
 1805SOL    HW217052   2.468   1.116   4.118  0.4298 -2.5029 -0.2597
 1806SOL     OW17053   3.782   4.186  12.239  1.1917 -0.0218 -0.0317
 1806SOL    HW117054   3.768   4.266  12.289  2.9709  1.3078 -1.6373
 1806SOL    HW217055   3.853   4.205  12.178  0.1217  0.8559 -1.0126
 1807SOL     OW17056   3.950   3.108  15.452 -0.3396  0.6110  0.2371
 1807SOL    HW117057   3.974   3.029  15.404 -2.6335 -0.8422  1.4390
 1807SOL    HW217058   3.941   3.076  15.542  0.0625 -1.5281 -0.4952
 1808SOL     OW17059   0.529   2.300   9.229 -0.3601 -0.3813  0.0367
 1808SOL    HW117060   0.619   2.273   9.246 -0.1187  1.3798  1.5358
 1808SOL    HW217061   0.484   2.218   9.249  0.4867 -0.2526  2.5083
 1809SOL     OW17062   0.818   4.074   5.297 -0.2226  0.0371  0.4667
 1809SOL    HW117063   0.862   4.053   5.215 -0.5774 -1.7621  0.7268
 1809SOL    HW217064   0.827   3.992   5.346 -1.7218  0.0533  0.7657
 1810SOL     OW17065   4.467   0.037   8.922 -0.0382 -0.1857 -0.2511
 1810SOL    HW117066   4.434   0.084   8.846 -1.4693 -1.3589 -0.3615
 1810SOL    HW217067   4.454   4.682   8.901  0.9370 -0.2587 -0.5565
 1811SOL     OW17068   4.586   0.709  14.521  0.4258 -0.4115  0.2500
 1811SOL    HW117069   4.534   0.741  14.447  2.7044  1.5505 -0.5277
 1811SOL    HW217070   4.637   0.644  14.472  0.6515 -0.0767  0.0408
 1812SOL     OW17071   0.094   4.457   3.226 -0.1234  0.3142 -0.5936
 1812SOL    HW117072   0.165   4.519   3.210 -0.5480  1.1268  0.5682
 1812SOL    HW217073   0.135   4.373   3.209  1.1099  0.5047  1.3854
 1813SOL     OW17074   1.747   1.071   4.655 -0.1662  0.0012 -0.3741
 1813SOL    HW117075   1.691   1.105   4.725 -1.5396 -2.4875 -0.2677
 1813SOL    HW217076   1.800   1.148   4.635 -1.4628  0.9432 -0.1796
 1814SOL     OW17077   2.978   0.685   6.615 -0.5165  0.2691 -0.4606
 1814SOL    HW117078   3.017   0.631   6.685 -1.3554  0.9139  0.4984
 1814SOL    HW217079   2.954   0.763   6.664 -2.2242 -0.9286  0.6364
 1815SOL     OW17080   3.535   4.545   4.186  0.3559 -0.1194 -0.0494
 1815SOL    HW117081   3.555   4.551   4.093 -0.3472 -0.3334 -0.2087
 1815SOL    HW217082   3.474   4.618   4.199 -0.2700 -1.0471  2.2747
 1816SOL     OW17083   1.451   3.302   9.191  0.3405 -0.4453 -0.0594
 1816SOL    HW117084   1.539   3.283   9.225  0.3224 -2.3642 -1.0658
 1816SOL    HW217085   1.423   3.382   9.236 -0.2529 -0.4412 -0.4308
 1817SOL     OW17086   1.423   2.157   7.320  0.4542 -0.0389  0.2461
 1817SOL    HW117087   1.481   2.186   7.250 -1.0730 -2.3136 -1.9581
 1817SOL    HW217088   1.464   2.199   7.396  0.4541  1.2841 -0.5037
 1818SOL     OW17089   4.710   4.456   4.461  0.5970  0.2248  0.3100
 1818SOL    HW117090   4.687   4.460   4.368  2.3156 -0.7930 -0.1619
 1818SOL    HW217091   0.068   4.463   4.452  0.4525  0.2310 -1.2935
 1819SOL     OW17092   4.409   2.384   4.764 -0.2572  0.2774  0.3794
 1819SOL    HW117093   4.364   2.396   4.848 -0.6252 -1.7542  0.4736
 1819SOL    HW217094   4.463   2.463   4.764 -0.3020  0.3095  0.9770
 1820SOL     OW17095   1.714   2.693   1.718  0.6702 -0.2186 -0.0518
 1820SOL    HW117096   1.808   2.710   1.724  0.3230  1.6986 -0.1218
 1820SOL    HW217097   1.718   2.625   1.651 -0.3597 -1.0783  0.7686
 1821SOL     OW17098   4.484   3.939  16.905  0.2649  0.2242  0.3006
 1821SOL    HW117099   4.396   3.970  16.925 -0.5858 -1.7542 -0.3165
 1821SOL    HW217100   4.465   3.845  16.899 -0.4013  0.3377  0.6253
 1822SOL     OW17101   3.070   1.987   9.202  0.8352 -0.1714  0.6956
 1822SOL    HW117102   3.134   1.960   9.136  0.2445  3.3764 -1.3200
 1822SOL    HW217103   3.017   1.908   9.194  0.4304  0.1817 -0.1628
 1823SOL     OW17104   0.719   1.479   6.071 -0.3618  0.0841 -0.3173
 1823SOL    HW117105   0.647   1.495   6.011  0.0613  2.0729 -0.3250
 1823SOL    HW217106   0.792   1.479   6.009 -0.0536 -0.2416  0.0434
 1824SOL     OW17107   1.766   3.670   0.317  0.3772 -0.0264 -0.4437
 1824SOL    HW117108   1.706   3.595   0.316  0.6463 -0.2686  1.2903
 1824SOL    HW217109   1.728   3.719   0.390  0.9447 -1.1076  0.5999
 1825SOL     OW17110   3.230   4.121  10.318  0.0573 -0.1138 -0.4244
 1825SOL    HW117111   3.243   4.026  10.327 -0.2124 -0.0825  0.2514
 1825SOL    HW217112   3.207   4.125  10.225 -0.3134 -1.5652 -0.3949
 1826SOL     OW17113   0.626   2.501   4.307 -0.4259  0.1076  0.1956
 1826SOL    HW117114   0.630   2.568   4.375 -3.2626  1.7918 -1.2941
 1826SOL    HW217115   0.623   2.554   4.228 -0.9506 -1.7170 -1.0059
 1827SOL     OW17116   2.122   1.745   7.931  0.6720 -0.0399  0.3671
 1827SOL    HW117117   2.122   1.810   7.860  3.3954 -1.3258 -0.8267
 1827SOL    HW217118   2.051   1.687   7.902  0.1325 -0.0366  1.6956
 1828SOL     OW17119   0.872   3.882   3.946 -0.1022  0.3504 -0.3419
 1828SOL    HW117120   0.958   3.887   3.988  1.3879 -2.8249 -3.0206
 1828SOL    HW217121   0.814   3.845   4.012 -0.7234  0.2805 -0.9272
 1829SOL     OW17122   3.450   1.302   4.688 -0.6280 -0.7382  0.2932
 1829SOL    HW117123   3.381   1.299   4.755 -2.1972 -0.2086 -1.3087
 1829SOL    HW217124   3.417   1.225   4.641 -0.2532  0.1922 -1.4736
 1830SOL     OW17125   3.405   3.380   4.243  0.1972  0.5508  0.2533
 1830SOL    HW117126   3.382   3.454   4.187 -0.8216 -0.1311 -0.2360
 1830SOL    HW217127   3.390   3.423   4.327 -0.8373  0.9361 -0.1327
 1831SOL     OW17128   2.580   0.422   9.309 -0.1566 -0.0186  0.4565
 1831SOL    HW117129   2.522   0.457   9.376  0.2404 -1.6859  1.6595
 1831SOL    HW217130   2.654   0.482   9.317  1.0161 -1.2083 -1.3525
 1832SOL     OW17131   4.043   2.578   4.018  0.1845  0.2519 -0.1114
 1832SOL    HW117132   4.024   2.633   4.094 -1.6950 -0.4696 -0.0654
 1832SOL    HW217133   4.077   2.497   4.055  0.8796  0.1233 -1.0045
 1833SOL     OW17134   2.480   3.205  15.617 -0.3528  0.1981 -0.3158
 1833SOL    HW117135   2.538   3.212  15.692  1.0691  1.5370 -1.5388
 1833SOL    HW217136   2.543   3.213  15.545  0.3510 -0.1149  0.2679
 1834SOL     OW17137   4.469   2.604   9.026 -0.5424  0.0450  0.1234
 1834SOL    HW117138   4.491   2.607   9.119  1.6197  0.2928 -0.3883
 1834SOL    HW217139   4.444   2.513   9.015 -1.9150  0.5099 -0.6443
 1835SOL     OW17140   3.433   1.493   3.048  0.0752  0.2163 -0.5172
 1835SOL    HW117141   3.430   1.557   3.120 -1.5076 -0.8427  0.3520
 1835SOL    HW217142   3.419   1.555   2.976 -0.4481 -0.6955 -1.1889
 1836SOL     OW17143   2.439   3.004  14.885 -0.2501 -0.2810  0.2300
 1836SOL    HW117144   2.436   2.915  14.849 -0.4656 -0.7883  1.5203
 1836SOL    HW217145   2.527   3.031  14.858 -0.8302 -2.3679 -3.7430
 1837SOL     OW17146   2.029   1.693   7.519 -0.4758  0.1114  0.0052
 1837SOL    HW117147   2.116   1.654   7.524 -0.6415 -0.3263 -0.5146
 1837SOL    HW217148   2.006   1.688   7.426  0.6510 -2.9002 -0.1104
 1838SOL     OW17149   1.774   4.356   3.297 -0.7745 -0.3450  0.2213
 1838SOL    HW117150   1.696   4.407   3.274  1.4101  3.0968  0.4002
 1838SOL    HW217151   1.822   4.423   3.345 -1.6438 -1.0629  2.1057
 1839SOL     OW17152   2.619   0.354   1.631  0.4588  0.0909 -0.3663
 1839SOL    HW117153   2.525   0.364   1.617  0.1242 -0.7850  1.3216
 1839SOL    HW217154   2.610   0.287   1.698  2.3828  1.2384  1.0456
 1840SOL     OW17155   4.601   0.374  11.111  0.3732  0.0096  0.3059
 1840SOL    HW117156   4.673   0.340  11.164  0.7776  0.2237 -0.1107
 1840SOL    HW217157   4.592   0.299  11.053  1.1290  1.5479 -1.8007
 1841SOL     OW17158   1.736   4.119   2.456  0.1496  0.3728  0.5320
 1841SOL    HW117159   1.727   4.212   2.479  1.4920  0.8836 -1.0439
 1841SOL    HW217160   1.814   4.110   2.509  1.1914 -1.8750 -1.3746
 1842SOL     OW17161   0.786   0.739   9.300  0.3589 -0.1398 -0.0189
 1842SOL    HW117162   0.852   0.799   9.264  1.2820 -0.5287  1.0211
 1842SOL    HW217163   0.830   0.731   9.385 -2.7344  1.5895  1.6944
 1843SOL     OW17164   2.904   4.327   3.774  0.1223 -0.6595 -0.0410
 1843SOL    HW117165   2.962   4.251   3.763 -0.5839 -1.2086  0.0425
 1843SOL    HW217166   2.963   4.395   3.741  0.3178 -1.0060 -0.4148
 1844SOL     OW17167   3.952   3.557  12.414  0.1911 -0.0201  0.3215
 1844SOL    HW117168   4.024   3.577  12.474  1.1288 -0.7707 -0.5465
 1844SOL    HW217169   3.964   3.462  12.409 -4.1439 -0.4441 -1.4762
 1845SOL     OW17170   2.067   3.643   5.483 -0.2488  0.2414 -0.0522
 1845SOL    HW117171   2.098   3.569   5.535 -0.8578 -1.1743 -1.7215
 1845SOL    HW217172   2.140   3.652   5.422  0.6877  0.8305  1.1494
 1846SOL     OW17173   4.191   3.376   2.950  0.4733 -0.2592  0.1608
 1846SOL    HW117174   4.101   3.360   2.977  0.1976  0.4710 -0.3408
 1846SOL    HW217175   4.175   3.446   2.887  2.1300 -0.0133 -0.0055
 1847SOL     OW17176   1.389   2.727   5.781 -0.6048 -0.0923 -0.2388
 1847SOL    HW117177   1.356   2.644   5.816 -0.8694 -0.5881 -1.6658
 1847SOL    HW217178   1.475   2.735   5.824 -0.9401  2.3065 -0.0049
 1848SOL     OW17179   3.774   0.415  12.968  0.3620  0.5150  0.1743
 1848SOL    HW117180   3.798   0.322  12.973  0.9938  0.7672  2.0854
 1848SOL    HW217181   3.840   0.449  12.907  0.8822  1.0420  1.0249
 1849SOL     OW17182   2.666   2.958   4.532 -0.1472  0.2492  0.5352
 1849SOL    HW117183   2.608   3.032   4.546 -0.4391 -0.3700  2.6959
 1849SOL    HW217184   2.653   2.946   4.438 -1.4878 -1.9675  0.9917
 1850SOL     OW17185   3.795   0.962   2.531  0.1405 -0.3044  0.0498
 1850SOL    HW117186   3.880   0.986   2.567  0.7240 -2.5422  0.1265
 1850SOL    HW217187   3.749   1.042   2.559  0.4917  0.8044 -2.5500
 1851SOL     OW17188   4.632   4.426   4.834  0.2762 -0.5215  0.3720
 1851SOL    HW117189   4.720   4.431   4.872 -0.2438  0.5237  1.4569
 1851SOL    HW217190   4.580   4.453   4.909 -1.0546 -1.9128 -0.0674
 1852SOL     OW17191   1.678   3.914   7.699  0.3924  0.4197 -0.2323
 1852SOL    HW117192   1.654   3.950   7.784  1.9171 -1.7138  1.1265
 1852SOL    HW217193   1.597   3.873   7.671  0.9305 -1.6684  1.2804
 1853SOL     OW17194   2.974   2.455   7.001 -0.1857 -0.2974  0.4313
 1853SOL    HW117195   2.899   2.508   6.973 -1.7111 -2.6969  0.0151
 1853SOL    HW217196   3.025   2.442   6.921 -1.8411  2.2964 -1.0327
 1854SOL     OW17197   1.465   0.169   7.493 -0.5562  0.2362 -0.0296
 1854SOL    HW117198   1.431   0.210   7.572 -0.1654 -0.0127  0.2653
 1854SOL    HW217199   1.495   0.244   7.442 -0.0777  0.6938  0.9541
 1855SOL     OW17200   0.110   1.344   4.903  0.2056 -0.2895 -0.8473
 1855SOL    HW117201   0.201   1.321   4.884  0.3031 -0.0033 -0.7238
 1855SOL    HW217202   0.089   1.405   4.832  2.1807  0.7882 -0.5147
 1856SOL     OW17203   0.127   2.776   6.505 -0.2283  0.3405  0.5660
 1856SOL    HW117204   0.049   2.830   6.519 -0.4858  0.0944  0.0667
 1856SOL    HW217205   0.169   2.787   6.590  0.0701  2.5532  0.1377
 1857SOL     OW17206   3.246   1.036   0.115 -0.8756  0.1349 -0.2164
 1857SOL    HW117207   3.195   1.085   0.050 -1.2734 -0.1540 -0.1229
 1857SOL    HW217208   3.236   0.951   0.071 -1.2526  0.4856 -0.8181
 1858SOL     OW17209   2.728   4.296   4.403  0.7652  0.5208 -0.1029
 1858SOL    HW117210   2.735   4.203   4.425  0.8133  0.7007  0.6449
 1858SOL    HW217211   2.662   4.301   4.333  1.4684  0.3830 -0.7726
 1859SOL     OW17212   1.293   3.819   6.497  0.1172  0.1600 -0.2510
 1859SOL    HW117213   1.273   3.891   6.437  0.4506  0.7706  0.3766
 1859SOL    HW217214   1.243   3.749   6.456  0.0538 -1.0507  1.9231
 1860SOL     OW17215   2.359   1.540  13.807  0.2754  0.6055 -0.6349
 1860SOL    HW117216   2.362   1.499  13.720  0.0714  1.2393 -0.9424
 1860SOL    HW217217   2.313   1.618  13.776  0.2258  0.4133 -1.0469
 1861SOL     OW17218   3.988   0.928   3.545 -0.2837 -0.1718  0.4756
 1861SOL    HW117219   3.975   1.008   3.597 -1.9885  0.2204 -0.5668
 1861SOL    HW217220   4.056   0.956   3.484 -0.5650 -1.1247 -0.2587
 1862SOL     OW17221   0.977   2.552  16.479  0.3090  0.1180 -0.1626
 1862SOL    HW117222   0.937   2.476  16.522 -1.5506 -0.3912 -2.7386
 1862SOL    HW217223   0.992   2.606  16.556 -0.0898 -1.1289  0.7961
 1863SOL     OW17224   3.958   1.740   1.585 -0.3111  0.2692 -0.4161
 1863SOL    HW117225   3.888   1.696   1.537 -1.0316 -0.9970  1.8068
 1863SOL    HW217226   3.901   1.809   1.620  0.0856  0.8042 -0.8223
 1864SOL     OW17227   1.234   1.227   8.073  0.5420 -0.2553 -0.1417
 1864SOL    HW117228   1.142   1.212   8.095 -0.0254  1.1427 -1.6202
 1864SOL    HW217229   1.266   1.136   8.078  3.9593  0.9262 -0.0786
 1865SOL     OW17230   0.095   3.834   3.972 -0.0379 -0.3023 -0.1622
 1865SOL    HW117231   0.087   3.804   4.063  2.5477  1.0078  0.5081
 1865SOL    HW217232   0.011   3.804   3.938  1.3365 -2.6086 -1.5850
 1866SOL     OW17233   2.814   2.779  10.827 -0.2249  0.5835  0.2416
 1866SOL    HW117234   2.807   2.825  10.910 -2.5127  0.2041  0.2468
 1866SOL    HW217235   2.852   2.851  10.777  0.7511  1.5634  2.3954
 1867SOL     OW17236   1.637   0.701  15.130  0.3592 -0.6809  0.4366
 1867SOL    HW117237   1.671   0.777  15.084  0.0804  0.8009  2.6430
 1867SOL    HW217238   1.544   0.716  15.114  0.0338 -0.2709  2.6088
 1868SOL     OW17239   1.624   2.748   0.248  0.2255 -1.1022 -0.0033
 1868SOL    HW117240   1.701   2.805   0.259  0.3198 -1.3114  0.3901
 1868SOL    HW217241   1.657   2.685   0.184 -0.8287 -0.1557 -1.4824
 1869SOL     OW17242   4.619   0.078   7.571  0.0723 -0.2275  0.2629
 1869SOL    HW117243   4.664   0.160   7.549  0.4067 -0.2551  0.8347
 1869SOL    HW217244   4.685   0.011   7.553 -0.0762 -0.7237  1.5209
 1870SOL     OW17245   0.720   4.259  14.199 -0.0518 -0.2176  0.7235
 1870SOL    HW117246   0.746   4.332  14.256  1.0012 -0.9043  1.1107
 1870SOL    HW217247   0.795   4.203  14.181  0.6660  1.1527 -0.6038
 1871SOL     OW17248   3.443   0.561  17.506  0.0242 -0.4732  0.0221
 1871SOL    HW117249   3.389   0.632  17.541 -1.3877 -2.2612  1.4864
 1871SOL    HW217250   3.377   0.495  17.483 -1.3307  1.0043 -0.3059
 1872SOL     OW17251   0.728   0.354   6.018  0.1588  0.1204  0.2210
 1872SOL    HW117252   0.756   0.413   6.088 -1.7449  1.2181  0.0642
 1872SOL    HW217253   0.736   0.410   5.940 -0.3266 -0.0235  0.0639
 1873SOL     OW17254   1.674   4.686   8.493  0.4842  0.3384  0.3787
 1873SOL    HW117255   1.625   4.605   8.481  2.2145 -0.6059 -0.2525
 1873SOL    HW217256   1.729   4.671   8.416  0.5123  1.0856  0.2511
 1874SOL     OW17257   2.293   0.303  13.859 -0.8552  0.1614  0.1087
 1874SOL    HW117258   2.386   0.326  13.866 -0.8106  0.5007 -1.6686
 1874SOL    HW217259   2.279   0.278  13.950  2.5975  0.4080  0.7301
 1875SOL     OW17260   2.775   0.922   7.428  0.1237 -0.7081  0.3375
 1875SOL    HW117261   2.812   0.833   7.425  2.7767  0.3790  1.1762
 1875SOL    HW217262   2.721   0.910   7.506  1.4232  2.0208  1.6444
 1876SOL     OW17263   2.118   4.729   1.752  0.2448 -0.0506 -0.2145
 1876SOL    HW117264   2.093   4.648   1.706  0.0380 -0.3489  0.4329
 1876SOL    HW217265   2.053   0.049   1.712 -0.9132  0.2526  2.1370
 1877SOL     OW17266   3.824   4.651   3.400  0.1251  0.0854  0.0220
 1877SOL    HW117267   3.909   4.687   3.426  0.5286 -0.4440 -0.5679
 1877SOL    HW217268   3.802   4.708   3.327  0.6486 -1.0848 -1.0534
 1878SOL     OW17269   0.064   2.555   4.523  0.8537 -0.3913 -0.7678
 1878SOL    HW117270   4.735   2.621   4.543 -0.1516 -2.3675  2.4442
 1878SOL    HW217271   0.125   2.569   4.596 -0.9714  0.1180  0.6633
 1879SOL     OW17272   4.242   1.917   8.039  0.1020  0.6751 -0.0464
 1879SOL    HW117273   4.303   1.969   7.986  1.4161 -2.1647 -1.3698
 1879SOL    HW217274   4.177   1.984   8.058  0.2862  0.1909  2.2155
 1880SOL     OW17275   2.142   3.079   2.313 -0.1259 -0.1092  0.3266
 1880SOL    HW117276   2.073   3.121   2.262 -0.5211  0.5876  1.4203
 1880SOL    HW217277   2.105   2.992   2.328 -1.2840  0.5566  1.3888
 1881SOL     OW17278   3.842   3.167   8.079 -0.4058 -0.2665 -0.4550
 1881SOL    HW117279   3.812   3.205   7.997  1.2617  1.0823 -0.4443
 1881SOL    HW217280   3.758   3.158   8.124  0.4247 -2.7970  0.5858
 1882SOL     OW17281   3.175   1.410  11.841  0.4881  0.1770 -0.4081
 1882SOL    HW117282   3.221   1.458  11.772 -0.4946 -0.3274 -1.4148
 1882SOL    HW217283   3.097   1.464  11.840  0.1696 -0.2896 -0.8516
 1883SOL     OW17284   3.755   1.577   1.497  0.6053 -0.0394  0.6568
 1883SOL    HW117285   3.754   1.528   1.580  4.0410  0.7482  1.1622
 1883SOL    HW217286   3.689   1.532   1.444 -0.8532  3.1975 -0.2453
 1884SOL     OW17287   0.925   2.146   2.709 -0.2867  0.1118 -0.4140
 1884SOL    HW117288   0.852   2.203   2.733 -1.4906 -1.5019 -0.2650
 1884SOL    HW217289   0.906   2.078   2.773  2.5314  1.0192  1.3906
 1885SOL     OW17290   3.994   4.615  13.100 -0.5307  0.0190  0.1704
 1885SOL    HW117291   4.038   4.700  13.102 -0.7383  0.1167  0.4850
 1885SOL    HW217292   3.957   4.611  13.188  2.1445 -0.2951  1.2871
 1886SOL     OW17293   0.502   2.393   8.944  0.1378 -0.1215  0.2421
 1886SOL    HW117294   0.497   2.419   9.036  1.6779  1.0814 -0.0120
 1886SOL    HW217295   0.568   2.324   8.949  0.5378  0.2156 -0.4730
 1887SOL     OW17296   2.961   0.877   6.215  0.1790  0.0069 -0.3851
 1887SOL    HW117297   2.909   0.939   6.163 -0.3476  0.8796  1.1890
 1887SOL    HW217298   2.910   0.876   6.296  3.8132  2.4935  1.9252
 1888SOL     OW17299   1.225   2.589   8.101  0.0559 -0.6869  0.4188
 1888SOL    HW117300   1.176   2.591   8.184  3.6253  1.3929  2.4478
 1888SOL    HW217301   1.271   2.505   8.106  0.2501 -0.6901 -1.7368
 1889SOL     OW17302   0.968   2.514   9.856  0.1736  0.4653  0.3536
 1889SOL    HW117303   0.980   2.493   9.948  1.4023 -4.4842 -0.9795
 1889SOL    HW217304   1.054   2.557   9.847  1.1768 -1.7487 -0.5369
 1890SOL     OW17305   4.682   3.878   1.990 -0.4534  0.1076  0.1509
 1890SOL    HW117306   0.014   3.830   1.944 -0.8225  0.6235 -0.9385
 1890SOL    HW217307   4.727   3.962   2.006 -2.6716  1.4828 -0.8450
 1891SOL     OW17308   3.353   0.657   3.901  0.8579 -0.1777  0.1961
 1891SOL    HW117309   3.431   0.613   3.867  0.6045 -1.4226  1.2056
 1891SOL    HW217310   3.385   0.680   3.988 -1.9668 -2.8364  1.9597
 1892SOL     OW17311   2.433   2.250  16.188 -0.4674 -0.3615  0.6291
 1892SOL    HW117312   2.405   2.236  16.098  1.1436 -2.2217  0.4109
 1892SOL    HW217313   2.386   2.172  16.219 -1.7864  1.0497  2.1383
 1893SOL     OW17314   1.739   0.260   5.359 -0.5576  0.0501  0.0828
 1893SOL    HW117315   1.731   0.221   5.447  1.4058 -0.9635 -0.1780
 1893SOL    HW217316   1.757   0.178   5.313 -1.0287 -0.4579  0.7882
 1894SOL     OW17317   3.115   2.412   6.763  0.1893  0.1305  0.1176
 1894SOL    HW117318   3.043   2.455   6.718  0.8056 -0.3509 -1.3091
 1894SOL    HW217319   3.145   2.349   6.697  2.6010  0.8643  0.5195
 1895SOL     OW17320   0.914   4.132  10.772  0.1697 -0.4826 -0.2684
 1895SOL    HW117321   0.902   4.077  10.694  0.8159 -1.0897  0.0596
 1895SOL    HW217322   1.001   4.166  10.755  0.5692 -2.8553 -3.0842
 1896SOL     OW17323   3.681   1.377   7.955  0.5825 -0.0744  0.0391
 1896SOL    HW117324   3.642   1.452   8.000 -0.8092 -1.1233  0.5725
 1896SOL    HW217325   3.771   1.401   7.933  0.8866 -3.1991 -2.1618
 1897SOL     OW17326   1.327   3.602   3.347 -0.0789 -0.0526  0.3136
 1897SOL    HW117327   1.352   3.574   3.259 -0.4244  1.8467 -0.3906
 1897SOL    HW217328   1.241   3.641   3.332  0.5614  0.5944 -1.7131
 1898SOL     OW17329   3.638   2.632   5.220 -0.6254 -0.5687 -0.0691
 1898SOL    HW117330   3.631   2.536   5.228  1.2221 -0.8069 -1.1748
 1898SOL    HW217331   3.685   2.643   5.138  1.3883  1.2689  1.3098
 1899SOL     OW17332   0.641   0.839   9.818 -0.0373  0.1578 -1.0727
 1899SOL    HW117333   0.708   0.906   9.835  0.9914 -0.4447 -2.8031
 1899SOL    HW217334   0.625   0.851   9.725 -0.0314  0.8649 -0.9859
 1900SOL     OW17335   1.360   4.690   8.386  0.6185 -0.2867  0.1345
 1900SOL    HW117336   1.280   4.675   8.437  0.1301 -0.3246 -0.6337
 1900SOL    HW217337   1.393   4.604   8.360 -1.6375 -1.0219 -0.3684
 1901SOL     OW17338   0.069   1.871   2.046  0.0037 -0.3541 -0.4306
 1901SOL    HW117339   0.142   1.919   2.083 -0.1777  0.5814 -1.2981
 1901SOL    HW217340   0.122   1.810   1.994 -0.0510 -0.4909 -0.3281
 1902SOL     OW17341   1.461   3.180   7.044  0.4170  0.0847  0.2236
 1902SOL    HW117342   1.515   3.183   6.965 -1.1133 -1.1492 -0.8616
 1902SOL    HW217343   1.375   3.151   7.014 -0.6291  2.0677  1.3584
 1903SOL     OW17344   2.367   2.437   1.720  1.1847  0.7619 -0.5309
 1903SOL    HW117345   2.366   2.413   1.813  2.5908  0.3761 -0.6232
 1903SOL    HW217346   2.287   2.486   1.704  0.4091  0.0123  1.0670
 1904SOL     OW17347   1.532   0.056   3.794  0.2901 -0.0064  0.0944
 1904SOL    HW117348   1.488   0.056   3.709  1.3583  2.0253 -0.4735
 1904SOL    HW217349   1.518   0.149   3.815 -0.0216 -0.1164  0.3528
 1905SOL     OW17350   4.443   2.787  11.390  0.1313  0.3945  0.3305
 1905SOL    HW117351   4.395   2.809  11.310  2.4471  0.8263 -0.9350
 1905SOL    HW217352   4.525   2.754  11.353 -0.0131 -0.1307  0.4758
 1906SOL     OW17353   4.502   0.353   4.857 -0.5579  0.5138  0.0669
 1906SOL    HW117354   4.582   0.301   4.847 -0.3034  0.6487  1.3213
 1906SOL    HW217355   4.445   0.290   4.901 -2.0578  2.0056  0.2308
 1907SOL     OW17356   1.465   1.374   9.253 -0.0413  0.3711 -0.2123
 1907SOL    HW117357   1.398   1.315   9.288  0.2412 -0.2139 -0.6676
 1907SOL    HW217358   1.527   1.314   9.212  1.4115  2.4872 -1.0881
 1908SOL     OW17359   2.665   2.951  15.742 -0.5666  0.4498 -0.0036
 1908SOL    HW117360   2.745   2.944  15.690 -3.4203  2.8161 -4.6905
 1908SOL    HW217361   2.599   2.920  15.680 -0.3103 -1.2464  0.5572
 1909SOL     OW17362   0.303   2.933   4.619  0.4646  0.2912 -0.2365
 1909SOL    HW117363   0.298   2.844   4.655 -1.0207 -0.7046 -2.9618
 1909SOL    HW217364   0.220   2.927   4.572 -0.0692  1.2340  0.5968
 1910SOL     OW17365   2.068   0.495   3.318 -0.1012 -0.7073 -0.5040
 1910SOL    HW117366   1.999   0.516   3.382 -2.2424 -2.5838 -2.2040
 1910SOL    HW217367   2.140   0.549   3.349 -1.6236  0.6307  0.7250
 1911SOL     OW17368   3.942   0.312   9.343 -0.3052 -0.0271 -0.2835
 1911SOL    HW117369   4.004   0.352   9.283 -0.4897 -0.0400 -0.4829
 1911SOL    HW217370   3.951   0.371   9.418 -1.8642 -0.0980 -0.0399
 1912SOL     OW17371   4.414   1.044   7.801 -0.0799 -0.4329  0.0279
 1912SOL    HW117372   4.503   1.018   7.776 -0.1393  0.8546 -1.4776
 1912SOL    HW217373   4.412   1.125   7.751 -1.3613 -0.1281  0.5704
 1913SOL     OW17374   2.686   1.376  15.164  0.2579  0.5752 -0.0821
 1913SOL    HW117375   2.744   1.328  15.223 -0.1352  0.7593  0.4556
 1913SOL    HW217376   2.694   1.326  15.083 -2.0592 -0.0287  0.0672
 1914SOL     OW17377   0.348   4.529   3.125  0.3850  0.4859 -0.2014
 1914SOL    HW117378   0.441   4.550   3.127  0.7286 -1.0463  0.0949
 1914SOL    HW217379   0.341   4.456   3.064  1.1387 -0.9855  1.4930
 1915SOL     OW17380   2.505   1.692   8.668 -0.4781  0.0178  0.5910
 1915SOL    HW117381   2.567   1.738   8.724  1.8639 -0.2182 -1.7885
 1915SOL    HW217382   2.558   1.675   8.590 -1.9978 -2.2581  0.0412
 1916SOL     OW17383   0.539   1.630   7.616 -0.2283  0.8078  0.4087
 1916SOL    HW117384   0.567   1.599   7.703 -0.8507 -3.1572 -0.8293
 1916SOL    HW217385   0.531   1.549   7.567  2.2283  0.2256  0.9587
 1917SOL     OW17386   0.313   3.102   2.704  0.0173 -0.1473  0.4840
 1917SOL    HW117387   0.311   3.020   2.656 -0.5300  1.0361 -1.5232
 1917SOL    HW217388   0.302   3.071   2.794 -0.4558  2.2392  1.2466
 1918SOL     OW17389   3.991   1.255   0.516 -0.4507 -0.1610  0.0169
 1918SOL    HW117390   4.012   1.255   0.609 -0.4940 -1.6562  0.0374
 1918SOL    HW217391   3.931   1.330   0.516 -0.7008 -0.3637 -1.1150
 1919SOL     OW17392   3.212   2.592  15.520 -0.4428  0.1867  0.0511
 1919SOL    HW117393   3.257   2.564  15.440 -3.5247 -0.4043 -1.4643
 1919SOL    HW217394   3.123   2.604  15.488 -0.7482 -0.3351  0.7101
 1920SOL     OW17395   3.181   2.421  12.368  0.7155 -0.2627  0.1474
 1920SOL    HW117396   3.231   2.487  12.416 -0.5472  1.1252 -0.4459
 1920SOL    HW217397   3.203   2.446  12.278 -0.2792 -2.7078 -0.7702
 1921SOL     OW17398   2.873   4.103   0.687  1.2346 -0.3970  0.3247
 1921SOL    HW117399   2.888   4.068   0.600  0.4502 -0.2836  0.1480
 1921SOL    HW217400   2.780   4.082   0.689  0.7676  1.5473 -0.4520
 1922SOL     OW17401   3.634   2.840   2.644 -0.2165  0.7508  0.1541
 1922SOL    HW117402   3.719   2.817   2.682  0.1543  4.8778  1.7965
 1922SOL    HW217403   3.624   2.935   2.647 -1.9009  0.6700 -3.0007
 1923SOL     OW17404   2.113   2.621  15.544  0.1121  0.3379 -0.6364
 1923SOL    HW117405   2.186   2.680  15.525  1.4065 -2.0438 -3.0326
 1923SOL    HW217406   2.050   2.660  15.484 -0.2248 -0.5128 -0.8351
 1924SOL     OW17407   0.478   1.103   3.328  0.2972  0.4555  0.2284
 1924SOL    HW117408   0.470   1.037   3.397 -1.9055  1.5687  1.0559
 1924SOL    HW217409   0.498   1.051   3.251  1.9651 -0.3630  1.2333
 1925SOL     OW17410   1.659   4.328   7.800  0.0371 -0.2069  0.1961
 1925SOL    HW117411   1.693   4.309   7.712 -2.1954 -1.3559 -0.4175
 1925SOL    HW217412   1.725   4.279   7.849  1.4134  0.2160 -1.2402
 1926SOL     OW17413   0.981   1.448  15.687 -0.7627 -0.6803  0.2401
 1926SOL    HW117414   0.915   1.384  15.715  0.2114 -1.2655  1.2041
 1926SOL    HW217415   1.055   1.390  15.671 -1.9915 -1.9213 -1.0349
 1927SOL     OW17416   1.742   1.096   5.934 -0.0740  0.1735  0.5824
 1927SOL    HW117417   1.711   1.034   6.000  0.8194  0.8521  1.6452
 1927SOL    HW217418   1.661   1.133   5.899 -0.8955 -1.3141  0.9218
 1928SOL     OW17419   1.280   0.237   7.194 -0.2226  0.0416 -0.0894
 1928SOL    HW117420   1.272   0.319   7.243 -0.2923  1.6975 -2.8282
 1928SOL    HW217421   1.294   0.179   7.268  3.6690  2.6597  1.2013
 1929SOL     OW17422   4.406   4.177   4.900  0.2371 -0.4157 -0.4608
 1929SOL    HW117423   4.329   4.156   4.953 -0.7826  0.1664 -1.6978
 1929SOL    HW217424   4.367   4.231   4.831  2.3079 -0.1600 -1.4355
 1930SOL     OW17425   3.335   0.833  13.753  0.1903  0.0359 -0.1618
 1930SOL    HW117426   3.310   0.746  13.722  1.4847 -0.9903  1.6962
 1930SOL    HW217427   3.402   0.859  13.690 -1.2670  0.7181 -1.4340
 1931SOL     OW17428   2.427   1.832  15.747 -0.0091 -0.1062  0.0427
 1931SOL    HW117429   2.454   1.923  15.747  1.3770 -0.5195 -0.4732
 1931SOL    HW217430   2.389   1.823  15.835  0.6978 -2.3916  0.1095
 1932SOL     OW17431   1.844   4.234  14.849  0.6385  0.5058  0.4354
 1932SOL    HW117432   1.756   4.264  14.873  1.5562  3.0756  0.6245
 1932SOL    HW217433   1.886   4.263  14.930  1.5638 -1.1552  0.5438
 1933SOL     OW17434   3.702   4.517  17.036  0.4307  0.7480  0.6837
 1933SOL    HW117435   3.741   4.510  16.949 -1.4756  0.8292 -0.1887
 1933SOL    HW217436   3.609   4.520  17.014  0.6001  1.3010  0.0487
 1934SOL     OW17437   2.291   3.669   4.250  0.0790 -0.5856 -0.2852
 1934SOL    HW117438   2.317   3.656   4.159 -1.0305 -0.2227 -0.6562
 1934SOL    HW217439   2.201   3.696   4.234 -0.0790 -1.8293 -1.5035
 1935SOL     OW17440   3.024   1.185   2.819  0.2791  0.3098 -0.5378
 1935SOL    HW117441   3.046   1.278   2.815  6.1370 -0.9380  1.8961
 1935SOL    HW217442   3.097   1.148   2.869 -1.1407 -0.1855  1.1830
 1936SOL     OW17443   1.973   1.352   1.924 -0.6108  0.4126 -0.2731
 1936SOL    HW117444   2.024   1.303   1.860 -0.7944 -0.7101  0.4385
 1936SOL    HW217445   2.024   1.343   2.004 -0.6604 -0.3851 -0.3283
 1937SOL     OW17446   1.325   0.951   5.676  0.2156 -0.6693  0.3844
 1937SOL    HW117447   1.408   0.998   5.665  0.0073 -0.4838 -0.3666
 1937SOL    HW217448   1.354   0.869   5.714  2.3946  0.2130  0.6426
 1938SOL     OW17449   0.606   4.544   6.753  0.8091 -0.1261  0.2126
 1938SOL    HW117450   0.655   4.464   6.734  2.8690  0.9086  1.2289
 1938SOL    HW217451   0.524   4.498   6.773  1.3868 -0.7662  1.1327
 1939SOL     OW17452   4.263   3.856  11.327 -0.3461  0.3524  0.1143
 1939SOL    HW117453   4.183   3.818  11.361  0.0977  0.2612  1.0614
 1939SOL    HW217454   4.313   3.868  11.408 -1.7296 -1.6257  1.2295
 1940SOL     OW17455   2.233   3.963  16.607 -0.1756  0.1155  0.0323
 1940SOL    HW117456   2.177   3.957  16.530 -0.2521 -0.1397  0.1065
 1940SOL    HW217457   2.323   3.965  16.574 -0.6583 -0.7292 -1.3473
 1941SOL     OW17458   1.687   1.582   5.284 -0.3648 -0.1210  0.4776
 1941SOL    HW117459   1.694   1.538   5.200 -2.1354 -0.7819  0.6641
 1941SOL    HW217460   1.654   1.510   5.337  1.8735 -0.8047  0.9290
 1942SOL     OW17461   4.031   2.329   1.629  0.0700 -0.1761 -0.2479
 1942SOL    HW117462   3.979   2.403   1.598  0.6517 -0.2825 -1.4875
 1942SOL    HW217463   4.021   2.336   1.724 -0.4974  2.2186 -0.4843
 1943SOL     OW17464   4.068   4.261   1.655 -0.0785 -0.1440  0.6058
 1943SOL    HW117465   4.023   4.282   1.737  1.3735  0.9295  1.1378
 1943SOL    HW217466   4.085   4.166   1.655 -0.5748 -0.2301 -0.3277
 1944SOL     OW17467   2.974   0.904  12.813  0.0243 -0.1349  0.2484
 1944SOL    HW117468   3.016   0.838  12.759  0.1987 -0.2811  0.5587
 1944SOL    HW217469   2.959   0.983  12.761 -1.6099 -1.4974 -1.3524
 1945SOL     OW17470   3.829   0.212   7.965  0.0251 -0.2326  0.1059
 1945SOL    HW117471   3.798   0.194   7.876 -0.5464 -0.6628  0.3910
 1945SOL    HW217472   3.851   0.123   7.993 -2.4660 -1.0725 -0.6214
 1946SOL     OW17473   0.136   1.590   5.412 -0.3184  0.9756  0.2594
 1946SOL    HW117474   0.098   1.678   5.412 -2.7994 -0.1124  0.5301
 1946SOL    HW217475   0.179   1.597   5.327  1.9129 -1.6325  1.1725
 1947SOL     OW17476   4.683   2.698   4.257 -0.1187  0.3845 -0.4700
 1947SOL    HW117477   4.590   2.683   4.240 -1.2728 -0.0991  6.1130
 1947SOL    HW217478   4.717   2.618   4.217 -0.6786 -0.4729  0.7552
 1948SOL     OW17479   2.600   3.242   1.849  0.1469  0.3161  0.1144
 1948SOL    HW117480   2.589   3.210   1.938 -1.6122  1.6640  0.3925
 1948SOL    HW217481   2.538   3.315   1.849  1.0132  1.0458  0.6927
 1949SOL     OW17482   1.925   3.802  17.218  0.2559 -0.2224 -0.0228
 1949SOL    HW117483   1.921   3.726  17.159  0.5915 -1.1362  1.1300
 1949SOL    HW217484   2.009   3.844  17.196  0.5190 -1.4358 -1.3291
 1950SOL     OW17485   1.222   2.448   3.325  0.4208  0.2119  0.5106
 1950SOL    HW117486   1.207   2.366   3.372  2.4069 -0.0679  0.6707
 1950SOL    HW217487   1.150   2.507   3.347 -0.5667 -0.3979 -1.1045
 1951SOL     OW17488   1.651   0.373   5.031 -0.2863  0.1450 -0.5891
 1951SOL    HW117489   1.664   0.414   4.946 -0.0510  0.6383 -0.3166
 1951SOL    HW217490   1.733   0.324   5.037  0.3462  1.2688 -0.1062
 1952SOL     OW17491   3.874   2.619   3.331  0.1582 -0.3312 -0.1919
 1952SOL    HW117492   3.893   2.664   3.413  1.3110  1.9506 -1.7135
 1952SOL    HW217493   3.908   2.681   3.265 -0.5517  0.7451  0.4569
 1953SOL     OW17494   3.137   4.169   1.527  0.4608 -0.0924  0.0850
 1953SOL    HW117495   3.190   4.176   1.448  2.6808 -1.0333  1.4767
 1953SOL    HW217496   3.199   4.182   1.599 -0.0282 -0.5804  0.5981
 1954SOL     OW17497   1.131   1.876   4.152 -0.0155  0.2979 -0.5104
 1954SOL    HW117498   1.111   1.921   4.070 -1.8410 -1.6271 -1.1323
 1954SOL    HW217499   1.053   1.903   4.201 -0.7776 -1.7668 -0.5821
 1955SOL     OW17500   2.860   1.491  11.999  0.9332 -0.5357 -0.4690
 1955SOL    HW117501   2.882   1.432  12.071 -0.5665  0.0211  0.4307
 1955SOL    HW217502   2.853   1.427  11.929  2.6406 -2.1119  0.8008
 1956SOL     OW17503   2.087   0.140   5.319  0.2419 -0.2333  0.2806
 1956SOL    HW117504   2.121   0.109   5.234 -1.7681 -2.5000  0.3087
 1956SOL    HW217505   2.056   0.054   5.348 -3.8280  1.4097  0.7227
 1957SOL     OW17506   1.112   4.259  12.366  0.1410 -0.7430  0.4289
 1957SOL    HW117507   1.080   4.294  12.449 -2.6759  1.0350 -1.3878
 1957SOL    HW217508   1.139   4.171  12.392  0.2881 -0.0951  2.4666
 1958SOL     OW17509   4.463   3.902   3.340 -0.6734  0.0131 -0.3818
 1958SOL    HW117510   4.501   3.840   3.401 -0.3614 -0.2779 -0.8687
 1958SOL    HW217511   4.544   3.916   3.290  0.2448 -0.7216  0.9077
 1959SOL     OW17512   0.106   1.198   0.242 -0.2136  0.3004  0.4458
 1959SOL    HW117513   0.152   1.127   0.197 -0.9406 -0.4282  0.8534
 1959SOL    HW217514   0.032   1.158   0.288 -0.7207 -0.5565 -1.1081
 1960SOL     OW17515   1.240   4.591   4.454  0.1416 -0.0893 -0.2088
 1960SOL    HW117516   1.240   4.659   4.521  0.3690  0.4595 -0.7708
 1960SOL    HW217517   1.334   4.591   4.439  0.2422  1.6742  0.4503
 1961SOL     OW17518   2.090   3.326   5.780 -0.4075 -0.2805  0.3237
 1961SOL    HW117519   2.091   3.313   5.686 -1.0994  1.4335  0.0695
 1961SOL    HW217520   2.078   3.421   5.790  2.9850  0.0808  0.9932
 1962SOL     OW17521   2.136   0.347   4.238  0.0527  0.1343  0.1526
 1962SOL    HW117522   2.114   0.387   4.154 -2.2844 -1.2351  0.1225
 1962SOL    HW217523   2.222   0.382   4.260 -0.3789  2.1902 -1.3544
 1963SOL     OW17524   1.127   2.898   7.219  0.7150 -0.3140  0.9307
 1963SOL    HW117525   1.066   2.902   7.145  1.7647  0.6496  0.1061
 1963SOL    HW217526   1.144   2.805   7.204 -0.0274 -0.0895 -1.3159
 1964SOL     OW17527   1.026   2.798   5.117 -0.5340 -0.4897 -0.2882
 1964SOL    HW117528   0.945   2.765   5.079 -1.0545  0.9234 -0.4169
 1964SOL    HW217529   1.083   2.821   5.044  1.5732 -0.0757  1.4607
 1965SOL     OW17530   4.615   2.958  11.115  0.5418 -0.1121  0.6051
 1965SOL    HW117531   4.592   2.967  11.022  0.5726 -3.2031  0.2839
 1965SOL    HW217532   4.589   3.044  11.146 -0.3930  0.0828 -0.6958
 1966SOL     OW17533   4.556   0.078   8.290 -0.0221 -0.3101 -0.3738
 1966SOL    HW117534   4.615   0.026   8.344  0.4056  1.5890  0.9902
 1966SOL    HW217535   4.536   0.153   8.346  1.7637 -0.2311  0.1678
 1967SOL     OW17536   1.955   3.410   2.048  0.4466 -0.4954 -0.0401
 1967SOL    HW117537   2.048   3.391   2.034  0.9432  0.2196  2.1903
 1967SOL    HW217538   1.908   3.365   1.979 -0.3820  3.1292 -1.8601
 1968SOL     OW17539   3.660   1.415  15.481 -0.1682  0.4175  0.5683
 1968SOL    HW117540   3.651   1.506  15.511 -3.8772  0.4614 -0.6875
 1968SOL    HW217541   3.611   1.415  15.399  0.2519 -1.3012  0.3198
 1969SOL     OW17542   3.192   3.727   7.641 -0.4670 -0.2059  0.1967
 1969SOL    HW117543   3.209   3.633   7.645  1.4598  0.0573 -1.9354
 1969SOL    HW217544   3.279   3.759   7.614 -0.8519  0.4748 -0.2396
 1970SOL     OW17545   1.242   1.562  11.827 -0.3467  0.4087  0.2856
 1970SOL    HW117546   1.175   1.557  11.895  0.1012  0.2755  0.7240
 1970SOL    HW217547   1.316   1.601  11.874  1.9712 -3.1829 -0.3612
 1971SOL     OW17548   4.295   2.032   4.703  0.3327  0.2875 -0.3846
 1971SOL    HW117549   4.291   2.085   4.783 -0.7024  1.2248 -1.0603
 1971SOL    HW217550   4.368   2.063   4.649  0.5028  0.7378  0.0991
 1972SOL     OW17551   4.558   1.992   8.085 -0.1843  0.2061 -0.0588
 1972SOL    HW117552   4.612   2.043   8.145 -2.2651 -0.0205  2.0003
 1972SOL    HW217553   4.565   1.909   8.132  0.0145 -0.8863 -2.0148
 1973SOL     OW17554   4.009   0.495   2.359 -0.3922 -0.5281  0.5213
 1973SOL    HW117555   3.994   0.515   2.452 -2.6177 -1.1538  0.3048
 1973SOL    HW217556   3.934   0.540   2.319  0.4764  1.3975  1.0477
 1974SOL     OW17557   0.590   0.706   6.168 -0.7265 -0.3001  0.0670
 1974SOL    HW117558   0.504   0.745   6.151 -0.1482 -0.0612 -2.2315
 1974SOL    HW217559   0.626   0.774   6.226 -0.0128 -0.5869 -0.0441
 1975SOL     OW17560   4.236   2.816   2.148 -0.4414  0.2535  0.0955
 1975SOL    HW117561   4.169   2.840   2.084 -0.4468 -0.5150 -0.1915
 1975SOL    HW217562   4.317   2.808   2.098 -0.3541 -2.4689  0.6725
 1976SOL     OW17563   1.767   2.431   8.864 -0.1700 -0.1114 -0.3901
 1976SOL    HW117564   1.826   2.441   8.789  3.9305 -1.8886  2.5728
 1976SOL    HW217565   1.767   2.336   8.875  2.5727 -0.0989 -0.2767
 1977SOL     OW17566   3.858   0.584   4.162 -0.0455 -0.1242  0.7878
 1977SOL    HW117567   3.905   0.501   4.151  0.7012  0.2972  0.7998
 1977SOL    HW217568   3.800   0.551   4.231 -1.0296  0.3541  0.1879
 1978SOL     OW17569   2.356   3.044  15.131 -0.1108  0.1977 -0.0958
 1978SOL    HW117570   2.364   3.031  15.036  1.4223  1.3385 -0.1310
 1978SOL    HW217571   2.318   3.132  15.134  1.7493  0.9551  1.4194
 1979SOL     OW17572   1.295   1.718   3.053 -0.2927 -0.1429  0.3721
 1979SOL    HW117573   1.277   1.713   2.959 -0.5055  0.0695  0.4010
 1979SOL    HW217574   1.216   1.678   3.087  0.0982  1.2957  2.9544
 1980SOL     OW17575   3.699   4.657   5.129 -0.5715 -0.6712  0.0219
 1980SOL    HW117576   3.695   4.694   5.041 -0.8660 -1.2187 -0.1926
 1980SOL    HW217577   3.783   4.610   5.132 -0.0181  0.2650 -0.9369
 1981SOL     OW17578   0.542   3.989  11.784  0.4519 -0.4800 -0.5804
 1981SOL    HW117579   0.601   4.061  11.804 -0.2777  0.4221 -1.7036
 1981SOL    HW217580   0.597   3.918  11.751 -1.0487 -2.8585  1.9896
 1982SOL     OW17581   1.453   2.410   3.602 -0.3964 -0.0504  0.3872
 1982SOL    HW117582   1.444   2.487   3.545 -0.1031 -0.0319  0.3666
 1982SOL    HW217583   1.547   2.395   3.602 -0.7805 -2.3389 -1.6420
 1983SOL     OW17584   2.529   2.178   6.644  0.2298 -0.9038  0.2309
 1983SOL    HW117585   2.507   2.103   6.699  1.9634 -1.2282  0.4795
 1983SOL    HW217586   2.455   2.170   6.584  1.6438  0.4768 -1.7198
 1984SOL     OW17587   3.936   2.156   3.066  0.3210  0.0689 -0.1259
 1984SOL    HW117588   3.980   2.106   2.997  1.9196  0.9451  0.2468
 1984SOL    HW217589   3.906   2.077   3.110 -3.9131  1.4448 -0.5894
 1985SOL     OW17590   3.272   4.518   7.654 -0.0754 -0.7076  0.1659
 1985SOL    HW117591   3.335   4.570   7.604 -0.4681  1.6046  2.1115
 1985SOL    HW217592   3.197   4.519   7.595 -0.9460 -1.8244  1.2567
 1986SOL     OW17593   2.987   3.286   0.234  0.1202 -0.2793 -0.5739
 1986SOL    HW117594   2.940   3.290   0.317 -0.5972  3.1804 -1.1370
 1986SOL    HW217595   2.997   3.191   0.224  0.4812 -0.4174  1.2487
 1987SOL     OW17596   2.309   0.180   5.525  0.6180 -0.1778  0.3121
 1987SOL    HW117597   2.278   0.270   5.533 -2.2214 -0.9822 -1.3381
 1987SOL    HW217598   2.239   0.135   5.477  0.2023 -0.1734  0.9089
 1988SOL     OW17599   3.686   0.067   5.350 -0.6100  0.1349 -0.3826
 1988SOL    HW117600   3.709   4.737   5.414  2.0220  0.7820 -0.6549
 1988SOL    HW217601   3.695   0.022   5.266  2.6169  0.7671 -0.3482
 1989SOL     OW17602   2.735   4.662  17.285 -0.2678  0.1530 -0.1329
 1989SOL    HW117603   2.763   4.608  17.211  0.5287  0.7960 -0.3016
 1989SOL    HW217604   2.773   4.606  17.353 -1.4195  1.0625  1.2707
 1990SOL     OW17605   0.120   0.862   3.079  0.1749  0.4031  0.2680
 1990SOL    HW117606   0.104   0.920   3.153  1.3811 -0.4134  1.1699
 1990SOL    HW217607   0.063   0.893   3.009  0.2127  0.8124  0.4227
 1991SOL     OW17608   3.626   2.534   0.946 -0.9020  0.2872  0.2502
 1991SOL    HW117609   3.711   2.497   0.969  0.1811  1.9668 -1.0128
 1991SOL    HW217610   3.634   2.611   1.002  1.2061  1.8602 -2.1938
 1992SOL     OW17611   4.182   1.924   4.194  0.4331  0.5041  0.4513
 1992SOL    HW117612   4.224   1.838   4.201 -0.1910  0.1227 -0.5730
 1992SOL    HW217613   4.248   1.981   4.234 -0.4383  1.3243  0.7257
 1993SOL     OW17614   2.031   2.623   1.394 -0.2597 -0.8129  0.5749
 1993SOL    HW117615   2.055   2.554   1.333 -2.1951 -0.2327 -0.8552
 1993SOL    HW217616   1.940   2.608   1.418 -0.5323 -1.5319 -0.9592
 1994SOL     OW17617   2.388   3.823   1.466 -0.2123 -0.1298 -0.4763
 1994SOL    HW117618   2.444   3.872   1.406  0.3440 -1.0311 -0.6945
 1994SOL    HW217619   2.315   3.883   1.475 -1.4675 -1.7266 -0.0170
 1995SOL     OW17620   2.735   0.682   2.901  0.0698  0.3765 -0.0814
 1995SOL    HW117621   2.782   0.710   2.823 -0.5336 -0.9506 -0.9213
 1995SOL    HW217622   2.647   0.718   2.892 -0.7669 -1.7001 -0.3090
 1996SOL     OW17623   0.620   2.786   8.102  0.5219  0.0098 -0.4695
 1996SOL    HW117624   0.612   2.697   8.135  0.4643 -0.4372 -1.6720
 1996SOL    HW217625   0.529   2.814   8.100  0.3013 -0.4962  2.7235
 1997SOL     OW17626   2.822   2.950  14.223 -0.7236 -0.2814  0.3367
 1997SOL    HW117627   2.847   3.016  14.158 -1.5343  0.2882  0.6012
 1997SOL    HW217628   2.884   2.879  14.210  0.6064  0.7801  0.8565
 1998SOL     OW17629   2.888   2.730   4.631 -0.2954  0.3585  0.1265
 1998SOL    HW117630   2.829   2.787   4.582 -0.8427 -3.2255 -3.4033
 1998SOL    HW217631   2.951   2.697   4.567  0.8145  1.2024  0.7870
 1999SOL     OW17632   3.338   2.176   9.412 -0.1494  0.3738  0.2529
 1999SOL    HW117633   3.427   2.169   9.445 -0.8023  1.7030  2.3128
 1999SOL    HW217634   3.362   2.145   9.325  0.5713 -1.7480  1.2167
 2000SOL     OW17635   3.084   1.601   4.958 -0.1727  0.5338  0.2803
 2000SOL    HW117636   2.997   1.608   4.999  0.7660  0.9175  2.2061
 2000SOL    HW217637   3.111   1.691   4.975  1.2489  0.1138  0.2676
 2001SOL     OW17638   3.694   3.237   4.677 -0.0142  0.0367  0.0833
 2001SOL    HW117639   3.639   3.193   4.613  0.6561  0.8870 -1.0655
 2001SOL    HW217640   3.625   3.289   4.718  0.3427  0.3043  0.3486
 2002SOL     OW17641   1.866   2.704   2.410 -0.2553  0.7410  0.0282
 2002SOL    HW117642   1.888   2.616   2.440 -0.0904  1.3588  1.7218
 2002SOL    HW217643   1.918   2.764   2.465  0.9622 -0.4623  0.1740
 2003SOL     OW17644   3.981   2.423   7.171  0.1277  0.1867 -0.2141
 2003SOL    HW117645   3.998   2.475   7.092  2.5769 -0.6196 -0.2208
 2003SOL    HW217646   3.905   2.464   7.212 -0.4505 -2.9015  1.8182
 2004SOL     OW17647   1.507   2.584   5.368 -0.3596  0.5224 -0.4306
 2004SOL    HW117648   1.582   2.628   5.327  0.2897 -1.1879 -1.0785
 2004SOL    HW217649   1.555   2.533   5.433  0.6188  0.1517 -1.4478
 2005SOL     OW17650   1.588   4.273   7.036  0.5012 -0.3614  0.1199
 2005SOL    HW117651   1.675   4.278   7.074 -0.0871  1.3239  1.2718
 2005SOL    HW217652   1.591   4.359   6.992  0.1294 -0.6864 -0.5491
 2006SOL     OW17653   4.609   1.833   1.545  0.2990 -0.1987  0.7803
 2006SOL    HW117654   4.544   1.878   1.492  0.9448  0.9970  1.0146
 2006SOL    HW217655   4.589   1.746   1.510  1.1459 -0.4671  0.9618
 2007SOL     OW17656   3.950   2.575   1.510  0.0856  0.0226  0.1799
 2007SOL    HW117657   3.881   2.548   1.450  1.4204  1.2602 -1.9230
 2007SOL    HW217658   4.002   2.634   1.455 -0.5206  0.5766  0.1991
 2008SOL     OW17659   0.107   2.188   4.863  0.1374  0.3941 -0.4436
 2008SOL    HW117660   0.073   2.103   4.892 -0.9012  0.8916 -0.2127
 2008SOL    HW217661   0.156   2.161   4.785  0.9913  1.0929 -0.1462
 2009SOL     OW17662   1.902   4.716  15.304  0.4326  0.3084 -0.0618
 2009SOL    HW117663   1.956   0.032  15.245 -1.2421  2.7874  0.6484
 2009SOL    HW217664   1.814   0.004  15.274  0.3396 -0.8132 -0.7568
 2010SOL     OW17665   4.553   1.358   7.887  0.1009  0.4453 -0.0656
 2010SOL    HW117666   4.572   1.395   7.800 -0.0409  1.9387  0.5359
 2010SOL    HW217667   4.630   1.310   7.918  0.3685 -0.1830 -1.6660
 2011SOL     OW17668   4.734   3.394   1.490  0.5099  0.1019 -0.4105
 2011SOL    HW117669   0.023   3.462   1.552 -1.0489  1.4686 -1.2238
 2011SOL    HW217670   0.035   3.424   1.407  0.3177  2.4666  0.3690
 2012SOL     OW17671   2.919   0.487   5.698 -0.0153  0.4476  0.0833
 2012SOL    HW117672   2.919   0.570   5.651 -1.3784 -0.8391 -2.2278
 2012SOL    HW217673   2.836   0.459   5.660  0.2142  0.0113 -0.1092
 2013SOL     OW17674   3.757   2.978   1.220 -0.2575 -0.1222 -0.4512
 2013SOL    HW117675   3.715   3.061   1.198 -0.5072  0.2177  1.3152
 2013SOL    HW217676   3.839   3.007   1.259  0.0138  0.2933 -1.3480
 2014SOL     OW17677   2.500   3.991  17.412  0.0818  0.3476  0.3891
 2014SOL    HW117678   2.513   4.036  17.329 -0.4251  0.5557  0.4220
 2014SOL    HW217679   2.406   4.003  17.424 -0.2141 -0.2736 -1.2854
 2015SOL     OW17680   3.987   0.225   7.667  0.5250 -0.2454 -0.0048
 2015SOL    HW117681   4.020   0.272   7.590  1.8932 -0.8356  0.2290
 2015SOL    HW217682   4.063   0.177   7.698  1.4067  1.2716  0.1622
 2016SOL     OW17683   2.039   2.755   9.181 -0.6849 -0.5239 -0.0083
 2016SOL    HW117684   2.043   2.711   9.095  2.7420  1.4672 -0.8277
 2016SOL    HW217685   2.023   2.690   9.249 -0.7704 -0.3558  0.1305
 2017SOL     OW17686   2.554   2.157  16.868  0.2090  0.4056 -0.8933
 2017SOL    HW117687   2.603   2.115  16.797 -2.0838 -1.4664 -1.3573
 2017SOL    HW217688   2.466   2.131  16.842  0.1660 -0.0613 -0.2892
 2018SOL     OW17689   2.296   3.484   0.307  0.5770 -0.0486  0.0638
 2018SOL    HW117690   2.281   3.544   0.380  0.1306  0.1440 -0.1861
 2018SOL    HW217691   2.316   3.400   0.348 -2.0107 -1.1207 -0.8631
 2019SOL     OW17692   4.177   3.471   7.688  0.8728 -0.0879  0.5463
 2019SOL    HW117693   4.117   3.528   7.735  0.3544 -0.1028 -0.1124
 2019SOL    HW217694   4.145   3.392   7.732 -0.6661  0.8780  1.1418
 2020SOL     OW17695   1.983   0.644  12.003 -0.1806 -0.8941 -0.3536
 2020SOL    HW117696   2.014   0.732  12.025 -0.1955 -0.5652 -1.6864
 2020SOL    HW217697   1.956   0.669  11.915 -0.9320 -0.0427  0.1172
 2021SOL     OW17698   3.287   2.634   4.697  0.1289  0.9794 -0.0527
 2021SOL    HW117699   3.291   2.702   4.764 -2.3821 -0.6730  1.7808
 2021SOL    HW217700   3.312   2.559   4.751  0.9672 -0.3040 -2.2209
 2022SOL     OW17701   0.531   1.965   5.680 -0.0007 -0.3287  0.1142
 2022SOL    HW117702   0.497   1.986   5.767  0.9685 -2.9047  1.1260
 2022SOL    HW217703   0.613   2.015   5.678 -1.3538  1.7973 -1.1635
 2023SOL     OW17704   1.618   0.015  11.752 -0.3981 -0.6809 -0.4099
 2023SOL    HW117705   1.605   4.666  11.789 -0.1062 -0.3747  0.4221
 2023SOL    HW217706   1.567   0.053  11.824 -1.9318 -1.0660 -1.2987
 2024SOL     OW17707   2.439   0.755  15.611 -0.3243 -0.4443 -0.0373
 2024SOL    HW117708   2.512   0.733  15.553 -0.3490  0.1135 -0.2829
 2024SOL    HW217709   2.457   0.692  15.680 -2.3219 -0.3676  0.5672
 2025SOL     OW17710   1.353   3.542   3.073  0.4757  0.2373 -0.2975
 2025SOL    HW117711   1.391   3.605   3.012  1.3355  0.7721  0.7873
 2025SOL    HW217712   1.269   3.515   3.035  1.3417 -0.8289 -1.4636
 2026SOL     OW17713   0.178   3.448   1.806 -0.1408 -0.1841 -0.1194
 2026SOL    HW117714   0.096   3.481   1.770 -0.3456 -0.3150  0.2268
 2026SOL    HW217715   0.229   3.448   1.725 -3.1134  0.8753 -1.9906
 2027SOL     OW17716   2.940   0.124   7.920 -0.0755  0.0607 -0.0726
 2027SOL    HW117717   3.036   0.128   7.924 -0.0757 -0.8483  0.9919
 2027SOL    HW217718   2.916   0.209   7.957 -1.5570  0.6307 -2.3358
 2028SOL     OW17719   1.949   4.632   5.359 -0.9031  0.2920  0.5081
 2028SOL    HW117720   1.901   4.667   5.284 -3.3398 -1.7463  1.1152
 2028SOL    HW217721   1.926   4.539   5.354  0.9212 -0.0416 -1.4632
 2029SOL     OW17722   3.449   3.195  16.853 -0.2289  0.5463  0.3210
 2029SOL    HW117723   3.413   3.115  16.890  0.4160 -0.2825 -0.8122
 2029SOL    HW217724   3.526   3.206  16.908  0.0307  0.4220 -0.0108
 2030SOL     OW17725   4.317   4.477   4.309 -0.1458 -0.2341 -0.2653
 2030SOL    HW117726   4.338   4.384   4.299 -3.3195 -0.7773 -1.7187
 2030SOL    HW217727   4.345   4.509   4.223 -1.1763 -3.7763 -1.9202
 2031SOL     OW17728   2.230   3.827  10.774  0.3160  0.2854 -0.7301
 2031SOL    HW117729   2.319   3.796  10.760 -0.7696 -1.9265 -2.7296
 2031SOL    HW217730   2.236   3.918  10.806  1.9911 -0.3544  0.7680
 2032SOL     OW17731   1.062   1.997   4.437  0.3130 -0.0786 -0.1354
 2032SOL    HW117732   1.039   2.079   4.482 -1.3888  0.3726 -1.8377
 2032SOL    HW217733   1.097   2.025   4.353  1.1316 -0.4589  0.0802
 2033SOL     OW17734   3.566   4.272   1.324 -0.1063  0.2974  0.3482
 2033SOL    HW117735   3.555   4.303   1.414  1.5397  1.0555  0.2821
 2033SOL    HW217736   3.480   4.283   1.284  1.0115  2.0971 -1.5833
 2034SOL     OW17737   0.960   0.652  12.042  0.1625  0.2303 -0.1954
 2034SOL    HW117738   0.932   0.743  12.034 -3.4966 -0.7550  1.7675
 2034SOL    HW217739   0.938   0.635  12.133  1.4052 -0.2403  0.0212
 2035SOL     OW17740   0.404   4.258  11.062 -0.4911  0.2078  0.1761
 2035SOL    HW117741   0.417   4.176  11.014  0.9669  0.0379  0.8481
 2035SOL    HW217742   0.421   4.309  10.983  0.3760  2.4964  1.8418
 2036SOL     OW17743   0.677   2.728   7.634 -0.0695 -0.3487 -0.2062
 2036SOL    HW117744   0.685   2.769   7.721  0.2660  0.0805 -0.4413
 2036SOL    HW217745   0.768   2.735   7.605  0.7691  0.4613  2.5227
 2037SOL     OW17746   0.615   4.724   8.716  0.5015 -0.1028 -0.4187
 2037SOL    HW117747   0.681   0.030   8.770 -1.7744  2.3718  0.3531
 2037SOL    HW217748   0.670   4.684   8.647  2.3569 -1.3633  1.7885
 2038SOL     OW17749   1.667   1.472   3.641 -0.6822 -0.2480  0.2332
 2038SOL    HW117750   1.574   1.488   3.628  0.3467  4.9023 -0.4306
 2038SOL    HW217751   1.696   1.418   3.568  1.0906  0.2437  0.5799
 2039SOL     OW17752   3.284   2.926   7.927  0.1950 -0.0369 -0.4243
 2039SOL    HW117753   3.342   2.870   7.978  0.0112 -1.5937 -1.9359
 2039SOL    HW217754   3.315   2.888   7.845  2.0311  1.5231 -0.4552
 2040SOL     OW17755   3.934   2.408   2.775  0.3045  0.2729 -0.4136
 2040SOL    HW117756   3.874   2.365   2.714 -0.9873  0.7508  0.5146
 2040SOL    HW217757   3.983   2.476   2.728 -0.8678  0.6779 -1.0456
 2041SOL     OW17758   3.984   2.224   5.166 -0.0547 -0.2664 -0.4060
 2041SOL    HW117759   4.037   2.144   5.163  2.1817  1.1614  1.0367
 2041SOL    HW217760   4.020   2.276   5.238  0.2180 -0.4968 -0.3752
 2042SOL     OW17761   0.339   3.106   8.076  0.6907  0.0083 -0.4288
 2042SOL    HW117762   0.369   3.155   8.152  1.0416  0.7201 -1.0232
 2042SOL    HW217763   0.389   3.025   8.069 -0.0988 -0.6030  1.0860
 2043SOL     OW17764   2.336   1.397   9.712 -0.0795 -0.3788  0.3854
 2043SOL    HW117765   2.273   1.333   9.745  0.2038 -1.1035 -0.4843
 2043SOL    HW217766   2.285   1.460   9.663 -0.1901 -0.5230  0.3140
 2044SOL     OW17767   0.820   1.606   9.269  0.5761 -0.1044  0.2099
 2044SOL    HW117768   0.804   1.697   9.296  2.1491  0.1529  0.2722
 2044SOL    HW217769   0.901   1.601   9.218  0.2712  0.8022 -0.3804
 2045SOL     OW17770   0.556   2.838  10.496  1.1129 -0.0393  0.0844
 2045SOL    HW117771   0.648   2.835  10.469  1.2667  2.7011  0.3592
 2045SOL    HW217772   0.528   2.746  10.490 -3.4678  1.3357  0.5249
 2046SOL     OW17773   0.864   4.680   5.846 -0.4078  0.1412 -0.0141
 2046SOL    HW117774   0.917   0.016   5.814 -1.6860  0.1960 -1.9832
 2046SOL    HW217775   0.807   4.731   5.904 -1.4002 -0.5734 -0.3620
 2047SOL     OW17776   2.851   1.331   3.491 -0.2128 -0.0598 -0.3354
 2047SOL    HW117777   2.850   1.239   3.517  2.5414  0.9012  3.0018
 2047SOL    HW217778   2.856   1.324   3.395  1.1008  1.2342 -0.3579
 2048SOL     OW17779   0.858   2.602  15.773  0.6083  0.5366  0.3968
 2048SOL    HW117780   0.767   2.576  15.758  0.9857 -0.5134 -0.0855
 2048SOL    HW217781   0.870   2.560  15.858 -1.4027  1.8118  1.3257
 2049SOL     OW17782   0.661   4.025  13.554 -0.2002  0.3701  0.2074
 2049SOL    HW117783   0.640   4.051  13.465 -1.2802  0.5153  0.5039
 2049SOL    HW217784   0.699   4.103  13.595 -1.0636  0.6447  0.4969
 2050SOL     OW17785   0.042   4.138   2.039  0.0377  0.2927 -0.4910
 2050SOL    HW117786   0.117   4.196   2.046  1.5801 -1.7940  0.4517
 2050SOL    HW217787   4.710   4.199   2.064  0.2911 -0.7116  2.7191
 2051SOL     OW17788   2.864   2.806   8.324 -0.3560  0.2390  0.0083
 2051SOL    HW117789   2.911   2.763   8.252 -0.8600 -0.4493  0.0887
 2051SOL    HW217790   2.815   2.869   8.272  0.7550  0.0342 -1.3093
 2052SOL     OW17791   2.130   2.756   5.876  0.4957 -0.3752 -0.6307
 2052SOL    HW117792   2.100   2.846   5.861 -1.3090 -1.1181 -1.4646
 2052SOL    HW217793   2.099   2.701   5.805 -0.5861 -1.6183  0.8194
 2053SOL     OW17794   0.607   1.071   3.805 -0.0977 -0.4354  0.3966
 2053SOL    HW117795   0.560   1.119   3.736  0.1000  1.5968  1.6901
 2053SOL    HW217796   0.563   0.987   3.811 -1.8155  0.3747 -0.8868
 2054SOL     OW17797   2.160   2.038   9.755  0.0308 -0.1492 -0.7157
 2054SOL    HW117798   2.228   2.014   9.692  0.5873 -4.6897  1.6793
 2054SOL    HW217799   2.214   2.099   9.805  1.6019  0.2008 -2.7858
 2055SOL     OW17800   0.925   1.781   3.418 -0.2830 -0.3963 -0.3161
 2055SOL    HW117801   0.882   1.718   3.360  0.1141 -1.7358  0.8572
 2055SOL    HW217802   0.936   1.721   3.492  1.5663  0.5581  0.1695
 2056SOL     OW17803   2.545   2.700   1.898 -0.0743  0.0938  0.3506
 2056SOL    HW117804   2.498   2.732   1.821 -1.8075 -2.6141  0.2892
 2056SOL    HW217805   2.479   2.645   1.940 -0.6362 -1.2523 -2.2955
 2057SOL     OW17806   1.891   1.327   0.384 -0.2605  0.2957  0.2951
 2057SOL    HW117807   1.979   1.364   0.394 -0.4457  0.4587  1.2944
 2057SOL    HW217808   1.868   1.342   0.476 -0.5083  2.2523 -0.0906
 2058SOL     OW17809   0.706   1.458  14.577  0.9189  0.4587  0.6694
 2058SOL    HW117810   0.789   1.438  14.534 -1.0297 -2.1747 -1.8890
 2058SOL    HW217811   0.714   1.553  14.585 -2.5653  0.8173 -0.0788
 2059SOL     OW17812   4.193   0.453   3.273 -0.1436 -0.1926  0.0660
 2059SOL    HW117813   4.186   0.413   3.360 -2.2016 -2.1488 -0.9829
 2059SOL    HW217814   4.207   0.546   3.292 -1.0077 -0.3470  1.4856
 2060SOL     OW17815   1.635   0.142  11.251 -0.5184 -0.3285 -0.0579
 2060SOL    HW117816   1.633   0.059  11.204 -0.6101 -1.4154  1.8820
 2060SOL    HW217817   1.565   0.190  11.207 -0.4834 -0.3511 -0.1376
 2061SOL     OW17818   0.495   2.327   4.662 -0.1958  0.2583  0.0347
 2061SOL    HW117819   0.462   2.238   4.675  0.3630  0.5157  3.3260
 2061SOL    HW217820   0.522   2.343   4.753 -0.3019  1.6159 -0.1782
 2062SOL     OW17821   3.666   0.140   4.302  0.1105 -0.3636  0.1982
 2062SOL    HW117822   3.752   0.099   4.307  0.9094  1.4658  1.2019
 2062SOL    HW217823   3.642   0.103   4.217 -0.2703 -0.1580  0.2120
 2063SOL     OW17824   1.973   2.854  11.327  0.2257 -0.4883  0.4797
 2063SOL    HW117825   2.009   2.789  11.266  3.1568  0.8413  0.7753
 2063SOL    HW217826   1.989   2.811  11.411 -0.3317 -3.3463 -0.8675
 2064SOL     OW17827   3.678   0.124   6.986 -0.3740 -0.4092  0.3712
 2064SOL    HW117828   3.679   0.216   6.961  1.0772 -0.7328 -0.6973
 2064SOL    HW217829   3.672   0.120   7.082  0.4873 -0.3507  0.4289
 2065SOL     OW17830   4.084   3.170   4.580  0.1351  1.1052  0.3349
 2065SOL    HW117831   4.023   3.130   4.642  0.2615  0.6699  0.1845
 2065SOL    HW217832   4.150   3.196   4.644 -1.4283  2.4104  1.4013
 2066SOL     OW17833   0.194   2.526   0.993  0.1659 -0.5187  0.0298
 2066SOL    HW117834   0.214   2.587   1.064  2.1362 -2.8547  1.4328
 2066SOL    HW217835   0.283   2.512   0.962  0.8893  1.8701  1.0116
 2067SOL     OW17836   4.736   3.152   9.279 -0.5320 -0.4195  0.4570
 2067SOL    HW117837   4.728   3.063   9.246  0.7481 -0.4162  0.1263
 2067SOL    HW217838   0.092   3.165   9.262 -0.3496 -0.5226  1.3933
 2068SOL     OW17839   4.569   1.309   2.898 -0.0030 -1.0311  0.6450
 2068SOL    HW117840   4.601   1.283   2.812 -1.1814 -0.6822  0.0981
 2068SOL    HW217841   4.552   1.399   2.867  1.4418 -1.5317 -1.5926
 2069SOL     OW17842   2.363   4.042   2.092  0.1522  0.1481  0.0646
 2069SOL    HW117843   2.292   4.106   2.089  0.9715  1.0299 -0.7051
 2069SOL    HW217844   2.438   4.097   2.115 -0.7471  1.4728 -0.1841
 2070SOL     OW17845   2.031   2.992   6.655 -0.0925 -0.3534 -0.2703
 2070SOL    HW117846   2.125   2.993   6.640 -0.1599  0.6277 -0.6431
 2070SOL    HW217847   1.990   3.013   6.571 -0.3817 -1.8826 -0.5109
 2071SOL     OW17848   3.413   1.293   3.403  0.0714 -0.2946  0.0796
 2071SOL    HW117849   3.485   1.353   3.418  0.2990 -0.6616  0.4382
 2071SOL    HW217850   3.464   1.213   3.393  1.8606  0.7459  0.9597
 2072SOL     OW17851   4.218   2.522   3.211  0.0910  0.2108 -0.8112
 2072SOL    HW117852   4.143   2.510   3.153  0.6718 -0.6944 -1.3859
 2072SOL    HW217853   4.228   2.617   3.204  0.3356  0.0226 -3.0880
 2073SOL     OW17854   3.953   4.584   1.775  0.8960 -0.6805  0.1622
 2073SOL    HW117855   4.048   4.578   1.787  1.1087  2.1260 -0.2437
 2073SOL    HW217856   3.950   4.604   1.681 -1.6720 -0.8669  0.1934
 2074SOL     OW17857   4.161   2.897  12.739  0.3168 -0.4147  0.0565
 2074SOL    HW117858   4.178   2.807  12.766 -2.9469 -0.8310  0.7614
 2074SOL    HW217859   4.179   2.947  12.818 -1.8940  1.6375 -0.7424
 2075SOL     OW17860   4.513   1.423   8.820 -0.0392  0.0111 -0.1736
 2075SOL    HW117861   4.430   1.387   8.852 -0.5731 -2.1082 -3.9319
 2075SOL    HW217862   4.538   1.466   8.902 -0.9432  0.5408 -0.1810
 2076SOL     OW17863   0.440   0.671   7.075 -0.5169 -0.0498  0.1575
 2076SOL    HW117864   0.468   0.609   7.141  0.4034  0.2550  0.0502
 2076SOL    HW217865   0.350   0.688   7.105  0.4439 -0.1483  3.0821
 2077SOL     OW17866   0.164   3.864   4.904  1.3246 -0.4153  0.0840
 2077SOL    HW117867   0.176   3.769   4.904 -0.1587 -0.6126  0.3021
 2077SOL    HW217868   0.234   3.887   4.844  0.2989  0.7624 -0.6644
 2078SOL     OW17869   0.509   1.544   5.913  0.3565 -0.0556 -0.0484
 2078SOL    HW117870   0.506   1.640   5.910 -0.4685 -0.0774 -0.0760
 2078SOL    HW217871   0.551   1.527   5.828  0.5160  1.0758 -0.2032
 2079SOL     OW17872   0.022   1.322  13.161 -0.2590 -0.0030 -0.1485
 2079SOL    HW117873   4.717   1.349  13.243 -1.9868  0.3408 -1.1766
 2079SOL    HW217874   0.014   1.227  13.167 -0.9248  0.1897  2.0337
 2080SOL     OW17875   3.265   4.294   9.246 -0.1227  0.7418 -0.3323
 2080SOL    HW117876   3.171   4.274   9.252  0.4021 -1.8155 -0.9027
 2080SOL    HW217877   3.287   4.313   9.337 -1.7630  0.8578  0.0367
 2081SOL     OW17878   2.440   3.312   5.614  0.0539  0.1024  0.6085
 2081SOL    HW117879   2.524   3.358   5.613  0.6161 -0.9075  1.0718
 2081SOL    HW217880   2.452   3.263   5.696  2.9918 -0.3094 -0.0737
 2082SOL     OW17881   4.133   2.447   2.364  0.1984 -0.2618 -0.6127
 2082SOL    HW117882   4.084   2.448   2.282 -0.0478 -0.9991 -0.4808
 2082SOL    HW217883   4.162   2.538   2.368  1.6631 -0.8382  1.9637
 2083SOL     OW17884   4.638   3.886   2.429  0.2657  0.4271  0.1486
 2083SOL    HW117885   4.730   3.878   2.451  0.3641 -0.3118 -0.5268
 2083SOL    HW217886   4.627   3.799   2.389  3.3398  0.6058 -1.0400
 2084SOL     OW17887   0.182   0.049   4.311  0.2632  0.2877  0.8217
 2084SOL    HW117888   0.197   0.032   4.404 -1.5647 -1.1184  0.8688
 2084SOL    HW217889   0.088   0.031   4.301  0.6225  0.4125 -2.5762
 2085SOL     OW17890   0.297   4.025   7.429 -0.2215  0.0196  0.5001
 2085SOL    HW117891   0.384   3.985   7.422 -0.1170  0.5657 -1.0934
 2085SOL    HW217892   0.315   4.107   7.384  0.0645 -0.1073  0.3847
 2086SOL     OW17893   1.082   2.064   0.451 -0.6968  0.3505 -0.1377
 2086SOL    HW117894   1.096   2.080   0.545  0.1873  0.2823 -0.2567
 2086SOL    HW217895   1.153   2.113   0.410 -0.6181  0.4521  0.1197
 2087SOL     OW17896   3.065   3.283   3.418 -0.1622  0.5079 -0.6026
 2087SOL    HW117897   3.013   3.348   3.371 -0.1151  2.2298  1.7057
 2087SOL    HW217898   3.029   3.205   3.375  1.2282  1.4400 -3.4403
 2088SOL     OW17899   2.732   2.699   2.554 -0.5867 -0.1529 -0.7096
 2088SOL    HW117900   2.807   2.640   2.561  0.5077  1.4368  0.8937
 2088SOL    HW217901   2.770   2.786   2.540  1.5672 -1.3171 -1.9570
 2089SOL     OW17902   1.772   3.551   6.420 -0.2463  0.5051  0.0126
 2089SOL    HW117903   1.688   3.593   6.438 -0.3683  0.9869 -1.6331
 2089SOL    HW217904   1.823   3.627   6.448 -1.8476  1.1756  1.1442
 2090SOL     OW17905   1.004   2.912   0.956  0.0835 -0.3466 -0.3164
 2090SOL    HW117906   0.948   2.932   1.031  0.7780 -1.1985  0.4289
 2090SOL    HW217907   0.967   2.833   0.918 -0.4013 -0.4707  0.4318
 2091SOL     OW17908   2.769   4.403   1.770 -0.4688 -0.4599 -0.5019
 2091SOL    HW117909   2.782   4.323   1.718 -0.7835 -0.9003  0.0913
 2091SOL    HW217910   2.860   4.433   1.774 -0.6705  0.2144 -1.0683
 2092SOL     OW17911   1.298   0.401   9.255  0.6371  0.2936 -0.6073
 2092SOL    HW117912   1.274   0.310   9.268 -4.0770  1.7059  0.6765
 2092SOL    HW217913   1.333   0.400   9.166  0.5865 -0.3801 -0.6133
 2093SOL     OW17914   1.846   1.891   5.758  0.0802  0.3997  0.0359
 2093SOL    HW117915   1.933   1.895   5.797  0.8909 -0.6709 -1.6487
 2093SOL    HW217916   1.802   1.844   5.829 -1.7650  1.5366 -0.3627
 2094SOL     OW17917   2.239   3.256   8.958  0.7077  0.1680  0.4504
 2094SOL    HW117918   2.206   3.167   8.947  0.2916  0.3561  0.1735
 2094SOL    HW217919   2.286   3.254   9.041 -1.1599  0.2380  1.4910
 2095SOL     OW17920   1.506   0.638   5.948  0.0427 -0.5182  0.4840
 2095SOL    HW117921   1.471   0.549   5.956  0.8674 -1.0352 -1.4199
 2095SOL    HW217922   1.552   0.644   6.032  0.2284  0.7132  0.2861
 2096SOL     OW17923   3.565   3.842   3.365 -0.7514  0.0634 -0.0643
 2096SOL    HW117924   3.485   3.830   3.314  0.0049 -2.2431 -0.7117
 2096SOL    HW217925   3.564   3.937   3.362  1.5163  0.0038 -2.6484
 2097SOL     OW17926   4.437   1.289   6.267 -0.1417  0.2862  0.5269
 2097SOL    HW117927   4.364   1.352   6.259 -0.9502 -0.7776 -0.4617
 2097SOL    HW217928   4.390   1.208   6.248 -1.0812  0.4726  2.0527
 2098SOL     OW17929   2.850   0.300   2.397  0.2929  0.3456 -0.2906
 2098SOL    HW117930   2.913   0.323   2.329 -0.2741  0.9988 -0.5976
 2098SOL    HW217931   2.765   0.327   2.361 -1.2992 -0.2745  3.0336
 2099SOL     OW17932   2.254   3.380   4.363  0.2685  0.5649 -0.7194
 2099SOL    HW117933   2.254   3.457   4.306  0.9238 -0.8434 -2.6080
 2099SOL    HW217934   2.224   3.425   4.442 -1.2499 -2.6898  0.5487
 2100SOL     OW17935   1.880   3.058   6.390  0.1097 -0.7952  0.5953
 2100SOL    HW117936   1.794   3.092   6.368 -0.5584 -2.1887  1.0804
 2100SOL    HW217937   1.881   2.982   6.332  5.5596 -0.5863  0.3395
 2101SOL     OW17938   0.459   3.083   6.232  0.8139 -0.2136  0.3430
 2101SOL    HW117939   0.439   3.019   6.301 -0.1127  0.4476  0.6955
 2101SOL    HW217940   0.530   3.048   6.179  0.1491  0.0885 -0.7495
 2102SOL     OW17941   1.208   2.715   1.065 -0.4701  0.4578  0.3393
 2102SOL    HW117942   1.124   2.759   1.071 -1.4953 -1.5572  0.6291
 2102SOL    HW217943   1.183   2.628   1.034  1.2792 -0.8756  2.6596
 2103SOL     OW17944   2.228   2.191   2.598  0.4434  0.1682  0.5423
 2103SOL    HW117945   2.138   2.174   2.627  0.2996  0.1537  0.0823
 2103SOL    HW217946   2.195   2.217   2.512  0.2033 -0.7621  0.3450
 2104SOL     OW17947   1.057   4.234   9.901 -0.2082  0.1898 -0.2583
 2104SOL    HW117948   1.014   4.307   9.947  0.7447  0.7357 -0.2204
 2104SOL    HW217949   1.013   4.259   9.820 -0.4827  0.9904  0.1323
 2105SOL     OW17950   2.168   3.740   7.173  0.5553 -0.4432 -0.1756
 2105SOL    HW117951   2.241   3.786   7.132 -0.6801  3.0216  1.5626
 2105SOL    HW217952   2.143   3.674   7.108  1.6500 -1.5469  0.5104
 2106SOL     OW17953   4.300   0.154   4.882  0.2838  0.5277  0.0346
 2106SOL    HW117954   4.273   0.065   4.856  0.5472 -0.3813  2.8611
 2106SOL    HW217955   4.257   0.203   4.812  1.1956  1.2500 -0.0126
 2107SOL     OW17956   1.021   2.044   1.307  0.1039 -0.0166 -0.0658
 2107SOL    HW117957   1.018   2.021   1.400  1.3270 -4.1219 -1.0283
 2107SOL    HW217958   0.962   1.977   1.274  0.3737 -0.2884  0.0022
 2108SOL     OW17959   2.585   2.717  16.187 -0.3599  0.5212  0.3896
 2108SOL    HW117960   2.546   2.731  16.101 -1.5812 -0.8103  0.7316
 2108SOL    HW217961   2.646   2.648  16.162 -1.3159 -0.2502  0.1838
 2109SOL     OW17962   3.886   2.506   0.523 -0.1932 -1.0561 -0.1578
 2109SOL    HW117963   3.838   2.462   0.593  0.6467 -0.4433  0.8021
 2109SOL    HW217964   3.961   2.447   0.525  0.2373 -0.4000  3.4966
 2110SOL     OW17965   2.114   1.584   6.738 -0.1304 -0.1796 -0.1717
 2110SOL    HW117966   2.113   1.592   6.642  3.5553 -3.0802 -0.4645
 2110SOL    HW217967   2.033   1.631   6.758  1.4056  1.7412  1.4604
 2111SOL     OW17968   4.513   4.008  15.004  0.1013 -0.1818  0.0447
 2111SOL    HW117969   4.477   3.989  15.090  1.2415  0.0890  0.5878
 2111SOL    HW217970   4.581   3.940  15.003 -0.1538 -0.4852  3.2019
 2112SOL     OW17971   2.197   2.959  12.838  0.4067  0.1759 -0.4182
 2112SOL    HW117972   2.228   3.040  12.878 -1.0767  0.6488 -0.2192
 2112SOL    HW217973   2.117   2.996  12.800 -0.4067  1.2069  2.3386
 2113SOL     OW17974   0.998   1.748   6.835 -0.4341 -0.4028 -0.2293
 2113SOL    HW117975   0.972   1.840   6.843 -0.2715 -0.3958  0.2144
 2113SOL    HW217976   0.958   1.712   6.915  3.4168  1.4528  2.5392
 2114SOL     OW17977   0.132   3.207   2.535  0.2662 -0.7866 -0.1701
 2114SOL    HW117978   0.193   3.171   2.599  1.1027  1.3483  0.2240
 2114SOL    HW217979   0.123   3.298   2.563  0.3565 -1.1877  1.1964
 2115SOL     OW17980   4.620   2.094   2.410 -0.5079  0.2834 -0.1296
 2115SOL    HW117981   4.684   2.101   2.481  1.4321  0.1545 -1.8755
 2115SOL    HW217982   4.565   2.172   2.406 -1.0924 -0.1408 -0.3929
 2116SOL     OW17983   0.957   3.961  10.542  0.2290  0.6417 -0.4818
 2116SOL    HW117984   0.955   3.883  10.597  1.0688  0.9411 -0.0408
 2116SOL    HW217985   1.050   3.954  10.523  0.0828 -2.0772 -0.1037
 2117SOL     OW17986   4.490   1.423   4.929  0.1965  0.0532  0.0114
 2117SOL    HW117987   4.414   1.430   4.986 -1.7295  1.2338 -2.7191
 2117SOL    HW217988   4.560   1.402   4.991  1.3332  0.6022 -1.0798
 2118SOL     OW17989   0.069   1.733   7.855  0.4352 -0.2776 -0.1472
 2118SOL    HW117990   0.049   1.816   7.812  1.7836  0.1450  0.0360
 2118SOL    HW217991   4.724   1.694   7.825 -0.0671  1.0066 -0.4234
 2119SOL     OW17992   4.392   3.257  11.901  0.0557 -0.1581  0.0595
 2119SOL    HW117993   4.329   3.305  11.954  1.4913  0.1446  1.4716
 2119SOL    HW217994   4.422   3.325  11.841  3.4903 -0.5545  1.3406
 2120SOL     OW17995   1.064   3.487   2.994  0.0485  0.0565 -0.0662
 2120SOL    HW117996   1.014   3.519   2.919 -1.3281 -0.6195  0.5574
 2120SOL    HW217997   1.042   3.394   2.988 -1.3657  0.3640  0.4809
 2121SOL     OW17998   2.752   4.554   5.176 -0.4408  0.0322  0.3705
 2121SOL    HW117999   2.847   4.546   5.161 -0.1536  0.8432  1.7806
 2121SOL    HW218000   2.714   4.492   5.114  1.0096 -0.1150 -0.3795
 2122SOL     OW18001   0.646   3.438   7.660 -0.0649 -0.3841 -0.5416
 2122SOL    HW118002   0.698   3.517   7.674 -1.3306  0.0952  1.4779
 2122SOL    HW218003   0.678   3.392   7.738 -2.7468  0.8562  1.2719
 2123SOL     OW18004   2.451   3.190  12.163 -0.3692  0.1010  0.5476
 2123SOL    HW118005   2.372   3.242  12.177 -0.5037  0.1767 -0.4797
 2123SOL    HW218006   2.408   3.108  12.135 -0.0322  0.2071 -0.2894
 2124SOL     OW18007   1.020   4.363   7.006 -0.9414  0.2648  0.4899
 2124SOL    HW118008   0.952   4.297   7.022 -0.3525 -0.3342  0.5074
 2124SOL    HW218009   0.991   4.427   6.941  0.4718  2.7424  2.2983
 2125SOL     OW18010   3.411   0.665   9.158  0.1972  0.2044  0.3649
 2125SOL    HW118011   3.393   0.627   9.072  1.7147  1.1162 -0.3661
 2125SOL    HW218012   3.506   0.653   9.168  0.1557 -0.1099  0.3687
 2126SOL     OW18013   0.833   0.598  15.331  0.6753 -0.7793 -0.3736
 2126SOL    HW118014   0.882   0.523  15.298 -1.7552 -2.7553  0.5278
 2126SOL    HW218015   0.744   0.568  15.349  0.1464  0.8490 -0.2651
 2127SOL     OW18016   2.429   4.132   3.041 -0.0483 -0.1053  0.8197
 2127SOL    HW118017   2.335   4.150   3.050 -0.7306 -3.0561 -0.6047
 2127SOL    HW218018   2.455   4.131   3.133  0.7806 -3.8912  0.5384
 2128SOL     OW18019   3.755   2.887  11.551 -0.3572 -0.4749  1.0226
 2128SOL    HW118020   3.771   2.834  11.629 -1.0269 -0.9429  0.8410
 2128SOL    HW218021   3.685   2.838  11.508 -1.0320  0.0023  1.5759
 2129SOL     OW18022   2.852   2.811   1.617 -0.4608 -0.0838 -0.6142
 2129SOL    HW118023   2.860   2.869   1.693  2.3859  2.5425 -2.9435
 2129SOL    HW218024   2.778   2.847   1.568 -2.6769 -0.9705  2.0805
 2130SOL     OW18025   2.874   4.024   5.431  0.6528 -0.2790 -0.4862
 2130SOL    HW118026   2.875   3.930   5.449 -2.9473  0.0357  1.5281
 2130SOL    HW218027   2.786   4.048   5.463 -0.3206 -1.2080 -2.4711
 2131SOL     OW18028   4.145   2.573  15.362 -0.4306  0.0308  0.2695
 2131SOL    HW118029   4.071   2.562  15.422  1.2573 -0.9192  2.1840
 2131SOL    HW218030   4.205   2.511  15.405 -0.9428 -1.2184 -0.8154
 2132SOL     OW18031   1.973   3.801   2.345 -0.2530  0.2642 -0.2604
 2132SOL    HW118032   1.996   3.724   2.292  2.7482  0.7707  0.2946
 2132SOL    HW218033   1.957   3.859   2.271 -0.3518 -0.1383 -0.5602
 2133SOL     OW18034   1.770   2.711   0.632 -0.2212 -0.2765  0.4182
 2133SOL    HW118035   1.858   2.731   0.664  0.2663  0.4094 -1.3486
 2133SOL    HW218036   1.790   2.664   0.551  1.6439 -1.5103  1.5961
 2134SOL     OW18037   1.325   1.355   5.810  0.0021 -0.4039  0.4073
 2134SOL    HW118038   1.273   1.296   5.755  0.5415 -0.2038 -0.3240
 2134SOL    HW218039   1.272   1.434   5.793  0.4352  0.1947  1.8285
 2135SOL     OW18040   3.501   3.110   6.089 -0.0009  0.1071  0.3946
 2135SOL    HW118041   3.424   3.138   6.039  1.6139  1.5537 -1.2944
 2135SOL    HW218042   3.464   3.079   6.171 -0.6806  0.4576  0.2240
 2136SOL     OW18043   1.060   0.847  14.149  0.0322  0.0660  0.3185
 2136SOL    HW118044   1.046   0.898  14.069 -3.0296  0.6998  1.2354
 2136SOL    HW218045   0.979   0.795  14.151 -0.1529  0.3630  0.5575
 2137SOL     OW18046   0.679   0.538   9.584  0.3822  0.0874 -0.2927
 2137SOL    HW118047   0.756   0.595   9.586 -0.4206  1.1859 -0.4021
 2137SOL    HW218048   0.681   0.523   9.678  1.4590  0.9039 -0.1830
 2138SOL     OW18049   0.635   0.808   6.444 -0.7382 -0.6567 -0.2657
 2138SOL    HW118050   0.575   0.856   6.501 -0.9203 -1.1059 -0.0774
 2138SOL    HW218051   0.724   0.841   6.457 -2.3422  2.7113  2.1848
 2139SOL     OW18052   0.838   2.860   8.709  0.4179  0.3241  0.8345
 2139SOL    HW118053   0.870   2.945   8.679 -0.7462  0.8206  0.9970
 2139SOL    HW218054   0.750   2.880   8.740 -1.0066 -1.9605 -1.7876
 2140SOL     OW18055   0.415   0.926   5.936  0.2428 -0.1463  0.4714
 2140SOL    HW118056   0.400   0.835   5.909  0.6802  0.1929 -0.9198
 2140SOL    HW218057   0.379   0.920   6.025  1.6921 -1.0570  0.9881
 2141SOL     OW18058   3.911   3.789  16.513  0.2339 -0.3082  0.1302
 2141SOL    HW118059   3.994   3.812  16.556  0.0310  0.4086  0.1442
 2141SOL    HW218060   3.943   3.778  16.424 -1.8846  0.1981 -0.6741
 2142SOL     OW18061   2.574   2.766   3.496  0.3872 -0.1325 -0.0666
 2142SOL    HW118062   2.598   2.674   3.507  0.6197  0.1358  1.6232
 2142SOL    HW218063   2.577   2.790   3.588  0.4872  0.7605 -0.3013
 2143SOL     OW18064   1.789   3.507   2.406 -0.2410  0.7397 -0.1008
 2143SOL    HW118065   1.782   3.556   2.488 -0.8640  1.1899 -0.4258
 2143SOL    HW218066   1.762   3.573   2.342 -1.0329  0.5748  0.0694
 2144SOL     OW18067   2.376   3.411   6.247 -0.3607  0.3624  0.1118
 2144SOL    HW118068   2.317   3.487   6.253  0.7179  1.1825  0.2929
 2144SOL    HW218069   2.361   3.402   6.153 -1.6936 -1.1398  0.4601
 2145SOL     OW18070   4.729   1.128   9.818 -0.3822  0.0180 -0.5381
 2145SOL    HW118071   4.691   1.142   9.905  0.2206 -2.5835  0.1491
 2145SOL    HW218072   4.650   1.125   9.763  0.7501 -0.6462 -2.1221
 2146SOL     OW18073   2.909   1.873  15.934  0.3091  0.2766 -0.0205
 2146SOL    HW118074   2.961   1.828  16.000  1.3367  3.0771  1.0563
 2146SOL    HW218075   2.969   1.895  15.863  0.1839 -0.0113 -0.2165
 2147SOL     OW18076   2.916   2.043  11.150 -1.1659 -0.2966 -0.3190
 2147SOL    HW118077   2.964   1.979  11.098 -0.0207  0.0044  0.3861
 2147SOL    HW218078   2.990   2.072  11.204 -0.6470 -0.2469 -1.0630
 2148SOL     OW18079   1.319   1.387   5.197  0.1645 -0.3422 -0.1575
 2148SOL    HW118080   1.290   1.332   5.124 -2.1385  0.5636  0.0668
 2148SOL    HW218081   1.243   1.367   5.251  0.4182  0.3788  0.4488
 2149SOL     OW18082   3.344   0.558   8.519 -0.0440 -0.6406  0.2769
 2149SOL    HW118083   3.438   0.571   8.507  0.2170 -1.2109  1.7795
 2149SOL    HW218084   3.327   0.480   8.466  0.9326 -1.5456  1.3116
 2150SOL     OW18085   4.148   0.325   4.696  0.3668  0.0323  0.8831
 2150SOL    HW118086   4.100   0.315   4.777  0.1676  0.0133  0.7628
 2150SOL    HW218087   4.110   0.398   4.648  0.5503 -1.2591 -1.2863
 2151SOL     OW18088   2.036   1.613   5.234 -0.5179  0.5122  0.1000
 2151SOL    HW118089   2.055   1.703   5.210 -2.2035  0.4216 -1.5358
 2151SOL    HW218090   1.987   1.617   5.316 -1.2164  3.2296 -0.4674
 2152SOL     OW18091   3.910   0.790  16.534 -0.3030  0.0404  0.3078
 2152SOL    HW118092   3.899   0.702  16.569  0.0339  0.3753  1.2618
 2152SOL    HW218093   3.824   0.828  16.551 -0.9946 -0.8034 -1.3342
 2153SOL     OW18094   2.991   4.456  15.878  0.4708 -0.2399 -0.2922
 2153SOL    HW118095   3.031   4.541  15.864  2.1066 -1.1480 -1.0695
 2153SOL    HW218096   2.967   4.420  15.792  1.6470  0.2321 -0.8072
 2154SOL     OW18097   3.119   1.291  12.847  0.1684 -0.3187  0.5075
 2154SOL    HW118098   3.130   1.269  12.940 -2.9142 -0.0382  0.9335
 2154SOL    HW218099   3.071   1.212  12.823  2.2600 -1.6265  0.6181
 2155SOL     OW18100   1.343   2.643  12.551  0.1494 -0.5494  0.3407
 2155SOL    HW118101   1.430   2.654  12.592  0.3822  2.4508 -0.9610
 2155SOL    HW218102   1.303   2.575  12.604 -2.2661 -1.0984 -2.1840
 2156SOL     OW18103   1.264   2.653  10.356  0.1339 -0.0433 -0.2892
 2156SOL    HW118104   1.170   2.637  10.355  0.3258 -1.1322 -0.4629
 2156SOL    HW218105   1.276   2.624  10.446  0.6405 -0.6100 -0.5401
 2157SOL     OW18106   4.197   1.371  16.196 -0.4132  0.1358  0.0224
 2157SOL    HW118107   4.256   1.381  16.122  0.6752 -0.8005  0.7426
 2157SOL    HW218108   4.158   1.458  16.201  0.3138  0.3505  2.0932
 2158SOL     OW18109   0.393   1.140   5.435  0.3133  0.2169  0.1390
 2158SOL    HW118110   0.365   1.081   5.365 -1.6603  0.6233  0.5903
 2158SOL    HW218111   0.445   1.201   5.384 -0.1554 -0.5508 -1.2651
 2159SOL     OW18112   0.695   0.973  11.883  0.8754 -0.4523 -0.8991
 2159SOL    HW118113   0.657   0.888  11.861 -2.2708  0.5372  0.8281
 2159SOL    HW218114   0.778   0.939  11.917 -0.5141 -1.7482  1.1694
 2160SOL     OW18115   0.395   1.994   5.939  0.2686 -0.3285  0.0791
 2160SOL    HW118116   0.481   2.004   5.979  1.1074 -0.8289 -1.6153
 2160SOL    HW218117   0.370   1.910   5.977 -0.7542 -0.6144 -1.2441
 2161SOL     OW18118   3.997   4.309   6.634  0.7620 -0.8864 -0.3966
 2161SOL    HW118119   3.955   4.223   6.631 -0.0960 -0.5038  0.2215
 2161SOL    HW218120   4.043   4.309   6.551  1.4534  1.0813 -0.0006
 2162SOL     OW18121   2.895   3.615   1.146  0.9162  0.1626  0.2493
 2162SOL    HW118122   2.821   3.675   1.160 -0.9457 -2.2967  0.9521
 2162SOL    HW218123   2.867   3.541   1.199 -2.7777  0.9768 -0.5458
 2163SOL     OW18124   0.388   1.934   2.734 -0.0202  0.4110  0.5313
 2163SOL    HW118125   0.340   1.866   2.686 -0.5851  1.4594 -0.3698
 2163SOL    HW218126   0.430   1.879   2.801  1.6514 -0.8674 -1.5567
 2164SOL     OW18127   3.615   3.268  13.879  0.0578 -0.1141  0.0356
 2164SOL    HW118128   3.617   3.270  13.975  1.2650  1.1510 -0.0203
 2164SOL    HW218129   3.696   3.317  13.863 -0.6051  1.2215  0.7385
 2165SOL     OW18130   1.478   3.738   1.209 -0.4393 -0.2093 -0.4409
 2165SOL    HW118131   1.562   3.784   1.201  0.6476 -1.9328  0.9872
 2165SOL    HW218132   1.480   3.695   1.123 -1.9740 -1.3246  0.0905
 2166SOL     OW18133   4.487   0.528   4.664  0.5699  0.1201  0.0855
 2166SOL    HW118134   4.474   0.462   4.596  1.5109  1.8401 -1.7753
 2166SOL    HW218135   4.485   0.477   4.745 -0.4768 -2.3735 -1.5098
 2167SOL     OW18136   1.288   2.647   6.893  0.4489  0.0357 -0.7678
 2167SOL    HW118137   1.213   2.610   6.847  0.0448 -2.1341  1.6598
 2167SOL    HW218138   1.248   2.717   6.944  1.3038  0.3742 -0.5510
 2168SOL     OW18139   1.854   4.036   2.951 -0.3233 -0.2132  0.3102
 2168SOL    HW118140   1.897   4.108   2.997  1.2627 -1.4899  0.8084
 2168SOL    HW218141   1.926   3.984   2.915 -0.3640  1.0882 -1.6080
 2169SOL     OW18142   3.107   4.056   8.016 -0.4378 -0.0899 -0.9863
 2169SOL    HW118143   3.026   4.053   8.066  0.0109 -0.9931 -0.3076
 2169SOL    HW218144   3.114   4.152   8.013 -0.6642 -0.1303 -2.4304
 2170SOL     OW18145   1.605   1.230   2.142  0.4974  0.9731  0.0748
 2170SOL    HW118146   1.534   1.176   2.106  1.3592  0.3278 -0.6505
 2170SOL    HW218147   1.581   1.241   2.234  0.9183 -1.4949  0.4893
 2171SOL     OW18148   2.914   3.143   6.339 -0.6358  0.7072 -0.6626
 2171SOL    HW118149   2.820   3.159   6.336 -1.0286 -1.4975 -0.3937
 2171SOL    HW218150   2.944   3.158   6.249 -0.8171 -0.1862 -0.8744
 2172SOL     OW18151   1.890   4.523   4.635 -0.0994 -0.4842  0.1323
 2172SOL    HW118152   1.894   4.610   4.597  1.4085 -0.7784 -0.3904
 2172SOL    HW218153   1.827   4.483   4.575 -0.9122 -0.8467  1.2263
 2173SOL     OW18154   3.570   2.755   7.180  0.2466 -0.2342  0.1887
 2173SOL    HW118155   3.488   2.788   7.217  0.9319  0.1877  1.3152
 2173SOL    HW218156   3.628   2.831   7.181 -1.3030  0.9351  1.0591
 2174SOL     OW18157   2.542   3.409   1.517  0.1712  0.2043  0.1543
 2174SOL    HW118158   2.476   3.356   1.563  0.2851  0.4280  0.5699
 2174SOL    HW218159   2.577   3.339   1.461 -1.1178 -0.8402  0.6496
 2175SOL     OW18160   1.401   0.597   4.630  0.0643  0.2491 -0.7094
 2175SOL    HW118161   1.337   0.577   4.562 -0.0990  1.7229 -0.9895
 2175SOL    HW218162   1.401   0.693   4.635 -2.0199  0.2446 -0.7196
 2176SOL     OW18163   0.849   4.007   6.717  0.0878 -0.5956 -0.6864
 2176SOL    HW118164   0.907   4.040   6.786 -0.5266 -0.5365 -0.1986
 2176SOL    HW218165   0.888   4.045   6.638 -0.0705 -0.5369 -0.7347
 2177SOL     OW18166   1.181   0.447  10.604 -0.1441  0.5118 -0.0451
 2177SOL    HW118167   1.158   0.434  10.512 -0.4555 -0.9143  0.2389
 2177SOL    HW218168   1.152   0.536  10.626 -0.3450  0.4041  0.1282
 2178SOL     OW18169   0.072   1.704   7.352  0.2911 -0.1836  0.3845
 2178SOL    HW118170   0.119   1.660   7.422 -0.2992  1.1572  1.6047
 2178SOL    HW218171   0.048   1.633   7.292 -1.0844  1.0127 -0.4999
 2179SOL     OW18172   1.815   0.464   8.071 -0.2637 -0.3814  0.5836
 2179SOL    HW118173   1.744   0.472   8.007  1.4039  1.5204 -0.9864
 2179SOL    HW218174   1.775   0.472   8.158 -0.4722  0.1277  0.4372
 2180SOL     OW18175   3.354   2.097   7.400 -0.1449  0.9741  0.5224
 2180SOL    HW118176   3.314   2.097   7.313 -0.9816 -1.7826  0.8897
 2180SOL    HW218177   3.312   2.023   7.444 -1.1722  0.5955 -1.0873
 2181SOL     OW18178   2.044   3.661   3.579 -0.6011  0.4084  0.2179
 2181SOL    HW118179   1.963   3.704   3.551 -1.4081 -0.7332  0.7658
 2181SOL    HW218180   2.103   3.735   3.590  1.5410 -1.4276  1.0727
 2182SOL     OW18181   2.548   0.333   7.019 -0.0527 -0.1215  0.1519
 2182SOL    HW118182   2.594   0.343   7.102  0.2655 -1.4769  0.1454
 2182SOL    HW218183   2.561   0.415   6.973  2.5611 -1.8015 -2.0859
 2183SOL     OW18184   2.046   4.092   8.102 -0.5404 -0.1746 -0.1679
 2183SOL    HW118185   2.085   4.178   8.116 -0.2276 -0.3260 -0.0991
 2183SOL    HW218186   2.008   4.069   8.187 -0.9200 -0.4857 -0.4182
 2184SOL     OW18187   3.570   4.240  12.079 -0.3051  0.1479 -1.0453
 2184SOL    HW118188   3.524   4.157  12.064 -1.0885  0.0969  1.5717
 2184SOL    HW218189   3.647   4.213  12.129 -0.3430  0.0572 -1.0356
 2185SOL     OW18190   2.471   4.441  16.619 -0.2247  0.0529 -0.2349
 2185SOL    HW118191   2.409   4.372  16.644 -1.7279  0.9358 -1.5482
 2185SOL    HW218192   2.437   4.513  16.672 -1.0524 -0.6961  0.2505
 2186SOL     OW18193   3.188   0.645   5.628 -0.1048 -0.4098 -0.2513
 2186SOL    HW118194   3.199   0.561   5.584 -1.2647 -1.7301  1.9991
 2186SOL    HW218195   3.271   0.684   5.601  1.0433 -2.1974  0.7330
 2187SOL     OW18196   2.545   1.330   6.591 -0.1247 -0.1952  0.3565
 2187SOL    HW118197   2.459   1.351   6.555  0.0654  0.1119  0.0811
 2187SOL    HW218198   2.570   1.256   6.535 -0.1881  0.8031 -0.9872
 2188SOL     OW18199   1.855   0.843  13.319  0.6056  0.0750 -0.5327
 2188SOL    HW118200   1.916   0.771  13.339  1.2534  0.6489 -0.4464
 2188SOL    HW218201   1.774   0.793  13.308  0.0002  0.7105  1.0417
 2189SOL     OW18202   3.977   2.508   6.160 -0.0628  0.5015 -0.7417
 2189SOL    HW118203   3.965   2.514   6.255 -0.3229  1.4450 -0.8309
 2189SOL    HW218204   4.040   2.579   6.150 -0.3133  0.8706  0.2426
 2190SOL     OW18205   0.231   2.685   1.894  0.0802  0.3348  0.1315
 2190SOL    HW118206   0.275   2.655   1.974 -0.0342 -0.4363 -0.0943
 2190SOL    HW218207   0.307   2.702   1.839 -0.2958  0.6189 -0.2931
 2191SOL     OW18208   3.206   2.005  15.794 -0.0094  0.0264  0.3021
 2191SOL    HW118209   3.264   2.068  15.838  1.2333 -0.1449 -1.0986
 2191SOL    HW218210   3.225   1.931  15.852 -1.4735 -1.0590 -0.6086
 2192SOL     OW18211   2.981   2.815   5.267  0.5639  0.2604 -0.2032
 2192SOL    HW118212   2.912   2.799   5.331  0.4900  1.2510 -0.0354
 2192SOL    HW218213   2.939   2.868   5.200 -0.8716  0.4939  0.8702
 2193SOL     OW18214   4.136   3.560   9.240  0.3064 -0.7133 -0.5148
 2193SOL    HW118215   4.108   3.528   9.155 -0.3796 -1.8319  0.1289
 2193SOL    HW218216   4.063   3.616   9.265  0.9148 -0.1922  0.1087
 2194SOL     OW18217   3.748   4.240   7.787  1.0468  0.3888  0.8532
 2194SOL    HW118218   3.654   4.258   7.785  0.8601 -0.5676  0.8837
 2194SOL    HW218219   3.772   4.264   7.698 -3.5674  2.3363  0.1519
 2195SOL     OW18220   0.777   1.480  11.393 -0.0766 -0.3121  0.8158
 2195SOL    HW118221   0.711   1.452  11.330  0.4678 -0.4785  0.3227
 2195SOL    HW218222   0.728   1.484  11.476  1.3097 -0.8488  1.6607
 2196SOL     OW18223   2.738   4.457   3.521  0.4676  0.2102  0.0361
 2196SOL    HW118224   2.829   4.434   3.505  0.0782 -1.5077  0.2941
 2196SOL    HW218225   2.748   4.529   3.582 -0.0258  0.5936 -0.3270
 2197SOL     OW18226   0.162   1.810   8.102 -0.0979 -0.0616  0.0510
 2197SOL    HW118227   0.150   1.772   8.015 -4.8971 -0.5713  0.9744
 2197SOL    HW218228   0.079   1.784   8.142 -0.0749 -0.9686 -0.4766
 2198SOL     OW18229   2.261   4.264  16.660  0.2199 -0.3100  0.1633
 2198SOL    HW118230   2.322   4.193  16.640 -1.1717 -0.6926 -2.7422
 2198SOL    HW218231   2.171   4.231  16.653  0.2040 -0.3353  0.5029
 2199SOL     OW18232   0.292   4.659   1.355 -0.3847 -0.5413 -0.0852
 2199SOL    HW118233   0.213   4.694   1.314 -0.5531 -0.7030  0.1000
 2199SOL    HW218234   0.351   4.716   1.305 -2.6839  2.0004  0.1100
 2200SOL     OW18235   1.992   2.931   2.031 -0.3938  0.0082 -0.2352
 2200SOL    HW118236   2.081   2.899   2.047 -0.2069  1.0972  0.9681
 2200SOL    HW218237   1.976   2.888   1.948 -0.2669  0.4603 -0.4959
 2201SOL     OW18238   0.455   2.136   3.656  0.0614 -0.2970 -0.5305
 2201SOL    HW118239   0.485   2.138   3.747  0.2105  0.6715 -0.5998
 2201SOL    HW218240   0.529   2.100   3.608 -1.3804 -1.5772 -1.8039
 2202SOL     OW18241   4.266   0.956   6.323  0.2272  0.1859  0.1360
 2202SOL    HW118242   4.197   1.023   6.318  0.0621  0.0171  0.1392
 2202SOL    HW218243   4.244   0.913   6.240  3.0667 -0.9621 -0.0106
 2203SOL     OW18244   1.298   4.584   2.636 -0.4758  0.6136 -0.1307
 2203SOL    HW118245   1.233   4.600   2.705  2.1091  0.5231  2.2917
 2203SOL    HW218246   1.288   4.490   2.622 -1.6662  0.7260 -0.0543
 2204SOL     OW18247   2.495   1.723  15.308  0.1954  0.0711  0.1065
 2204SOL    HW118248   2.570   1.781  15.322  1.7078 -1.5756 -1.2239
 2204SOL    HW218249   2.425   1.768  15.357  0.2713 -0.0344  0.3104
 2205SOL     OW18250   2.274   2.334  17.173  0.0500 -0.8466 -0.0553
 2205SOL    HW118251   2.205   2.334  17.106  1.3562  1.2666 -1.4139
 2205SOL    HW218252   2.232   2.374  17.248  1.3680  1.4527 -0.5431
 2206SOL     OW18253   1.380   2.627   4.116  0.0161  0.5442  0.3191
 2206SOL    HW118254   1.455   2.649   4.060 -1.6375  1.7613 -1.4063
 2206SOL    HW218255   1.382   2.698   4.180 -0.6663  1.1424 -0.3171
 2207SOL     OW18256   2.810   4.626   3.758 -0.0663 -0.2139  0.3906
 2207SOL    HW118257   2.817   4.684   3.682 -3.1098  0.4616  0.6314
 2207SOL    HW218258   2.898   4.593   3.776 -1.0231 -0.6585  4.3140
 2208SOL     OW18259   3.202   4.583   2.013  0.6155  0.5873  0.3636
 2208SOL    HW118260   3.118   4.564   1.970 -0.1789  1.9131  1.3465
 2208SOL    HW218261   3.172   4.632   2.089 -1.3927 -0.2169  0.0828
 2209SOL     OW18262   4.640   0.319   5.544 -0.6032 -0.6204 -0.0775
 2209SOL    HW118263   4.688   0.309   5.461  0.2490 -0.2946  0.3739
 2209SOL    HW218264   4.661   0.410   5.563 -0.6136 -1.3878  3.5280
 2210SOL     OW18265   3.009   3.691  14.869 -0.5624 -0.3446  0.3036
 2210SOL    HW118266   2.923   3.699  14.909 -0.8218 -1.8263  0.0479
 2210SOL    HW218267   2.989   3.615  14.813 -0.8982  0.0914 -0.1659
 2211SOL     OW18268   0.577   4.235  16.563  0.2980  0.1944  0.2973
 2211SOL    HW118269   0.618   4.305  16.613 -1.2744  1.0064  0.4763
 2211SOL    HW218270   0.485   4.263  16.565  0.2274 -0.0897  1.2738
 2212SOL     OW18271   2.674   2.404  14.684  0.2012 -0.3801  0.6417
 2212SOL    HW118272   2.704   2.315  14.663 -2.8707 -1.1925 -0.2428
 2212SOL    HW218273   2.592   2.400  14.635  0.7784  0.4325 -0.3842
 2213SOL     OW18274   4.035   4.687   4.040 -0.1054  0.2374 -0.1920
 2213SOL    HW118275   3.983   4.632   4.099 -1.5365  0.5146 -1.2084
 2213SOL    HW218276   4.050   4.638   3.960 -3.9416 -0.3913 -0.5245
 2214SOL     OW18277   3.437   3.628   1.657  0.7077  0.3892  0.1793
 2214SOL    HW118278   3.390   3.587   1.729 -0.3242  1.0235 -0.1403
 2214SOL    HW218279   3.407   3.719   1.656 -2.2167 -0.6245 -1.0494
 2215SOL     OW18280   1.564   2.752  12.663 -0.1065 -0.4785  0.6858
 2215SOL    HW118281   1.638   2.717  12.612  0.3773  1.4214  0.0903
 2215SOL    HW218282   1.600   2.824  12.714  1.6785  0.3581 -1.7889
 2216SOL     OW18283   2.367   4.246   5.882  0.2745 -0.0169 -0.3224
 2216SOL    HW118284   2.318   4.296   5.948 -0.9687 -0.3021 -1.0306
 2216SOL    HW218285   2.451   4.229   5.924 -0.2245  0.9523  1.0746
 2217SOL     OW18286   3.535   0.650   4.928  0.2358 -0.4028 -0.0241
 2217SOL    HW118287   3.546   0.672   5.021  0.5406  0.6011 -0.2996
 2217SOL    HW218288   3.576   0.731   4.898 -2.3129  1.0002  0.2513
 2218SOL     OW18289   4.644   4.618  11.183  0.0425  0.5149  0.1790
 2218SOL    HW118290   4.715   4.558  11.207 -1.6119 -0.6458  2.1212
 2218SOL    HW218291   4.565   4.572  11.213 -0.6588  0.4804 -1.7258
 2219SOL     OW18292   3.176   0.824   1.027 -0.1941 -0.0465  0.3260
 2219SOL    HW118293   3.261   0.782   1.015 -1.5804 -2.0238 -2.6472
 2219SOL    HW218294   3.194   0.906   1.074 -3.9631  1.6215 -1.1870
 2220SOL     OW18295   4.398   0.352   2.242  0.0160 -0.2355  0.0790
 2220SOL    HW118296   4.371   0.400   2.164 -0.9795 -0.6925  0.1380
 2220SOL    HW218297   4.426   0.272   2.198 -1.5763  0.4820 -2.2526
 2221SOL     OW18298   0.230   0.623   5.118  0.0059 -0.0851  0.2852
 2221SOL    HW118299   0.276   0.691   5.069  0.2523 -1.1509 -0.9588
 2221SOL    HW218300   0.159   0.604   5.057 -1.3138  1.8084  1.2459
 2222SOL     OW18301   2.668   0.310  17.223 -0.0717  0.3731  0.4831
 2222SOL    HW118302   2.644   0.336  17.133 -0.0721 -1.1706  0.0339
 2222SOL    HW218303   2.594   0.256  17.250  0.2656 -0.3334 -0.0004
 2223SOL     OW18304   3.617   3.480   6.383  0.5853 -0.3826  0.0210
 2223SOL    HW118305   3.536   3.487   6.433 -1.0915 -1.7850 -2.4808
 2223SOL    HW218306   3.624   3.384   6.388 -0.3235 -0.3943  1.0725
 2224SOL     OW18307   2.682   1.859   7.984 -0.0419  0.5867  0.1365
 2224SOL    HW118308   2.589   1.841   7.970 -0.3014  0.2765  2.1930
 2224SOL    HW218309   2.701   1.913   7.908 -0.9404 -0.0624 -0.5495
 2225SOL     OW18310   0.908   3.326   2.624  0.4826 -0.3375 -0.4486
 2225SOL    HW118311   0.884   3.411   2.588 -0.4556 -0.2000  0.5080
 2225SOL    HW218312   0.990   3.308   2.579  0.4095 -2.7306  0.3287
 2226SOL     OW18313   2.858   3.569  17.646  0.1017 -0.5827 -0.2426
 2226SOL    HW118314   2.789   3.628  17.676  1.2682  1.4353 -1.4856
 2226SOL    HW218315   2.905   3.556  17.728  0.6438 -1.3795 -0.6841
 2227SOL     OW18316   4.592   4.146  16.248 -0.3320 -0.5798 -0.1716
 2227SOL    HW118317   4.687   4.157  16.246 -0.5446  1.0889 -0.7366
 2227SOL    HW218318   4.575   4.136  16.342 -1.0736 -3.4158 -0.6033
 2228SOL     OW18319   0.169   4.535   8.997  0.3001 -0.6416  0.2940
 2228SOL    HW118320   0.151   4.442   9.010  0.4255 -0.5262  1.3234
 2228SOL    HW218321   0.236   4.525   8.929  0.2026  0.6251  0.0031
 2229SOL     OW18322   3.592   3.411   1.571  0.0664  0.2676 -0.4047
 2229SOL    HW118323   3.542   3.489   1.595 -0.0292 -0.0457  0.4055
 2229SOL    HW218324   3.535   3.364   1.510 -0.9477  1.8507 -0.6711
 2230SOL     OW18325   2.611   0.453  11.839 -0.1548  0.4993  0.3495
 2230SOL    HW118326   2.574   0.367  11.823 -1.6006  1.3107 -0.6403
 2230SOL    HW218327   2.703   0.425  11.833  0.1029  1.8369 -1.9249
 2231SOL     OW18328   1.712   1.596  15.718 -0.2798  0.1815  0.1316
 2231SOL    HW118329   1.794   1.626  15.678  0.9899 -1.6971  1.3652
 2231SOL    HW218330   1.648   1.659  15.685 -1.1403 -0.4028  0.7066
 2232SOL     OW18331   2.653   3.340   9.651 -0.0890 -0.3243  0.4056
 2232SOL    HW118332   2.597   3.313   9.578 -0.9829 -0.3212  1.0978
 2232SOL    HW218333   2.729   3.284   9.630  0.0831 -0.5709  1.6893
 2233SOL     OW18334   2.471   4.440   7.262 -0.2809 -0.6375  0.3148
 2233SOL    HW118335   2.486   4.534   7.271 -0.8652 -0.4942 -0.1768
 2233SOL    HW218336   2.521   4.413   7.185 -0.5514 -0.8328  0.2069
 2234SOL     OW18337   2.529   3.775   9.463  0.2369 -0.6295  0.2444
 2234SOL    HW118338   2.494   3.687   9.448  1.9599 -1.4710  1.1829
 2234SOL    HW218339   2.549   3.772   9.556  2.6328  4.1285 -0.0994
 2235SOL     OW18340   4.040   1.027   8.919 -0.0175 -0.2029 -0.0348
 2235SOL    HW118341   4.087   0.981   8.850 -3.8428 -1.6942 -1.6242
 2235SOL    HW218342   3.988   1.090   8.871 -2.2596 -0.2688  2.2775
 2236SOL     OW18343   1.004   1.806  17.177 -0.3861 -0.0327 -0.0339
 2236SOL    HW118344   0.994   1.835  17.268 -0.8766  2.4420 -0.8760
 2236SOL    HW218345   0.944   1.731  17.181 -1.2944  0.7690  1.4612
 2237SOL     OW18346   3.347   0.781   8.828  0.4107 -0.2144 -0.3263
 2237SOL    HW118347   3.368   0.688   8.835  0.0435 -0.1682  1.3094
 2237SOL    HW218348   3.428   0.825   8.801  0.1927  0.1607 -0.3567
 2238SOL     OW18349   1.617   1.897   7.051  0.5878  0.0937  0.4253
 2238SOL    HW118350   1.548   1.843   7.013  0.2554 -0.3151  1.6183
 2238SOL    HW218351   1.631   1.861   7.138 -0.9370  0.2024  0.7236
 2239SOL     OW18352   2.233   1.506  13.554  0.3773  0.2345  0.1140
 2239SOL    HW118353   2.302   1.531  13.492 -0.7698 -0.0081 -1.2654
 2239SOL    HW218354   2.187   1.589  13.563  0.8639  0.2600  2.3075
 2240SOL     OW18355   1.640   3.177   6.374  0.4774 -0.5611 -0.0086
 2240SOL    HW118356   1.581   3.248   6.400 -1.0347 -1.6840 -0.3442
 2240SOL    HW218357   1.576   3.109   6.351 -0.2878  0.1078  0.1489
 2241SOL     OW18358   2.548   0.062   4.567 -0.2225  0.4381 -0.1865
 2241SOL    HW118359   2.636   0.033   4.542  0.2488  2.7445 -1.2494
 2241SOL    HW218360   2.546   0.156   4.550  2.0527  0.5936  0.3776
 2242SOL     OW18361   4.153   0.974   7.215 -0.0272  0.0873  0.0715
 2242SOL    HW118362   4.209   1.025   7.157 -0.1476  0.0668 -0.0626
 2242SOL    HW218363   4.165   1.011   7.303 -0.4119  1.5556 -0.4918
 2243SOL     OW18364   2.703   2.712  15.023  0.0346 -0.1702 -0.0437
 2243SOL    HW118365   2.630   2.651  15.030  0.2452 -0.2783  1.2768
 2243SOL    HW218366   2.708   2.738  14.931 -1.2126  0.1924 -0.0112
 2244SOL     OW18367   2.495   0.220  10.311 -0.4433  0.0266 -0.1179
 2244SOL    HW118368   2.500   0.189  10.401 -2.1564  0.8051  0.2372
 2244SOL    HW218369   2.587   0.236  10.289 -0.7689  0.9475 -0.8480
 2245SOL     OW18370   1.785   2.810  13.115 -0.0022 -0.2406  0.2340
 2245SOL    HW118371   1.772   2.721  13.147 -1.3487  0.5265  1.7757
 2245SOL    HW218372   1.711   2.831  13.058 -1.0371 -0.0736  1.6581
 2246SOL     OW18373   2.522   0.305  16.994  0.3466 -0.1957  0.2878
 2246SOL    HW118374   2.442   0.337  16.952  0.6132 -1.1846 -0.9879
 2246SOL    HW218375   2.522   0.213  16.969  0.5500 -0.3305  0.7777
 2247SOL     OW18376   1.394   3.110   7.826 -0.4990  0.2192 -0.1923
 2247SOL    HW118377   1.463   3.043   7.824  0.1983  0.8855  1.4160
 2247SOL    HW218378   1.365   3.104   7.735 -0.6073  1.5661 -0.2371
 2248SOL     OW18379   0.555   4.077   4.664 -0.1167  0.0437 -0.1237
 2248SOL    HW118380   0.598   4.050   4.583  0.4573 -1.2812  0.6178
 2248SOL    HW218381   0.541   3.994   4.709 -2.7080 -0.4411 -1.8213
 2249SOL     OW18382   1.142   3.196   2.864 -0.7108 -0.2926  0.5698
 2249SOL    HW118383   1.141   3.186   2.769  0.5081  2.0390  0.3034
 2249SOL    HW218384   1.051   3.220   2.882 -0.4801  0.6670  0.4208
 2250SOL     OW18385   4.208   4.291  16.656 -0.2747 -0.2494  0.5414
 2250SOL    HW118386   4.114   4.311  16.662 -0.5961 -1.2081 -1.2825
 2250SOL    HW218387   4.235   4.379  16.682 -1.7601 -0.1472  1.7688
 2251SOL     OW18388   3.559   2.849  11.333 -0.0839  0.4767  0.5427
 2251SOL    HW118389   3.632   2.864  11.273  1.4876  1.9771  2.8387
 2251SOL    HW218390   3.520   2.936  11.336 -1.9932 -0.3721  0.4143
 2252SOL     OW18391   3.136   0.800   5.861  0.5040 -0.8238 -0.1110
 2252SOL    HW118392   3.102   0.732   5.918  0.4670  0.2443  1.1502
 2252SOL    HW218393   3.154   0.745   5.784  4.2364  1.1204 -0.6648
 2253SOL     OW18394   0.225   1.272   9.868  0.1617  0.1674  0.2069
 2253SOL    HW118395   0.242   1.227   9.951 -0.3676 -1.6868 -0.6865
 2253SOL    HW218396   0.140   1.237   9.841  0.6373 -0.8535  0.0542
 2254SOL     OW18397   0.597   2.616   0.210  0.0790 -0.2658 -0.0339
 2254SOL    HW118398   0.628   2.706   0.199  0.9682 -0.4976  0.6228
 2254SOL    HW218399   0.657   2.564   0.158 -0.2742 -0.3532 -0.3532
 2255SOL     OW18400   3.497   0.529   1.564 -0.3467 -0.2273 -0.0453
 2255SOL    HW118401   3.404   0.546   1.546 -0.2859  1.1518  0.9269
 2255SOL    HW218402   3.490   0.472   1.640  2.6574  0.1082  0.4649
 2256SOL     OW18403   4.198   1.081   4.540  0.2386  0.1552 -0.0218
 2256SOL    HW118404   4.113   1.104   4.501  0.6906  1.0176 -0.4946
 2256SOL    HW218405   4.173   1.029   4.617 -0.7291  1.2597  0.4287
 2257SOL     OW18406   3.007   1.623  15.108 -0.4743 -0.2724  0.3820
 2257SOL    HW118407   2.932   1.677  15.134  2.0272  2.0541  2.7127
 2257SOL    HW218408   3.030   1.677  15.033 -0.8289  1.0569  1.2169
 2258SOL     OW18409   1.230   3.068   9.210 -0.2052  0.3604  0.0959
 2258SOL    HW118410   1.239   3.062   9.305  0.4812 -2.1324 -0.1241
 2258SOL    HW218411   1.319   3.102   9.202 -0.4159  0.2726 -2.6043
 2259SOL     OW18412   1.231   0.823   6.939 -1.0393 -0.2396 -0.7922
 2259SOL    HW118413   1.176   0.895   6.907  0.4712  0.3051 -2.1880
 2259SOL    HW218414   1.302   0.825   6.875 -1.8195 -2.0408 -1.6919
 2260SOL     OW18415   0.577   4.312   4.802 -0.4641  0.2024 -0.0879
 2260SOL    HW118416   0.569   4.242   4.737 -2.0353  0.1877  0.1190
 2260SOL    HW218417   0.585   4.267   4.887 -1.5806  1.1436  0.5128
 2261SOL     OW18418   1.915   0.015  10.423 -0.4601  0.2651 -0.7180
 2261SOL    HW118419   1.859   4.695  10.370 -1.1673  1.8742 -1.7337
 2261SOL    HW218420   1.986   0.009  10.359  0.8611  2.3957  0.5469
 2262SOL     OW18421   2.400   0.520   1.598  0.6810  0.3241  0.0756
 2262SOL    HW118422   2.364   0.437   1.567  2.4133 -0.7918  1.0396
 2262SOL    HW218423   2.403   0.568   1.515  0.2345  0.4023  0.1031
 2263SOL     OW18424   2.502   3.898  11.487 -0.1079 -0.2071 -1.0000
 2263SOL    HW118425   2.458   3.910  11.571  1.6207 -1.5066  0.0795
 2263SOL    HW218426   2.478   3.977  11.438 -0.9842  0.0478 -0.1630
 2264SOL     OW18427   2.319   3.475   3.774  0.1029  0.7054  0.3769
 2264SOL    HW118428   2.258   3.415   3.732  0.4358  0.4666  0.2398
 2264SOL    HW218429   2.392   3.479   3.712  3.3116 -2.3916  3.9223
 2265SOL     OW18430   2.361   1.795   5.159 -0.3943  0.2675 -0.0844
 2265SOL    HW118431   2.352   1.890   5.149  1.4399  0.4388 -0.0318
 2265SOL    HW218432   2.279   1.785   5.207 -0.8802 -4.9164 -2.0271
 2266SOL     OW18433   0.250   4.408   2.813  0.3968 -0.2771  0.1279
 2266SOL    HW118434   0.282   4.328   2.771  1.0296 -0.2859  0.6505
 2266SOL    HW218435   0.321   4.469   2.793 -0.6319  0.8704 -0.0236
 2267SOL     OW18436   3.558   2.673   2.233 -0.3127  0.3703 -0.2101
 2267SOL    HW118437   3.525   2.592   2.271  0.5331 -0.4052 -1.1186
 2267SOL    HW218438   3.648   2.661   2.204 -0.6324  0.9544 -1.4598
 2268SOL     OW18439   2.032   0.948   2.751  0.0285 -0.2051  0.2152
 2268SOL    HW118440   2.065   1.021   2.804 -0.6556  1.5719 -1.8177
 2268SOL    HW218441   2.072   0.871   2.791 -1.9924  0.1819  3.0828
 2269SOL     OW18442   0.445   3.726  15.269 -0.1804 -0.3311  0.0942
 2269SOL    HW118443   0.437   3.795  15.202  0.4502  0.9937  1.3909
 2269SOL    HW218444   0.536   3.702  15.252 -0.4052 -0.9236 -0.2853
 2270SOL     OW18445   3.017   0.873   2.015  0.1464  0.0531 -0.9009
 2270SOL    HW118446   3.018   0.968   2.011  2.5477  0.1401  2.2879
 2270SOL    HW218447   2.936   0.850   2.062  1.4939 -1.3424  0.7293
 2271SOL     OW18448   3.787   2.572   7.256 -0.3411 -0.2530 -0.2083
 2271SOL    HW118449   3.712   2.515   7.239  0.3030 -0.4410 -2.3961
 2271SOL    HW218450   3.740   2.654   7.245  1.3485  0.5484 -1.4031
 2272SOL     OW18451   2.999   4.379   5.414 -0.1369  0.3488 -0.1569
 2272SOL    HW118452   3.040   4.314   5.471 -0.8607  0.1546  0.1498
 2272SOL    HW218453   3.063   4.448   5.431 -1.0872  1.6227 -1.7663
 2273SOL     OW18454   3.781   3.069  11.314 -0.3864  0.0742  0.4760
 2273SOL    HW118455   3.784   3.040  11.405 -1.4076 -0.2968  0.3907
 2273SOL    HW218456   3.715   3.138  11.316  0.0006  0.4556 -0.1123
 2274SOL     OW18457   1.411   0.381   6.011  0.3656 -0.3985  0.5566
 2274SOL    HW118458   1.328   0.368   5.964  0.1319 -1.0627  1.1482
 2274SOL    HW218459   1.444   0.291   6.002  0.1095 -0.2508 -1.8563
 2275SOL     OW18460   1.380   3.585   4.985  0.5237 -0.5119  0.2700
 2275SOL    HW118461   1.319   3.552   5.051  1.2684 -0.6386  0.8970
 2275SOL    HW218462   1.321   3.626   4.922 -0.6435 -0.8040  1.1680
 2276SOL     OW18463   2.896   2.698  16.983  0.5382  0.6540 -0.5268
 2276SOL    HW118464   2.976   2.655  17.015  0.4602 -0.3045 -1.6064
 2276SOL    HW218465   2.887   2.763  17.052 -0.6664 -1.0817  0.9365
 2277SOL     OW18466   3.847   1.638   6.544  0.2798 -0.5404  0.0054
 2277SOL    HW118467   3.929   1.607   6.507 -0.1730  2.3614 -3.4484
 2277SOL    HW218468   3.791   1.593   6.480 -1.7027  0.1123  1.2906
 2278SOL     OW18469   3.145   0.570   4.477  0.4323  0.3148 -0.4159
 2278SOL    HW118470   3.179   0.499   4.531 -1.6319  0.1586  0.6674
 2278SOL    HW218471   3.163   0.525   4.394 -0.4374 -2.2813  0.8356
 2279SOL     OW18472   1.588   3.915   9.851 -0.2705  0.5102 -0.0163
 2279SOL    HW118473   1.608   3.824   9.828  0.2192 -0.0382  2.5847
 2279SOL    HW218474   1.515   3.903   9.912  0.3544 -1.5775  0.3287
 2280SOL     OW18475   2.311   0.492   7.316  0.2273 -0.3985  0.0898
 2280SOL    HW118476   2.226   0.500   7.359  0.0951  1.2707 -0.4974
 2280SOL    HW218477   2.301   0.555   7.244  0.0978 -0.6823 -0.1412
 2281SOL     OW18478   2.981   2.753   9.226 -0.2346 -0.8939 -0.2117
 2281SOL    HW118479   2.990   2.730   9.318 -3.0134 -1.3668 -0.0362
 2281SOL    HW218480   3.024   2.838   9.218  0.8889 -1.5211 -0.8094
 2282SOL     OW18481   0.183   2.225  12.690 -0.2915 -0.0963  0.0534
 2282SOL    HW118482   0.203   2.226  12.596 -0.8412 -2.4682 -0.0946
 2282SOL    HW218483   0.267   2.202  12.730 -1.4724 -1.3224  1.8472
 2283SOL     OW18484   3.809   4.277   1.177 -0.1572 -0.1713 -0.2679
 2283SOL    HW118485   3.861   4.199   1.195  0.5828  0.4934  0.5240
 2283SOL    HW218486   3.722   4.255   1.208  0.3625  0.0466  1.3579
 2284SOL     OW18487   1.290   3.843   5.948  0.5430 -0.2747  0.1540
 2284SOL    HW118488   1.266   3.935   5.938  0.5815 -0.2568  0.2285
 2284SOL    HW218489   1.200   3.812   5.961  0.4207 -0.3845 -0.9541
 2285SOL     OW18490   3.029   3.843  12.705 -0.1177  0.1279  0.1214
 2285SOL    HW118491   2.976   3.764  12.700 -1.3246  1.2175 -3.9915
 2285SOL    HW218492   3.092   3.811  12.640 -1.5050 -0.9926 -0.6635
 2286SOL     OW18493   2.810   3.473  17.244 -0.2842 -0.3564  0.1664
 2286SOL    HW118494   2.822   3.566  17.224 -0.4423  0.0074  1.7521
 2286SOL    HW218495   2.837   3.434  17.161 -0.3531 -3.5224  1.6630
 2287SOL     OW18496   3.845   1.881  12.622  0.3766 -0.1516 -0.3407
 2287SOL    HW118497   3.821   1.969  12.650 -3.6176 -0.5105 -2.4959
 2287SOL    HW218498   3.789   1.818  12.668  1.2684 -2.1475 -1.9687
 2288SOL     OW18499   3.170   0.391   3.715 -0.1880  0.3191  0.0169
 2288SOL    HW118500   3.263   0.414   3.713  0.2923 -1.4073  2.4383
 2288SOL    HW218501   3.137   0.467   3.762 -0.9355 -0.4917  0.7969
 2289SOL     OW18502   4.008   0.319   5.064  0.0371 -0.0909 -0.2335
 2289SOL    HW118503   3.980   0.298   5.153 -5.0824  2.6914 -1.1786
 2289SOL    HW218504   3.992   0.242   5.010 -1.6977  0.7508 -0.9427
 2290SOL     OW18505   1.475   1.702   6.914 -0.6108 -0.3078  0.5836
 2290SOL    HW118506   1.519   1.708   6.829 -1.9931  0.7925 -0.0455
 2290SOL    HW218507   1.391   1.732   6.878  0.1940  0.7572 -0.4128
 2291SOL     OW18508   4.213   1.086   3.816 -0.0850 -0.0489 -0.7073
 2291SOL    HW118509   4.287   1.130   3.858 -0.4263 -1.4512  1.3613
 2291SOL    HW218510   4.161   1.048   3.887  0.8339 -0.7769 -0.4292
 2292SOL     OW18511   3.832   2.598  12.199  0.1554  0.0237  0.3396
 2292SOL    HW118512   3.917   2.596  12.155 -0.9342  2.5104 -1.9198
 2292SOL    HW218513   3.862   2.610  12.289  0.9935  1.7135 -0.1486
 2293SOL     OW18514   3.243   1.222   3.174  0.1479  0.5108  0.2824
 2293SOL    HW118515   3.284   1.193   3.256  2.0118  3.3190  0.3342
 2293SOL    HW218516   3.224   1.310   3.205 -0.3695  1.7918 -3.7337
 2294SOL     OW18517   3.706   1.892   5.672 -0.3339  0.2170  0.2767
 2294SOL    HW118518   3.776   1.854   5.619 -0.2801 -0.7255  1.0241
 2294SOL    HW218519   3.661   1.813   5.703 -0.8122  0.5891  0.5278
 2295SOL     OW18520   1.669   0.580   2.048  0.5484 -0.2728  0.0654
 2295SOL    HW118521   1.653   0.670   2.021 -0.1126 -0.6010 -0.6097
 2295SOL    HW218522   1.686   0.536   1.965 -0.4359  1.8890 -1.2938
 2296SOL     OW18523   2.221   2.070   5.689 -0.0119  0.2153  0.4806
 2296SOL    HW118524   2.161   2.013   5.736 -1.0763  0.5661 -0.4744
 2296SOL    HW218525   2.240   2.038   5.601  1.5763 -0.0911  0.9231
 2297SOL     OW18526   3.327   2.768   2.063  0.3010 -0.1911 -0.1546
 2297SOL    HW118527   3.300   2.698   2.122  1.6687 -1.5767 -1.1748
 2297SOL    HW218528   3.421   2.763   2.081  0.0088 -3.1603  0.4645
 2298SOL     OW18529   3.656   2.644   4.924 -0.1643  0.3875 -0.3285
 2298SOL    HW118530   3.562   2.645   4.909 -0.3047  2.9733  0.8471
 2298SOL    HW218531   3.667   2.548   4.926  2.7946  0.6995 -1.6247
 2299SOL     OW18532   4.472   1.550   3.084  0.4123  0.0958 -0.0171
 2299SOL    HW118533   4.393   1.530   3.034  0.7446 -2.3812  0.4171
 2299SOL    HW218534   4.426   1.544   3.168 -1.1775 -1.0400 -0.9603
 2300SOL     OW18535   1.396   4.441   1.331  0.6603 -0.7459  0.4021
 2300SOL    HW118536   1.353   4.445   1.416 -1.4876 -2.6736 -0.6245
 2300SOL    HW218537   1.315   4.415   1.288  0.6223 -0.5294  0.3410
 2301SOL     OW18538   2.734   3.074   8.610 -0.1902 -0.2483  0.2142
 2301SOL    HW118539   2.664   3.113   8.558  0.2291  0.1787 -0.0230
 2301SOL    HW218540   2.802   3.141   8.610 -1.4983  1.0629 -0.3039
 2302SOL     OW18541   4.294   2.652  14.340 -0.3118 -0.1086 -0.0945
 2302SOL    HW118542   4.232   2.702  14.288  0.3414 -2.1883 -2.8882
 2302SOL    HW218543   4.261   2.664  14.429  0.2883  2.8916 -0.2692
 2303SOL     OW18544   3.763   4.001   7.052 -0.0489 -0.5708  0.2518
 2303SOL    HW118545   3.821   4.053   6.995  2.8079 -1.5451  2.2968
 2303SOL    HW218546   3.777   3.911   7.022 -0.7790 -0.5721 -0.0853
 2304SOL     OW18547   3.803   2.496   8.103 -0.0461 -0.4064  0.2986
 2304SOL    HW118548   3.746   2.420   8.102 -1.8621  0.9471 -0.1184
 2304SOL    HW218549   3.842   2.474   8.018  0.0168 -2.0217  0.7512
 2305SOL     OW18550   0.053   0.017   1.255  0.3766  0.4185  0.1100
 2305SOL    HW118551   0.060   0.043   1.163  0.8828  1.7812  0.5260
 2305SOL    HW218552   0.052   0.096   1.310 -1.2245  1.0939 -0.8720
 2306SOL     OW18553   2.949   2.352   4.737 -0.1417 -0.2514 -0.7010
 2306SOL    HW118554   2.938   2.416   4.808  0.8368  0.0460 -0.8205
 2306SOL    HW218555   2.929   2.270   4.783 -2.3326  1.0566  0.6518
 2307SOL     OW18556   4.465   0.397   9.037 -0.4101  0.1145 -0.6526
 2307SOL    HW118557   4.477   0.411   8.943 -0.6490  3.3098 -0.2150
 2307SOL    HW218558   4.464   0.489   9.065 -2.1489  0.5804 -2.2611
 2308SOL     OW18559   4.022   2.007  10.388 -0.1471 -0.1374  0.4080
 2308SOL    HW118560   4.110   2.031  10.415  0.4097 -2.6304  0.7779
 2308SOL    HW218561   4.020   1.915  10.415 -3.5453  0.0557  0.8565
 2309SOL     OW18562   4.659   0.858   8.615 -0.5356  0.2216 -0.6828
 2309SOL    HW118563   0.009   0.821   8.621 -0.2469  0.8804 -0.8631
 2309SOL    HW218564   4.630   0.822   8.699  1.1702  1.8906  0.6239
 2310SOL     OW18565   4.246   3.790   2.040 -0.4000 -0.7035  0.3992
 2310SOL    HW118566   4.308   3.737   2.089  1.6667  1.6151  0.2620
 2310SOL    HW218567   4.169   3.733   2.049 -1.2253  0.7656  2.5536
 2311SOL     OW18568   3.494   3.291   8.536  0.0836 -0.1433 -0.4129
 2311SOL    HW118569   3.544   3.240   8.600 -2.8428 -2.1350  0.2601
 2311SOL    HW218570   3.535   3.377   8.545  1.1198 -0.6484 -0.2906
 2312SOL     OW18571   0.713   0.146  12.121 -0.5570  0.3378  0.2518
 2312SOL    HW118572   0.683   0.171  12.208  0.6466  0.0745  0.7435
 2312SOL    HW218573   0.803   0.179  12.125 -0.6691  0.4451  1.6380
 2313SOL     OW18574   0.493   1.080   2.541  0.1869 -0.4448  0.0622
 2313SOL    HW118575   0.569   1.053   2.489  0.9923  0.8744  0.5477
 2313SOL    HW218576   0.522   1.061   2.631  0.5392 -1.8178 -0.3331
 2314SOL     OW18577   1.822   4.467  16.372 -0.2579 -0.2659  0.1040
 2314SOL    HW118578   1.767   4.391  16.393  0.8179 -0.5619  1.8589
 2314SOL    HW218579   1.756   4.536  16.380  0.8272  0.4961  2.6359
 2315SOL     OW18580   0.352   0.846  14.321 -0.1344  0.3079  0.2386
 2315SOL    HW118581   0.373   0.775  14.261  1.5643  1.0929 -0.0785
 2315SOL    HW218582   0.258   0.845  14.305 -0.0014 -0.0779 -0.4888
 2316SOL     OW18583   1.384   3.304   8.266  0.0001 -0.2733  0.6239
 2316SOL    HW118584   1.352   3.228   8.218  1.2374 -0.3944 -0.0159
 2316SOL    HW218585   1.476   3.278   8.277 -0.3806 -1.8805  0.0668
 2317SOL     OW18586   2.555   3.107   7.193 -0.0625 -0.4963 -0.1549
 2317SOL    HW118587   2.625   3.059   7.238  0.3660  0.7009  0.4405
 2317SOL    HW218588   2.472   3.066   7.220  0.1673 -0.5460  0.4551
 2318SOL     OW18589   3.866   1.748   2.656  0.0539  0.5910  0.0969
 2318SOL    HW118590   3.856   1.795   2.573  0.5093  0.6226  0.0634
 2318SOL    HW218591   3.858   1.662   2.616 -0.8564  0.2106  1.0963
 2319SOL     OW18592   0.765   0.684   2.239 -0.1963  0.2950  0.0005
 2319SOL    HW118593   0.690   0.724   2.283  0.6742  2.8132 -0.8013
 2319SOL    HW218594   0.722   0.641   2.165  0.7008 -0.7561  0.1011
 2320SOL     OW18595   0.319   1.482   2.692  0.0488 -0.2288 -0.0363
 2320SOL    HW118596   0.394   1.509   2.745 -0.7735  0.1082  0.9543
 2320SOL    HW218597   0.364   1.464   2.610 -0.3810 -0.6184 -0.1891
 2321SOL     OW18598   4.385   0.161   5.866 -0.3182  0.0135  0.2772
 2321SOL    HW118599   4.450   0.185   5.932 -0.5934 -0.2851  0.6575
 2321SOL    HW218600   4.364   0.241   5.818  0.5071  0.3019  0.3968
 2322SOL     OW18601   3.502   2.729   7.985 -0.5918  0.0768  0.4860
 2322SOL    HW118602   3.510   2.707   8.077  1.7103  0.5532  0.4001
 2322SOL    HW218603   3.516   2.643   7.945 -0.0432  0.8530 -0.9969
 2323SOL     OW18604   4.338   1.170   2.551 -0.2867  0.6728 -0.5964
 2323SOL    HW118605   4.394   1.217   2.490  0.2818 -0.2630 -0.7902
 2323SOL    HW218606   4.301   1.251   2.585  0.4594  1.0897 -0.7726
 2324SOL     OW18607   4.292   2.235   3.895 -0.0406  0.0674  0.4430
 2324SOL    HW118608   4.344   2.165   3.856 -0.0097 -0.9109  2.2354
 2324SOL    HW218609   4.307   2.307   3.834  0.2001 -0.5608 -0.2440
 2325SOL     OW18610   0.372   1.236   4.881 -0.2661  0.4419 -0.6314
 2325SOL    HW118611   0.445   1.181   4.854  0.9992  1.4367  0.7286
 2325SOL    HW218612   0.354   1.200   4.968 -1.4120 -0.9338 -1.4345
 2326SOL     OW18613   0.052   0.200   4.590  0.2389  0.5497 -0.0196
 2326SOL    HW118614   0.005   0.190   4.673  1.3853 -0.0967  0.5570
 2326SOL    HW218615   0.104   0.120   4.590 -1.2429 -0.4195  2.1024
 2327SOL     OW18616   1.193   4.093  17.257 -0.3638 -0.0735  0.0023
 2327SOL    HW118617   1.148   4.017  17.295  1.0637 -0.0883  1.6888
 2327SOL    HW218618   1.248   4.115  17.332  1.2376 -1.0856 -0.8818
 2328SOL     OW18619   1.657   1.203   9.140 -0.0815 -0.6592 -0.1347
 2328SOL    HW118620   1.625   1.115   9.156  2.6285 -1.4999  0.7652
 2328SOL    HW218621   1.674   1.195   9.047  2.5481 -0.1090  0.2818
 2329SOL     OW18622   1.044   4.159   2.153  0.2208  0.1571 -0.8035
 2329SOL    HW118623   1.019   4.240   2.198  1.3222  0.3938 -0.6057
 2329SOL    HW218624   1.082   4.104   2.222 -0.3993  0.0271 -0.5652
 2330SOL     OW18625   2.333   0.109   7.534  0.4569 -0.1832 -0.0778
 2330SOL    HW118626   2.307   0.177   7.595 -0.6066 -0.4519 -0.2203
 2330SOL    HW218627   2.249   0.061   7.533 -0.9833  2.2873  2.4064
 2331SOL     OW18628   1.235   3.089   4.325  0.1421  0.7174  0.0806
 2331SOL    HW118629   1.183   3.121   4.251  1.3480 -0.5014 -1.3113
 2331SOL    HW218630   1.299   3.161   4.327 -0.6275  1.4046 -0.0838
 2332SOL     OW18631   1.428   2.727  16.950  0.0298 -0.2260 -0.5977
 2332SOL    HW118632   1.359   2.751  17.011  1.2493 -0.0200  0.7170
 2332SOL    HW218633   1.465   2.814  16.934  2.4766 -1.3241 -0.9446
 2333SOL     OW18634   1.952   3.486   6.679 -0.2410  0.3124  0.3074
 2333SOL    HW118635   1.882   3.426   6.653 -0.8236  1.4373 -0.7199
 2333SOL    HW218636   1.907   3.568   6.698  0.2530  0.2792  1.5719
 2334SOL     OW18637   1.482   3.775  15.854  0.2081 -0.2397  0.7152
 2334SOL    HW118638   1.549   3.795  15.788 -0.1479 -0.7869  0.1820
 2334SOL    HW218639   1.516   3.699  15.899 -1.0452 -0.9287  0.4844
 2335SOL     OW18640   1.755   2.560  14.069 -0.0956 -0.2134  0.5181
 2335SOL    HW118641   1.845   2.530  14.064 -0.4594 -1.1334 -0.4523
 2335SOL    HW218642   1.757   2.642  14.020  0.8850  0.8960  2.4032
 2336SOL     OW18643   0.595   0.454   4.586 -0.4235 -0.2528 -0.1505
 2336SOL    HW118644   0.670   0.399   4.609 -1.8233 -2.0416  0.1086
 2336SOL    HW218645   0.633   0.509   4.517 -0.0148  0.1522  0.3992
 2337SOL     OW18646   4.511   3.398   3.729  0.0708  0.0511 -0.1488
 2337SOL    HW118647   4.477   3.412   3.818 -2.0741  1.4102 -1.1616
 2337SOL    HW218648   4.597   3.362   3.748  0.5033  0.7377 -0.8330
 2338SOL     OW18649   0.271   2.704   5.131  0.5516  0.2304 -0.1477
 2338SOL    HW118650   0.260   2.611   5.147 -0.5975  0.2512 -0.8050
 2338SOL    HW218651   0.274   2.699   5.035  1.2266 -1.7065 -0.0327
 2339SOL     OW18652   4.252   4.646   4.774  0.0487 -0.1091 -0.7948
 2339SOL    HW118653   4.292   4.576   4.826  0.7960 -1.5453 -3.2810
 2339SOL    HW218654   4.288   4.624   4.688  0.2130 -2.8358 -0.0332
 2340SOL     OW18655   3.404   2.827   9.862  0.0857  0.2541 -0.4778
 2340SOL    HW118656   3.462   2.820   9.938 -1.3847 -1.1697  0.5253
 2340SOL    HW218657   3.348   2.752   9.882 -0.5193  1.3406  1.8724
 2341SOL     OW18658   4.581   1.549   4.666  0.1549  0.4329  0.0185
 2341SOL    HW118659   4.487   1.546   4.645 -0.0413 -1.1993  1.1865
 2341SOL    HW218660   4.590   1.517   4.755  1.3411 -2.8966 -1.3171
 2342SOL     OW18661   0.566   4.652   5.846 -0.5535 -0.2888  0.2726
 2342SOL    HW118662   0.647   4.657   5.896  0.0152  3.3975 -1.0021
 2342SOL    HW218663   0.526   4.732   5.881 -0.2132  0.3956 -0.9050
 2343SOL     OW18664   2.953   1.698   9.145  0.6125  0.4930  0.8985
 2343SOL    HW118665   3.037   1.658   9.121  0.2218 -0.3934  1.0079
 2343SOL    HW218666   2.893   1.664   9.080  0.9459 -0.9455  1.3449
 2344SOL     OW18667   2.589   4.191   6.253  0.4657  0.3681 -0.5318
 2344SOL    HW118668   2.677   4.226   6.266  0.2561  0.0410  1.8072
 2344SOL    HW218669   2.570   4.216   6.162 -0.6253 -3.9704 -1.5407
 2345SOL     OW18670   4.225   4.279  11.252 -0.3100 -0.3749 -0.2770
 2345SOL    HW118671   4.134   4.307  11.242 -0.0746  0.6798  0.5948
 2345SOL    HW218672   4.256   4.286  11.161 -0.9263 -0.2605 -0.4744
 2346SOL     OW18673   0.815   0.544   6.228  0.2301 -0.5982 -0.3380
 2346SOL    HW118674   0.769   0.616   6.185 -0.5732 -0.8488  0.1107
 2346SOL    HW218675   0.771   0.545   6.313  0.5126  2.0441 -0.2246
 2347SOL     OW18676   4.628   3.837   4.891  0.0852  0.0666  0.2096
 2347SOL    HW118677   4.615   3.744   4.909 -0.2703  0.8849  4.0365
 2347SOL    HW218678   4.722   3.846   4.879 -0.0036  0.7816  0.0462
 2348SOL     OW18679   1.212   1.673  11.342 -0.4639  0.6737  0.9390
 2348SOL    HW118680   1.220   1.670  11.437 -0.5766 -1.6405  0.8595
 2348SOL    HW218681   1.118   1.658  11.335 -0.1272 -1.5972  1.3741
 2349SOL     OW18682   1.210   3.437  15.112 -0.1026  0.5314  0.1906
 2349SOL    HW118683   1.166   3.421  15.029  2.6364 -0.8016 -1.0313
 2349SOL    HW218684   1.298   3.459  15.079 -0.4663  1.4767 -0.1533
 2350SOL     OW18685   1.038   0.424  11.940 -0.2669  0.0743  0.0633
 2350SOL    HW118686   1.025   0.504  11.990 -1.3010 -2.2781  3.5126
 2350SOL    HW218687   1.045   0.452  11.848  0.6744 -0.9030 -0.1633
 2351SOL     OW18688   1.769   3.378   6.206 -0.3939 -0.5617  0.3492
 2351SOL    HW118689   1.761   3.418   6.293  1.5355 -0.7746  0.6241
 2351SOL    HW218690   1.753   3.285   6.226  0.0120 -0.1575  2.5417
 2352SOL     OW18691   3.680   0.609   8.702 -0.0450 -0.3789  0.3107
 2352SOL    HW118692   3.661   0.584   8.612  2.3734  1.3714 -0.6759
 2352SOL    HW218693   3.612   0.671   8.730  2.0991  1.4766  1.4493
 2353SOL     OW18694   2.325   4.034   8.674  0.3071 -0.7892  0.9838
 2353SOL    HW118695   2.416   4.036   8.702  0.4301 -1.2344  0.6121
 2353SOL    HW218696   2.281   4.067   8.752  0.4878 -2.4596  1.7920
 2354SOL     OW18697   0.340   1.758   6.065  0.1897 -0.2257 -0.1081
 2354SOL    HW118698   0.376   1.672   6.043 -1.7308 -1.2110  0.5645
 2354SOL    HW218699   0.311   1.758   6.156  0.1458  0.8978 -0.1269
 2355SOL     OW18700   0.349   3.657   7.078 -0.0947  0.7404 -0.6012
 2355SOL    HW118701   0.329   3.675   7.170  4.5319 -1.5268  0.8122
 2355SOL    HW218702   0.323   3.566   7.090  0.6275  1.0620  3.3719
 2356SOL     OW18703   1.363   0.779  15.056  0.5010  0.0598 -0.0567
 2356SOL    HW118704   1.387   0.871  15.046 -1.0665  0.6594  1.7531
 2356SOL    HW218705   1.270   0.794  15.074  0.2838  2.2428 -3.0426
 2357SOL     OW18706   4.618   0.229   5.266 -0.1346 -0.1473  0.1257
 2357SOL    HW118707   4.547   0.290   5.244  1.3943  1.7527  0.4866
 2357SOL    HW218708   4.583   0.204   5.352  0.4754 -0.7896  0.1836
 2358SOL     OW18709   4.260   3.357   2.084  0.4518  0.3416 -0.4302
 2358SOL    HW118710   4.236   3.272   2.119  3.0946  0.3113  1.3512
 2358SOL    HW218711   4.292   3.401   2.163  0.7742  1.5996 -1.2612
 2359SOL     OW18712   2.311   3.889   4.699  0.1782  0.4544  0.1809
 2359SOL    HW118713   2.377   3.876   4.630 -0.2238 -2.0388  0.2595
 2359SOL    HW218714   2.228   3.877   4.653 -0.9152 -2.1127  2.8434
 2360SOL     OW18715   4.437   3.782   6.432  0.7963  0.3012 -0.3929
 2360SOL    HW118716   4.362   3.723   6.441  3.1230 -2.4552  0.9384
 2360SOL    HW218717   4.502   3.718   6.462  2.0453  2.7763  2.0469
 2361SOL     OW18718   3.812   4.333   0.918  0.1148 -0.5192 -0.2376
 2361SOL    HW118719   3.879   4.402   0.918  0.9586 -1.3436 -1.1541
 2361SOL    HW218720   3.833   4.305   1.007  0.6195 -0.1355 -0.2339
 2362SOL     OW18721   0.309   2.090   4.697  0.0816 -0.4160 -0.1141
 2362SOL    HW118722   0.324   2.057   4.609 -1.9181 -0.4838 -0.4293
 2362SOL    HW218723   0.323   2.009   4.745  0.4865  0.2727  0.9368
 2363SOL     OW18724   0.653   2.330  12.190  0.1451 -0.0875 -0.2062
 2363SOL    HW118725   0.579   2.271  12.175  2.2549 -1.4985 -5.2295
 2363SOL    HW218726   0.725   2.279  12.154  1.5253  0.3565  1.9012
 2364SOL     OW18727   0.382   3.362  14.836 -0.2072  0.2011  0.1426
 2364SOL    HW118728   0.303   3.336  14.883  1.0589 -1.3232  1.4319
 2364SOL    HW218729   0.382   3.301  14.762 -0.9822  0.0903  0.2355
 2365SOL     OW18730   2.427   0.502  14.549 -0.4377 -0.6474  0.2891
 2365SOL    HW118731   2.412   0.548  14.467 -0.7897 -1.4328 -0.0857
 2365SOL    HW218732   2.500   0.441  14.538 -0.1152 -0.5205  1.7113
 2366SOL     OW18733   1.962   4.611   3.648 -0.1603  0.1393  0.4104
 2366SOL    HW118734   1.958   4.608   3.744  2.6138 -1.2203  0.5030
 2366SOL    HW218735   1.969   4.703   3.622 -0.6822  0.3468  1.0101
 2367SOL     OW18736   1.837   2.916   0.331 -0.0964 -0.1715 -0.2077
 2367SOL    HW118737   1.877   2.879   0.410 -0.2125 -0.8550 -0.4706
 2367SOL    HW218738   1.915   2.959   0.295  0.5534 -1.5618 -0.4747
 2368SOL     OW18739   0.548   2.086   8.421  0.1658  0.0455  0.0241
 2368SOL    HW118740   0.564   2.044   8.337  1.2605 -1.9606  1.2433
 2368SOL    HW218741   0.624   2.142   8.435  0.9022 -1.5164  2.2952
 2369SOL     OW18742   2.956   3.176  15.956 -0.3468  0.2412 -0.0828
 2369SOL    HW118743   3.043   3.144  15.932 -0.3292 -0.2620  0.6681
 2369SOL    HW218744   2.905   3.095  15.966  0.4694 -0.0984  1.2587
 2370SOL     OW18745   4.655   0.841   6.596 -0.1845 -0.4787 -0.4898
 2370SOL    HW118746   4.589   0.785   6.554 -2.0820 -0.1636  2.0659
 2370SOL    HW218747   4.703   0.778   6.649  2.7358  0.1965 -2.3219
 2371SOL     OW18748   4.250   2.966   7.149  0.0117 -0.0397 -0.1388
 2371SOL    HW118749   4.274   3.055   7.123 -0.1053  0.3122  0.9599
 2371SOL    HW218750   4.216   2.985   7.236  2.0610 -1.8729  1.0767
 2372SOL     OW18751   0.880   0.302   3.948  0.7543  0.2398  0.5048
 2372SOL    HW118752   0.957   0.248   3.931 -1.6518 -2.2454 -2.4518
 2372SOL    HW218753   0.902   0.380   3.897 -2.4973  2.2837  2.1617
 2373SOL     OW18754   1.976   2.148   2.616 -0.2782  0.0535 -0.1308
 2373SOL    HW118755   1.938   2.132   2.702 -0.3289  2.4870  0.2961
 2373SOL    HW218756   1.909   2.183   2.557 -0.3449 -3.0995 -1.9276
 2374SOL     OW18757   1.978   2.738   1.766  0.0028  0.2342  0.2705
 2374SOL    HW118758   1.995   2.820   1.719  4.1319 -0.5372  0.4760
 2374SOL    HW218759   2.028   2.673   1.717 -4.6184 -1.8592 -1.7029
 2375SOL     OW18760   4.236   0.390  16.866 -0.0487 -0.3551  0.0954
 2375SOL    HW118761   4.241   0.485  16.854 -0.3926 -0.2200  1.0334
 2375SOL    HW218762   4.251   0.369  16.774  0.3962  0.5643 -0.0370
 2376SOL     OW18763   1.135   3.782   8.953 -0.0872 -0.0088  0.0803
 2376SOL    HW118764   1.216   3.765   8.905 -0.3440  0.0269 -0.3713
 2376SOL    HW218765   1.114   3.699   8.995  0.7791  0.0947  0.7177
 2377SOL     OW18766   0.549   4.106  17.662 -0.3451  0.2746 -0.5023
 2377SOL    HW118767   0.455   4.120  17.675 -0.9384 -0.6474 -3.7178
 2377SOL    HW218768   0.585   4.194  17.673  0.0452  0.2457 -1.5848
 2378SOL     OW18769   4.696   1.886   6.023  0.1122  0.2962  0.3272
 2378SOL    HW118770   0.003   1.801   6.022 -1.7742 -0.7141  3.9090
 2378SOL    HW218771   4.647   1.871   5.942  0.1041  1.1020  0.1793
 2379SOL     OW18772   4.307   4.516   7.415  0.2364  0.5075 -0.3426
 2379SOL    HW118773   4.386   4.488   7.369  0.5028 -0.7109  0.8270
 2379SOL    HW218774   4.287   4.432   7.457 -0.7006 -0.1457 -2.1230
 2380SOL     OW18775   4.020   4.605  13.383  0.0632 -0.5942  0.2414
 2380SOL    HW118776   4.056   4.554  13.455 -1.9274 -0.5407  1.2898
 2380SOL    HW218777   4.019   4.695  13.417  0.1878 -0.4423 -0.1579
 2381SOL     OW18778   1.324   0.701  16.814  0.2785  0.7339  0.2994
 2381SOL    HW118779   1.253   0.752  16.854  0.1250 -0.5066  1.6083
 2381SOL    HW218780   1.400   0.699  16.872 -0.5538 -1.1409  1.3204
 2382SOL     OW18781   0.418   0.955   8.847 -0.0681 -0.1517 -0.8226
 2382SOL    HW118782   0.480   0.906   8.900  0.1984  1.2641  0.1625
 2382SOL    HW218783   0.351   0.972   8.914 -0.6871 -1.0886 -1.1978
 2383SOL     OW18784   3.668   3.509   3.725  0.3222  0.5349  0.0236
 2383SOL    HW118785   3.632   3.572   3.789  1.1208  0.1776  0.8239
 2383SOL    HW218786   3.754   3.545   3.701 -1.1545  1.2298 -4.1762
 2384SOL     OW18787   2.440   0.450   8.544 -0.0576 -0.3185 -0.0405
 2384SOL    HW118788   2.406   0.365   8.570 -0.2915 -0.4153 -0.6881
 2384SOL    HW218789   2.501   0.466   8.617  1.2123 -0.7724 -1.0170
 2385SOL     OW18790   2.086   0.194  16.944 -0.3891 -0.9241  0.1377
 2385SOL    HW118791   2.094   0.133  16.871 -0.8040 -0.4567 -0.2964
 2385SOL    HW218792   2.111   0.137  17.017 -0.9969  0.2105  1.2432
 2386SOL     OW18793   4.677   2.671   6.894  0.7896  0.6920 -0.2653
 2386SOL    HW118794   4.627   2.638   6.969  0.0508  0.1968 -0.9788
 2386SOL    HW218795   4.664   2.598   6.834 -0.2338 -1.1720  2.2135
 2387SOL     OW18796   2.270   0.079   4.448  0.2955 -0.2650 -0.0443
 2387SOL    HW118797   2.334   0.015   4.480  0.5730 -0.1895 -0.4486
 2387SOL    HW218798   2.335   0.134   4.402 -0.2427  0.0043 -0.4879
 2388SOL     OW18799   3.170   0.780   3.352  0.3448  0.6408  0.2083
 2388SOL    HW118800   3.128   0.860   3.323 -0.2697  0.2888  0.1415
 2388SOL    HW218801   3.118   0.762   3.430  1.0671 -2.4241 -0.0077
 2389SOL     OW18802   0.499   4.441  11.234 -0.0705 -0.0243  0.6994
 2389SOL    HW118803   0.430   4.431  11.299 -0.7457  0.1997  0.0211
 2389SOL    HW218804   0.464   4.373  11.176  2.1266 -1.5218  1.1327
 2390SOL     OW18805   2.987   4.561   8.731 -0.0079 -0.8744  1.3549
 2390SOL    HW118806   2.982   4.479   8.682 -0.3307 -1.7531  2.8749
 2390SOL    HW218807   2.908   4.553   8.784 -1.4867 -4.2144 -1.3061
 2391SOL     OW18808   2.965   3.209   6.079 -0.0887 -0.1886  0.1301
 2391SOL    HW118809   3.031   3.277   6.068  0.4584 -0.3296  2.6920
 2391SOL    HW218810   2.890   3.250   6.035 -0.6665 -0.9901  0.3652
 2392SOL     OW18811   0.849   3.218   0.686 -0.0157 -0.3477 -0.1000
 2392SOL    HW118812   0.804   3.152   0.737 -2.1853  0.1579 -1.3588
 2392SOL    HW218813   0.780   3.281   0.664 -0.3764 -0.5038  0.6198
 2393SOL     OW18814   4.160   4.354   1.410  0.5484  0.0401  0.3241
 2393SOL    HW118815   4.120   4.312   1.334  1.6314  0.9245 -0.7401
 2393SOL    HW218816   4.117   4.315   1.486  0.7280  1.8715  1.3714
 2394SOL     OW18817   2.512   2.402  14.192 -0.2536 -0.0402 -0.1900
 2394SOL    HW118818   2.523   2.433  14.102  0.3990  0.9127  0.2114
 2394SOL    HW218819   2.591   2.447  14.224  0.2276 -0.6980 -0.4474
 2395SOL     OW18820   1.416   1.755   7.500  0.3276 -0.0698 -0.0555
 2395SOL    HW118821   1.484   1.711   7.551 -1.3979 -0.1973  2.1267
 2395SOL    HW218822   1.412   1.847   7.527 -0.6566  0.5708 -2.4065
 2396SOL     OW18823   3.799   3.234   6.344  0.6210 -0.2075 -0.3159
 2396SOL    HW118824   3.811   3.140   6.356 -1.8182 -0.6365 -1.2863
 2396SOL    HW218825   3.802   3.241   6.249  1.1934  2.7674 -0.0999
 2397SOL     OW18826   1.550   0.323   2.499  0.4540 -0.0395 -0.1263
 2397SOL    HW118827   1.619   0.340   2.435  1.7304 -1.2635  0.9283
 2397SOL    HW218828   1.477   0.285   2.450 -0.7132 -1.0808  2.3901
 2398SOL     OW18829   0.185   3.265   0.873 -0.1355 -0.0302  0.4715
 2398SOL    HW118830   0.132   3.195   0.911  0.1975 -0.2242  0.5809
 2398SOL    HW218831   0.251   3.280   0.941 -1.6981  1.5640  1.6422
 2399SOL     OW18832   1.972   2.379   7.658  0.1130 -0.3699 -0.0614
 2399SOL    HW118833   2.050   2.433   7.651  0.4244 -0.7049  0.8244
 2399SOL    HW218834   1.915   2.425   7.718  0.2288 -1.3108  0.7661
 2400SOL     OW18835   2.109   1.543   4.951 -0.4825 -0.0207 -0.2965
 2400SOL    HW118836   2.062   1.576   5.027  1.0174  2.0534 -0.2790
 2400SOL    HW218837   2.037   1.537   4.889  0.0788 -1.0886 -0.8594
 2401SOL     OW18838   1.271   2.107  13.105  0.1949  0.0413 -0.5370
 2401SOL    HW118839   1.359   2.139  13.123 -1.3114  3.9070  0.0156
 2401SOL    HW218840   1.303   2.019  13.085  0.7655  0.1558 -0.1058
 2402SOL     OW18841   2.726   4.419  16.505 -0.4894 -0.0788 -0.1881
 2402SOL    HW118842   2.711   4.475  16.428  0.2490  0.2932 -0.0626
 2402SOL    HW218843   2.640   4.432  16.545 -1.1985  0.1498 -1.7712
 2403SOL     OW18844   2.218   1.380  14.528 -0.3195 -0.3297  0.2875
 2403SOL    HW118845   2.132   1.368  14.568 -0.8710  0.1721 -0.7344
 2403SOL    HW218846   2.225   1.475  14.517  2.4608 -0.6177 -0.4518
 2404SOL     OW18847   4.457   2.794   1.962  0.1410 -0.3860  0.4524
 2404SOL    HW118848   4.408   2.743   1.897  0.3183 -0.0952  0.0886
 2404SOL    HW218849   4.543   2.757   1.942 -2.2001 -2.4335 -5.7582
 2405SOL     OW18850   1.788   3.512  14.034  0.2057  0.1532 -0.1129
 2405SOL    HW118851   1.749   3.561  13.962 -3.2084 -1.0545  0.9173
 2405SOL    HW218852   1.881   3.533  14.030 -0.3569  2.6084 -0.1046
 2406SOL     OW18853   2.781   3.873   3.332  0.5896 -0.4237 -0.1531
 2406SOL    HW118854   2.787   3.865   3.427 -2.1233  0.0620  0.0483
 2406SOL    HW218855   2.688   3.853   3.324 -0.1913  2.0914  3.0805
 2407SOL     OW18856   1.539   3.430   0.344  0.6321 -0.1649  0.3919
 2407SOL    HW118857   1.483   3.423   0.422 -1.0205  3.6185 -0.4587
 2407SOL    HW218858   1.577   3.342   0.346  0.5122 -0.2484 -1.9109
 2408SOL     OW18859   3.092   2.416   7.584 -0.2982  0.0324 -0.1507
 2408SOL    HW118860   3.141   2.405   7.502  0.2023 -1.6845  0.3906
 2408SOL    HW218861   3.162   2.450   7.640  0.5795 -1.7778 -0.1505
 2409SOL     OW18862   2.646   4.270   5.981 -0.5795  0.1414 -0.3031
 2409SOL    HW118863   2.692   4.187   5.965  1.5594  1.4472 -1.0049
 2409SOL    HW218864   2.688   4.319   5.910 -1.7009  1.0101 -0.3732
 2410SOL     OW18865   2.300   2.349   6.997  0.3030 -0.5175 -0.0255
 2410SOL    HW118866   2.349   2.285   6.946 -1.3217 -1.4957 -0.3474
 2410SOL    HW218867   2.335   2.433   6.970  0.9746 -0.6949  0.2874
 2411SOL     OW18868   1.359   3.809  17.413 -0.6076 -0.4175 -0.2270
 2411SOL    HW118869   1.276   3.855  17.405 -0.3955 -0.0513 -0.3273
 2411SOL    HW218870   1.419   3.883  17.404 -1.3046  0.0329 -1.0645
 2412SOL     OW18871   2.725   3.628   1.516 -0.2509  0.8333  0.0154
 2412SOL    HW118872   2.640   3.585   1.527  1.4308 -2.6491 -0.4627
 2412SOL    HW218873   2.783   3.553   1.529  0.9744  2.0136  1.1718
 2413SOL     OW18874   0.998   1.416   8.000  0.3086 -0.7888 -0.1823
 2413SOL    HW118875   0.963   1.332   7.970 -1.5311  0.7193 -2.2811
 2413SOL    HW218876   1.090   1.391   7.992  1.3363  2.1631  2.3231
 2414SOL     OW18877   4.686   2.880   5.585  0.5463 -0.7633 -0.2561
 2414SOL    HW118878   4.697   2.785   5.590  0.5057 -0.8107 -1.1516
 2414SOL    HW218879   0.034   2.916   5.611  1.5558 -1.6087 -2.3882
 2415SOL     OW18880   1.271   0.381   9.735  0.5441  0.1051  0.0645
 2415SOL    HW118881   1.364   0.403   9.742  0.6316  0.3169 -1.8006
 2415SOL    HW218882   1.267   0.292   9.771  2.0298  0.7631  1.8815
 2416SOL     OW18883   0.706   0.789   4.885 -0.4711 -0.0461  0.3810
 2416SOL    HW118884   0.721   0.766   4.793 -1.9925 -1.3941  0.4673
 2416SOL    HW218885   0.622   0.744   4.892  0.4273 -1.7532  0.3384
 2417SOL     OW18886   0.015   3.952   8.552 -0.0971 -0.1064 -0.4993
 2417SOL    HW118887   4.658   3.935   8.549 -0.2651  0.1467  3.2347
 2417SOL    HW218888   0.044   3.923   8.466  0.5443  0.5484 -0.4975
 2418SOL     OW18889   1.367   1.559   4.583 -0.0617  0.4194 -0.2436
 2418SOL    HW118890   1.379   1.548   4.677 -1.4252 -3.0660 -0.4426
 2418SOL    HW218891   1.294   1.621   4.578 -1.4332 -1.1305  0.5354
 2419SOL     OW18892   4.241   3.151   6.152  0.1918  0.0199 -0.3618
 2419SOL    HW118893   4.219   3.228   6.203  0.5641 -0.6069  0.7450
 2419SOL    HW218894   4.155   3.124   6.119  1.0385 -2.0926 -0.8487
 2420SOL     OW18895   3.252   2.573   5.186  0.0576 -0.2287  0.0553
 2420SOL    HW118896   3.322   2.510   5.204  1.6600  1.8377  1.0820
 2420SOL    HW218897   3.247   2.618   5.270 -0.1886  0.2223 -0.2039
 2421SOL     OW18898   4.031   2.001   4.630 -0.4415  0.1938 -0.2486
 2421SOL    HW118899   4.122   2.014   4.657 -0.4784  1.8432 -0.8613
 2421SOL    HW218900   3.988   2.082   4.658  2.1042  1.6290 -0.4990
 2422SOL     OW18901   1.306   3.788   2.599  0.1390 -0.5597  0.2235
 2422SOL    HW118902   1.387   3.750   2.566  1.3153  1.8031  0.4058
 2422SOL    HW218903   1.250   3.713   2.580  1.4684 -0.4117 -4.2410
 2423SOL     OW18904   2.358   4.090   4.105  0.1262 -0.2169  0.1489
 2423SOL    HW118905   2.265   4.068   4.097 -0.5015  2.3604  0.1539
 2423SOL    HW218906   2.360   4.137   4.189 -2.1599 -1.3318  0.8343
 2424SOL     OW18907   2.364   2.456   2.021 -0.4410  0.5888 -0.0528
 2424SOL    HW118908   2.427   2.460   2.093  0.7119 -1.5012 -0.9566
 2424SOL    HW218909   2.276   2.484   2.047 -1.1773 -0.5356 -1.3229
 2425SOL     OW18910   1.782   3.467   8.968 -0.0803 -0.2227  0.0606
 2425SOL    HW118911   1.816   3.524   8.899 -0.4135  2.1978  1.8955
 2425SOL    HW218912   1.862   3.434   9.009 -1.6296 -1.5064  2.0404
 2426SOL     OW18913   0.988   3.153   6.624 -0.7240  0.1711  0.1783
 2426SOL    HW118914   0.945   3.071   6.648  0.5545 -0.6381 -0.2611
 2426SOL    HW218915   0.929   3.205   6.678 -1.4814 -0.5742  0.0673
 2427SOL     OW18916   0.975   3.162   3.120 -0.1286  0.7647  0.3935
 2427SOL    HW118917   1.053   3.144   3.068 -0.0675 -0.3452  0.8696
 2427SOL    HW218918   0.928   3.211   3.053  0.5609 -1.8964 -2.0126
 2428SOL     OW18919   1.898   2.528   5.445 -0.8400 -0.0174  0.7649
 2428SOL    HW118920   1.859   2.469   5.509  0.2006 -2.1812 -0.6083
 2428SOL    HW218921   1.888   2.617   5.480  0.2216  0.1457  0.6488
 2429SOL     OW18922   4.685   4.382   0.979  0.5562  0.3746  0.3254
 2429SOL    HW118923   0.022   4.420   1.026 -0.7604  2.2456  0.9116
 2429SOL    HW218924   4.622   4.369   1.050  1.2602 -1.0251  0.6887
 2430SOL     OW18925   0.109   1.918   7.034  0.4840  0.4167  0.0287
 2430SOL    HW118926   0.194   1.914   7.076  0.0277  0.2884  0.9308
 2430SOL    HW218927   0.051   1.951   7.103  0.7891  2.1636 -0.5347
 2431SOL     OW18928   3.727   4.278  13.357  0.3288  0.2583  0.1142
 2431SOL    HW118929   3.743   4.196  13.402  0.2209  0.3319  0.2881
 2431SOL    HW218930   3.748   4.333  13.432 -0.6508 -2.4388  2.3186
 2432SOL     OW18931   3.100   2.273   9.256 -0.3433 -0.1225 -0.4972
 2432SOL    HW118932   3.185   2.231   9.270  0.3563  2.2869  2.3042
 2432SOL    HW218933   3.043   2.251   9.330 -2.3530 -0.8497 -2.2532
 2433SOL     OW18934   3.681   2.861   7.821 -0.4577 -0.4375  0.1901
 2433SOL    HW118935   3.716   2.774   7.839  0.0825 -0.0019  1.2686
 2433SOL    HW218936   3.597   2.851   7.865 -0.9608 -1.2162 -0.9768
 2434SOL     OW18937   0.067   2.906   4.117  0.6638 -0.2187  0.1602
 2434SOL    HW118938   0.099   2.859   4.040  0.1744 -0.8620  0.3473
 2434SOL    HW218939   0.004   2.846   4.157 -1.6048  1.5959 -0.6662
 2435SOL     OW18940   2.222   0.976   8.793 -0.0867 -0.0723  0.3389
 2435SOL    HW118941   2.187   1.063   8.812  2.8882  0.5124  3.0391
 2435SOL    HW218942   2.196   0.970   8.701  1.3577  2.7773 -0.2643
 2436SOL     OW18943   4.514   1.792   5.206  0.5565 -0.2395 -0.8128
 2436SOL    HW118944   4.532   1.883   5.230 -2.5580  0.6362 -1.8600
 2436SOL    HW218945   4.428   1.777   5.246  0.0575 -2.2107 -2.6196
 2437SOL     OW18946   1.175   1.207   7.345  0.1570  0.0370  0.2865
 2437SOL    HW118947   1.184   1.151   7.268 -1.6166 -0.8165  0.7056
 2437SOL    HW218948   1.144   1.288   7.304 -1.4735 -1.1598 -0.8491
 2438SOL     OW18949   3.564   2.917   3.377 -0.1338 -0.1388  0.4589
 2438SOL    HW118950   3.491   2.926   3.438  0.5688  2.3770  0.9202
 2438SOL    HW218951   3.623   2.890   3.446 -1.2531 -3.1742  0.2376
 2439SOL     OW18952   1.140   4.040   2.376  0.4539 -0.4954  0.3064
 2439SOL    HW118953   1.233   4.059   2.391  1.0414 -2.2041 -1.2276
 2439SOL    HW218954   1.112   4.055   2.467 -1.9625  0.6230 -0.6243
 2440SOL     OW18955   3.091   3.222   9.661  0.0352 -0.5000 -0.2238
 2440SOL    HW118956   3.059   3.190   9.745  0.6548 -0.1658  0.1450
 2440SOL    HW218957   3.107   3.316   9.674  1.7279 -0.8258  0.0897
 2441SOL     OW18958   0.138   1.106  11.407 -0.1155 -0.3690  0.0578
 2441SOL    HW118959   0.162   1.161  11.481 -1.5276  0.6606 -0.2444
 2441SOL    HW218960   0.206   1.137  11.347  0.9316 -2.2316  0.2803
 2442SOL     OW18961   2.646   1.638   9.379  0.1856  0.0016  0.1868
 2442SOL    HW118962   2.708   1.572   9.349  1.7716  0.1781  2.9960
 2442SOL    HW218963   2.673   1.652   9.470  0.6438 -0.3742  0.1096
 2443SOL     OW18964   1.820   2.614   5.847  0.3415  0.4130 -0.7361
 2443SOL    HW118965   1.763   2.691   5.849 -2.2668 -1.5217 -0.7825
 2443SOL    HW218966   1.845   2.629   5.756 -0.1668  3.0154 -0.4662
 2444SOL     OW18967   2.698   2.586   8.243 -0.5516  0.3221 -0.0781
 2444SOL    HW118968   2.607   2.609   8.265 -1.0507 -1.0867 -0.6916
 2444SOL    HW218969   2.753   2.658   8.274 -0.4227  0.6564 -1.0610
 2445SOL     OW18970   2.350   4.114   3.826  1.0007 -0.1455 -0.0321
 2445SOL    HW118971   2.437   4.137   3.794  0.7970 -2.4694 -2.2212
 2445SOL    HW218972   2.363   4.116   3.921  1.3884  5.1657 -0.2014
 2446SOL     OW18973   4.301   2.626   1.810 -0.3151  0.2494 -0.3076
 2446SOL    HW118974   4.215   2.663   1.834  1.1441  3.5722 -0.1874
 2446SOL    HW218975   4.293   2.534   1.836  2.7385 -0.5109 -2.1787
 2447SOL     OW18976   1.520   3.335   7.910  0.4024 -0.3725  0.3940
 2447SOL    HW118977   1.463   3.336   7.988  0.9865 -0.2791  0.8158
 2447SOL    HW218978   1.479   3.256   7.874 -0.6150  0.6650 -0.7411
 2448SOL     OW18979   0.251   3.912   5.240 -0.4220 -0.6458 -0.5919
 2448SOL    HW118980   0.176   3.969   5.222 -0.9180 -0.8621  0.8027
 2448SOL    HW218981   0.282   3.942   5.326 -1.3447  0.7696 -0.7590
 2449SOL     OW18982   2.759   1.194   6.898  0.4467 -0.1647  0.1996
 2449SOL    HW118983   2.830   1.218   6.957  0.5234  1.6799 -0.6421
 2449SOL    HW218984   2.749   1.100   6.917  0.9884 -0.3710 -0.4957
 2450SOL     OW18985   0.800   2.053   5.644  0.0729 -0.3704  0.3463
 2450SOL    HW118986   0.844   2.011   5.718  2.4844 -0.6465 -1.2360
 2450SOL    HW218987   0.875   2.080   5.591  0.6729  0.0304  1.3884
 2451SOL     OW18988   2.383   3.676   4.005 -0.1735  0.1842  0.3119
 2451SOL    HW118989   2.379   3.619   3.928 -3.7352  0.0157  0.6398
 2451SOL    HW218990   2.337   3.753   3.972 -2.5316 -0.8565  1.2223
 2452SOL     OW18991   2.832   0.027  17.577 -0.0702  0.1859 -0.0701
 2452SOL    HW118992   2.813   4.679  17.615 -2.8253  0.2397 -1.3200
 2452SOL    HW218993   2.744   0.063  17.585  0.3779  1.1701  0.4224
 2453SOL     OW18994   2.393   4.066   1.291  0.3761 -0.3253  0.4868
 2453SOL    HW118995   2.303   4.056   1.321  0.0073  0.4185 -0.3717
 2453SOL    HW218996   2.436   4.063   1.376 -1.5094 -0.6667  1.4261
 2454SOL     OW18997   1.656   2.112  11.152 -0.1168 -0.2073 -0.0344
 2454SOL    HW118998   1.721   2.180  11.166 -1.2556  0.5267  1.7043
 2454SOL    HW218999   1.669   2.060  11.231 -1.5375 -2.1185 -1.0379
 2455SOL     OW19000   3.643   2.482   9.122 -0.3286 -0.7795  0.8342
 2455SOL    HW119001   3.707   2.423   9.081 -0.0097 -0.4684  0.8758
 2455SOL    HW219002   3.656   2.569   9.084 -1.0332 -0.9023  0.3243
 2456SOL     OW19003   0.008   3.842  15.259 -0.1508  0.0725  0.0966
 2456SOL    HW119004   0.007   3.854  15.164 -0.6226  0.9443  0.2072
 2456SOL    HW219005   0.057   3.760  15.270  0.9649  0.7047 -0.1077
 2457SOL     OW19006   2.736   4.373   9.389  0.8346 -0.5898 -0.3930
 2457SOL    HW119007   2.743   4.451   9.335 -0.8589  0.3937  0.7857
 2457SOL    HW219008   2.642   4.374   9.408  0.6252 -0.2887 -1.4431
 2458SOL     OW19009   0.631   0.076   6.783 -0.1598  0.3625  0.0431
 2458SOL    HW119010   0.679   0.085   6.700  2.2439  1.4349  1.5368
 2458SOL    HW219011   0.641   4.721   6.804 -0.5544  0.3680  0.2443
 2459SOL     OW19012   1.072   1.155   2.784  0.7580  0.1544 -0.0156
 2459SOL    HW119013   1.160   1.122   2.801  0.8896  0.5403  0.0441
 2459SOL    HW219014   1.018   1.092   2.832 -0.0565  1.1708  0.4133
 2460SOL     OW19015   4.716   1.482   7.208  0.5507  0.1803 -0.3299
 2460SOL    HW119016   4.686   1.399   7.245  0.2559  0.6764  0.5417
 2460SOL    HW219017   4.732   1.444   7.121  0.8392  2.2963 -1.2055
 2461SOL     OW19018   2.224   4.445   4.793 -0.0637  0.4733 -0.0897
 2461SOL    HW119019   2.273   4.395   4.858 -1.2515  1.1104  1.2871
 2461SOL    HW219020   2.297   4.459   4.733 -0.4247  2.1398 -0.1672
 2462SOL     OW19021   2.871   2.317   3.343  0.5497 -0.2277  0.2638
 2462SOL    HW119022   2.922   2.261   3.402 -0.5540 -2.1102 -0.5734
 2462SOL    HW219023   2.782   2.294   3.370  0.2433 -0.8473 -1.3165
 2463SOL     OW19024   0.157   0.889  13.375  0.2427 -0.5225 -0.0217
 2463SOL    HW119025   0.251   0.884  13.357  0.0250 -0.9782 -1.0153
 2463SOL    HW219026   0.132   0.814  13.321  0.6917  0.9604 -2.2894
 2464SOL     OW19027   4.198   4.554  11.194  0.3841  0.4385  0.5171
 2464SOL    HW119028   4.114   4.559  11.148 -0.7116  0.3925  2.4996
 2464SOL    HW219029   4.249   4.514  11.124  1.8225  1.0935  1.2002
 2465SOL     OW19030   1.325   3.919   0.344  0.2702  0.3868  0.4159
 2465SOL    HW119031   1.345   3.937   0.252  0.1890 -0.1242  0.2968
 2465SOL    HW219032   1.319   3.824   0.353  0.7445  0.1293 -2.0539
 2466SOL     OW19033   4.688   1.391   5.103  0.3038  0.2487 -0.1075
 2466SOL    HW119034   0.022   1.361   5.047  0.0472 -1.1225  0.2796
 2466SOL    HW219035   4.676   1.315   5.160 -0.2994 -0.3206 -0.9940
 2467SOL     OW19036   1.293   0.987   5.326  0.0114  0.2807 -0.0243
 2467SOL    HW119037   1.313   0.896   5.306 -0.1946  0.2323 -0.0118
 2467SOL    HW219038   1.370   1.032   5.290  0.5303 -0.3519  0.2981
 2468SOL     OW19039   2.593   4.404   1.406  0.0915  0.3336 -1.1021
 2468SOL    HW119040   2.682   4.371   1.392  0.4821  0.6512  0.6897
 2468SOL    HW219041   2.562   4.385   1.317  1.1612  1.1302 -1.6412
 2469SOL     OW19042   1.652   3.923  15.669 -0.0707  0.4988 -0.1688
 2469SOL    HW119043   1.569   3.941  15.624  0.3327  0.2692 -1.0053
 2469SOL    HW219044   1.688   3.866  15.601 -0.5351 -0.2011  0.1763
 2470SOL     OW19045   0.661   4.022   3.797 -0.0912 -0.2523  0.0727
 2470SOL    HW119046   0.743   4.010   3.845  0.5802  0.8755 -0.7976
 2470SOL    HW219047   0.653   3.935   3.759 -0.3815 -0.3526  0.3658
 2471SOL     OW19048   2.936   3.116   2.515 -0.0313 -0.1797  0.2274
 2471SOL    HW119049   2.975   3.047   2.461  0.0981 -0.3916  0.5846
 2471SOL    HW219050   2.994   3.106   2.591 -0.8768 -0.2339  0.8690
 2472SOL     OW19051   1.066   0.542   0.219 -0.6374  0.7899 -0.5363
 2472SOL    HW119052   1.048   0.451   0.243  1.4827  0.4630 -0.2224
 2472SOL    HW219053   1.155   0.541   0.185 -0.1555  1.1497  0.6977
 2473SOL     OW19054   3.421   3.394  15.346 -0.3070 -0.0107  0.3048
 2473SOL    HW119055   3.375   3.313  15.325  0.8967 -0.4987 -0.4793
 2473SOL    HW219056   3.398   3.452  15.273 -1.7122 -1.3785 -0.3207
 2474SOL     OW19057   0.801   0.202   4.761 -0.0704  0.3593 -0.3052
 2474SOL    HW119058   0.713   0.168   4.744 -0.1100  0.3120  0.0030
 2474SOL    HW219059   0.842   0.211   4.675  0.8471 -1.1513 -0.0253
 2475SOL     OW19060   0.640   3.370   0.593 -0.0833  0.1908  0.3667
 2475SOL    HW119061   0.577   3.338   0.529 -0.6351  0.5917  0.7090
 2475SOL    HW219062   0.678   3.446   0.550 -0.1422 -0.1795 -0.3381
 2476SOL     OW19063   3.063   2.188   3.093 -0.3829 -0.4720  0.2721
 2476SOL    HW119064   3.145   2.224   3.127 -0.8460 -1.4010  2.3347
 2476SOL    HW219065   3.052   2.227   3.006 -1.5451  1.2082  1.1517
 2477SOL     OW19066   2.223   0.740  11.733  0.2533 -0.0905  0.0737
 2477SOL    HW119067   2.285   0.668  11.723  0.5057 -0.0346  1.2932
 2477SOL    HW219068   2.134   0.710  11.750  0.4944 -0.1229  1.2614
 2478SOL     OW19069   3.014   2.620   9.765 -0.1256 -0.6949 -0.4375
 2478SOL    HW119070   2.926   2.623   9.803 -0.6376 -2.2329 -1.5103
 2478SOL    HW219071   2.981   2.627   9.675  0.1768 -0.0852 -0.5068
 2479SOL     OW19072   0.469   3.503   3.666  0.5721 -0.8881 -0.2609
 2479SOL    HW119073   0.463   3.596   3.688  3.1134 -1.1349  1.4114
 2479SOL    HW219074   0.380   3.469   3.661  0.9855 -1.9762 -0.2977
 2480SOL     OW19075   2.733   4.340  12.681 -0.5627 -0.1513  0.1439
 2480SOL    HW119076   2.710   4.283  12.607  0.1799  0.2448 -0.3985
 2480SOL    HW219077   2.798   4.399  12.642 -0.2461  0.3242  1.3701
 2481SOL     OW19078   1.954   4.114   5.139 -0.3956 -0.2858  0.1411
 2481SOL    HW119079   1.883   4.054   5.115  0.8702 -1.2902 -1.1105
 2481SOL    HW219080   1.949   4.115   5.234  1.0287 -1.1800  0.2155
 2482SOL     OW19081   1.374   2.586  16.303 -0.1342  0.2607  0.4461
 2482SOL    HW119082   1.464   2.609  16.282 -0.5978  2.4791  0.9031
 2482SOL    HW219083   1.330   2.633  16.232  0.3725  0.5511  0.3249
 2483SOL     OW19084   1.623   2.217   6.473  0.3177  0.1652  0.2663
 2483SOL    HW119085   1.637   2.236   6.380  0.2013  1.5377  0.5374
 2483SOL    HW219086   1.717   2.224   6.490  1.0192 -1.6495 -2.6793
 2484SOL     OW19087   1.048   3.561   6.724  0.0793  0.0152  0.9419
 2484SOL    HW119088   0.996   3.553   6.805  0.2525  0.5696  1.1102
 2484SOL    HW219089   1.077   3.651   6.738 -0.3471 -0.1157  2.6907
 2485SOL     OW19090   2.802   4.256   2.635 -0.1763 -0.3248  0.5291
 2485SOL    HW119091   2.740   4.308   2.687 -0.7792 -1.3257  0.8123
 2485SOL    HW219092   2.886   4.292   2.663  0.1591  0.7741 -1.8676
 2486SOL     OW19093   3.625   3.147   5.194 -0.0854  0.1707  0.2512
 2486SOL    HW119094   3.537   3.110   5.195  0.2722 -0.7965 -2.1757
 2486SOL    HW219095   3.609   3.200   5.116 -0.8391  1.1128  1.0428
 2487SOL     OW19096   3.436   0.000   1.943 -0.3300  0.0734 -0.9345
 2487SOL    HW119097   3.365   0.013   2.005  1.4508 -3.3989  1.8216
 2487SOL    HW219098   3.390   4.718   1.861 -2.1750  0.1708  0.0990
 2488SOL     OW19099   1.868   0.505  12.557  0.0806 -0.4239  0.3620
 2488SOL    HW119100   1.955   0.464  12.559 -0.2045 -0.9386  2.5029
 2488SOL    HW219101   1.868   0.552  12.474 -2.9259 -2.6217 -0.9127
 2489SOL     OW19102   3.705   0.385   6.947 -0.6590  0.8295 -0.2200
 2489SOL    HW119103   3.759   0.410   7.022  2.3903 -0.2780 -2.0485
 2489SOL    HW219104   3.683   0.468   6.904 -2.0985  0.9707  0.8071
 2490SOL     OW19105   1.207   1.584   5.736 -0.3073  0.2505  0.4359
 2490SOL    HW119106   1.180   1.675   5.743  0.2900  0.2786  2.2353
 2490SOL    HW219107   1.298   1.595   5.708 -0.3620  0.2840  0.2727
 2491SOL     OW19108   1.638   3.632   2.169  0.0138  0.3228 -0.3535
 2491SOL    HW119109   1.609   3.542   2.181  0.3436 -0.1057 -2.7074
 2491SOL    HW219110   1.573   3.670   2.110 -0.8731 -0.4374  0.1533
 2492SOL     OW19111   1.840   1.580   6.302  0.2806  0.2424  0.6173
 2492SOL    HW119112   1.771   1.516   6.281  2.2448 -1.7134  0.0843
 2492SOL    HW219113   1.785   1.643   6.349  0.6203  0.7052  0.3925
 2493SOL     OW19114   2.815   3.971   7.400 -0.2659 -0.2188  0.9670
 2493SOL    HW119115   2.727   4.008   7.405  0.6387  2.1104 -0.4266
 2493SOL    HW219116   2.803   3.916   7.323 -0.8964  1.3069 -0.0225
 2494SOL     OW19117   3.598   4.139   8.180  0.3724 -0.1673 -0.2810
 2494SOL    HW119118   3.576   4.050   8.153  1.8800  0.0299 -2.1693
 2494SOL    HW219119   3.563   4.124   8.268  1.2385 -2.1826 -0.2869
 2495SOL     OW19120   2.672   2.470   4.886  0.0573 -0.0542 -0.1188
 2495SOL    HW119121   2.728   2.520   4.946  2.0420 -1.1490 -1.0821
 2495SOL    HW219122   2.636   2.399   4.938 -1.7512  2.9625  2.7115
 2496SOL     OW19123   0.276   3.237   6.047 -0.2647 -0.2320 -0.5258
 2496SOL    HW119124   0.189   3.201   6.060 -0.3347 -0.5374 -1.8744
 2496SOL    HW219125   0.316   3.179   6.112  0.7390 -1.2362 -2.0461
 2497SOL     OW19126   2.802   0.855  11.009 -0.2199  0.3823  0.1130
 2497SOL    HW119127   2.837   0.766  11.017  0.0005  0.4876  0.2822
 2497SOL    HW219128   2.823   0.871  10.917 -0.2648  0.0040  0.0352
 2498SOL     OW19129   0.366   0.389  14.770  0.5967 -0.1414  0.2578
 2498SOL    HW119130   0.358   0.483  14.751 -2.4964 -0.9396 -2.3676
 2498SOL    HW219131   0.454   0.370  14.737  1.3037  3.4563  0.0048
 2499SOL     OW19132   3.227   2.163   6.641 -0.0854 -0.6345  0.4747
 2499SOL    HW119133   3.274   2.152   6.558 -1.4459 -1.1647 -0.2318
 2499SOL    HW219134   3.145   2.116   6.626 -0.1833 -0.6263  0.9996
 2500SOL     OW19135   3.522   2.471   7.655  0.5405  0.3497  0.4076
 2500SOL    HW119136   3.608   2.485   7.616 -0.1500  0.5293 -1.0219
 2500SOL    HW219137   3.501   2.399   7.596  0.2370  1.0874 -0.3731
 2501SOL     OW19138   1.537   2.090   1.441 -0.4990 -0.1094 -0.0550
 2501SOL    HW119139   1.574   2.049   1.519  2.5594  1.6561 -0.5550
 2501SOL    HW219140   1.465   2.028   1.434 -0.5996  0.2963 -2.7639
 2502SOL     OW19141   0.962   2.201  11.268 -0.5138  0.2746  0.6522
 2502SOL    HW119142   1.036   2.231  11.215 -1.2283 -2.1478 -1.6848
 2502SOL    HW219143   0.907   2.158  11.203  0.6150 -1.2757  0.7310
 2503SOL     OW19144   0.034   4.022   5.121  0.3820 -0.2990  0.0434
 2503SOL    HW119145   0.054   3.941   5.075  2.3518  0.8103 -1.0987
 2503SOL    HW219146   0.013   4.075   5.044  0.3148  0.5293  0.6285
 2504SOL     OW19147   3.235   0.534   2.222 -0.2134 -0.6630 -0.2637
 2504SOL    HW119148   3.220   0.622   2.187  0.7061 -0.4377 -0.1022
 2504SOL    HW219149   3.330   0.527   2.221 -0.1842 -0.2270 -0.5032
 2505SOL     OW19150   2.409   4.114   8.124 -0.2037  0.1697  0.0977
 2505SOL    HW119151   2.436   4.027   8.094 -2.6406 -0.3192 -0.7472
 2505SOL    HW219152   2.415   4.112   8.219  1.5323  0.0043 -0.0226
 2506SOL     OW19153   3.063   4.337   9.904  0.3245 -0.3609  0.0362
 2506SOL    HW119154   2.996   4.385   9.953  1.1558  0.6595  0.1829
 2506SOL    HW219155   3.125   4.410   9.898  0.2774 -0.5679 -2.9267
 2507SOL     OW19156   2.094   2.211   5.886  0.0361  0.1035  0.1634
 2507SOL    HW119157   2.142   2.290   5.911 -0.0069  0.8885 -2.2192
 2507SOL    HW219158   2.152   2.170   5.822  1.8904  1.2731  1.1195
 2508SOL     OW19159   1.150   3.764   9.586 -0.4574 -0.1383 -0.5391
 2508SOL    HW119160   1.120   3.844   9.630 -1.0910  0.2285 -1.6356
 2508SOL    HW219161   1.244   3.773   9.595 -0.6197  0.0248  0.9511
 2509SOL     OW19162   1.222   3.145   8.055  0.8546 -0.3174 -0.2050
 2509SOL    HW119163   1.293   3.132   7.992  3.2081  1.3659  2.1018
 2509SOL    HW219164   1.212   3.239   8.038 -1.4169 -0.3865  0.7256
 2510SOL     OW19165   1.928   1.634   0.540 -0.5329 -0.2801 -0.0648
 2510SOL    HW119166   1.873   1.567   0.580 -0.5499 -0.5732 -0.5839
 2510SOL    HW219167   1.996   1.647   0.606 -0.2557 -0.3178 -0.3450
 2511SOL     OW19168   2.868   3.764   3.566 -0.1720  0.0488  0.0299
 2511SOL    HW119169   2.922   3.801   3.636 -0.9676  1.6210 -0.1938
 2511SOL    HW219170   2.789   3.747   3.616 -0.4265 -2.3711 -1.2115
 2512SOL     OW19171   3.830   3.665  16.738 -0.0388 -0.0674 -0.4806
 2512SOL    HW119172   3.844   3.677  16.644 -1.4725 -0.2184 -0.7055
 2512SOL    HW219173   3.849   3.754  16.766 -0.1340 -0.7277  1.6488
 2513SOL     OW19174   2.365   1.612   4.548 -0.5690 -0.7166 -0.7203
 2513SOL    HW119175   2.284   1.574   4.515 -0.5940 -2.3001  1.1637
 2513SOL    HW219176   2.343   1.683   4.609  1.9315  1.4482 -2.3485
 2514SOL     OW19177   3.602   0.672  17.720  0.0463 -0.2931  0.3598
 2514SOL    HW119178   3.565   0.760  17.717  2.8371  0.7882 -1.9295
 2514SOL    HW219179   3.547   0.626  17.657 -0.9317  0.1651  0.8659
 2515SOL     OW19180   2.623   2.604   3.174 -0.3192 -0.1110  0.0770
 2515SOL    HW119181   2.530   2.604   3.151 -0.1045 -0.3663 -0.8052
 2515SOL    HW219182   2.615   2.584   3.267  0.0248 -1.9169 -0.2962
 2516SOL     OW19183   2.470   4.284   7.488 -0.4977  0.0466 -0.4835
 2516SOL    HW119184   2.482   4.329   7.405  2.1905  0.7042  0.2793
 2516SOL    HW219185   2.511   4.198   7.479 -2.2398 -0.8275 -0.0842
 2517SOL     OW19186   4.397   3.479   2.659 -0.2453  0.0334  0.3551
 2517SOL    HW119187   4.373   3.564   2.694 -1.3279  0.6518 -1.8910
 2517SOL    HW219188   4.418   3.417   2.729  0.8415 -1.9919 -1.7425
 2518SOL     OW19189   4.220   4.502   3.532 -0.1653 -0.7950  0.6433
 2518SOL    HW119190   4.128   4.483   3.550 -0.5422 -1.2847 -1.8363
 2518SOL    HW219191   4.201   4.573   3.472  0.4631 -1.2796 -0.1146
 2519SOL     OW19192   2.505   2.475   7.409 -0.6043 -0.1670 -0.8126
 2519SOL    HW119193   2.579   2.415   7.422  0.2740  0.9352 -0.7745
 2519SOL    HW219194   2.440   2.411   7.379 -1.5122  0.1882  0.3711
 2520SOL     OW19195   2.976   1.543   9.966 -0.1963 -0.0258 -0.2165
 2520SOL    HW119196   2.974   1.579   9.877  1.7414  2.0042  0.5721
 2520SOL    HW219197   2.964   1.449   9.952  2.2347 -0.3558  0.0126
 2521SOL     OW19198   2.617   2.926  17.046  0.6437 -0.4581 -0.2181
 2521SOL    HW119199   2.570   2.880  16.976 -0.2678 -0.6337  0.5045
 2521SOL    HW219200   2.633   2.866  17.119 -0.2472 -1.9194 -1.2136
 2522SOL     OW19201   3.404   0.846   1.648 -0.1117  0.4366 -0.1481
 2522SOL    HW119202   3.413   0.815   1.558 -2.3615 -0.3922 -0.0672
 2522SOL    HW219203   3.314   0.879   1.651 -0.8399 -1.6599  1.4961
 2523SOL     OW19204   3.608   4.130   9.075  0.3789  0.3466 -0.7134
 2523SOL    HW119205   3.691   4.174   9.057 -0.1132  2.2262  1.6287
 2523SOL    HW219206   3.646   4.046   9.050  0.9519  1.0094 -2.0995
 2524SOL     OW19207   3.977   2.390   4.955 -0.5673 -1.1831 -0.7306
 2524SOL    HW119208   3.931   2.355   4.879 -3.1222  0.1464  0.1691
 2524SOL    HW219209   3.961   2.330   5.028 -1.2553 -0.5368 -0.3435
 2525SOL     OW19210   1.677   1.288   6.793 -0.1234 -0.9205  0.3882
 2525SOL    HW119211   1.713   1.208   6.830  0.3868 -0.1054  1.6313
 2525SOL    HW219212   1.672   1.348   6.868 -0.5706 -0.6066  0.1129
 2526SOL     OW19213   4.208   4.523   1.820 -0.1673  0.7605 -0.2918
 2526SOL    HW119214   4.258   4.482   1.749 -2.1526 -1.1809 -0.5516
 2526SOL    HW219215   4.218   4.458   1.890 -0.3199  1.1882  0.1246
 2527SOL     OW19216   3.305   3.218   5.882 -0.2777  0.5281 -0.4400
 2527SOL    HW119217   3.384   3.190   5.836  0.7586  2.4665  0.1593
 2527SOL    HW219218   3.245   3.220   5.807 -1.5800  3.0157  0.6908
 2528SOL     OW19219   1.348   4.265   8.942  0.3413  0.2598  0.1814
 2528SOL    HW119220   1.347   4.170   8.928  3.9807  0.0458  1.3710
 2528SOL    HW219221   1.364   4.277   9.036  0.0466 -0.5671  0.3382
 2529SOL     OW19222   1.897   2.702   7.739  0.3316  0.0864 -0.4775
 2529SOL    HW119223   1.843   2.642   7.791  1.7872 -1.7483 -1.0652
 2529SOL    HW219224   1.855   2.788   7.746  0.0622 -0.1380  0.7259
 2530SOL     OW19225   1.274   0.541   3.385  0.3810  0.6887 -0.0151
 2530SOL    HW119226   1.210   0.477   3.353  0.7553  0.1417  0.3386
 2530SOL    HW219227   1.355   0.497   3.359 -0.1455 -1.4528  1.9825
 2531SOL     OW19228   2.581   2.543   9.870  0.1415 -0.1148  0.3046
 2531SOL    HW119229   2.593   2.452   9.895  1.3720  0.1968  0.8666
 2531SOL    HW219230   2.486   2.548   9.864  0.2856  0.1675 -1.8084
 2532SOL     OW19231   3.984   2.052   9.102  0.3566  0.3695  0.1013
 2532SOL    HW119232   3.990   1.957   9.109 -1.5915  0.3530  1.4580
 2532SOL    HW219233   4.059   2.091   9.147 -0.0553  0.8357  0.3932
 2533SOL     OW19234   0.144   4.492   1.743  0.3279  0.6525 -0.0754
 2533SOL    HW119235   0.082   4.420   1.727 -0.6134  1.8762 -1.9544
 2533SOL    HW219236   0.107   4.525   1.824  2.8453  2.4324  0.3274
 2534SOL     OW19237   4.659   0.967   1.431  0.4783  0.6236  0.2605
 2534SOL    HW119238   4.595   1.005   1.371 -0.5478 -1.1392  0.2398
 2534SOL    HW219239   4.610   0.894   1.469 -0.9074  0.7857 -1.2556
 2535SOL     OW19240   0.924   4.417  16.854  0.0309  0.1929 -0.0160
 2535SOL    HW119241   0.944   4.434  16.946 -1.7471 -2.5844  0.8718
 2535SOL    HW219242   1.001   4.448  16.806  0.2888 -0.8268 -0.2677
 2536SOL     OW19243   3.465   1.308   7.818 -0.0890 -0.3108  0.0333
 2536SOL    HW119244   3.494   1.232   7.767 -0.2122  0.0908 -0.6314
 2536SOL    HW219245   3.546   1.332   7.862  0.4124 -0.3151 -0.8977
 2537SOL     OW19246   1.273   4.543   2.018 -0.8498  0.1844  0.0455
 2537SOL    HW119247   1.187   4.533   1.978 -1.0953 -0.8868  0.8359
 2537SOL    HW219248   1.329   4.471   1.991 -0.2141  0.9286 -0.6152
 2538SOL     OW19249   3.306   4.565  17.155  0.0646 -0.4308 -0.2070
 2538SOL    HW119250   3.217   4.588  17.179 -0.6701 -1.1126 -2.3224
 2538SOL    HW219251   3.332   4.509  17.229 -0.9271 -0.6123  0.0049
 2539SOL     OW19252   2.097   4.098  14.330 -0.0961  0.5262  0.1500
 2539SOL    HW119253   2.066   4.140  14.250 -0.3294  0.7405  0.3534
 2539SOL    HW219254   2.128   4.174  14.379 -0.0528  0.2939  0.4867
 2540SOL     OW19255   3.549   4.150   0.147 -0.5677 -0.0412 -0.2961
 2540SOL    HW119256   3.456   4.134   0.136 -1.1465  0.9864  3.0889
 2540SOL    HW219257   3.559   4.245   0.150 -1.5863  0.1078 -2.0036
 2541SOL     OW19258   3.964   2.488   6.422  0.6818  0.8180 -0.7822
 2541SOL    HW119259   3.890   2.517   6.476  1.3175  1.9327 -0.5135
 2541SOL    HW219260   4.029   2.536   6.473  0.2534  0.6385 -0.0636
 2542SOL     OW19261   3.007   1.775   5.228  0.2602 -0.2902  0.3643
 2542SOL    HW119262   2.997   1.869   5.220  0.1003 -0.3382 -0.0197
 2542SOL    HW219263   2.932   1.751   5.283  0.9047  0.4834  1.5713
 2543SOL     OW19264   4.341   3.747   3.785  0.2621 -0.2419 -0.1952
 2543SOL    HW119265   4.430   3.760   3.751 -0.0821 -2.3128 -1.9247
 2543SOL    HW219266   4.313   3.839   3.791  0.1885 -0.4452  2.3084
 2544SOL     OW19267   2.205   1.972   6.124  0.0211  0.4375 -0.4468
 2544SOL    HW119268   2.257   2.053   6.125 -0.9853  1.0860  0.3140
 2544SOL    HW219269   2.169   1.960   6.212  1.0903 -1.4616 -0.2775
 2545SOL     OW19270   0.147   3.389   6.916  0.2077 -0.0128  0.0048
 2545SOL    HW119271   0.125   3.316   6.974 -1.7466  0.5197 -0.0648
 2545SOL    HW219272   0.059   3.422   6.898  0.8690  0.9499 -1.4865
 2546SOL     OW19273   2.452   3.254   2.850  0.0128 -0.4681 -0.1864
 2546SOL    HW119274   2.407   3.338   2.841  1.5514  0.3739  0.0032
 2546SOL    HW219275   2.375   3.197   2.863 -0.5728 -0.3587 -3.0501
 2547SOL     OW19276   1.033   3.089  15.351  0.2297  0.1947 -0.2906
 2547SOL    HW119277   0.976   3.144  15.297  2.8799  2.9365 -0.3471
 2547SOL    HW219278   1.040   3.139  15.433  1.3283 -2.5035  1.2481
 2548SOL     OW19279   1.505   0.172   7.931 -0.1318 -0.4159  0.4502
 2548SOL    HW119280   1.594   0.181   7.899 -0.9781  0.3515 -1.6688
 2548SOL    HW219281   1.507   0.102   7.996 -2.3358  0.5732  1.6023
 2549SOL     OW19282   3.810   2.506   4.274  0.1418 -0.0327  0.1638
 2549SOL    HW119283   3.732   2.501   4.219  0.8386 -0.5906 -0.7455
 2549SOL    HW219284   3.818   2.593   4.314  2.3115 -0.3843  0.4888
 2550SOL     OW19285   1.866   0.527   6.972  0.8624 -0.0362 -0.2319
 2550SOL    HW119286   1.906   0.459   7.027  1.5343  0.5871  0.0582
 2550SOL    HW219287   1.915   0.512   6.891  0.6716 -0.3293 -0.2932
 2551SOL     OW19288   1.402   3.932   4.467  0.3491 -0.7676 -0.7240
 2551SOL    HW119289   1.432   3.892   4.549 -1.5793 -2.3658 -0.7960
 2551SOL    HW219290   1.308   3.941   4.482 -0.0589  0.1239 -3.8192
 2552SOL     OW19291   3.569   2.860   4.216  0.4059  0.0679 -0.8430
 2552SOL    HW119292   3.663   2.871   4.224  0.4064 -0.4959 -0.0571
 2552SOL    HW219293   3.554   2.900   4.130  0.5111  2.1428  0.1126
 2553SOL     OW19294   3.745   0.422   4.351 -0.1597  0.3759 -0.2653
 2553SOL    HW119295   3.685   0.459   4.417  0.5920  3.4343 -1.3234
 2553SOL    HW219296   3.694   0.347   4.319 -0.2792 -0.1183  1.0634
 2554SOL     OW19297   2.378   1.745   3.383  0.1372  0.4384  0.5817
 2554SOL    HW119298   2.360   1.663   3.429 -0.9997 -0.6117 -1.7171
 2554SOL    HW219299   2.349   1.715   3.297  0.1566  1.2225  0.3016
 2555SOL     OW19300   0.376   0.801   4.954 -0.0215 -0.4416 -0.4916
 2555SOL    HW119301   0.402   0.726   4.900 -0.7817  0.2369 -1.7915
 2555SOL    HW219302   0.332   0.854   4.887 -1.1482 -1.2843 -0.4212
 2556SOL     OW19303   3.533   0.470   7.193 -0.0343  0.0202 -0.6016
 2556SOL    HW119304   3.623   0.493   7.170  1.5904 -1.4187  4.2532
 2556SOL    HW219305   3.486   0.552   7.185  1.8652  1.2081  0.4665
 2557SOL     OW19306   3.428   2.110   9.156  0.1510  0.0927  0.3651
 2557SOL    HW119307   3.509   2.063   9.177 -0.2368 -0.6598  0.1769
 2557SOL    HW219308   3.458   2.182   9.100 -1.0826  1.7758  1.8541
 2558SOL     OW19309   1.849   2.839   9.478 -0.4498  0.3359  0.8802
 2558SOL    HW119310   1.933   2.819   9.436 -1.3639  2.0508 -1.6960
 2558SOL    HW219311   1.811   2.752   9.474  0.6732 -0.2082  1.6978
 2559SOL     OW19312   2.812   2.147   3.817  0.1716 -0.4557 -0.6148
 2559SOL    HW119313   2.800   2.159   3.911 -1.8073  0.5289 -1.0047
 2559SOL    HW219314   2.872   2.072   3.815  0.8468  0.0350  1.4657
 2560SOL     OW19315   4.413   2.063   7.864  0.0725  0.0633  0.0569
 2560SOL    HW119316   4.469   2.011   7.923  1.1655  0.3347 -0.7515
 2560SOL    HW219317   4.442   2.148   7.895  1.1297 -0.1372 -0.4115
 2561SOL     OW19318   4.002   2.339  13.533  0.3778 -0.1861  0.1051
 2561SOL    HW119319   3.993   2.362  13.440  1.9817  0.2569  0.0695
 2561SOL    HW219320   4.097   2.347  13.540  0.5744 -0.0589 -2.7484
 2562SOL     OW19321   1.485   1.345   0.378 -0.2014  0.0619  0.2740
 2562SOL    HW119322   1.397   1.310   0.395 -0.1727  0.2303  0.7669
 2562SOL    HW219323   1.461   1.400   0.303 -2.7403  0.8472  1.6389
 2563SOL     OW19324   2.604   2.441  16.814  0.1026 -0.4245  0.0984
 2563SOL    HW119325   2.591   2.346  16.817 -2.6669  0.0056  0.8508
 2563SOL    HW219326   2.522   2.470  16.853  1.1326  2.0488  0.3927
 2564SOL     OW19327   0.658   3.191   2.669 -0.3270  0.6122  0.0657
 2564SOL    HW119328   0.730   3.247   2.639  0.9392 -0.5136  0.9645
 2564SOL    HW219329   0.649   3.131   2.596 -0.5506 -0.9749  1.3927
 2565SOL     OW19330   4.128   2.735  17.620  0.4901  0.1422 -0.3045
 2565SOL    HW119331   4.043   2.707  17.585  1.0896  0.0556 -1.6952
 2565SOL    HW219332   4.187   2.663  17.599  1.1094 -0.0422  2.0639
 2566SOL     OW19333   4.564   1.212   3.130 -0.0747  0.1275  0.1452
 2566SOL    HW119334   4.653   1.238   3.154 -0.2437  0.7006  0.1411
 2566SOL    HW219335   4.568   1.245   3.041 -0.5893 -0.1038  0.0410
 2567SOL     OW19336   1.895   1.237   7.591 -0.4903  0.1400  0.4985
 2567SOL    HW119337   1.860   1.303   7.651  0.2335  0.3711  0.6735
 2567SOL    HW219338   1.891   1.161   7.649 -0.2411 -0.7213 -0.6267
 2568SOL     OW19339   2.338   1.150   1.587 -0.1339 -0.6762  0.4533
 2568SOL    HW119340   2.263   1.117   1.538  0.1777 -0.9367  0.1519
 2568SOL    HW219341   2.372   1.220   1.531 -0.4069  1.0937  2.4859
 2569SOL     OW19342   1.672   4.257   5.600  0.1354 -0.4985  0.1058
 2569SOL    HW119343   1.677   4.353   5.599  0.4411 -0.5163  0.0986
 2569SOL    HW219344   1.703   4.230   5.514 -1.1768 -0.2665 -0.4399
 2570SOL     OW19345   3.051   3.308   5.234  0.4503  0.0209  0.0122
 2570SOL    HW119346   3.093   3.273   5.156 -0.1695 -0.3250 -0.1683
 2570SOL    HW219347   3.125   3.366   5.248  2.2997 -1.8786 -2.0044
 2571SOL     OW19348   2.210   3.804  17.444  0.4835  0.2296 -0.1461
 2571SOL    HW119349   2.251   3.734  17.495  1.4541  1.2603  0.4857
 2571SOL    HW219350   2.229   3.779  17.353 -2.3489 -2.7442  0.1014
 2572SOL     OW19351   3.753   2.776   4.443 -0.1854  0.4437 -0.0873
 2572SOL    HW119352   3.702   2.756   4.522  0.5463 -0.5440  0.1291
 2572SOL    HW219353   3.724   2.865   4.422 -0.2210  0.7585  1.2668
 2573SOL     OW19354   1.953   2.664   6.084 -0.7615 -0.3898  0.2788
 2573SOL    HW119355   1.893   2.658   6.009  1.0879 -0.1741 -1.2140
 2573SOL    HW219356   2.029   2.699   6.038  0.0673 -2.4963  0.0805
 2574SOL     OW19357   2.249   0.509   0.182 -0.3473  0.1301  0.3476
 2574SOL    HW119358   2.212   0.421   0.178 -1.2399  0.4277  2.1555
 2574SOL    HW219359   2.324   0.496   0.124  0.4646 -0.7360  1.5712
 2575SOL     OW19360   2.370   2.530  16.296  0.1240 -0.4894 -0.4539
 2575SOL    HW119361   2.353   2.442  16.328 -0.6390  0.4075  1.5771
 2575SOL    HW219362   2.351   2.520  16.202  1.2366 -2.4767 -0.4831
 2576SOL     OW19363   3.019   2.322   1.192 -0.3588  0.4628  0.2809
 2576SOL    HW119364   3.078   2.355   1.260  1.1863  2.2924 -1.9588
 2576SOL    HW219365   3.000   2.402   1.143 -0.8683 -0.7550 -1.4977
 2577SOL     OW19366   3.279   3.308   2.920 -0.0942  0.1858 -0.1352
 2577SOL    HW119367   3.228   3.294   2.841  0.8598 -0.1440 -0.6914
 2577SOL    HW219368   3.216   3.295   2.991  0.6559 -0.7098  0.3686
 2578SOL     OW19369   2.187   3.085   8.180 -0.4316 -0.0429  0.0029
 2578SOL    HW119370   2.206   3.020   8.113 -0.0826  2.3383 -2.2118
 2578SOL    HW219371   2.208   3.164   8.130  1.8358 -0.9063 -0.4003
 2579SOL     OW19372   4.392   0.723   8.394  0.2789 -0.2393  0.0816
 2579SOL    HW119373   4.311   0.710   8.345  1.2599 -1.8741 -1.0852
 2579SOL    HW219374   4.376   0.810   8.431 -0.4941 -0.1939 -0.3730
 2580SOL     OW19375   1.695   1.782   9.190 -0.2511  0.4940 -0.5381
 2580SOL    HW119376   1.667   1.719   9.257  1.9634 -0.0838 -0.1369
 2580SOL    HW219377   1.767   1.740   9.141  1.3392  2.3409  0.2060
 2581SOL     OW19378   4.119   0.160   5.979  0.6477 -0.2910  0.9788
 2581SOL    HW119379   4.204   0.165   5.936  0.4364 -1.3394  0.4209
 2581SOL    HW219380   4.111   0.071   6.011  0.1267 -1.2643 -1.7960
 2582SOL     OW19381   2.208   3.015   0.537 -0.0755  0.1718  0.3152
 2582SOL    HW119382   2.164   3.018   0.452 -2.2155  1.2118  1.4390
 2582SOL    HW219383   2.266   2.940   0.527  2.5288  2.6185 -2.7143
 2583SOL     OW19384   1.019   2.642  12.844  0.3306  0.3231 -0.2777
 2583SOL    HW119385   0.944   2.695  12.869  0.9443  0.3954  1.4075
 2583SOL    HW219386   0.975   2.572  12.796 -0.0138  1.3378 -1.4285
 2584SOL     OW19387   0.809   0.398   0.402  0.4851 -0.5351 -0.3261
 2584SOL    HW119388   0.789   0.464   0.335 -0.9864  0.9329  1.5641
 2584SOL    HW219389   0.752   0.329   0.369  0.0335 -1.1157  1.6790
 2585SOL     OW19390   2.299   4.621   2.962 -0.0192 -0.5185  0.7561
 2585SOL    HW119391   2.329   4.556   3.026  0.5151 -0.4838  0.5464
 2585SOL    HW219392   2.368   4.687   2.974  1.2069 -1.5961 -0.3189
 2586SOL     OW19393   0.629   4.200   7.393 -0.3915  0.4504  0.4182
 2586SOL    HW119394   0.553   4.245   7.357  0.9378  2.6938  0.3995
 2586SOL    HW219395   0.594   4.110   7.390  0.5604  0.0916  0.1245
 2587SOL     OW19396   1.484   2.882   9.536  0.0936  0.1676  0.1336
 2587SOL    HW119397   1.433   2.802   9.528  0.2198  0.0844  0.1631
 2587SOL    HW219398   1.464   2.924   9.452 -1.3082 -1.1420 -0.1748
 2588SOL     OW19399   2.552   3.955  12.962 -0.3957 -0.6825  0.6113
 2588SOL    HW119400   2.594   3.878  12.925 -0.6018 -2.0589  3.2721
 2588SOL    HW219401   2.607   4.024  12.923 -1.4549 -0.2834 -0.2137
 2589SOL     OW19402   4.238   4.481   8.673 -0.4351 -0.2048 -0.1456
 2589SOL    HW119403   4.313   4.465   8.616  0.1152 -2.0046  1.1032
 2589SOL    HW219404   4.226   4.391   8.703 -0.6513 -0.3806 -0.7603
 2590SOL     OW19405   3.838   2.527  11.304 -0.3680 -0.4784  0.2455
 2590SOL    HW119406   3.797   2.509  11.220 -0.5583 -0.0380  0.2401
 2590SOL    HW219407   3.874   2.614  11.283  2.7669 -1.9753 -0.5642
 2591SOL     OW19408   4.568   2.963   6.491  0.0371 -0.2602 -0.4024
 2591SOL    HW119409   4.617   3.029   6.540 -0.0283 -0.7035  0.2668
 2591SOL    HW219410   4.533   3.011   6.416  1.3592 -0.8945 -1.4229
 2592SOL     OW19411   2.519   3.351  11.191 -0.1172  0.3804 -0.5114
 2592SOL    HW119412   2.554   3.320  11.108  4.4629 -0.5537  1.7812
 2592SOL    HW219413   2.525   3.445  11.171  0.6858  0.7594  1.5406
 2593SOL     OW19414   2.281   2.746   7.411 -0.3573  0.0694  0.0079
 2593SOL    HW119415   2.266   2.821   7.469  2.4572  0.3819  0.3680
 2593SOL    HW219416   2.360   2.702   7.442  0.3079  0.7372 -0.7481
 2594SOL     OW19417   2.684   3.112  12.265  0.0535 -0.0692 -0.3754
 2594SOL    HW119418   2.719   3.172  12.330 -0.0443 -0.5955  0.1581
 2594SOL    HW219419   2.598   3.140  12.234  0.7134  0.5682 -1.6329
 2595SOL     OW19420   0.058   1.089   8.413  0.5285 -0.7296  0.0460
 2595SOL    HW119421   0.033   1.084   8.505  0.0218  2.1447  0.0749
 2595SOL    HW219422   4.714   1.120   8.373  1.2171 -0.5513 -1.2254
 2596SOL     OW19423   0.784   2.743   3.353  0.5329  0.8582  0.0302
 2596SOL    HW119424   0.771   2.679   3.423 -1.5438 -0.4770 -1.5627
 2596SOL    HW219425   0.856   2.713   3.298  1.4997  0.1382  1.6963
 2597SOL     OW19426   3.837   2.192   7.648 -1.2393  0.3675  0.0968
 2597SOL    HW119427   3.852   2.104   7.685  1.3114  1.2886  1.2629
 2597SOL    HW219428   3.868   2.176   7.560  0.3128  2.6611  0.2566
 2598SOL     OW19429   1.430   2.788  15.335 -0.2190 -0.1225  0.2699
 2598SOL    HW119430   1.371   2.800  15.260  0.8108  0.5374 -0.4305
 2598SOL    HW219431   1.399   2.861  15.387 -0.9480  0.5916 -1.1475
 2599SOL     OW19432   1.864   1.269   3.711 -0.1195 -0.0519 -0.2092
 2599SOL    HW119433   1.827   1.355   3.730 -1.0663 -0.2115 -1.3400
 2599SOL    HW219434   1.792   1.208   3.721  1.1455 -1.3602  0.8345
 2600SOL     OW19435   0.938   1.661   8.698  0.6582 -0.2217 -0.1529
 2600SOL    HW119436   0.881   1.709   8.639  0.4815  1.1116  1.0816
 2600SOL    HW219437   0.914   1.575   8.664 -2.9364  0.6524  0.1690
 2601SOL     OW19438   0.041   1.442   3.422 -0.5730  0.3077  0.0095
 2601SOL    HW119439   4.699   1.390   3.430 -0.3559 -0.1623 -0.8310
 2601SOL    HW219440   0.112   1.382   3.396 -1.6469 -1.3816  0.9649
 2602SOL     OW19441   3.235   4.358   6.665  0.0589  0.4147  0.3572
 2602SOL    HW119442   3.328   4.375   6.682  0.2676 -0.4904  0.1264
 2602SOL    HW219443   3.237   4.402   6.580 -0.7896 -0.1408  0.0544
 2603SOL     OW19444   1.174   1.616   0.527 -0.1304  0.6861 -0.3470
 2603SOL    HW119445   1.105   1.568   0.572  1.1756 -0.6930  0.1839
 2603SOL    HW219446   1.241   1.629   0.594 -2.0100  0.6293  1.5380
 2604SOL     OW19447   3.604   2.647   4.630  0.0798 -0.1824  0.4166
 2604SOL    HW119448   3.659   2.575   4.661  0.0779  0.4833  1.9547
 2604SOL    HW219449   3.515   2.620   4.608 -0.1089  0.5226  0.3114
 2605SOL     OW19450   0.399   0.629  14.172  0.3654  0.1030 -0.4489
 2605SOL    HW119451   0.490   0.612  14.195  0.2036 -0.7059 -0.4131
 2605SOL    HW219452   0.411   0.649  14.079 -1.5204  0.5539 -0.5972
 2606SOL     OW19453   1.386   3.645   6.135 -0.8099 -0.8347  0.5702
 2606SOL    HW119454   1.345   3.566   6.100  1.5587 -1.8576  0.0827
 2606SOL    HW219455   1.361   3.712   6.071  0.6450 -0.4541  0.4117
 2607SOL     OW19456   3.880   0.253   4.810 -0.4171  0.8832  0.7566
 2607SOL    HW119457   3.819   0.261   4.736 -0.4198  1.7623  0.8474
 2607SOL    HW219458   3.843   0.317   4.871 -1.8013  1.4248 -0.6643
 2608SOL     OW19459   2.616   0.424   2.344 -0.1261  0.3896 -0.5409
 2608SOL    HW119460   2.618   0.505   2.395 -0.7627  1.0652 -1.5932
 2608SOL    HW219461   2.620   0.462   2.257  0.7381 -1.6397 -1.3793
 2609SOL     OW19462   3.464   3.982   5.027  0.1431  0.0732 -0.0860
 2609SOL    HW119463   3.555   3.955   5.018  0.7866  1.1581  3.4375
 2609SOL    HW219464   3.445   4.033   4.948  0.0879  0.5680  0.2447
 2610SOL     OW19465   3.657   0.508   6.436  0.3569  0.1204  0.1198
 2610SOL    HW119466   3.632   0.487   6.346 -0.3022  0.9588  0.1128
 2610SOL    HW219467   3.749   0.531   6.424  0.1383  0.0745 -1.6717
 2611SOL     OW19468   1.202   0.486   1.818 -0.0504 -0.4506 -0.2831
 2611SOL    HW119469   1.277   0.441   1.780  0.1208 -0.3980 -0.0127
 2611SOL    HW219470   1.199   0.431   1.897  1.1647 -2.5743 -1.7195
 2612SOL     OW19471   0.047   1.367  12.871 -0.0665 -0.1108  0.3540
 2612SOL    HW119472   0.040   1.462  12.866  1.1031 -0.1645 -2.1264
 2612SOL    HW219473   0.062   1.347  12.964 -0.0201 -0.6427  0.2312
 2613SOL     OW19474   1.442   1.326   7.894  0.2191 -0.3720  0.2803
 2613SOL    HW119475   1.376   1.311   7.962 -0.0863 -0.4126 -0.0276
 2613SOL    HW219476   1.496   1.247   7.902 -0.0997 -0.4247  1.9569
 2614SOL     OW19477   1.193   4.213   4.675 -0.0128 -0.4432  0.3926
 2614SOL    HW119478   1.210   4.163   4.754  1.3212 -0.9418 -0.2032
 2614SOL    HW219479   1.103   4.185   4.656  0.1882  0.5521 -2.1420
 2615SOL     OW19480   1.737   0.104  14.063 -0.6813  0.1411 -0.0792
 2615SOL    HW119481   1.773   0.134  13.980  2.6260 -0.0690  1.2687
 2615SOL    HW219482   1.686   0.026  14.043 -0.3388  0.6720 -2.9843
 2616SOL     OW19483   1.788   1.105   6.946  0.0523  0.0290  0.2224
 2616SOL    HW119484   1.878   1.091   6.975 -0.5076  0.1916  2.1060
 2616SOL    HW219485   1.751   1.019   6.969 -1.5768  0.5830 -0.3627
 2617SOL     OW19486   0.085   2.002   5.075 -0.4257  0.4973 -0.4123
 2617SOL    HW119487   0.016   2.046   5.125  1.0993  0.7562  1.4897
 2617SOL    HW219488   0.051   1.916   5.052 -0.3517  0.6759 -1.1926
 2618SOL     OW19489   0.812   2.538  10.380 -0.3490 -0.3720 -0.2410
 2618SOL    HW119490   0.723   2.547  10.348 -1.0748  0.2058  1.9520
 2618SOL    HW219491   0.810   2.453  10.425 -1.4044  0.0556  0.5025
 2619SOL     OW19492   4.676   2.965  14.763 -0.1268  0.0772  0.3585
 2619SOL    HW119493   0.028   2.947  14.736 -0.0925  3.3766 -1.7115
 2619SOL    HW219494   4.674   3.061  14.772 -0.4163 -0.0290  1.4719
 2620SOL     OW19495   1.364   4.246   3.489 -0.0155  0.0131 -0.2423
 2620SOL    HW119496   1.374   4.313   3.557 -0.5528  0.7662 -0.9147
 2620SOL    HW219497   1.390   4.163   3.530 -0.9722  0.3474  1.0421
 2621SOL     OW19498   1.104   2.916  12.642  0.2050  0.0895  0.0065
 2621SOL    HW119499   1.074   2.843  12.697 -4.7107  1.2756 -1.1702
 2621SOL    HW219500   1.028   2.974  12.638 -0.4439 -0.7410  0.4090
 2622SOL     OW19501   1.692   4.146   6.024 -0.5053  0.7427  0.0668
 2622SOL    HW119502   1.726   4.057   6.034 -1.3188  0.5447  1.0798
 2622SOL    HW219503   1.739   4.179   5.947  0.0433  1.0173  0.5290
 2623SOL     OW19504   4.149   4.681  17.358  0.0581  0.3433  0.1694
 2623SOL    HW119505   4.074   4.692  17.300 -0.1261 -0.8831  0.1863
 2623SOL    HW219506   4.181   4.598  17.323 -1.1097 -0.2104  0.4181
 2624SOL     OW19507   0.037   3.871  15.818  0.4900 -0.1665  0.1620
 2624SOL    HW119508   4.693   3.880  15.868  0.4903 -1.0527  0.3120
 2624SOL    HW219509   0.001   3.868  15.729  1.8403  1.7652 -0.4470
 2625SOL     OW19510   4.714   4.335   6.939 -0.0947 -0.1059  0.1061
 2625SOL    HW119511   4.637   4.289   6.974 -2.0574  0.4419 -3.5024
 2625SOL    HW219512   4.707   4.416   6.989 -2.3239 -0.5314  0.5193
 2626SOL     OW19513   4.580   2.848   7.936 -0.5361 -0.0944 -0.3873
 2626SOL    HW119514   4.591   2.759   7.902  1.3906  0.5280 -1.3948
 2626SOL    HW219515   4.669   2.879   7.916  0.7982 -3.2191  0.7942
 2627SOL     OW19516   3.545   4.634   3.459 -0.0179  0.1076  0.0831
 2627SOL    HW119517   3.526   4.558   3.403 -0.9312  0.9282 -0.7375
 2627SOL    HW219518   3.637   4.646   3.434  0.1677 -2.5616 -0.4927
 2628SOL     OW19519   3.243   1.863   7.953  0.3910 -0.1932 -0.5793
 2628SOL    HW119520   3.306   1.885   7.884 -1.0635 -0.9480 -2.1544
 2628SOL    HW219521   3.198   1.793   7.904 -0.0501 -0.3439  0.0500
 2629SOL     OW19522   2.588   0.675   2.476  0.0793  0.0576  0.7246
 2629SOL    HW119523   2.496   0.650   2.487 -0.0069  0.6116  1.2357
 2629SOL    HW219524   2.589   0.770   2.490 -0.1561  0.2651 -0.6311
 2630SOL     OW19525   3.300   0.101   2.162 -0.0600 -0.6330  0.0688
 2630SOL    HW119526   3.376   0.096   2.220 -0.6583  1.4126  1.0653
 2630SOL    HW219527   3.240   0.046   2.213 -1.0979  2.2146  1.9611
 2631SOL     OW19528   2.455   2.237   6.081 -0.2492 -0.2482  0.2750
 2631SOL    HW119529   2.467   2.275   6.168 -0.3615 -2.5190  1.2766
 2631SOL    HW219530   2.470   2.314   6.026  0.9188 -0.7921 -0.1639
 2632SOL     OW19531   1.096   1.561   3.238  0.3323 -0.3630 -0.4418
 2632SOL    HW119532   1.092   1.469   3.214  2.1222 -0.2666 -1.1174
 2632SOL    HW219533   1.008   1.587   3.210  0.5763  0.2751 -0.6293
 2633SOL     OW19534   3.495   4.379   9.131 -0.1145  0.3757 -0.1913
 2633SOL    HW119535   3.540   4.298   9.106 -0.9760 -0.7026  1.7278
 2633SOL    HW219536   3.418   4.349   9.181  0.3347 -0.5386 -0.0591
 2634SOL     OW19537   2.602   1.404   9.722 -0.3296  0.4445  0.3372
 2634SOL    HW119538   2.507   1.402   9.710 -0.4006  0.4965  0.8997
 2634SOL    HW219539   2.606   1.366   9.809 -0.6872 -1.8238 -0.6324
 2635SOL     OW19540   3.438   3.166  12.899 -0.0604 -0.6146  0.4787
 2635SOL    HW119541   3.473   3.153  12.988  0.2135  2.5734  0.8275
 2635SOL    HW219542   3.343   3.169  12.911  0.0378 -0.1498  1.1577
 2636SOL     OW19543   1.551   0.524   3.287  1.0015  0.8430 -0.3343
 2636SOL    HW119544   1.554   0.589   3.358 -0.9840 -0.0542  0.5727
 2636SOL    HW219545   1.615   0.565   3.229 -0.3685 -0.5653 -2.8095
 2637SOL     OW19546   1.520   1.780   8.941  0.7738  0.1620 -0.3380
 2637SOL    HW119547   1.565   1.797   9.024 -0.6452  0.4703  0.3626
 2637SOL    HW219548   1.464   1.856   8.928  1.1630  0.7884  1.6647
 2638SOL     OW19549   0.817   3.295   8.650 -0.2330  0.4329  0.3075
 2638SOL    HW119550   0.850   3.223   8.596 -0.0787  0.4418  0.3895
 2638SOL    HW219551   0.847   3.370   8.599 -0.0211 -0.7212 -1.2707
 2639SOL     OW19552   3.207   3.073  15.851  0.1863 -0.2446 -0.3456
 2639SOL    HW119553   3.233   3.125  15.775 -0.9031  0.5951 -0.1404
 2639SOL    HW219554   3.289   3.025  15.860  0.6699  0.4899 -0.8001
 2640SOL     OW19555   2.697   2.719  17.249  0.0264 -0.0619  0.5329
 2640SOL    HW119556   2.781   2.723  17.296 -0.6871  2.8899  1.5805
 2640SOL    HW219557   2.685   2.624  17.245 -0.1229  0.0730 -1.9620
 2641SOL     OW19558   2.802   2.965   5.134  0.0898 -0.0464  0.1244
 2641SOL    HW119559   2.790   3.003   5.047 -0.1257 -0.9611 -0.2426
 2641SOL    HW219560   2.753   3.019   5.196  0.2739  0.5008 -0.2128
 2642SOL     OW19561   0.924   1.417  14.852 -0.0926 -0.2269  0.3630
 2642SOL    HW119562   0.844   1.386  14.811 -0.3118 -0.3064  0.8503
 2642SOL    HW219563   0.922   1.367  14.934  0.4536  1.1601  1.2220
 2643SOL     OW19564   3.148   3.022   7.544  0.4373  0.3276  0.0520
 2643SOL    HW119565   3.201   3.088   7.500  1.8789  0.8491  2.5959
 2643SOL    HW219566   3.141   2.960   7.471 -0.9261  0.8233 -0.2422
 2644SOL     OW19567   1.566   3.191   2.827  0.5477  0.2593  0.1247
 2644SOL    HW119568   1.656   3.197   2.797  0.0297 -2.2781 -1.9114
 2644SOL    HW219569   1.547   3.282   2.849  1.6855  0.6873 -0.6897
 2645SOL     OW19570   2.074   2.442   2.937 -0.8573  0.5551 -0.1790
 2645SOL    HW119571   2.003   2.437   3.001 -0.1306  0.3932  0.6179
 2645SOL    HW219572   2.103   2.352   2.924 -1.4971  0.3275 -0.0076
 2646SOL     OW19573   3.480   0.691   5.241 -0.0875 -0.6490 -0.4042
 2646SOL    HW119574   3.487   0.595   5.246 -2.0895 -0.8546 -1.7157
 2646SOL    HW219575   3.395   0.683   5.200 -1.4165  3.7082  1.5876
 2647SOL     OW19576   4.034   4.266   5.307 -0.4705 -0.2731  0.2460
 2647SOL    HW119577   3.986   4.248   5.388  1.6142  1.6074  1.8861
 2647SOL    HW219578   4.071   4.178   5.308 -0.1244 -0.1164  0.9289
 2648SOL     OW19579   2.146   2.623  13.460 -0.3262  0.3157 -0.5508
 2648SOL    HW119580   2.140   2.714  13.490  1.4974 -0.8129  3.1436
 2648SOL    HW219581   2.065   2.607  13.412  0.0064  1.9143 -1.6756
 2649SOL     OW19582   3.823   2.651   5.512 -0.6011 -0.2088  0.4246
 2649SOL    HW119583   3.767   2.667   5.436 -1.7662 -1.2308  1.0656
 2649SOL    HW219584   3.769   2.683   5.585  1.3266  1.3227  1.1862
 2650SOL     OW19585   1.364   4.616   9.145  0.4725 -0.2266  0.3624
 2650SOL    HW119586   1.273   4.626   9.116  1.4214  1.8467 -1.9303
 2650SOL    HW219587   1.402   4.627   9.058 -0.4164  0.4560  0.0567
 2651SOL     OW19588   2.754   4.719   7.014 -0.0626 -0.6855  0.2982
 2651SOL    HW119589   2.683   4.699   6.953 -0.1051  0.3156  0.0239
 2651SOL    HW219590   2.803   0.044   6.960 -0.9636 -0.6741 -0.5082
 2652SOL     OW19591   2.496   3.071   9.565  0.1088  0.0186  0.1136
 2652SOL    HW119592   2.516   3.040   9.654 -0.5786  0.7102  0.5089
 2652SOL    HW219593   2.552   3.025   9.503 -1.3216 -0.5420 -0.7759
 2653SOL     OW19594   3.766   3.671   3.364  0.0509 -0.0358  0.2106
 2653SOL    HW119595   3.693   3.733   3.375  1.4436  1.9462 -1.8745
 2653SOL    HW219596   3.826   3.697   3.434 -1.1512  3.2455  0.0245
 2654SOL     OW19597   2.684   1.470  12.709 -0.0033  0.0835  0.1218
 2654SOL    HW119598   2.772   1.446  12.681 -0.0121 -0.2324  0.3684
 2654SOL    HW219599   2.685   1.439  12.800 -0.4413  0.6937  0.3392
 2655SOL     OW19600   2.024   2.784   0.688 -0.3531  0.6929 -0.1980
 2655SOL    HW119601   2.088   2.809   0.621  1.1993  0.2156  1.1065
 2655SOL    HW219602   2.086   2.771   0.759 -1.6200  1.7694  1.1062
 2656SOL     OW19603   0.879   0.043  13.510  0.0226 -0.2139 -0.2929
 2656SOL    HW119604   0.788   0.017  13.491  0.6849 -1.8952 -1.1670
 2656SOL    HW219605   0.885   0.051  13.605 -1.3665  1.3253 -0.3234
 2657SOL     OW19606   0.565   1.775   1.322 -0.6998  0.3005  0.4372
 2657SOL    HW119607   0.624   1.842   1.356 -1.5280  1.0509  0.3717
 2657SOL    HW219608   0.510   1.761   1.399  0.6776 -0.8242  1.2144
 2658SOL     OW19609   4.323   0.396   8.499 -0.0902 -1.0145 -0.1474
 2658SOL    HW119610   4.310   0.316   8.550  1.4273 -1.9404 -1.2057
 2658SOL    HW219611   4.417   0.384   8.484  0.6290  0.0749  3.3375
 2659SOL     OW19612   1.805   3.853   0.709 -0.0146 -0.2503  0.0576
 2659SOL    HW119613   1.815   3.845   0.804  0.1661 -2.1156 -0.1037
 2659SOL    HW219614   1.895   3.866   0.678 -0.4239  2.4988  0.0764
 2660SOL     OW19615   4.352   2.383   5.804  0.4198 -0.4358 -0.1191
 2660SOL    HW119616   4.298   2.313   5.841  0.2742  0.2879  1.0559
 2660SOL    HW219617   4.421   2.380   5.870  1.0789 -0.4494 -0.8180
 2661SOL     OW19618   1.353   1.613   4.019  0.0873 -0.3027  0.2825
 2661SOL    HW119619   1.270   1.570   3.999  0.3766 -0.8292  0.1978
 2661SOL    HW219620   1.326   1.705   4.020  0.6510 -0.1342 -0.1331
 2662SOL     OW19621   3.053   3.338   2.710  0.1870 -0.3079  0.0145
 2662SOL    HW119622   3.040   3.424   2.671 -1.7716 -0.5319  0.1681
 2662SOL    HW219623   2.990   3.334   2.783  1.6591  0.9338  1.3606
 2663SOL     OW19624   1.564   3.523   7.057  0.3285  0.3364 -0.3071
 2663SOL    HW119625   1.611   3.527   6.974  1.5823  0.7531  0.4153
 2663SOL    HW219626   1.545   3.616   7.071  2.6241  0.2378  3.3186
 2664SOL     OW19627   4.536   1.389   5.976  0.1055 -0.5634  0.1440
 2664SOL    HW119628   4.545   1.301   5.941  0.4629 -0.7994  0.8374
 2664SOL    HW219629   4.512   1.372   6.067  2.0415 -0.2609  0.7198
 2665SOL     OW19630   0.034   4.206   8.430  0.5286  0.1497 -0.6561
 2665SOL    HW119631   0.060   4.140   8.494  0.4677 -0.1356 -0.9302
 2665SOL    HW219632   0.050   4.291   8.471 -2.6007  0.4000  0.0415
 2666SOL     OW19633   1.059   0.381  12.406  0.0774  0.0696  0.0932
 2666SOL    HW119634   1.051   0.306  12.465 -0.2789  0.1946  0.2030
 2666SOL    HW219635   1.124   0.424  12.461  0.2673 -1.4149  1.0189
 2667SOL     OW19636   2.365   2.390   1.453  0.0381  0.3870  0.0461
 2667SOL    HW119637   2.352   2.477   1.416  0.3912 -0.0894 -1.1931
 2667SOL    HW219638   2.378   2.416   1.544 -1.8912 -0.5519  0.5743
 2668SOL     OW19639   1.151   1.665   2.245  0.0249  0.0844  0.3692
 2668SOL    HW119640   1.233   1.658   2.293  1.5235 -1.5282 -2.4693
 2668SOL    HW219641   1.085   1.637   2.309 -1.3438  0.0525 -1.0596
 2669SOL     OW19642   2.757   1.712   4.384  0.1331 -0.0230 -0.1400
 2669SOL    HW119643   2.683   1.657   4.411  0.9492 -0.4800  1.2023
 2669SOL    HW219644   2.826   1.683   4.444 -0.6747 -0.8216  0.3889
 2670SOL     OW19645   0.062   2.256   7.876 -0.1739  0.0057 -0.7775
 2670SOL    HW119646   0.106   2.314   7.814 -1.4513 -0.0830 -1.7491
 2670SOL    HW219647   0.134   2.247   7.939  0.9290 -1.0269 -2.1755
 2671SOL     OW19648   1.341   1.508  11.591  0.1291  0.1450 -0.1969
 2671SOL    HW119649   1.296   1.524  11.673 -0.1048 -2.8806  0.2798
 2671SOL    HW219650   1.421   1.469  11.627 -0.7679 -0.0045  1.6207
 2672SOL     OW19651   4.219   3.156   8.552 -0.0136 -0.1005  0.0612
 2672SOL    HW119652   4.205   3.183   8.461  3.1658  2.8429  0.4660
 2672SOL    HW219653   4.304   3.199   8.561 -0.3984  0.3502  1.4135
 2673SOL     OW19654   3.514   3.686  16.848  0.0189 -0.1031 -0.1807
 2673SOL    HW119655   3.583   3.624  16.872 -1.7303 -1.5806  1.0450
 2673SOL    HW219656   3.534   3.711  16.757 -1.5091  2.0803  0.0833
 2674SOL     OW19657   1.188   4.691   9.496 -0.3125  0.2123 -0.4274
 2674SOL    HW119658   1.170   0.036   9.541 -0.2737 -0.0850  0.1342
 2674SOL    HW219659   1.095   4.669   9.489 -0.2452 -0.0093 -0.6380
 2675SOL     OW19660   1.718   3.713   7.482  0.1071  0.5415 -0.0772
 2675SOL    HW119661   1.628   3.745   7.489  0.2387  0.7866  0.4415
 2675SOL    HW219662   1.760   3.749   7.560 -1.3283 -0.9667  1.4063
 2676SOL     OW19663   2.055   0.417   7.135 -0.0513 -0.0115 -0.1174
 2676SOL    HW119664   2.044   0.503   7.175 -0.3447  0.6741 -1.6844
 2676SOL    HW219665   2.021   0.352   7.196  0.8598 -1.3963 -1.0864
 2677SOL     OW19666   0.948   4.047   6.983 -0.5074  0.1134  0.1203
 2677SOL    HW119667   0.884   4.097   7.034 -1.5435 -0.9897 -0.0990
 2677SOL    HW219668   0.970   3.988   7.055 -1.3496  0.6827  0.8558
 2678SOL     OW19669   0.458   0.344  11.127 -0.0956  0.4222 -0.6966
 2678SOL    HW119670   0.421   0.287  11.060 -1.0379  0.6518 -0.3801
 2678SOL    HW219671   0.473   0.283  11.200  0.2655  3.5339  1.8416
 2679SOL     OW19672   2.419   4.074  15.452 -0.1248 -0.3883  0.4612
 2679SOL    HW119673   2.494   4.129  15.430  1.2080 -2.7505 -0.9211
 2679SOL    HW219674   2.360   4.122  15.393 -0.4628 -1.3384  0.0331
 2680SOL     OW19675   2.631   2.043  16.626 -0.3836 -0.3609 -0.3744
 2680SOL    HW119676   2.556   2.009  16.578 -1.1390  2.6824 -1.3945
 2680SOL    HW219677   2.701   1.979  16.611  0.1882  0.7317 -2.4191
 2681SOL     OW19678   3.792   1.941   2.827  0.3010  0.3096 -0.5131
 2681SOL    HW119679   3.867   1.988   2.863 -0.6694  0.7287  0.9712
 2681SOL    HW219680   3.823   1.873   2.767  1.7001  0.0818  0.4904
 2682SOL     OW19681   0.076   0.436   7.326 -0.7537 -0.4952  0.4085
 2682SOL    HW119682   0.084   0.509   7.264 -1.3269 -0.3591  0.4948
 2682SOL    HW219683   4.730   0.400   7.294 -0.2778  0.1894 -1.5942
 2683SOL     OW19684   1.431   4.338  16.562 -0.0296  0.3761 -0.2741
 2683SOL    HW119685   1.363   4.348  16.496 -0.2341  0.3630 -0.0644
 2683SOL    HW219686   1.509   4.309  16.515  1.8145  2.4475  1.4888
 2684SOL     OW19687   2.211   0.384  17.637 -0.2915  0.4848  1.3172
 2684SOL    HW119688   2.306   0.374  17.628 -0.2639  3.0476 -1.3252
 2684SOL    HW219689   2.187   0.462  17.588 -2.3129 -1.4968 -0.8205
 2685SOL     OW19690   4.716   3.952   6.683 -0.5099  0.5546 -0.0410
 2685SOL    HW119691   4.693   3.859   6.680  1.0295  0.1511  0.8458
 2685SOL    HW219692   4.686   3.973   6.771 -0.2525  0.5780  0.0400
 2686SOL     OW19693   3.914   4.473  12.868 -0.5643  0.8354  0.7298
 2686SOL    HW119694   3.962   4.539  12.919 -0.0608  0.7288  0.4017
 2686SOL    HW219695   3.857   4.447  12.940 -0.9633 -0.7231 -0.1405
 2687SOL     OW19696   4.080   1.412   7.413  0.0436  0.2471 -0.0289
 2687SOL    HW119697   4.121   1.446   7.334 -0.1428 -1.6894 -0.9533
 2687SOL    HW219698   3.992   1.442   7.390  0.1545  0.3150 -0.3635
 2688SOL     OW19699   2.577   0.610  12.067  0.2031 -0.1801  0.7718
 2688SOL    HW119700   2.585   0.560  11.986  0.7947  2.1629 -0.6230
 2688SOL    HW219701   2.602   0.544  12.132  2.9649  1.0806  0.9825
 2689SOL     OW19702   1.370   0.629   3.032 -0.6879  0.5662  0.3004
 2689SOL    HW119703   1.414   0.571   3.094 -0.3545  2.3023  1.6901
 2689SOL    HW219704   1.414   0.612   2.949  2.1145 -1.5782  2.2190
 2690SOL     OW19705   1.614   2.479   8.591 -0.2575 -0.0034 -0.4236
 2690SOL    HW119706   1.706   2.454   8.597  0.1216  2.0019  1.7317
 2690SOL    HW219707   1.596   2.527   8.671 -1.3584 -0.5516 -0.3447
 2691SOL     OW19708   1.947   1.748  14.464 -0.1967 -0.3986  0.1346
 2691SOL    HW119709   1.963   1.726  14.556 -1.3436  0.3550  0.5095
 2691SOL    HW219710   2.037   1.754  14.433  0.1838  0.5196  1.4187
 2692SOL     OW19711   3.381   2.192   6.953 -0.2047 -0.1836 -0.2052
 2692SOL    HW119712   3.384   2.126   6.884  0.7202 -0.9154  0.5257
 2692SOL    HW219713   3.351   2.274   6.916 -0.2287 -1.3356 -2.7402
 2693SOL     OW19714   2.565   0.102   1.743  0.1231  0.3020  0.0575
 2693SOL    HW119715   2.612   0.028   1.703  1.9070  1.7863 -0.5906
 2693SOL    HW219716   2.496   0.053   1.788 -0.9347  0.8002 -1.0309
 2694SOL     OW19717   3.598   3.736   2.080 -0.4448 -0.7288 -0.7696
 2694SOL    HW119718   3.620   3.654   2.124  1.8173 -0.2540 -1.0318
 2694SOL    HW219719   3.684   3.779   2.080 -0.5340 -0.5198  0.9806
 2695SOL     OW19720   3.622   1.702   3.225  0.1831  0.2330 -0.0617
 2695SOL    HW119721   3.542   1.735   3.266  1.2043  0.4764  1.7017
 2695SOL    HW219722   3.671   1.684   3.305  1.9024  1.9335 -0.7495
 2696SOL     OW19723   0.358   4.020   6.085 -0.4372  0.1559 -0.7747
 2696SOL    HW119724   0.263   4.037   6.083 -0.2156  1.3694 -0.9262
 2696SOL    HW219725   0.361   3.962   6.161  2.1572 -2.3932 -2.8488
 2697SOL     OW19726   0.998   0.795   0.145  0.4324 -0.6030 -0.6185
 2697SOL    HW119727   0.929   0.772   0.083 -1.5432 -0.0663  1.3395
 2697SOL    HW219728   1.008   0.713   0.193 -0.4759 -0.9206 -0.9754
 2698SOL     OW19729   1.140   2.084   6.161  0.2167  0.7161 -0.2812
 2698SOL    HW119730   1.223   2.066   6.205  0.4016 -0.0356 -0.9394
 2698SOL    HW219731   1.171   2.100   6.072 -1.6673  0.2741 -1.0246
 2699SOL     OW19732   1.248   3.259   6.706  0.2836  0.7803  0.3177
 2699SOL    HW119733   1.179   3.223   6.651  0.4593 -2.3453  2.1070
 2699SOL    HW219734   1.324   3.269   6.648 -0.9818  0.3411 -1.4098
 2700SOL     OW19735   4.080   0.662   5.478  0.1842 -0.3978  0.3300
 2700SOL    HW119736   4.067   0.748   5.439 -0.3613 -1.2730 -1.4247
 2700SOL    HW219737   4.011   0.612   5.433  0.3257 -1.5240  1.3864
 2701SOL     OW19738   2.260   1.120   3.506 -0.0528 -0.4876 -0.1140
 2701SOL    HW119739   2.232   1.028   3.509 -0.2410 -0.4513 -0.6653
 2701SOL    HW219740   2.311   1.115   3.424 -0.1059  1.3553 -0.2481
 2702SOL     OW19741   3.189   4.380  15.184 -0.2351 -0.2417  0.1282
 2702SOL    HW119742   3.182   4.320  15.110  1.0780  0.7132 -0.7566
 2702SOL    HW219743   3.118   4.439  15.158 -0.3477 -0.8490 -0.9469
 2703SOL     OW19744   2.119   1.555   9.594  0.3442  0.0804 -0.1882
 2703SOL    HW119745   2.080   1.629   9.549  0.9646 -0.2002 -1.1900
 2703SOL    HW219746   2.069   1.484   9.554 -1.9226  0.7217  1.5153
 2704SOL     OW19747   3.056   3.950   7.487 -0.9126 -0.8272 -0.3589
 2704SOL    HW119748   3.074   3.857   7.501  0.8786 -0.5469 -0.7173
 2704SOL    HW219749   2.965   3.943   7.461 -0.2557 -1.7347 -2.4624
 2705SOL     OW19750   4.008   3.629   5.575 -0.1017 -0.4490 -0.5086
 2705SOL    HW119751   3.988   3.619   5.482 -3.0268 -1.4806  0.2493
 2705SOL    HW219752   3.927   3.617   5.624 -0.6826  1.6509 -0.9640
 2706SOL     OW19753   4.173   3.970   4.242  0.1390  0.5210 -0.6568
 2706SOL    HW119754   4.089   4.004   4.273  0.5003  1.7835 -1.0731
 2706SOL    HW219755   4.162   3.996   4.150 -1.5799 -0.7453 -0.8111
 2707SOL     OW19756   3.635   1.757   7.176  0.3073  0.2456 -0.6164
 2707SOL    HW119757   3.579   1.683   7.152  0.2327  0.3060 -0.6271
 2707SOL    HW219758   3.650   1.803   7.094  2.2061  3.0034  1.2340
 2708SOL     OW19759   3.083   0.880   1.578 -0.4031  0.0894 -0.1420
 2708SOL    HW119760   2.992   0.907   1.564 -0.8368 -1.3284 -0.0497
 2708SOL    HW219761   3.085   0.801   1.524 -0.8899 -0.7307  1.0338
 2709SOL     OW19762   0.977   3.790   7.110 -0.2401 -0.2847  0.1982
 2709SOL    HW119763   1.025   3.717   7.150  1.5884  0.8736  0.0860
 2709SOL    HW219764   0.950   3.745   7.031  0.5220  0.3223 -0.4033
 2710SOL     OW19765   2.358   1.066   9.297  0.9495 -0.0581  0.0096
 2710SOL    HW119766   2.407   0.984   9.299  0.7423 -0.1478  1.3790
 2710SOL    HW219767   2.370   1.084   9.204 -1.1515 -1.2176 -0.4886
 2711SOL     OW19768   4.145   1.087   2.961 -0.2124 -0.2683  0.3180
 2711SOL    HW119769   4.194   1.145   3.019  1.3156 -0.3785 -0.8481
 2711SOL    HW219770   4.093   1.155   2.918 -0.9920 -0.6161  0.7152
 2712SOL     OW19771   0.878   3.397   9.249 -0.0797 -0.0948  0.1255
 2712SOL    HW119772   0.963   3.372   9.284  0.0812  1.9598  1.2030
 2712SOL    HW219773   0.896   3.369   9.159  0.2625 -1.4183  0.6105
 2713SOL     OW19774   1.650   0.638   3.598  0.3935 -0.1943  0.3975
 2713SOL    HW119775   1.673   0.625   3.690 -0.5133  1.7736  0.9122
 2713SOL    HW219776   1.569   0.686   3.615 -0.5571 -1.7809  0.3655
 2714SOL     OW19777   3.734   3.238   3.764 -0.4746  0.8639 -0.1147
 2714SOL    HW119778   3.707   3.325   3.733  1.1541  0.4095 -2.7544
 2714SOL    HW219779   3.780   3.196   3.692 -0.0990  1.7848 -0.4171
 2715SOL     OW19780   1.724   3.123   1.701 -0.0659  0.2862 -0.2528
 2715SOL    HW119781   1.632   3.099   1.714  0.4932 -0.1956  2.7287
 2715SOL    HW219782   1.731   3.127   1.606 -0.0353 -2.6753 -0.3747
 2716SOL     OW19783   1.809   1.955   7.316  0.7392  0.2367 -0.1740
 2716SOL    HW119784   1.817   2.011   7.239  0.4570 -1.3280 -1.3525
 2716SOL    HW219785   1.903   1.961   7.332  0.8756  0.8364 -1.2009
 2717SOL     OW19786   0.951   4.705   4.340 -0.4216 -0.0739 -0.9050
 2717SOL    HW119787   0.946   0.062   4.351 -2.5458 -0.1411 -1.2846
 2717SOL    HW219788   0.919   4.674   4.425 -1.8560 -0.9822 -1.7602
 2718SOL     OW19789   3.547   3.310  15.098 -0.2531  0.2700 -0.3846
 2718SOL    HW119790   3.497   3.245  15.147 -0.2783 -0.4253 -1.3346
 2718SOL    HW219791   3.604   3.355  15.161  0.9914 -1.5832 -0.1761
 2719SOL     OW19792   1.573   4.479   2.346  0.0719 -0.2532 -0.3188
 2719SOL    HW119793   1.583   4.429   2.428 -0.2374  1.2574  0.6481
 2719SOL    HW219794   1.481   4.487   2.322 -0.0938  0.1820  0.4477
 2720SOL     OW19795   1.427   2.422   0.344 -0.3651 -0.1990  0.1683
 2720SOL    HW119796   1.392   2.478   0.275 -2.0157  0.6845  1.7225
 2720SOL    HW219797   1.475   2.493   0.387 -0.5677  0.4793 -0.7249
 2721SOL     OW19798   4.005   0.787   7.881 -0.3962 -0.4153 -0.6152
 2721SOL    HW119799   4.101   0.784   7.877 -0.3354 -0.7987  1.2032
 2721SOL    HW219800   3.980   0.765   7.791  0.6386 -1.9140 -0.5331
 2722SOL     OW19801   1.255   3.487   4.632  0.1328 -0.0254 -0.1818
 2722SOL    HW119802   1.202   3.513   4.557 -0.3185 -1.2210 -0.2651
 2722SOL    HW219803   1.190   3.445   4.688  0.4532  0.0714  0.2623
 2723SOL     OW19804   1.654   3.403   3.640  0.1115  0.0940 -0.5896
 2723SOL    HW119805   1.596   3.451   3.581  0.4554  2.4759  0.9906
 2723SOL    HW219806   1.652   3.468   3.710  0.2275 -0.4120 -0.1170
 2724SOL     OW19807   1.445   4.359   4.611 -0.0834  0.8017 -0.8095
 2724SOL    HW119808   1.405   4.274   4.590  2.2374  0.2630 -3.0785
 2724SOL    HW219809   1.375   4.401   4.660 -0.0060 -0.1778  0.1420
 2725SOL     OW19810   4.049   1.943  11.581  0.5232  0.1854 -0.1032
 2725SOL    HW119811   4.124   2.000  11.596 -0.3501  0.4694  3.1413
 2725SOL    HW219812   4.087   1.890  11.512  0.9595 -0.9185  1.0077
 2726SOL     OW19813   0.226   2.720  15.969  0.1170 -0.1503 -0.0028
 2726SOL    HW119814   0.154   2.778  15.942  2.1728  1.6632 -1.5374
 2726SOL    HW219815   0.200   2.699  16.059  1.6004 -0.8358  0.2689
 2727SOL     OW19816   1.091   1.777   4.835  0.6856  0.0422  0.3775
 2727SOL    HW119817   1.145   1.845   4.875  1.1852 -0.9717  1.4378
 2727SOL    HW219818   1.110   1.699   4.887  0.9625  0.9984  1.7251
 2728SOL     OW19819   1.245   4.697   5.987 -0.0380  0.2684 -0.6601
 2728SOL    HW119820   1.237   0.005   5.903 -1.9851  0.2208 -0.5102
 2728SOL    HW219821   1.194   0.008   6.052 -1.0963 -1.7890  0.0499
 2729SOL     OW19822   3.013   3.044  14.403 -0.1239  0.3678 -0.3895
 2729SOL    HW119823   2.936   3.083  14.445 -0.6760 -3.3228  2.0206
 2729SOL    HW219824   2.982   2.955  14.386 -0.4302  0.0752  1.6177
 2730SOL     OW19825   0.578   0.564   0.903  0.4048  0.1965  0.0464
 2730SOL    HW119826   0.544   0.484   0.863 -0.7578  0.3241  0.7868
 2730SOL    HW219827   0.672   0.548   0.906  0.5236  0.9650  0.3275
 2731SOL     OW19828   4.608   1.830   2.313 -0.0142  0.4906  0.0045
 2731SOL    HW119829   4.602   1.842   2.218  0.5916 -2.1615 -0.3758
 2731SOL    HW219830   4.611   1.916   2.354 -0.1047  1.4251 -1.9614
 2732SOL     OW19831   3.506   0.710  11.432  0.3305  0.4795 -0.2675
 2732SOL    HW119832   3.549   0.669  11.507  2.1292  1.1112 -0.9618
 2732SOL    HW219833   3.573   0.719  11.365  2.6051  0.6419  2.0350
 2733SOL     OW19834   1.769   0.303   2.094  0.7365  0.0065 -0.3109
 2733SOL    HW119835   1.761   0.211   2.065 -1.0547 -0.0468  0.3203
 2733SOL    HW219836   1.735   0.349   2.017 -0.1779 -0.9482 -0.4935
 2734SOL     OW19837   3.669   1.686  10.867  0.5426  0.3791  0.1633
 2734SOL    HW119838   3.650   1.599  10.902  1.4036 -0.2213 -0.8683
 2734SOL    HW219839   3.708   1.730  10.943  0.2982  1.2288 -0.2031
 2735SOL     OW19840   3.969   4.316   6.306 -0.2508 -0.3701 -0.5819
 2735SOL    HW119841   3.947   4.319   6.212  0.1064  0.6347 -0.6432
 2735SOL    HW219842   3.903   4.376   6.342 -0.4104 -1.8121  1.4970
 2736SOL     OW19843   3.694   1.574  17.601 -0.1591  0.1058 -0.3732
 2736SOL    HW119844   3.722   1.659  17.636 -0.6637  0.0623  0.1377
 2736SOL    HW219845   3.752   1.510  17.640  0.1712 -0.2802 -1.4896
 2737SOL     OW19846   3.183   1.540   9.079  0.2873 -0.0099 -0.3408
 2737SOL    HW119847   3.197   1.579   8.992  0.6461 -1.3775 -0.9040
 2737SOL    HW219848   3.264   1.575   9.115 -0.7037 -0.3923  2.2264
 2738SOL     OW19849   4.263   1.247   3.137  0.0794 -0.2855  0.5589
 2738SOL    HW119850   4.357   1.261   3.128  0.1932 -0.9430  0.7382
 2738SOL    HW219851   4.240   1.310   3.206  0.6426  1.9699 -1.3265
 2739SOL     OW19852   0.469   0.507   8.350 -0.1608  0.4067 -0.2506
 2739SOL    HW119853   0.383   0.480   8.317 -0.5985  0.0516  1.1557
 2739SOL    HW219854   0.507   0.429   8.391 -1.5227  0.9628  2.0651
 2740SOL     OW19855   3.976   4.384   4.314 -0.0217  0.5217  0.0723
 2740SOL    HW119856   4.022   4.425   4.387 -1.1790 -2.5418  2.4974
 2740SOL    HW219857   3.885   4.392   4.339  0.1529 -0.5773  1.0394
 2741SOL     OW19858   2.417   0.720  13.411  0.0148  0.4497  0.6774
 2741SOL    HW119859   2.457   0.780  13.473  2.4182 -0.6743  0.1988
 2741SOL    HW219860   2.373   0.668  13.479 -0.3932 -2.2876 -1.6629
 2742SOL     OW19861   1.517   3.380   6.575  0.0143 -0.5348 -0.1727
 2742SOL    HW119862   1.491   3.439   6.504  0.9803 -1.3776 -1.2161
 2742SOL    HW219863   1.498   3.438   6.649  0.4860 -0.5138 -0.0667
 2743SOL     OW19864   1.512   3.547   6.782  0.1407 -0.7407  0.2587
 2743SOL    HW119865   1.432   3.529   6.830  0.3645  0.7109  1.1681
 2743SOL    HW219866   1.498   3.640   6.760  1.5175 -0.7359 -0.6068
 2744SOL     OW19867   1.665   2.473   2.861  0.1373  1.2514  0.0238
 2744SOL    HW119868   1.596   2.408   2.873  1.1819  0.1519  0.0627
 2744SOL    HW219869   1.626   2.554   2.893  1.8006  1.7660  0.7053
 2745SOL     OW19870   0.806   0.709   5.198 -0.2309  0.1243 -0.0122
 2745SOL    HW119871   0.747   0.712   5.122 -0.6532  0.5748  0.3377
 2745SOL    HW219872   0.759   0.641   5.245 -1.5125  0.8194 -0.3097
 2746SOL     OW19873   1.912   0.120   6.032  0.2154  0.0364  0.0875
 2746SOL    HW119874   1.970   0.050   6.062  1.3027  1.3147  0.9824
 2746SOL    HW219875   1.954   0.173   5.965  1.5101 -0.9070  0.1375
 2747SOL     OW19876   2.679   2.126   4.699  0.2468  0.3321  0.6287
 2747SOL    HW119877   2.592   2.118   4.659  0.7876  0.0362 -0.4953
 2747SOL    HW219878   2.696   2.211   4.658 -1.6825  1.1481  1.5260
 2748SOL     OW19879   0.767   4.049  16.630 -0.6852  0.3692 -0.0614
 2748SOL    HW119880   0.710   3.972  16.632  1.3227 -1.0936  1.0340
 2748SOL    HW219881   0.710   4.111  16.583 -1.2415 -1.1880 -1.4820
 2749SOL     OW19882   0.927   0.636   5.540  0.1370 -0.2321  0.6109
 2749SOL    HW119883   0.850   0.623   5.484 -0.8989 -1.0908  2.2229
 2749SOL    HW219884   0.886   0.675   5.617  1.9667  1.9602  0.4657
 2750SOL     OW19885   4.428   3.160   3.090 -0.4583 -0.0755 -0.3451
 2750SOL    HW119886   4.464   3.073   3.071 -0.5012  0.3390 -2.3327
 2750SOL    HW219887   4.422   3.145   3.184  0.2046  1.6541 -0.0318
 2751SOL     OW19888   1.698   2.940  15.634  0.4184  0.1052  0.2069
 2751SOL    HW119889   1.666   3.028  15.615 -1.3856 -0.0348  2.7472
 2751SOL    HW219890   1.723   2.949  15.726  0.3353  1.1126  0.1311
 2752SOL     OW19891   2.224   3.461   2.421  0.8099  0.2854 -0.1604
 2752SOL    HW119892   2.186   3.492   2.338 -0.7530  0.5054  0.6446
 2752SOL    HW219893   2.149   3.447   2.478 -0.4433  0.0490 -1.8416
 2753SOL     OW19894   1.160   3.067   2.616  0.1443  0.2709  0.9245
 2753SOL    HW119895   1.235   3.070   2.556 -1.1746 -0.6637 -0.7865
 2753SOL    HW219896   1.090   3.089   2.554 -1.5125 -2.2775  1.8580
 2754SOL     OW19897   0.021   0.101   6.907 -0.3347 -0.3990 -0.3243
 2754SOL    HW119898   0.061   0.187   6.898 -1.3318  0.2012  1.0203
 2754SOL    HW219899   4.694   0.103   6.836  0.4707 -0.5190 -1.0570
 2755SOL     OW19900   3.016   1.215   5.444 -0.3025  0.0692  0.4465
 2755SOL    HW119901   3.108   1.206   5.470  0.7203  0.9325 -2.9089
 2755SOL    HW219902   2.971   1.227   5.527 -1.1436  0.1369 -0.0207
 2756SOL     OW19903   2.508   3.321   6.764 -0.1928 -0.1093  0.0807
 2756SOL    HW119904   2.451   3.359   6.697  0.5668 -1.2220 -1.1947
 2756SOL    HW219905   2.582   3.297   6.708 -0.5290 -1.0942  0.0447
 2757SOL     OW19906   0.341   0.424   3.297  0.5448 -0.5497 -0.2636
 2757SOL    HW119907   0.260   0.405   3.345  1.1353  1.0242  1.3626
 2757SOL    HW219908   0.388   0.341   3.309  0.8069 -0.3004  0.4011
 2758SOL     OW19909   2.189   3.926  13.969 -0.3307 -0.2851 -0.0404
 2758SOL    HW119910   2.211   3.921  14.062 -1.1487 -0.6523  0.1305
 2758SOL    HW219911   2.120   3.990  13.983 -0.9670 -0.7757 -0.8950
 2759SOL     OW19912   3.286   0.216  12.655  0.2359 -0.5473  0.1114
 2759SOL    HW119913   3.296   0.306  12.624 -0.6667 -0.2471  0.6871
 2759SOL    HW219914   3.361   0.216  12.715 -1.0293  5.3320  1.6780
 2760SOL     OW19915   2.117   1.467  16.979 -0.5048 -0.1276  0.8255
 2760SOL    HW119916   2.195   1.479  17.034  0.5710 -0.1424 -0.7234
 2760SOL    HW219917   2.073   1.550  16.995 -1.4926 -0.1433 -1.7898
 2761SOL     OW19918   4.583   4.219  12.173  0.1038 -0.0445  0.3498
 2761SOL    HW119919   4.625   4.179  12.249 -0.3231 -0.3666  0.4159
 2761SOL    HW219920   4.659   4.246  12.121 -1.7699  3.6605 -0.4425
 2762SOL     OW19921   0.526   2.865  16.196 -0.5770  0.3682 -0.2392
 2762SOL    HW119922   0.529   2.960  16.203  0.4629  0.4582 -1.8911
 2762SOL    HW219923   0.550   2.837  16.284  2.9246  1.0196 -1.0045
 2763SOL     OW19924   1.713   1.584   8.626  0.7228  0.5382  0.0884
 2763SOL    HW119925   1.620   1.606   8.635  0.3693 -0.4127 -1.1604
 2763SOL    HW219926   1.747   1.638   8.554 -0.4431 -0.0234 -0.8765
 2764SOL     OW19927   4.409   2.872  17.131 -0.2615  0.3470  0.1573
 2764SOL    HW119928   4.437   2.780  17.134  1.1436  0.7181 -1.1756
 2764SOL    HW219929   4.396   2.890  17.224  0.5778 -0.4008  0.4201
 2765SOL     OW19930   3.566   2.993   7.384  0.3349  0.2179 -0.3571
 2765SOL    HW119931   3.501   2.994   7.313 -0.4836 -2.4506  0.3636
 2765SOL    HW219932   3.536   3.066   7.438  2.2686 -0.1571  1.2154
 2766SOL     OW19933   4.582   3.836  13.828  0.1725 -0.1876 -1.0834
 2766SOL    HW119934   4.530   3.857  13.750  2.5254 -0.9990 -2.8784
 2766SOL    HW219935   4.671   3.842  13.793  0.6581  0.0539  0.2191
 2767SOL     OW19936   3.391   3.604   6.855 -0.3041 -0.6252  0.2542
 2767SOL    HW119937   3.337   3.598   6.775  0.1570  0.3992 -0.1342
 2767SOL    HW219938   3.346   3.544   6.913 -0.3636 -1.2406 -0.4310
 2768SOL     OW19939   1.028   2.071   5.473 -0.4128 -0.2785  0.4359
 2768SOL    HW119940   1.104   2.080   5.531 -1.9802 -1.9794  2.7802
 2768SOL    HW219941   1.069   2.093   5.390  0.3912 -2.1215  0.3454
 2769SOL     OW19942   2.652   3.107   5.297 -0.0846  0.3186 -0.2251
 2769SOL    HW119943   2.612   3.082   5.380  1.3979 -2.1380 -0.2545
 2769SOL    HW219944   2.650   3.203   5.295 -1.7595  0.2393 -2.5531
 2770SOL     OW19945   4.566   3.761   4.058 -0.1179  0.0657  0.4541
 2770SOL    HW119946   4.507   3.816   4.109 -0.8249  0.1809 -0.5024
 2770SOL    HW219947   4.492   3.713   4.022 -0.8225 -0.0433  2.0339
 2771SOL     OW19948   0.038   4.307  11.423  0.0601  0.2382  0.0130
 2771SOL    HW119949   4.702   4.299  11.482  0.7272  4.3759  1.4027
 2771SOL    HW219950   0.005   4.250  11.353  0.7247  0.4815 -0.5068
 2772SOL     OW19951   2.505   0.408   3.985 -0.9819 -0.0590  0.0950
 2772SOL    HW119952   2.559   0.385   3.910 -0.3234 -2.7576  1.4086
 2772SOL    HW219953   2.432   0.347   3.985 -0.6423 -0.4630  0.0136
 2773SOL     OW19954   1.710   1.972   2.305 -0.4487 -0.3986 -0.3547
 2773SOL    HW119955   1.745   2.037   2.243 -3.2871  0.4044 -1.1379
 2773SOL    HW219956   1.653   1.919   2.250 -1.3197  0.5520 -0.3838
 2774SOL     OW19957   1.448   2.757   7.629 -0.3261  0.1391 -0.0007
 2774SOL    HW119958   1.366   2.726   7.589 -1.0846  1.7733  0.2540
 2774SOL    HW219959   1.443   2.717   7.716  1.4625  3.0486  1.4366
 2775SOL     OW19960   1.019   0.401   4.317 -0.4042 -0.4408 -0.1935
 2775SOL    HW119961   1.099   0.448   4.336  0.1449 -1.7652  0.7555
 2775SOL    HW219962   1.048   0.342   4.247  0.2838  0.4199 -0.6258
 2776SOL     OW19963   1.783   2.971   3.509  0.2602  0.7265 -0.0629
 2776SOL    HW119964   1.701   3.017   3.525 -1.4773 -3.1796  2.4470
 2776SOL    HW219965   1.745   2.885   3.487  0.7178  0.3282  0.7039
 2777SOL     OW19966   1.317   3.427   5.988  0.0136  0.1586 -0.0815
 2777SOL    HW119967   1.323   3.335   5.961  0.8912 -0.6701  2.9102
 2777SOL    HW219968   1.276   3.461   5.908 -0.9558 -1.6142 -0.3441
 2778SOL     OW19969   3.618   1.020   2.303 -0.1142 -0.5710 -0.4418
 2778SOL    HW119970   3.597   0.959   2.233  0.8464  0.8271 -1.9403
 2778SOL    HW219971   3.702   0.993   2.341 -1.9340 -3.5154  1.4868
 2779SOL     OW19972   3.910   2.855   1.591 -0.0230  0.2368  0.1222
 2779SOL    HW119973   3.901   2.762   1.570 -2.4813  0.1459  1.6153
 2779SOL    HW219974   3.823   2.868   1.629 -0.7956 -2.7776 -0.6353
 2780SOL     OW19975   4.726   0.740  17.415  0.1364 -0.0208 -0.0810
 2780SOL    HW119976   0.037   0.725  17.496  0.6053 -2.0244 -0.7399
 2780SOL    HW219977   0.013   0.665  17.360 -1.6863 -2.2908  2.2294
 2781SOL     OW19978   3.555   0.815  17.352  0.0456 -0.0700 -0.2137
 2781SOL    HW119979   3.638   0.774  17.377 -0.7376 -1.1629  0.5988
 2781SOL    HW219980   3.534   0.877  17.421 -1.2861  1.8977 -2.3875
 2782SOL     OW19981   4.056   2.367   3.583 -0.1140 -0.2532 -0.3524
 2782SOL    HW119982   4.048   2.384   3.489  1.2935 -2.9103 -0.9428
 2782SOL    HW219983   3.971   2.356   3.625  0.3956  1.3433  1.1009
 2783SOL     OW19984   3.416   3.793   4.002  0.0504  0.0071  0.0271
 2783SOL    HW119985   3.507   3.808   4.026  0.4163 -0.6999 -0.9356
 2783SOL    HW219986   3.425   3.764   3.912  0.3596  0.9183 -0.2351
 2784SOL     OW19987   3.195   1.566  12.861 -0.2554  0.4441  0.3429
 2784SOL    HW119988   3.106   1.580  12.891 -0.7652 -0.8517 -0.5718
 2784SOL    HW219989   3.209   1.472  12.853  0.3212  0.4154  1.5806
 2785SOL     OW19990   0.429   3.358   2.682 -0.2502 -0.2939  0.2917
 2785SOL    HW119991   0.470   3.286   2.635  0.2854 -0.5720  1.1868
 2785SOL    HW219992   0.353   3.328   2.731 -0.0030 -1.1172  0.1707
 2786SOL     OW19993   0.657   0.662  12.131  0.0487  0.0063 -0.2412
 2786SOL    HW119994   0.741   0.662  12.177  0.4286  1.9488 -0.9158
 2786SOL    HW219995   0.594   0.630  12.195  0.2315 -2.2820 -1.2329
 2787SOL     OW19996   2.011   0.058   7.170 -0.3358  0.0424  0.3509
 2787SOL    HW119997   2.077   4.730   7.148  0.1695  0.9788 -0.9489
 2787SOL    HW219998   1.997   0.090   7.081 -0.5373  2.7586  1.3605
 2788SOL     OW19999   1.218   2.383   3.061  0.2281  0.4900 -0.0583
 2788SOL    HW120000   1.226   2.412   3.152 -0.9198  1.5438 -0.2868
 2788SOL    HW220001   1.126   2.404   3.044  0.6855  1.1908 -1.6994
 2789SOL     OW20002   1.076   3.685   3.233  0.0624 -0.4070 -0.3982
 2789SOL    HW120003   0.989   3.699   3.270  0.4269  0.1621  0.2521
 2789SOL    HW220004   1.068   3.618   3.165 -1.1825  0.5470 -1.1946
 2790SOL     OW20005   2.412   2.989   1.501 -0.0766 -0.2932 -0.0356
 2790SOL    HW120006   2.380   3.079   1.511 -2.1488 -0.8973 -1.1566
 2790SOL    HW220007   2.333   2.963   1.453  0.0567 -0.6211 -0.0780
 2791SOL     OW20008   4.577   1.499   1.269 -0.5550 -0.5210 -0.3209
 2791SOL    HW120009   4.553   1.514   1.360  0.7635  0.8770 -0.2119
 2791SOL    HW220010   4.501   1.445   1.246 -1.5247  1.3027 -1.3844
 2792SOL     OW20011   1.619   3.438   5.311  0.0350  0.4247 -0.3276
 2792SOL    HW120012   1.661   3.390   5.382 -1.6035  1.0752  1.0583
 2792SOL    HW220013   1.695   3.462   5.257 -0.0610 -0.5482 -0.9017
 2793SOL     OW20014   3.502   0.455   6.171  0.3140 -0.0476  0.6113
 2793SOL    HW120015   3.450   0.521   6.216  0.1941 -0.0737  0.5085
 2793SOL    HW220016   3.485   0.482   6.081  1.7300 -0.4008  0.2288
 2794SOL     OW20017   0.057   1.426   8.296  0.5953  0.2616  0.3150
 2794SOL    HW120018   0.031   1.428   8.388 -0.0562  0.8428  0.1133
 2794SOL    HW220019   4.711   1.403   8.255  1.1590  0.0156 -0.7102
 2795SOL     OW20020   3.324   3.506   8.035 -0.2766 -0.2586 -0.4604
 2795SOL    HW120021   3.335   3.440   8.104  0.3304  0.8457  0.5080
 2795SOL    HW220022   3.259   3.569   8.067 -0.4012 -1.2923  1.3548
 2796SOL     OW20023   0.666   3.489   5.333  0.4369 -0.6842 -0.7490
 2796SOL    HW120024   0.736   3.477   5.397  0.1351 -1.7951 -0.6212
 2796SOL    HW220025   0.595   3.512   5.393 -0.0734  0.2556 -1.7251
 2797SOL     OW20026   3.666   2.641  11.821  0.2974 -0.3438  0.3132
 2797SOL    HW120027   3.677   2.597  11.737 -1.3653  0.3424 -0.2709
 2797SOL    HW220028   3.699   2.568  11.874  0.2042 -0.6444 -0.0452
 2798SOL     OW20029   2.528   3.197   4.569 -0.3710 -0.1814  0.0230
 2798SOL    HW120030   2.463   3.227   4.632  0.6616 -0.4957  1.2478
 2798SOL    HW220031   2.499   3.239   4.488 -0.5202  1.5241  0.9726
 2799SOL     OW20032   3.365   3.003   8.637  0.1355 -0.4265 -1.0076
 2799SOL    HW120033   3.436   2.989   8.574  1.6651 -0.4203  0.7058
 2799SOL    HW220034   3.378   2.938   8.706 -1.7088  0.4758  0.1940
 2800SOL     OW20035   3.944   2.815   3.562  0.0675 -0.6367 -0.5210
 2800SOL    HW120036   3.933   2.764   3.642  0.8601 -0.6282 -0.4127
 2800SOL    HW220037   4.039   2.818   3.560  0.0390  0.8392  0.0724
 2801SOL     OW20038   3.443   1.887   5.011 -0.1890 -0.6402 -0.5922
 2801SOL    HW120039   3.382   1.931   4.952 -0.1926  0.5975  0.3253
 2801SOL    HW220040   3.525   1.932   4.992 -0.2546 -0.0178  0.5717
 2802SOL     OW20041   1.046   3.762   7.482 -0.1706 -0.8128  0.2274
 2802SOL    HW120042   1.067   3.852   7.456 -0.5140 -0.8340 -0.1296
 2802SOL    HW220043   1.133   3.723   7.480  0.3958  0.4955 -0.7988
 2803SOL     OW20044   2.199   1.246   9.381 -0.3895 -0.1617  0.1736
 2803SOL    HW120045   2.257   1.175   9.354 -0.0270 -0.0379  0.6378
 2803SOL    HW220046   2.262   1.316   9.397  0.1830 -0.4576 -0.8075
 2804SOL     OW20047   2.121   2.014  17.667  0.0383  0.0966  0.0423
 2804SOL    HW120048   2.116   2.107  17.643  1.6310  0.6954  2.0283
 2804SOL    HW220049   2.149   1.978  17.583 -0.3823  2.0505 -0.9427
 2805SOL     OW20050   1.803   1.752  10.548 -0.6642 -0.2489 -0.6883
 2805SOL    HW120051   1.799   1.706  10.632 -1.4097  2.9779  1.0347
 2805SOL    HW220052   1.878   1.703  10.514 -1.3855 -0.0354 -2.5719
 2806SOL     OW20053   4.542   0.425   2.933 -0.3977 -0.2465  0.5633
 2806SOL    HW120054   4.591   0.418   3.015  1.5929  1.8438 -0.4387
 2806SOL    HW220055   4.475   0.492   2.948 -2.4262 -2.1677  0.1595
 2807SOL     OW20056   2.051   3.114   4.152  0.0865 -0.0933  0.4619
 2807SOL    HW120057   1.957   3.125   4.168  0.2787 -0.5921  1.9441
 2807SOL    HW220058   2.096   3.100   4.236  0.8681  0.4790  0.1336
 2808SOL     OW20059   4.225   2.843  11.188 -0.0359  0.1381 -0.2375
 2808SOL    HW120060   4.192   2.756  11.166  1.2936 -0.4965  0.3139
 2808SOL    HW220061   4.241   2.867  11.097 -0.7150  1.9113  0.0965
 2809SOL     OW20062   3.095   2.341   8.383  0.1319 -0.2167  0.0855
 2809SOL    HW120063   2.999   2.347   8.379  0.1935  0.6844 -0.1598
 2809SOL    HW220064   3.117   2.326   8.291 -0.3601  2.3099 -0.4610
 2810SOL     OW20065   3.676   4.492   7.924 -0.8044 -0.5691 -0.2330
 2810SOL    HW120066   3.603   4.449   7.881 -0.9320 -0.5920  0.0088
 2810SOL    HW220067   3.733   4.416   7.911  1.4833  1.6430 -3.2212
 2811SOL     OW20068   4.090   0.335   6.609 -0.2839  0.4433 -0.0779
 2811SOL    HW120069   4.007   0.310   6.648 -0.0258  0.0756  0.2322
 2811SOL    HW220070   4.115   0.413   6.658 -3.2246  0.9957  0.5632
 2812SOL     OW20071   1.984   0.096   9.811 -0.0964  0.4229  0.2545
 2812SOL    HW120072   1.920   0.133   9.872  0.8515  0.8504  0.9880
 2812SOL    HW220073   2.060   0.110   9.868  0.3865  1.2477 -0.5938
 2813SOL     OW20074   1.053   3.020   1.282 -0.1049  0.1929  0.0020
 2813SOL    HW120075   1.029   3.032   1.373 -1.1967 -1.1935 -0.1004
 2813SOL    HW220076   0.968   2.988   1.254 -0.6947  1.7391  0.0483
 2814SOL     OW20077   4.119   1.210   6.809 -0.2016  0.0661 -0.6702
 2814SOL    HW120078   4.188   1.229   6.746  1.4709  1.1392  1.4614
 2814SOL    HW220079   4.097   1.120   6.788  0.0953 -0.4811  1.3406
 2815SOL     OW20080   2.918   0.374  13.184 -0.2929 -0.8079  0.7675
 2815SOL    HW120081   2.843   0.391  13.241 -1.9442 -1.1009 -1.3007
 2815SOL    HW220082   2.968   0.453  13.205  0.1150 -0.4313 -1.6610
 2816SOL     OW20083   2.895   0.450   1.622  0.4549 -0.4014  0.2883
 2816SOL    HW120084   2.918   0.490   1.539  0.9411  3.7088  2.3825
 2816SOL    HW220085   2.813   0.402   1.610  1.8794 -2.7017 -0.1980
 2817SOL     OW20086   1.563   1.851   4.714  0.7361 -0.3708 -0.0462
 2817SOL    HW120087   1.560   1.805   4.630 -1.9764  0.4198 -0.3876
 2817SOL    HW220088   1.657   1.864   4.724 -0.0275  0.4877  5.6868
 2818SOL     OW20089   3.218   0.812   3.086  0.5680 -0.1063 -0.4245
 2818SOL    HW120090   3.210   0.780   3.176 -3.0570  0.3857 -0.5529
 2818SOL    HW220091   3.153   0.765   3.034 -0.1383 -1.6772  1.8665
 2819SOL     OW20092   2.102   4.648  12.562  0.1878 -0.2504 -0.0706
 2819SOL    HW120093   2.089   4.556  12.584  2.4684 -0.7273 -0.7278
 2819SOL    HW220094   2.020   4.662  12.514  0.2898  2.1228  0.4319
 2820SOL     OW20095   3.411   3.249  10.308 -0.4600  0.0315  0.4313
 2820SOL    HW120096   3.353   3.325  10.302 -0.2610  0.1680  0.2241
 2820SOL    HW220097   3.386   3.199  10.231 -0.7815 -1.1184  1.2911
 2821SOL     OW20098   0.124   2.324   3.884 -0.1827 -0.7489  0.0190
 2821SOL    HW120099   0.127   2.308   3.978 -0.8588 -0.0090  0.1660
 2821SOL    HW220100   0.043   2.370   3.861  0.9048  0.6836 -0.9657
 2822SOL     OW20101   0.997   1.740   6.359 -0.9460  0.3201 -0.1012
 2822SOL    HW120102   0.943   1.664   6.336  1.2536 -1.5731  0.9587
 2822SOL    HW220103   1.039   1.719   6.442  1.9787  2.3805 -1.0850
 2823SOL     OW20104   4.619   3.965  16.664 -0.2336 -0.8860 -0.0450
 2823SOL    HW120105   4.712   3.945  16.677 -0.3923 -0.3070  2.0763
 2823SOL    HW220106   4.592   3.961  16.756 -2.4706 -1.0274 -0.7091
 2824SOL     OW20107   0.124   0.017   9.171 -0.0770 -0.5130 -0.1842
 2824SOL    HW120108   0.049   0.065   9.135 -0.7546 -0.2455  1.5948
 2824SOL    HW220109   0.119   4.672   9.123 -0.6998 -1.2282  1.1020
 2825SOL     OW20110   1.273   2.312   8.151 -0.2282 -0.0808  0.0400
 2825SOL    HW120111   1.336   2.246   8.180 -1.3574 -1.7421 -1.2811
 2825SOL    HW220112   1.194   2.284   8.198 -1.6520  3.2377 -0.3834
 2826SOL     OW20113   3.315   2.237   7.968 -0.1054 -0.4240 -0.9093
 2826SOL    HW120114   3.364   2.236   7.886 -2.0960  1.8873 -2.1231
 2826SOL    HW220115   3.386   2.256   8.029 -0.2291 -2.7397 -0.0448
 2827SOL     OW20116   0.924   0.454   9.956  0.0322 -0.9166 -0.1558
 2827SOL    HW120117   0.835   0.478   9.928 -0.1664  0.3582  1.5871
 2827SOL    HW220118   0.934   0.502  10.038  0.5188  0.3508 -0.9574
 2828SOL     OW20119   3.719   0.940   4.156  0.4282  0.6504 -0.4259
 2828SOL    HW120120   3.684   0.945   4.245 -0.6377  1.8759 -0.9183
 2828SOL    HW220121   3.807   0.909   4.177  0.2879  1.6839  1.6280
 2829SOL     OW20122   1.123   0.512   1.447 -0.2941  0.2424  0.2332
 2829SOL    HW120123   1.112   0.547   1.535  0.9038  3.3415 -0.8791
 2829SOL    HW220124   1.081   0.578   1.392 -0.7800 -1.6059 -1.6244
 2830SOL     OW20125   2.666   4.037   2.649 -0.3948 -0.8555 -0.0303
 2830SOL    HW120126   2.680   4.014   2.741 -0.2201  1.7079  0.5870
 2830SOL    HW220127   2.709   4.122   2.650  0.3016 -1.2099 -0.0543
 2831SOL     OW20128   0.513   4.714  10.160  0.0015 -0.2790 -0.2441
 2831SOL    HW120129   0.558   4.630  10.174  0.5342 -0.2102 -1.4892
 2831SOL    HW220130   0.586   0.037  10.169 -0.3717  0.0225  0.7181
 2832SOL     OW20131   1.880   2.420   8.609 -0.4418  0.3074 -0.0276
 2832SOL    HW120132   1.967   2.461   8.613  0.4672 -1.7967  1.5501
 2832SOL    HW220133   1.884   2.357   8.537  1.6443 -0.5901  0.8767
 2833SOL     OW20134   1.156   3.653   4.418  0.6178  0.5796 -0.4441
 2833SOL    HW120135   1.197   3.736   4.393 -0.5165  0.5645 -2.3060
 2833SOL    HW220136   1.193   3.588   4.359  0.3245  0.6780 -0.7348
 2834SOL     OW20137   3.953   1.163   3.249 -0.8171  0.3508 -0.5391
 2834SOL    HW120138   4.045   1.140   3.237 -0.5085  0.4428  1.6625
 2834SOL    HW220139   3.913   1.079   3.272  2.0211 -1.0221 -0.5535
 2835SOL     OW20140   2.297   3.704   2.538 -0.1463 -0.1783 -0.0969
 2835SOL    HW120141   2.287   3.609   2.538  2.0341 -0.4131 -0.1166
 2835SOL    HW220142   2.310   3.714   2.444 -0.3405 -0.1201 -0.1166
 2836SOL     OW20143   0.683   0.748  15.097 -0.0075  0.1721  0.0611
 2836SOL    HW120144   0.685   0.786  15.185 -1.3281  2.4496 -0.9109
 2836SOL    HW220145   0.675   0.829  15.047  1.4029 -0.5855 -1.4026
 2837SOL     OW20146   1.602   1.040   5.301 -0.3709 -0.2728  0.1083
 2837SOL    HW120147   1.627   1.006   5.215 -0.3018  0.0814 -0.0109
 2837SOL    HW220148   1.640   1.127   5.300  0.6624 -0.7500 -1.6777
 2838SOL     OW20149   3.408   2.493   2.429  0.1000  0.3072 -0.3400
 2838SOL    HW120150   3.366   2.569   2.470  0.6761  0.3042  0.2492
 2838SOL    HW220151   3.374   2.422   2.484 -2.1135  1.6388  0.0172
 2839SOL     OW20152   0.229   2.524   0.047 -0.1222 -0.1570  0.6249
 2839SOL    HW120153   0.167   2.554   0.114  0.0585  1.6047 -0.0113
 2839SOL    HW220154   0.163   2.491  17.733 -0.6372 -2.0120  2.1347
 2840SOL     OW20155   1.327   4.114   9.885 -0.5609 -0.0303  0.0605
 2840SOL    HW120156   1.325   4.050   9.957 -0.5491  1.9865  1.8711
 2840SOL    HW220157   1.247   4.167   9.887  0.7571  1.9223  1.1395
 2841SOL     OW20158   2.112   1.201   3.855 -0.7921  0.1713  0.2467
 2841SOL    HW120159   2.043   1.184   3.791  2.7796 -1.9342 -2.9838
 2841SOL    HW220160   2.150   1.280   3.818  0.1546 -0.5057 -0.2365
 2842SOL     OW20161   0.165   3.870   3.614 -0.8052  0.6111 -0.1054
 2842SOL    HW120162   0.144   3.777   3.610  1.2263  0.2697 -2.5155
 2842SOL    HW220163   0.191   3.883   3.523 -0.4288  2.5849  0.2783
 2843SOL     OW20164   2.412   4.663  11.620 -0.5087  0.0470 -0.1954
 2843SOL    HW120165   2.356   4.601  11.666 -0.7049 -1.3142 -2.2664
 2843SOL    HW220166   2.341   4.717  11.586 -0.1907 -0.0246 -0.9781
 2844SOL     OW20167   4.136   3.214   3.807  0.8386 -0.0216  0.1587
 2844SOL    HW120168   4.157   3.305   3.783  1.1072 -0.2503 -0.4848
 2844SOL    HW220169   4.164   3.176   3.724 -1.7722 -1.3994 -0.0930
 2845SOL     OW20170   3.074   2.906   2.014  0.0003  0.3616 -0.0561
 2845SOL    HW120171   3.108   2.817   2.004 -1.2111 -0.1778  0.5968
 2845SOL    HW220172   3.137   2.954   1.961 -0.8643  0.4109 -1.0306
 2846SOL     OW20173   1.688   0.928   4.048  0.0001 -0.2800 -0.4498
 2846SOL    HW120174   1.602   0.888   4.045 -0.8710  1.5658 -0.0790
 2846SOL    HW220175   1.739   0.847   4.044  0.2743  0.0284 -3.4930
 2847SOL     OW20176   0.083   4.138  14.774  0.4782 -0.0034  0.5035
 2847SOL    HW120177   0.127   4.072  14.829 -0.7987 -0.4973  0.9162
 2847SOL    HW220178   0.096   4.109  14.683 -0.6322 -0.7488  0.5821
 2848SOL     OW20179   3.838   2.063  11.752 -0.1612  0.1034  0.7495
 2848SOL    HW120180   3.917   2.101  11.712 -0.0148 -2.1481 -1.0949
 2848SOL    HW220181   3.770   2.081  11.687  2.5601 -2.2637 -2.7934
 2849SOL     OW20182   0.983   0.872   4.824 -0.6459  0.3008  0.2624
 2849SOL    HW120183   1.060   0.870   4.881  0.4567 -0.6171 -1.2661
 2849SOL    HW220184   0.931   0.795   4.845  0.9589 -1.4107 -1.9523
 2850SOL     OW20185   2.349   0.615   6.818 -0.3113  0.4188  0.0676
 2850SOL    HW120186   2.356   0.644   6.727 -0.9622  1.9848  0.5069
 2850SOL    HW220187   2.440   0.590   6.831 -0.8499 -0.5079  2.1363
 2851SOL     OW20188   0.852   1.133  16.929 -0.2380 -0.4814  0.0196
 2851SOL    HW120189   0.770   1.173  16.957 -0.5995 -0.4127 -1.1422
 2851SOL    HW220190   0.873   1.182  16.849 -0.1517  0.4264  0.5986
 2852SOL     OW20191   1.242   0.704   3.947 -0.4717  0.1297  0.5597
 2852SOL    HW120192   1.316   0.651   3.976  0.5231  0.2523 -1.7543
 2852SOL    HW220193   1.213   0.663   3.865  0.6056  0.8431 -0.1757
 2853SOL     OW20194   4.095   0.782  11.223 -0.3668  0.1016  0.4009
 2853SOL    HW120195   4.043   0.738  11.155  0.6489  0.8862 -0.8738
 2853SOL    HW220196   4.156   0.716  11.255 -1.7069 -1.5667 -0.4424
 2854SOL     OW20197   1.034   2.425   8.385  0.0743 -0.1488  0.1714
 2854SOL    HW120198   1.085   2.403   8.463  1.0089  1.1234 -0.0753
 2854SOL    HW220199   0.996   2.505   8.422 -1.1900 -1.7930  2.3887
 2855SOL     OW20200   1.402   0.870   4.111  0.0878 -0.5711  0.3290
 2855SOL    HW120201   1.339   0.824   4.056 -0.6841  0.8470  0.0285
 2855SOL    HW220202   1.393   0.962   4.085  0.1726 -1.1402 -1.7036
 2856SOL     OW20203   3.721   3.149  10.955  0.3024  0.3883  0.3917
 2856SOL    HW120204   3.708   3.061  10.992  0.2187 -0.7631 -2.3454
 2856SOL    HW220205   3.812   3.171  10.975  0.1389  1.9197 -0.5961
 2857SOL     OW20206   4.648   1.126   0.433 -0.2478  0.1244 -0.4102
 2857SOL    HW120207   4.631   1.220   0.439  1.6088  0.6665 -3.3825
 2857SOL    HW220208   4.558   1.098   0.454 -0.0584 -0.6037 -0.5501
 2858SOL     OW20209   1.870   0.692   5.039  0.5504  0.1899  0.1391
 2858SOL    HW120210   1.925   0.730   4.970 -0.0207  0.6432 -0.0587
 2858SOL    HW220211   1.937   0.650   5.094  0.2727 -1.7530 -1.0060
 2859SOL     OW20212   3.070   1.088   7.483 -0.7815  0.5287 -0.4413
 2859SOL    HW120213   3.052   1.181   7.472  0.4871  0.8145 -0.1575
 2859SOL    HW220214   3.036   1.077   7.572  0.8815 -1.0009  0.0029
 2860SOL     OW20215   1.631   0.243   4.402 -0.2968  0.1963 -0.3785
 2860SOL    HW120216   1.667   0.328   4.428 -0.0650 -0.1831  0.5493
 2860SOL    HW220217   1.603   0.196   4.481  2.9346 -0.4238  0.4084
 2861SOL     OW20218   0.012   3.596   4.779  0.4399  0.6933 -1.0669
 2861SOL    HW120219   4.700   3.531   4.828 -0.4437  0.1099 -2.7480
 2861SOL    HW220220   4.702   3.603   4.696 -0.7327  0.4196 -0.4209
 2862SOL     OW20221   1.830   4.734   4.451  0.2310 -0.1267  0.3509
 2862SOL    HW120222   1.786   0.069   4.495  1.3105  0.2918  0.7274
 2862SOL    HW220223   1.874   0.051   4.386  3.4793 -2.4877  0.5506
 2863SOL     OW20224   0.404   1.319   1.405 -0.3789 -0.4015 -0.1387
 2863SOL    HW120225   0.451   1.387   1.358  0.0028 -0.2424  0.4647
 2863SOL    HW220226   0.342   1.300   1.334 -0.7840  0.5301 -0.0233
 2864SOL     OW20227   1.121   2.784   2.686 -0.1577 -0.0729 -0.0532
 2864SOL    HW120228   1.154   2.763   2.773  3.4526 -3.3017 -2.2498
 2864SOL    HW220229   1.125   2.880   2.677 -0.9339 -0.0234  0.0688
 2865SOL     OW20230   1.136   0.871   3.005  0.4664 -0.6217  0.1719
 2865SOL    HW120231   1.200   0.926   2.959 -1.5984 -0.8739 -2.9858
 2865SOL    HW220232   1.181   0.863   3.089  3.0123  0.0347 -1.1178
 2866SOL     OW20233   4.625   2.910  16.564 -0.5197 -0.1210  0.2617
 2866SOL    HW120234   4.648   2.918  16.656  0.3422 -1.5357  0.1719
 2866SOL    HW220235   4.651   2.818  16.558 -0.7608 -0.1225 -0.8234
 2867SOL     OW20236   1.987   0.121   4.266 -0.3635  0.4580 -0.0616
 2867SOL    HW120237   2.065   0.066   4.269 -0.1666  0.7299 -0.3016
 2867SOL    HW220238   2.031   0.201   4.241  0.1563 -0.1487 -1.0771
 2868SOL     OW20239   4.028   1.918  14.538 -0.0906 -0.3471  0.1791
 2868SOL    HW120240   4.078   1.927  14.618 -0.3700 -0.0675  0.3235
 2868SOL    HW220241   4.067   1.999  14.503 -1.0285  0.3207  0.6597
 2869SOL     OW20242   3.510   1.749   3.905  0.2291 -0.4168 -0.3808
 2869SOL    HW120243   3.523   1.692   3.830  0.0775  1.8228 -2.0969
 2869SOL    HW220244   3.581   1.814   3.900  0.6558 -0.9605 -1.2247
 2870SOL     OW20245   3.002   1.771   7.816 -0.1891 -0.1475 -0.1038
 2870SOL    HW120246   2.936   1.701   7.818 -0.5377  0.1761 -0.2942
 2870SOL    HW220247   2.955   1.846   7.781  0.2341  0.7068  1.1888
 2871SOL     OW20248   1.704   0.870   7.072 -0.6850  0.2005 -0.2127
 2871SOL    HW120249   1.753   0.849   7.151  1.2932  0.9466 -1.2279
 2871SOL    HW220250   1.658   0.792   7.040  0.4078  0.3389 -2.1064
 2872SOL     OW20251   0.459   3.370   2.172  0.0480  0.0920  0.5822
 2872SOL    HW120252   0.485   3.295   2.119 -1.5692  1.8744 -2.7579
 2872SOL    HW220253   0.518   3.351   2.245 -1.2782 -3.4280  0.7570
 2873SOL     OW20254   4.500   1.349   0.462 -0.2737 -0.4828 -0.0025
 2873SOL    HW120255   4.438   1.389   0.402  0.9127 -1.1513 -1.6772
 2873SOL    HW220256   4.450   1.290   0.518  1.0003  0.2072  1.8793
 2874SOL     OW20257   1.506   2.109   9.406 -0.5563 -0.7043  0.1522
 2874SOL    HW120258   1.534   2.106   9.498 -0.7595  0.1661  0.2447
 2874SOL    HW220259   1.460   2.026   9.391  0.7448 -1.5338  0.7977
 2875SOL     OW20260   3.307   2.291   3.136  0.5969 -0.4137 -0.1305
 2875SOL    HW120261   3.297   2.366   3.078  0.5938 -0.6931 -0.4924
 2875SOL    HW220262   3.399   2.286   3.165  0.9451 -0.4867 -1.2404
 2876SOL     OW20263   3.941   1.588   4.629 -0.2525  0.3424  0.0499
 2876SOL    HW120264   3.997   1.511   4.623  1.7878  1.9344 -1.1956
 2876SOL    HW220265   3.899   1.563   4.711 -1.6316 -0.7601 -0.9888
 2877SOL     OW20266   1.008   4.418   4.483  0.3240  0.4953 -0.2531
 2877SOL    HW120267   1.087   4.467   4.462 -0.3197  1.6831  0.0469
 2877SOL    HW220268   1.043   4.358   4.548 -0.0119 -2.5663 -2.8932
 2878SOL     OW20269   3.750   0.198  14.004 -0.1508  0.0236  0.4715
 2878SOL    HW120270   3.779   0.289  13.995 -1.4462  0.4896  0.9174
 2878SOL    HW220271   3.779   0.160  14.086 -0.1817  0.7172  0.8069
 2879SOL     OW20272   0.023   1.816   5.354 -0.0604 -0.1752  0.2196
 2879SOL    HW120273   4.693   1.783   5.295 -1.0327  2.5791 -0.2395
 2879SOL    HW220274   4.698   1.871   5.401 -0.6939 -1.1477  0.5098
 2880SOL     OW20275   3.825   0.762  14.879 -0.5816 -0.2583 -0.9401
 2880SOL    HW120276   3.749   0.781  14.824 -1.7815 -2.2071  0.0409
 2880SOL    HW220277   3.855   0.852  14.891 -1.3165 -0.1571  0.2276
 2881SOL     OW20278   2.904   3.827   1.490 -0.0376  0.1424  0.1334
 2881SOL    HW120279   2.841   3.761   1.519 -0.1575 -0.8833 -2.4745
 2881SOL    HW220280   2.853   3.908   1.499 -0.8949 -0.6586  2.5622
 2882SOL     OW20281   2.483   3.602  15.627  0.0116  0.6039 -0.2523
 2882SOL    HW120282   2.574   3.604  15.596  0.6877  2.0020  1.8578
 2882SOL    HW220283   2.462   3.692  15.652 -0.0122 -0.1222  2.3321
 2883SOL     OW20284   0.292   1.012  13.094  0.0329  0.4322  0.1558
 2883SOL    HW120285   0.233   1.027  13.168 -0.9160  1.3604 -0.7713
 2883SOL    HW220286   0.324   1.098  13.066  1.9157  0.1018  1.3484
 2884SOL     OW20287   1.871   1.195   5.519  0.0936  0.0503 -0.0257
 2884SOL    HW120288   1.890   1.103   5.539  1.6030  1.1200  3.4437
 2884SOL    HW220289   1.954   1.239   5.535  1.0583 -1.5187 -0.7434
 2885SOL     OW20290   1.903   1.975   4.408  0.1522  0.1535 -0.0361
 2885SOL    HW120291   1.836   1.922   4.364 -1.4409  1.0054  1.3710
 2885SOL    HW220292   1.870   1.972   4.497  2.2895  1.2660  0.7800
 2886SOL     OW20293   3.310   3.094   0.309  0.6058  0.1365  0.1423
 2886SOL    HW120294   3.404   3.087   0.289  0.3911  2.8219 -1.7867
 2886SOL    HW220295   3.301   3.005   0.344  2.4159 -0.6228 -1.3372
 2887SOL     OW20296   2.160   3.690   9.229  0.1763 -0.3423 -0.3386
 2887SOL    HW120297   2.169   3.614   9.286  2.4337 -0.8411 -1.3532
 2887SOL    HW220298   2.253   3.701   9.207  0.2159 -0.5307 -0.2655
 2888SOL     OW20299   3.760   0.541   2.905  0.2575 -0.2870 -0.2319
 2888SOL    HW120300   3.733   0.532   2.814 -2.1107  0.4576  0.3839
 2888SOL    HW220301   3.842   0.589   2.894  0.6175 -0.5688  1.2397
 2889SOL     OW20302   4.638   3.894   5.328 -0.0836  0.1965  0.1656
 2889SOL    HW120303   4.670   3.946   5.254  1.4884 -1.2695 -0.1620
 2889SOL    HW220304   4.694   3.818   5.336 -1.3615 -0.9686 -2.0499
 2890SOL     OW20305   2.872   3.108   9.503  0.0459 -0.1379 -0.7074
 2890SOL    HW120306   2.888   3.184   9.448  3.1066 -0.3453 -0.1037
 2890SOL    HW220307   2.941   3.118   9.568 -2.3664  4.0504  1.1593
 2891SOL     OW20308   2.490   3.239   5.908  0.0250  0.5096  0.4948
 2891SOL    HW120309   2.405   3.239   5.953  0.7326  0.7476  1.8153
 2891SOL    HW220310   2.487   3.145   5.886  0.7698  0.2127  1.7061
 2892SOL     OW20311   1.993   2.527   6.820 -0.1395 -0.2279  0.1587
 2892SOL    HW120312   1.989   2.499   6.911 -1.0521 -0.7606 -0.0491
 2892SOL    HW220313   2.011   2.620   6.837 -2.5981  0.2983 -0.0892
 2893SOL     OW20314   0.475   2.112  15.300 -0.1049  0.1978 -0.6243
 2893SOL    HW120315   0.522   2.153  15.373 -1.3986  0.0661  0.2831
 2893SOL    HW220316   0.490   2.017  15.303  0.4868  0.2417 -2.4680
 2894SOL     OW20317   1.711   3.397  13.609  0.2601  0.4717  0.2328
 2894SOL    HW120318   1.754   3.313  13.627  1.8944  0.6694 -2.6998
 2894SOL    HW220319   1.763   3.450  13.669 -0.6950  0.7503  0.8151
 2895SOL     OW20320   2.291   2.621   9.397  0.3590 -0.2810 -0.0002
 2895SOL    HW120321   2.329   2.630   9.309 -0.4452  0.9907 -0.2250
 2895SOL    HW220322   2.202   2.597   9.371  0.3155 -0.6069  0.4527
 2896SOL     OW20323   4.145   3.976  16.664 -0.7996  0.1697  0.0019
 2896SOL    HW120324   4.131   4.067  16.637 -2.6144 -0.0519  0.2403
 2896SOL    HW220325   4.229   3.952  16.625 -0.1667 -2.3188  2.8671
 2897SOL     OW20326   0.750   4.265   3.597  0.2234  0.4008 -0.4091
 2897SOL    HW120327   0.691   4.237   3.666 -0.8200 -0.0058 -1.4787
 2897SOL    HW220328   0.738   4.194   3.534  2.6991 -2.6777  2.5823
 2898SOL     OW20329   1.976   3.549   6.105 -0.3494  0.0577 -0.3475
 2898SOL    HW120330   1.934   3.469   6.137  1.8101 -1.0871 -0.3320
 2898SOL    HW220331   1.916   3.623   6.103  0.4656  0.7353  0.3752
 2899SOL     OW20332   0.915   4.143  12.914 -0.4808  0.1357 -0.0512
 2899SOL    HW120333   0.958   4.125  12.997  1.2395 -3.8634 -1.7727
 2899SOL    HW220334   0.854   4.070  12.901  0.5913 -0.6984 -0.4525
 2900SOL     OW20335   2.576   3.066  14.257 -0.5665  0.4832  0.3296
 2900SOL    HW120336   2.668   3.049  14.279 -0.7256  0.2370  0.8197
 2900SOL    HW220337   2.555   3.001  14.189 -0.1135  1.0984 -0.3972
 2901SOL     OW20338   3.986   3.857   8.590 -0.0750 -0.0040  0.6754
 2901SOL    HW120339   3.942   3.937   8.619 -0.4170 -0.8277  2.4353
 2901SOL    HW220340   3.938   3.840   8.509 -2.9833 -0.5227  2.5184
 2902SOL     OW20341   1.686   4.405   4.510 -0.2988  0.0732  0.6789
 2902SOL    HW120342   1.686   4.337   4.443  0.2538  1.4868 -0.7561
 2902SOL    HW220343   1.604   4.380   4.554  0.1234 -1.2848  0.6965
 2903SOL     OW20344   2.992   4.172  15.425 -0.4515 -0.4953 -0.3865
 2903SOL    HW120345   3.088   4.164  15.424 -0.5057 -1.0032 -0.9989
 2903SOL    HW220346   2.973   4.115  15.351  3.4411 -1.1447 -0.9069
 2904SOL     OW20347   0.899   3.827   4.676 -0.0813  0.3130  0.5915
 2904SOL    HW120348   0.897   3.829   4.581 -2.2475 -1.3715  0.6027
 2904SOL    HW220349   0.867   3.738   4.687  1.1577 -0.1442  0.5333
 2905SOL     OW20350   3.165   3.878   7.002 -0.1832 -0.2246 -0.3882
 2905SOL    HW120351   3.085   3.927   6.984  0.3001  1.1496  1.1817
 2905SOL    HW220352   3.124   3.795   7.026 -1.1879  0.2942 -0.3379
 2906SOL     OW20353   0.027   3.574   5.567  0.1392 -0.0347 -0.0204
 2906SOL    HW120354   0.092   3.629   5.523 -0.4701  1.7579  1.2651
 2906SOL    HW220355   0.054   3.492   5.526 -0.2115  0.3648 -1.0406
 2907SOL     OW20356   3.611   3.244   2.475  0.0445 -0.3956  0.6031
 2907SOL    HW120357   3.520   3.215   2.477 -0.2102  0.4094  0.8016
 2907SOL    HW220358   3.597   3.339   2.474 -0.6678 -0.5043 -1.7852
 2908SOL     OW20359   0.860   1.231   4.277  0.1439  0.2929 -0.1860
 2908SOL    HW120360   0.949   1.200   4.292 -0.8285 -1.8121  1.2114
 2908SOL    HW220361   0.878   1.324   4.261 -1.9684  1.2472  2.8569
 2909SOL     OW20362   4.710   2.571   2.950  0.7132  0.5100  0.1323
 2909SOL    HW120363   0.024   2.636   2.997  1.3123 -1.2597  1.9464
 2909SOL    HW220364   4.687   2.630   2.878 -1.5534  0.9764  1.2320
 2910SOL     OW20365   1.346   2.313   2.365  0.6824 -0.2517 -1.1904
 2910SOL    HW120366   1.292   2.354   2.432 -0.4832 -2.6722 -0.6347
 2910SOL    HW220367   1.280   2.301   2.297 -0.1033 -1.1933 -0.2649
 2911SOL     OW20368   1.047   1.393  11.370 -0.1543 -0.1027  0.0992
 2911SOL    HW120369   1.042   1.379  11.275  0.9524  0.4036 -0.0335
 2911SOL    HW220370   0.965   1.440  11.386 -0.6488 -0.9895  0.1980
 2912SOL     OW20371   0.653   3.162   4.387  0.1842 -0.7482 -0.2159
 2912SOL    HW120372   0.611   3.077   4.371  2.9233 -2.1103 -0.1688
 2912SOL    HW220373   0.591   3.218   4.341  0.6718  0.1870  0.2847
 2913SOL     OW20374   4.086   1.603   5.164 -0.2909  0.4706 -0.6409
 2913SOL    HW120375   3.993   1.622   5.177  0.0333  1.6828 -0.1488
 2913SOL    HW220376   4.090   1.618   5.069  0.3208 -0.0318 -0.6967
 2914SOL     OW20377   0.933   1.540   5.886 -0.0304  0.1019 -0.3247
 2914SOL    HW120378   0.974   1.617   5.925  0.8222  0.2576 -1.5278
 2914SOL    HW220379   1.012   1.498   5.851 -0.0822  0.9549 -1.4517
 2915SOL     OW20380   1.728   0.787   7.846  0.0345 -0.3253 -0.2644
 2915SOL    HW120381   1.781   0.708   7.852  2.3098  1.4298  2.5930
 2915SOL    HW220382   1.701   0.797   7.938  1.2710  0.5636  0.0094
 2916SOL     OW20383   3.912   3.001   7.790  0.0822  0.0445  0.3005
 2916SOL    HW120384   3.981   2.949   7.830 -0.0960  0.1348  0.7207
 2916SOL    HW220385   3.832   2.949   7.798 -0.3290  0.7272  0.6061
 2917SOL     OW20386   0.927   3.588  15.155  0.1135 -0.1902 -0.0659
 2917SOL    HW120387   1.006   3.540  15.180  1.9880  2.8260 -0.2480
 2917SOL    HW220388   0.945   3.620  15.067 -1.3280  1.2542  0.1786
 2918SOL     OW20389   1.365   0.995   4.921  0.0973  0.2039 -0.2018
 2918SOL    HW120390   1.304   0.924   4.940 -2.5460  2.2313 -1.1885
 2918SOL    HW220391   1.427   0.962   4.855 -1.2790 -1.0139 -0.9051
 2919SOL     OW20392   0.114   3.713   7.754  0.6217 -0.3474  0.8920
 2919SOL    HW120393   0.019   3.715   7.766  0.6414 -0.4430  1.0645
 2919SOL    HW220394   0.126   3.671   7.669  0.7452  1.3154  0.0973
 2920SOL     OW20395   1.930   0.199   3.004  0.5082  0.3630  0.6692
 2920SOL    HW120396   1.956   0.108   3.016 -1.0593 -0.1623  0.0168
 2920SOL    HW220397   1.915   0.207   2.909  3.8476 -1.5273 -0.0335
 2921SOL     OW20398   1.168   3.442   1.921 -0.2412  0.2218  0.3883
 2921SOL    HW120399   1.216   3.456   1.839 -1.3204 -0.4444 -0.3736
 2921SOL    HW220400   1.087   3.486   1.896  0.0223  1.5894  1.9850
 2922SOL     OW20401   1.986   4.054   8.671 -0.0327  0.5364  0.2083
 2922SOL    HW120402   1.936   4.016   8.743  0.6962  0.9894  0.9488
 2922SOL    HW220403   2.063   4.087   8.717 -0.1885 -1.3344  1.8236
 2923SOL     OW20404   4.314   1.172   6.997 -0.1910  0.0830  0.1403
 2923SOL    HW120405   4.244   1.211   6.945 -1.7148 -2.5645  0.2556
 2923SOL    HW220406   4.380   1.190   6.930  0.2145 -0.1904  0.4695
 2924SOL     OW20407   3.966   2.492   8.332  0.6285 -0.1995 -0.0036
 2924SOL    HW120408   3.933   2.518   8.246  0.9392  0.0694 -0.0401
 2924SOL    HW220409   3.897   2.442   8.377  0.9952  1.1647  2.0922
 2925SOL     OW20410   3.676   0.817   5.340  0.7168  0.0171  0.0989
 2925SOL    HW120411   3.600   0.774   5.302 -0.2844  1.2542  0.6922
 2925SOL    HW220412   3.669   0.784   5.430  1.4887 -0.9248 -0.1907
 2926SOL     OW20413   2.288   1.763   2.465  0.2837  0.2221 -0.5966
 2926SOL    HW120414   2.204   1.758   2.511  0.5560  0.2500 -0.0926
 2926SOL    HW220415   2.288   1.854   2.434  1.1507  0.1661 -0.7689
 2927SOL     OW20416   3.247   2.629   0.650 -0.4327  0.1312 -0.3086
 2927SOL    HW120417   3.343   2.620   0.652 -0.6724 -2.3422 -0.1684
 2927SOL    HW220418   3.240   2.717   0.687 -1.1096 -0.8709  1.9134
 2928SOL     OW20419   1.027   0.035   7.356  0.3412  0.0629  0.1262
 2928SOL    HW120420   1.078   4.695   7.380  0.1858 -0.1876 -0.3580
 2928SOL    HW220421   0.936   0.016   7.377  0.2742  2.0481  1.5544
 2929SOL     OW20422   1.511   1.451   2.600  0.0850  0.1201 -0.2908
 2929SOL    HW120423   1.505   1.399   2.680  1.6300 -1.0836 -0.9721
 2929SOL    HW220424   1.602   1.482   2.604  0.4711 -1.1513  0.8810
 2930SOL     OW20425   1.162   2.003   6.657  0.1851 -0.2976  0.4353
 2930SOL    HW120426   1.189   2.095   6.662 -0.3926 -0.2102  2.0507
 2930SOL    HW220427   1.118   2.003   6.572  1.2099  1.2831 -0.0984
 2931SOL     OW20428   2.075   1.326   9.142  0.1888  0.4580  0.3929
 2931SOL    HW120429   2.112   1.286   9.220  3.2268  0.8806 -0.8344
 2931SOL    HW220430   2.142   1.392   9.126  0.2176  0.0824 -1.0168
 2932SOL     OW20431   3.212   3.959   1.856 -0.2226  0.2077 -0.7260
 2932SOL    HW120432   3.248   3.888   1.910 -0.3370  0.3523 -0.4548
 2932SOL    HW220433   3.126   3.922   1.834 -0.5094 -1.4502  3.0000
 2933SOL     OW20434   1.809   2.957   7.839 -0.1931 -0.3102  0.3479
 2933SOL    HW120435   1.870   3.030   7.843 -0.0669 -0.4871  1.5123
 2933SOL    HW220436   1.754   2.997   7.772 -0.9020 -1.4025  0.2694
 2934SOL     OW20437   2.467   1.942  11.352 -0.3159  0.2196 -0.1050
 2934SOL    HW120438   2.496   1.910  11.437 -2.4732 -0.2815  0.4468
 2934SOL    HW220439   2.379   1.907  11.338  0.0650 -0.8702  0.1783
 2935SOL     OW20440   3.416   4.023   9.227 -0.1154  1.1351 -0.2899
 2935SOL    HW120441   3.346   4.089   9.228 -1.9770 -0.8314 -1.5815
 2935SOL    HW220442   3.476   4.063   9.164  1.6484 -1.8000 -0.4498
 2936SOL     OW20443   2.251   3.778   1.774 -0.1184  0.1939  0.1696
 2936SOL    HW120444   2.283   3.691   1.749  1.3164  0.2061  1.9882
 2936SOL    HW220445   2.306   3.837   1.722 -1.0118 -0.5790 -1.6564
 2937SOL     OW20446   2.943   2.241   5.427  0.4393  0.3661  0.7112
 2937SOL    HW120447   2.901   2.193   5.356  1.5916  2.2453 -1.2134
 2937SOL    HW220448   2.988   2.167   5.468  1.1093 -0.2348 -1.1433
 2938SOL     OW20449   4.283   0.923  17.329  0.2250  0.3362  0.0701
 2938SOL    HW120450   4.359   0.885  17.374  0.4956 -0.5199 -1.1074
 2938SOL    HW220451   4.334   0.975  17.268  2.4439 -0.3433  1.3466
 2939SOL     OW20452   3.366   0.893  12.874 -0.0213 -0.4736  0.2861
 2939SOL    HW120453   3.299   0.826  12.880 -2.5159  2.0499  0.6092
 2939SOL    HW220454   3.386   0.882  12.781 -0.9967  3.1402 -0.3697
 2940SOL     OW20455   3.931   0.663   8.453 -0.2886  0.0085 -0.8313
 2940SOL    HW120456   3.863   0.602   8.482  1.0612 -1.1344 -0.0898
 2940SOL    HW220457   3.988   0.598   8.413 -2.4977 -2.4906  0.0553
 2941SOL     OW20458   4.427   2.731   5.086 -0.2392 -0.9456 -0.2385
 2941SOL    HW120459   4.351   2.787   5.100 -0.3127 -0.7923 -1.2981
 2941SOL    HW220460   4.430   2.703   5.178  0.4511  0.4340  0.1750
 2942SOL     OW20461   3.461   2.104  15.511  0.2167  0.1041  0.2829
 2942SOL    HW120462   3.417   2.189  15.519 -0.1576 -0.0755  0.1205
 2942SOL    HW220463   3.408   2.068  15.440  0.4285  0.4841 -0.0662
 2943SOL     OW20464   0.942   0.229   2.788 -0.2176 -0.0850 -0.3360
 2943SOL    HW120465   0.932   0.138   2.759 -0.1644  0.1856 -1.2124
 2943SOL    HW220466   0.920   0.272   2.705  1.6469  1.4148 -0.0502
 2944SOL     OW20467   2.901   2.871   8.916 -0.0753  0.4213 -0.1653
 2944SOL    HW120468   2.926   2.954   8.957 -1.9646 -0.1816  2.2434
 2944SOL    HW220469   2.992   2.847   8.898 -0.5857 -1.2690 -0.4527
 2945SOL     OW20470   2.926   0.059   9.870  0.3293  0.5456 -0.3028
 2945SOL    HW120471   2.854   0.015   9.825  0.6903 -1.0543  0.6920
 2945SOL    HW220472   2.882   0.067   9.954  1.4449 -0.8620  0.4123
 2946SOL     OW20473   2.415   4.219   5.275  0.4982 -0.4450 -0.5354
 2946SOL    HW120474   2.327   4.227   5.310  1.0868 -0.0575  0.8578
 2946SOL    HW220475   2.465   4.163   5.335 -0.3126 -1.0068 -0.3865
 2947SOL     OW20476   0.257   2.583   5.387 -0.0404  0.1028  0.5261
 2947SOL    HW120477   0.283   2.533   5.310  0.2817  0.8204  0.1635
 2947SOL    HW220478   0.266   2.515   5.453  1.9144 -0.7376 -0.5935
 2948SOL     OW20479   0.683   2.981   8.293  0.3723  0.0300 -0.3021
 2948SOL    HW120480   0.664   3.074   8.280 -0.5877  0.2713  2.8819
 2948SOL    HW220481   0.720   2.954   8.208  1.4697 -0.3945  0.3017
 2949SOL     OW20482   4.104   2.787  14.205  0.0200 -0.7682  0.1515
 2949SOL    HW120483   4.076   2.873  14.236  2.1369  0.1705 -0.5555
 2949SOL    HW220484   4.050   2.773  14.127  0.6216 -1.3688 -0.1529
 2950SOL     OW20485   3.650   2.862   0.877 -0.0185 -0.3090 -0.2056
 2950SOL    HW120486   3.662   2.855   0.782 -1.7464 -2.4122 -0.2697
 2950SOL    HW220487   3.648   2.957   0.886  0.9284 -0.2077 -1.0773
 2951SOL     OW20488   1.641   3.095   2.059 -0.5340  0.4570  0.2376
 2951SOL    HW120489   1.624   3.025   1.996 -1.3971  1.8780 -1.1357
 2951SOL    HW220490   1.561   3.084   2.111 -1.1133 -0.1714 -0.7813
 2952SOL     OW20491   0.955   0.104   5.029 -0.2163 -0.4727  0.0562
 2952SOL    HW120492   0.995   0.017   5.027 -0.3168 -0.5287  0.5735
 2952SOL    HW220493   0.936   0.125   4.937  0.5614 -1.6752 -0.3785
 2953SOL     OW20494   1.290   4.427  10.626 -1.0260 -0.0823 -0.4088
 2953SOL    HW120495   1.269   4.521  10.625  1.6330  0.5119  0.8188
 2953SOL    HW220496   1.383   4.433  10.645 -1.1445 -1.4855  0.5843
 2954SOL     OW20497   2.200   0.592   8.557  0.3713  0.1425 -0.0505
 2954SOL    HW120498   2.200   0.631   8.469  1.2798 -0.5360 -0.3479
 2954SOL    HW220499   2.289   0.559   8.565 -1.0605 -3.5225  0.7305
 2955SOL     OW20500   0.427   4.114   8.030  0.4822  0.0222  0.4289
 2955SOL    HW120501   0.505   4.091   8.079 -0.3896 -1.1500  1.2461
 2955SOL    HW220502   0.453   4.103   7.938 -1.4741  1.6983 -0.3427
 2956SOL     OW20503   2.343   0.255   1.564  0.1032  0.0802 -0.4922
 2956SOL    HW120504   2.317   0.201   1.639  2.1398 -1.7352 -1.0886
 2956SOL    HW220505   2.346   0.190   1.494  1.1635  0.4308 -0.7596
 2957SOL     OW20506   1.807   1.406  17.081  0.1166 -0.9951  0.2239
 2957SOL    HW120507   1.795   1.415  17.175  0.6789  0.3634  0.1601
 2957SOL    HW220508   1.833   1.497  17.068 -1.4044 -0.5039  0.5923
 2958SOL     OW20509   4.586   3.462  10.164  0.0168  0.3793 -0.4647
 2958SOL    HW120510   4.595   3.380  10.213 -1.5244  1.3618  1.4733
 2958SOL    HW220511   4.677   3.492  10.163 -0.9306  3.2993 -0.5030
 2959SOL     OW20512   2.726   2.506  10.750  0.3506  0.2681 -0.6102
 2959SOL    HW120513   2.770   2.425  10.777  2.8114  1.4237 -1.2215
 2959SOL    HW220514   2.783   2.578  10.778  0.0914 -0.0923  0.8770
 2960SOL     OW20515   3.489   0.106   7.535  0.1506  0.3437  0.2894
 2960SOL    HW120516   3.509   0.014   7.519  1.3182  0.7681 -0.6862
 2960SOL    HW220517   3.534   0.149   7.463 -0.5206  3.0914  1.4968
 2961SOL     OW20518   0.104   2.042   0.232  0.1224  0.4756  0.0048
 2961SOL    HW120519   0.164   2.108   0.196 -0.7636  0.5568 -1.2799
 2961SOL    HW220520   0.050   2.109   0.275 -0.1495 -0.6951  1.4821
 2962SOL     OW20521   1.720   3.900   9.266  0.4063  0.2695 -0.1273
 2962SOL    HW120522   1.751   3.819   9.305 -1.5628 -0.7609 -0.6690
 2962SOL    HW220523   1.781   3.969   9.293 -0.0504 -0.4507  2.6396
 2963SOL     OW20524   4.342   4.118   0.056  0.7099  0.1295  0.1750
 2963SOL    HW120525   4.247   4.105   0.058  0.5696  1.0683 -0.4275
 2963SOL    HW220526   4.363   4.179   0.126 -0.5389 -0.5625  1.1553
 2964SOL     OW20527   3.146   2.593   4.059 -0.3587 -0.9785 -0.0709
 2964SOL    HW120528   3.120   2.683   4.079  0.8173 -0.7154  0.2692
 2964SOL    HW220529   3.132   2.584   3.965 -0.5615  1.3350 -0.2526
 2965SOL     OW20530   0.499   2.470   2.331 -0.1461  0.0647 -0.1222
 2965SOL    HW120531   0.485   2.468   2.426  1.3220 -4.8311 -0.0320
 2965SOL    HW220532   0.594   2.456   2.328 -0.2681 -0.8867  0.6512
 2966SOL     OW20533   1.385   0.502   3.675  0.2003 -0.2345 -0.2439
 2966SOL    HW120534   1.393   0.587   3.630 -1.0259 -0.4667 -0.8922
 2966SOL    HW220535   1.318   0.461   3.621  0.2472  0.3009 -0.7200
 2967SOL     OW20536   2.941   3.295   2.278 -0.0440 -0.3218  0.4334
 2967SOL    HW120537   2.902   3.225   2.226  0.4085  0.9480 -1.5937
 2967SOL    HW220538   2.902   3.285   2.365  0.4584 -1.1748  0.5575
 2968SOL     OW20539   1.335   0.391   5.085 -0.6338 -0.0766 -0.3813
 2968SOL    HW120540   1.354   0.411   5.177  2.8514  0.4718 -1.1884
 2968SOL    HW220541   1.418   0.359   5.048 -0.0476 -1.6053  2.2951
 2969SOL     OW20542   2.703   1.914  15.633  0.0632  0.0169 -0.1494
 2969SOL    HW120543   2.633   1.851  15.651 -0.5677  0.7215 -0.1433
 2969SOL    HW220544   2.680   1.984  15.694  0.0921  0.8104 -1.0563
 2970SOL     OW20545   0.454   4.567   2.655 -0.0625  0.1333 -0.2716
 2970SOL    HW120546   0.419   4.523   2.578 -1.2869  0.4600  0.0886
 2970SOL    HW220547   0.448   4.656   2.619 -1.9284  0.6837  1.4085
 2971SOL     OW20548   4.556   1.122   8.217  0.7775  0.5680  0.5957
 2971SOL    HW120549   4.481   1.103   8.274 -0.6354  1.2892 -1.0121
 2971SOL    HW220550   4.557   1.217   8.206  0.0126  0.6603  1.3501
 2972SOL     OW20551   1.443   2.646   2.614  0.0482 -0.4550  0.0294
 2972SOL    HW120552   1.521   2.693   2.644  0.0032 -1.2968  1.4201
 2972SOL    HW220553   1.397   2.651   2.697  3.5263 -0.7827  1.9974
 2973SOL     OW20554   1.617   0.382   7.420  0.4469  0.0959 -0.2826
 2973SOL    HW120555   1.586   0.406   7.333 -1.5475  0.9884  0.6814
 2973SOL    HW220556   1.671   0.455   7.449 -0.0780 -0.2060  1.4334
 2974SOL     OW20557   3.612   4.234   7.078  0.2067  0.3274  0.4803
 2974SOL    HW120558   3.661   4.152   7.076  0.9894  0.8516 -1.7033
 2974SOL    HW220559   3.522   4.203   7.070  0.6707 -0.8346 -0.1651
 2975SOL     OW20560   1.743   3.465  11.980  0.5248  0.9738 -0.3365
 2975SOL    HW120561   1.703   3.522  12.046  0.7680  1.3546 -0.5145
 2975SOL    HW220562   1.684   3.391  11.965 -1.4532  2.1385  1.6724
 2976SOL     OW20563   2.537   4.360   1.902 -0.1118  0.2516 -0.0416
 2976SOL    HW120564   2.601   4.395   1.840  2.1688 -1.2362  1.4812
 2976SOL    HW220565   2.588   4.314   1.968 -1.2000 -1.6022 -0.5049
 2977SOL     OW20566   3.377   3.956   7.910 -0.1249 -0.0148  0.0837
 2977SOL    HW120567   3.300   4.006   7.939 -0.7170 -0.2095 -1.1577
 2977SOL    HW220568   3.358   3.960   7.816 -1.9380 -2.3729  0.3691
 2978SOL     OW20569   3.093   4.452   6.889  0.0466 -0.2075  0.5559
 2978SOL    HW120570   3.133   4.538   6.903 -0.8424  0.3293 -0.1146
 2978SOL    HW220571   3.145   4.416   6.817  0.2004 -1.0290  1.0823
 2979SOL     OW20572   1.915   1.972  17.421 -0.1302 -0.7075 -0.1872
 2979SOL    HW120573   1.896   1.962  17.515 -0.9942  0.3997 -0.2412
 2979SOL    HW220574   1.893   2.064  17.405 -0.7258 -0.7884  0.1595
 2980SOL     OW20575   0.385   4.292   9.305  0.2852 -0.5132 -0.4255
 2980SOL    HW120576   0.292   4.287   9.285  0.1542 -0.2287  0.0947
 2980SOL    HW220577   0.389   4.360   9.372 -0.4631 -0.5870 -0.3106
 2981SOL     OW20578   1.469   3.606   3.764 -0.3959 -0.0934 -0.1900
 2981SOL    HW120579   1.417   3.656   3.826  0.5545  0.3403  0.2554
 2981SOL    HW220580   1.409   3.533   3.746  1.8803 -1.6300 -1.6439
 2982SOL     OW20581   0.107   0.680   8.048  0.0063  0.1225  0.1686
 2982SOL    HW120582   0.075   0.765   8.076 -0.8353 -0.3200  0.5376
 2982SOL    HW220583   0.026   0.642   8.014  0.1630  1.2087 -1.4286
 2983SOL     OW20584   0.832   4.643   2.408  0.3442  0.5513 -0.0477
 2983SOL    HW120585   0.802   4.566   2.457 -0.8996 -0.2423 -2.0681
 2983SOL    HW220586   0.927   4.637   2.399  0.2675  0.4085 -0.8006
 2984SOL     OW20587   4.338   0.492   6.176 -0.4301 -0.3884  0.3377
 2984SOL    HW120588   4.260   0.450   6.211 -0.8547  0.3679  0.3086
 2984SOL    HW220589   4.299   0.563   6.125  1.5818 -0.2244 -0.9639
 2985SOL     OW20590   1.215   4.421   5.845 -0.2607 -0.3351  0.6592
 2985SOL    HW120591   1.285   4.361   5.872  0.3083  0.4361  0.9057
 2985SOL    HW220592   1.275   4.488   5.813 -0.7455  0.3379  1.1713
 2986SOL     OW20593   0.991   1.798   0.414  0.0568  0.2423 -0.5966
 2986SOL    HW120594   1.065   1.743   0.440 -0.4282 -0.2664 -0.2713
 2986SOL    HW220595   1.025   1.887   0.408 -2.5449  1.3375  0.9349
 2987SOL     OW20596   4.198   3.831   5.632 -0.4095 -0.2170 -0.5915
 2987SOL    HW120597   4.120   3.779   5.611 -0.9027  0.1148  0.3990
 2987SOL    HW220598   4.255   3.757   5.654  3.8296  3.1502 -0.1668
 2988SOL     OW20599   1.031   1.248   3.622  0.4250 -0.1722  0.1162
 2988SOL    HW120600   0.981   1.239   3.703  0.6508 -2.5863 -0.0073
 2988SOL    HW220601   0.995   1.169   3.581 -1.7902  0.1759  1.4042
 2989SOL     OW20602   4.582   2.238   6.033 -0.3488 -0.1660 -0.4446
 2989SOL    HW120603   4.487   2.240   6.046 -0.1535  3.4961  0.2369
 2989SOL    HW220604   4.586   2.179   5.958 -0.2813 -0.1468 -0.4558
 2990SOL     OW20605   1.427   4.682   8.878 -0.2879  0.2223 -0.0248
 2990SOL    HW120606   1.503   4.627   8.899 -0.5117 -0.1729 -0.2472
 2990SOL    HW220607   1.386   4.630   8.809 -0.6068 -0.8372  0.9691
 2991SOL     OW20608   1.365   2.343   1.549 -0.3058 -0.7524  0.3412
 2991SOL    HW120609   1.293   2.345   1.486 -0.8784  1.1942  1.0708
 2991SOL    HW220610   1.333   2.265   1.596 -1.9635 -0.0106  0.4346
 2992SOL     OW20611   3.180   1.665   7.648  0.0461 -0.0204  0.4661
 2992SOL    HW120612   3.237   1.592   7.674  0.2305  0.0196  0.1680
 2992SOL    HW220613   3.124   1.671   7.726 -1.5880  2.0351 -0.8730
 2993SOL     OW20614   2.969   1.464  12.653  0.3903  0.6106  0.5399
 2993SOL    HW120615   3.044   1.426  12.698  0.3068 -1.2291 -0.8895
 2993SOL    HW220616   3.010   1.548  12.630 -1.0168  1.3145  0.6185
 2994SOL     OW20617   4.498   0.188   3.314  0.6743  0.0975 -0.4698
 2994SOL    HW120618   4.443   0.149   3.246 -0.4904  0.6983  0.1331
 2994SOL    HW220619   4.551   0.244   3.257  1.0788 -1.0573 -1.2473
 2995SOL     OW20620   3.228   4.323   8.337 -0.0212  0.1629  0.1217
 2995SOL    HW120621   3.234   4.264   8.412 -2.3478  0.7291  0.7530
 2995SOL    HW220622   3.233   4.410   8.377 -0.2756  1.0897 -1.8820
 2996SOL     OW20623   3.668   0.257   2.897 -0.1137  0.0530  0.0280
 2996SOL    HW120624   3.710   0.197   2.835 -1.6283 -1.7768  0.7493
 2996SOL    HW220625   3.724   0.334   2.891 -1.5293  0.8874 -2.3442
 2997SOL     OW20626   1.364   2.917  15.570 -0.3269  0.0325 -0.4839
 2997SOL    HW120627   1.443   2.964  15.597  0.0038 -0.7571 -0.1038
 2997SOL    HW220628   1.290   2.975  15.591 -0.9288 -0.3358 -1.5891
 2998SOL     OW20629   0.978   0.650   6.772  0.4448  0.5953  0.4801
 2998SOL    HW120630   0.921   0.626   6.845  1.4036  0.8973  1.3138
 2998SOL    HW220631   0.962   0.744   6.766 -0.9709  0.4991  2.7924
 2999SOL     OW20632   1.063   4.093   0.394  0.6718  0.7794 -0.0754
 2999SOL    HW120633   1.145   4.048   0.413 -0.3495 -0.9250  0.2927
 2999SOL    HW220634   1.029   4.053   0.314  1.4181 -0.9321  0.4677
 3000SOL     OW20635   3.639   2.784  12.065 -0.1079 -0.5169 -0.2206
 3000SOL    HW120636   3.616   2.750  11.979 -0.8656  2.9059 -1.3778
 3000SOL    HW220637   3.715   2.729  12.084  0.2359  0.2874  0.7473
 3001SOL     OW20638   1.748   0.242  16.905  0.0453 -0.2583  0.1060
 3001SOL    HW120639   1.806   0.306  16.946  0.7597 -1.2886  0.7090
 3001SOL    HW220640   1.766   0.162  16.955  0.2508  0.0307  0.4912
 3002SOL     OW20641   0.509   0.395  15.465 -0.3362 -0.2698 -0.6059
 3002SOL    HW120642   0.555   0.322  15.422  0.3594 -1.1271  1.6073
 3002SOL    HW220643   0.513   0.343  15.545 -0.4024  0.4696 -0.1248
 3003SOL     OW20644   3.145   4.578  14.041 -0.7315 -0.3786 -0.1945
 3003SOL    HW120645   3.189   4.615  13.965 -1.7100  0.7963 -0.1878
 3003SOL    HW220646   3.125   4.493  14.002  1.3416 -0.8394 -0.2623
 3004SOL     OW20647   2.905   3.337  17.019  0.3076  0.0858  0.2321
 3004SOL    HW120648   3.001   3.339  17.017  0.3993 -4.6953  0.0257
 3004SOL    HW220649   2.888   3.244  17.005 -1.4875  0.6045 -1.0408
 3005SOL     OW20650   2.579   3.431  17.377 -0.0172  0.0059  0.4982
 3005SOL    HW120651   2.643   3.421  17.307 -0.7636  0.9641 -0.3309
 3005SOL    HW220652   2.561   3.525  17.372 -2.7217 -0.5851 -0.6852
 3006SOL     OW20653   3.808   4.073   8.676  0.2695 -0.2622  0.0405
 3006SOL    HW120654   3.713   4.076   8.680  0.1720 -0.3906 -2.3824
 3006SOL    HW220655   3.834   4.154   8.633  0.3277 -0.7433 -0.8234
 3007SOL     OW20656   4.619   0.600  10.956  0.1557 -0.4713  0.6192
 3007SOL    HW120657   4.607   0.512  10.993 -0.6766  1.0754  3.9934
 3007SOL    HW220658   4.565   0.652  11.015  0.9109  0.2208  0.6996
 3008SOL     OW20659   3.392   4.604  16.442 -0.2473 -0.0477  0.7585
 3008SOL    HW120660   3.399   4.532  16.379 -3.6203 -0.3777  0.7172
 3008SOL    HW220661   3.303   4.631  16.417 -0.7179  0.3467  2.8518
 3009SOL     OW20662   1.216   2.270   7.121 -0.7050 -0.7518  0.1516
 3009SOL    HW120663   1.265   2.237   7.046  2.1652 -0.6735  1.9689
 3009SOL    HW220664   1.265   2.236   7.196 -0.8524  2.4733  1.7034
 3010SOL     OW20665   3.708   3.861   6.090 -0.3288  0.1896 -0.2904
 3010SOL    HW120666   3.626   3.907   6.110  1.5255  1.4522  4.3580
 3010SOL    HW220667   3.719   3.804   6.166  2.2618 -2.3336 -2.5344
 3011SOL     OW20668   0.536   3.667  15.502  0.4862  0.0532 -0.4585
 3011SOL    HW120669   0.623   3.679  15.466  0.5297 -0.4627 -0.5232
 3011SOL    HW220670   0.493   3.702  15.424 -0.8638  0.1218  0.3122
 3012SOL     OW20671   1.367   1.326   3.048 -0.4792  0.1358 -0.2415
 3012SOL    HW120672   1.390   1.406   3.095 -0.3554  0.0756 -0.1991
 3012SOL    HW220673   1.448   1.276   3.053  0.1144  1.3265  2.0219
 3013SOL     OW20674   1.922   3.371   8.135 -0.0771 -0.4385  0.4387
 3013SOL    HW120675   1.853   3.339   8.077  0.1312  0.9353 -0.5434
 3013SOL    HW220676   1.958   3.290   8.171 -1.5397 -0.8166  1.0700
 3014SOL     OW20677   3.581   3.067  13.617  0.1698  0.3157 -0.3478
 3014SOL    HW120678   3.567   3.061  13.712  0.3631 -0.3491 -0.3592
 3014SOL    HW220679   3.648   3.136  13.616  0.5262 -0.0526 -1.7187
 3015SOL     OW20680   0.277   0.507   3.650  0.2966 -0.0062 -0.6636
 3015SOL    HW120681   0.353   0.562   3.629  0.3589  0.4327  0.7204
 3015SOL    HW220682   0.237   0.496   3.563 -0.9298  0.3519 -0.1529
 3016SOL     OW20683   0.774   4.335  12.641 -0.6731 -0.1576  0.2309
 3016SOL    HW120684   0.711   4.305  12.576  0.1902  0.3884 -0.8583
 3016SOL    HW220685   0.828   4.387  12.583 -0.7855 -1.1514 -0.7574
 3017SOL     OW20686   2.009   1.079   5.854  0.2239 -0.2407  0.3012
 3017SOL    HW120687   1.920   1.100   5.884 -0.1137  0.4673 -1.1770
 3017SOL    HW220688   1.987   1.023   5.779  1.6136  0.7844 -0.8798
 3018SOL     OW20689   2.732   2.787   7.059  0.3036  0.0361  0.6542
 3018SOL    HW120690   2.734   2.725   7.132  2.8716  2.0537  2.2850
 3018SOL    HW220691   2.736   2.720   6.990  0.1082  0.6503  0.0508
 3019SOL     OW20692   0.123   3.504   6.398 -0.3407  0.2892 -0.2671
 3019SOL    HW120693   0.208   3.522   6.438 -0.0366 -0.3810 -0.6130
 3019SOL    HW220694   0.140   3.419   6.357 -1.8468 -0.4247  0.5909
 3020SOL     OW20695   0.447   3.186   4.196  0.2676 -0.2887 -0.7429
 3020SOL    HW120696   0.409   3.155   4.114  2.5796 -1.2436 -1.4602
 3020SOL    HW220697   0.367   3.200   4.246  0.9864  0.3120  0.2479
 3021SOL     OW20698   0.855   4.250   3.167 -0.6709  0.2725  0.1921
 3021SOL    HW120699   0.925   4.263   3.102  0.5198 -1.8337  1.0722
 3021SOL    HW220700   0.877   4.160   3.191 -0.1963  0.1016 -0.8848
 3022SOL     OW20701   4.344   1.989   2.452 -0.0745  0.2954  0.2314
 3022SOL    HW120702   4.419   2.008   2.508  0.4962  0.3921 -0.5637
 3022SOL    HW220703   4.346   1.895   2.471 -0.0760  0.3544  0.5170
 3023SOL     OW20704   2.659   4.539   6.483  0.0033 -0.0122  0.4246
 3023SOL    HW120705   2.754   4.541   6.475  0.1094 -1.1298  1.4344
 3023SOL    HW220706   2.635   4.619   6.438 -1.3770  0.3990  1.8978
 3024SOL     OW20707   0.248   2.531   7.995 -0.3090 -0.2446 -0.4030
 3024SOL    HW120708   0.276   2.574   7.915  1.3812 -0.4169  0.0959
 3024SOL    HW220709   0.279   2.596   8.058  0.2269  0.4545 -1.3887
 3025SOL     OW20710   2.673   4.598   5.797  0.5520 -0.4307  0.2915
 3025SOL    HW120711   2.754   4.554   5.771  0.4496  0.6353 -1.8110
 3025SOL    HW220712   2.634   4.590   5.710  0.2056  1.0243  0.2979
 3026SOL     OW20713   2.552   4.027   4.728 -0.0049  1.0063 -0.4088
 3026SOL    HW120714   2.460   3.999   4.735  0.3611 -0.2308 -0.4819
 3026SOL    HW220715   2.577   4.024   4.821  2.6967  0.7002 -1.1471
 3027SOL     OW20716   2.816   0.263   3.593 -0.0789  0.4790 -0.0384
 3027SOL    HW120717   2.876   0.190   3.606  0.3634  0.8375 -0.0693
 3027SOL    HW220718   2.800   0.269   3.499  0.4584  0.8885 -0.1068
 3028SOL     OW20719   2.113   2.243  17.413  0.3845 -0.1108  0.0799
 3028SOL    HW120720   2.121   2.204  17.326 -2.0387  0.1163 -0.2483
 3028SOL    HW220721   2.019   2.264  17.408 -0.1267 -2.5390 -0.1115
 3029SOL     OW20722   0.719   1.971   1.396  0.6812  0.4410  0.0651
 3029SOL    HW120723   0.808   1.979   1.432  0.2590 -1.5261  1.5141
 3029SOL    HW220724   0.688   2.060   1.410 -0.9447  0.1948 -1.9948
 3030SOL     OW20725   0.216   3.460   3.024 -0.3495  0.2660 -0.1926
 3030SOL    HW120726   0.210   3.417   2.939  0.9789  1.9054 -1.1266
 3030SOL    HW220727   0.305   3.495   3.019  0.3399 -1.9686 -3.3127
 3031SOL     OW20728   3.262   3.315   9.988  0.4841 -0.5006  0.7217
 3031SOL    HW120729   3.234   3.242  10.044  1.9503 -0.6520  1.2421
 3031SOL    HW220730   3.307   3.270   9.916  0.2287  1.0325 -0.3912
 3032SOL     OW20731   1.738   4.186   3.539  0.7959 -0.2233  0.2090
 3032SOL    HW120732   1.657   4.142   3.515 -0.1028  1.6713 -0.2366
 3032SOL    HW220733   1.758   4.251   3.471  0.3261  0.9448  1.1832
 3033SOL     OW20734   3.742   4.702   9.408  0.4297  0.1568 -0.0572
 3033SOL    HW120735   3.764   4.630   9.350  1.9720 -0.6550  1.5166
 3033SOL    HW220736   3.671   4.669   9.463  0.1058  0.0292 -0.5544
 3034SOL     OW20737   4.713   1.135  17.254  0.2239 -0.5554 -0.2191
 3034SOL    HW120738   4.672   1.198  17.313 -0.1406 -1.6534  0.7013
 3034SOL    HW220739   4.637   1.088  17.219 -2.4039  1.4014  2.8660
 3035SOL     OW20740   0.999   3.552   9.534  0.6596  0.0156 -0.6107
 3035SOL    HW120741   0.965   3.617   9.473 -1.0407  0.1331  0.4668
 3035SOL    HW220742   1.064   3.599   9.587 -1.2880  1.2443  0.6764
 3036SOL     OW20743   1.348   3.137   2.444 -0.2695 -0.1408  0.2277
 3036SOL    HW120744   1.333   3.112   2.353  2.6967  0.4082 -0.3801
 3036SOL    HW220745   1.441   3.158   2.450 -0.0784 -0.3127 -2.1444
 3037SOL     OW20746   1.066   0.585   9.743 -0.0474 -0.8000 -0.1064
 3037SOL    HW120747   0.999   0.552   9.804  0.4146 -0.8196  0.3937
 3037SOL    HW220748   1.100   0.501   9.711  1.6504 -0.5139  0.9398
 3038SOL     OW20749   3.266   3.898  17.083  0.1819 -0.3846 -0.0334
 3038SOL    HW120750   3.266   3.959  17.009 -1.6554 -0.2639  0.0830
 3038SOL    HW220751   3.193   3.840  17.063 -1.9219  2.1323  0.2472
 3039SOL     OW20752   3.017   0.334   2.613 -0.0492  0.0111  0.4565
 3039SOL    HW120753   2.979   0.335   2.525  0.7990  1.0386  0.0850
 3039SOL    HW220754   3.015   0.427   2.636 -2.8883  0.3877 -1.3183
 3040SOL     OW20755   1.289   3.069   2.184 -0.7438 -0.5939 -0.0024
 3040SOL    HW120756   1.251   3.091   2.100 -0.0286 -1.2001 -0.4839
 3040SOL    HW220757   1.289   2.973   2.180 -2.8409 -0.5981  0.3690
 3041SOL     OW20758   2.108   1.534   3.099  0.3762  1.1077  0.2476
 3041SOL    HW120759   2.196   1.562   3.125  0.0066  0.5766  2.0859
 3041SOL    HW220760   2.057   1.577   3.168 -2.7683 -1.0834 -0.7070
 3042SOL     OW20761   0.279   4.278   5.772 -0.7596 -0.4720  0.2793
 3042SOL    HW120762   0.233   4.199   5.744 -1.8947 -0.4520  2.0819
 3042SOL    HW220763   0.365   4.250   5.802  0.6572  2.0243 -1.5344
 3043SOL     OW20764   0.338   0.297   4.004  0.2334 -0.1541 -0.1628
 3043SOL    HW120765   0.353   0.237   4.077 -1.3214 -0.9851 -0.5297
 3043SOL    HW220766   0.298   0.368   4.054 -3.0374 -1.7821 -0.4472
 3044SOL     OW20767   2.771   1.754   7.157  0.0135  0.4037  0.1994
 3044SOL    HW120768   2.729   1.765   7.072  0.1120 -1.8040 -0.1510
 3044SOL    HW220769   2.856   1.724   7.125 -0.0686 -1.5428  1.7756
 3045SOL     OW20770   3.989   4.224   8.393  0.8084 -0.2557 -0.1339
 3045SOL    HW120771   4.084   4.213   8.400  0.7071 -1.2031 -0.1661
 3045SOL    HW220772   3.968   4.179   8.312 -0.3620 -0.2654  0.1694
 3046SOL     OW20773   4.390   4.017   7.133 -0.0659  0.5882  0.0266
 3046SOL    HW120774   4.327   3.945   7.128  1.6357 -0.9472  0.5038
 3046SOL    HW220775   4.390   4.035   7.227  0.7949 -0.5902  0.2432
 3047SOL     OW20776   0.982   3.399   3.517  0.3502 -0.0597  0.3915
 3047SOL    HW120777   0.982   3.306   3.493 -0.0308 -0.0857  0.4847
 3047SOL    HW220778   0.897   3.410   3.560  0.2958 -0.1971  0.3188
 3048SOL     OW20779   2.473   1.167   2.988  0.1630  0.2923  0.0320
 3048SOL    HW120780   2.560   1.197   2.960 -0.7647  1.6187 -1.3854
 3048SOL    HW220781   2.430   1.145   2.906  0.0126  0.5822  0.0345
 3049SOL     OW20782   0.263   2.280   7.301  0.1107 -0.3144  0.2727
 3049SOL    HW120783   0.255   2.204   7.359 -0.1552 -0.8341 -0.4430
 3049SOL    HW220784   0.305   2.238   7.226 -1.2559 -0.8731 -0.1928
 3050SOL     OW20785   1.102   1.411   2.560  0.3169  0.0244  0.2221
 3050SOL    HW120786   1.110   1.415   2.655  0.4982  1.4251  0.1419
 3050SOL    HW220787   1.046   1.338   2.531  0.2037  0.5964 -0.9683
 3051SOL     OW20788   4.208   0.227   4.396 -0.5508  0.5386 -0.1474
 3051SOL    HW120789   4.268   0.240   4.470  0.8320 -0.5869 -1.0771
 3051SOL    HW220790   4.136   0.279   4.431 -0.1735  1.9387 -1.4678
 3052SOL     OW20791   3.565   1.803  14.845  0.0845  0.0839 -0.1926
 3052SOL    HW120792   3.506   1.730  14.823  0.5962 -1.6323  4.1491
 3052SOL    HW220793   3.538   1.876  14.789  3.8837  1.5829 -0.0696
 3053SOL     OW20794   0.291   2.630   6.902 -0.1125  0.2292 -0.0067
 3053SOL    HW120795   0.212   2.592   6.939 -0.5163  0.7599 -0.3256
 3053SOL    HW220796   0.344   2.626   6.982  2.4091 -0.8791 -1.7075
 3054SOL     OW20797   4.019   0.959   6.819  0.3147  0.6399 -0.0362
 3054SOL    HW120798   3.950   0.896   6.798 -0.7590  1.8335 -0.0609
 3054SOL    HW220799   4.009   0.954   6.914  1.5977  0.4409  0.0888
 3055SOL     OW20800   2.283   0.797   5.590 -0.1088 -0.6077 -0.0860
 3055SOL    HW120801   2.287   0.705   5.614  0.5020 -0.5329  0.1117
 3055SOL    HW220802   2.292   0.796   5.495 -3.4150 -1.3132 -0.3722
 3056SOL     OW20803   2.050   2.013   1.914 -0.2923 -0.2622 -0.2393
 3056SOL    HW120804   2.100   2.083   1.957  0.4407 -1.1212  0.3066
 3056SOL    HW220805   2.116   1.974   1.857  0.5303  0.3152  0.3054
 3057SOL     OW20806   2.490   0.374   5.799 -0.0151  0.0453 -0.0936
 3057SOL    HW120807   2.562   0.386   5.861 -1.7284 -0.6559  2.0368
 3057SOL    HW220808   2.480   0.279   5.794  1.9849 -0.1508 -0.1812
 3058SOL     OW20809   1.835   0.321   3.230  0.7284  0.7980 -0.1109
 3058SOL    HW120810   1.849   0.275   3.148 -1.5116  3.5374 -2.0360
 3058SOL    HW220811   1.923   0.358   3.239  0.9770  0.1730 -0.0104
 3059SOL     OW20812   1.940   1.763   2.019 -0.7697 -0.3748 -0.0504
 3059SOL    HW120813   2.006   1.833   2.011  0.2776 -1.2461  0.9702
 3059SOL    HW220814   1.876   1.796   1.955  0.9595 -1.0317 -2.1350
 3060SOL     OW20815   1.669   1.611   2.313 -0.0510  0.4553  0.1126
 3060SOL    HW120816   1.743   1.672   2.314 -1.1579  1.7967  1.8906
 3060SOL    HW220817   1.709   1.560   2.243  0.1140 -1.2313  1.4239
 3061SOL     OW20818   1.841   3.267   2.253 -0.2102 -0.5806  0.1754
 3061SOL    HW120819   1.863   3.325   2.180 -1.2328 -0.9023 -0.3904
 3061SOL    HW220820   1.823   3.340   2.312 -0.2769 -0.0437 -0.5094
 3062SOL     OW20821   4.516   1.589   1.511 -0.1607  0.2929 -0.7338
 3062SOL    HW120822   4.427   1.616   1.532 -0.5987 -0.6691 -1.3543
 3062SOL    HW220823   4.520   1.509   1.564 -2.0414  0.9304  0.3569
 3063SOL     OW20824   4.513   1.204   7.203  0.0113  0.1681 -0.3161
 3063SOL    HW120825   4.467   1.203   7.119 -0.3841  1.9668 -0.1208
 3063SOL    HW220826   4.582   1.143   7.176 -0.2107 -0.1156 -0.2488
 3064SOL     OW20827   3.823   1.662   3.434 -0.1634  0.3880  0.1968
 3064SOL    HW120828   3.911   1.688   3.405  0.2823 -1.8674 -0.4742
 3064SOL    HW220829   3.826   1.667   3.530  0.7018 -0.5215  0.2193
 3065SOL     OW20830   0.160   1.439   6.501 -0.4929  0.4709  0.6895
 3065SOL    HW120831   0.093   1.484   6.551 -0.2462  2.3989 -0.7339
 3065SOL    HW220832   0.156   1.349   6.535  1.2058 -0.1419 -0.7014
 3066SOL     OW20833   1.882   2.582   0.961 -0.0134 -0.8087  0.6917
 3066SOL    HW120834   1.789   2.605   0.953  0.5048  1.4927  1.5054
 3066SOL    HW220835   1.883   2.506   0.903 -2.3181  0.6258 -1.2635
 3067SOL     OW20836   4.590   0.991  13.464 -0.3329 -0.3384 -0.4963
 3067SOL    HW120837   4.547   0.907  13.447  0.6118 -1.3858  2.4528
 3067SOL    HW220838   4.519   1.055  13.453  1.1034  1.3609  0.2066
 3068SOL     OW20839   1.640   4.011   2.231 -0.5138  0.1630 -0.5294
 3068SOL    HW120840   1.726   3.997   2.193  0.0160 -1.1475  1.1797
 3068SOL    HW220841   1.667   4.056   2.311  1.2544 -1.0296 -0.4751
 3069SOL     OW20842   1.631   1.081   7.855  0.3379  0.0776  0.1556
 3069SOL    HW120843   1.686   1.002   7.859  1.5334  0.9369  0.6394
 3069SOL    HW220844   1.699   1.144   7.880  1.3086 -1.1592  0.6934
 3070SOL     OW20845   2.372   2.387   6.322 -0.2581  0.0258 -0.5510
 3070SOL    HW120846   2.378   2.293   6.337 -0.4455  0.0646 -0.2456
 3070SOL    HW220847   2.285   2.409   6.354 -0.2913  0.5853 -1.0179
 3071SOL     OW20848   0.709   0.062   6.025 -0.3071 -0.0767 -0.2413
 3071SOL    HW120849   0.723   0.046   6.119  1.5775 -1.2103 -0.7216
 3071SOL    HW220850   0.699   0.157   6.019 -0.6239 -0.1504 -0.8576
 3072SOL     OW20851   2.801   0.278  14.836  0.2355 -0.1301  0.3446
 3072SOL    HW120852   2.708   0.294  14.852  0.9437  3.9065  0.3327
 3072SOL    HW220853   2.807   0.253  14.744  0.5244 -1.0619  0.6117
 3073SOL     OW20854   3.596   2.491   0.676  0.4922 -0.6377 -0.5298
 3073SOL    HW120855   3.651   2.412   0.672 -1.8357 -2.2851  0.1709
 3073SOL    HW220856   3.595   2.518   0.767 -2.4480 -0.7105 -0.5333
 3074SOL     OW20857   4.357   0.361  11.209 -0.2738 -0.9377  0.1123
 3074SOL    HW120858   4.390   0.281  11.252 -1.7883 -2.3622 -1.3806
 3074SOL    HW220859   4.439   0.380  11.164 -0.6412  1.7365  0.6152
 3075SOL     OW20860   0.972   3.726   8.408 -0.6561  0.1639 -0.3865
 3075SOL    HW120861   1.034   3.787   8.448 -1.6029  0.4747  0.6185
 3075SOL    HW220862   0.982   3.738   8.314  1.0766  0.3434 -0.1728
 3076SOL     OW20863   3.309   3.359   7.786 -0.0126  0.5015  0.1582
 3076SOL    HW120864   3.294   3.396   7.873 -1.8743 -1.0998  0.5003
 3076SOL    HW220865   3.337   3.270   7.806  0.7905 -0.1385 -3.7336
 3077SOL     OW20866   2.635   3.207  17.717 -0.4216 -0.3092  0.1209
 3077SOL    HW120867   2.631   3.209   0.064 -1.2230  0.3761  0.0821
 3077SOL    HW220868   2.723   3.178  17.693 -0.0490 -1.4477  2.9152
 3078SOL     OW20869   3.920   0.459   7.984  0.3931  0.0973  0.0993
 3078SOL    HW120870   3.892   0.368   7.996 -1.4703  1.1728  4.0433
 3078SOL    HW220871   3.896   0.480   7.894 -1.5748 -2.2581  0.0603
 3079SOL     OW20872   3.764   2.348   6.818 -0.1459 -0.2174 -0.1993
 3079SOL    HW120873   3.694   2.397   6.861 -0.6776  0.6392 -2.0336
 3079SOL    HW220874   3.843   2.401   6.830 -1.7811  2.0095  0.6973
 3080SOL     OW20875   2.455   3.520  14.419 -0.0085 -0.2361 -0.0812
 3080SOL    HW120876   2.523   3.465  14.457 -1.2982 -0.4142  1.9679
 3080SOL    HW220877   2.486   3.607  14.445  1.8659 -1.3484  1.4427
 3081SOL     OW20878   2.522   1.500   5.813 -0.1298  0.1295 -0.1795
 3081SOL    HW120879   2.594   1.468   5.867 -0.4424 -1.1922 -0.5464
 3081SOL    HW220880   2.510   1.434   5.745  0.4939  0.9893 -1.1360
 3082SOL     OW20881   3.322   4.724  12.536  1.3317 -0.0587 -0.5351
 3082SOL    HW120882   3.237   4.690  12.507  1.2546 -0.4500  0.1509
 3082SOL    HW220883   3.301   0.066  12.584 -0.3640  0.4784 -2.1637
 3083SOL     OW20884   3.758   3.818   8.133  0.3272  0.1713  0.1256
 3083SOL    HW120885   3.786   3.884   8.069  0.7582  1.0567  1.2272
 3083SOL    HW220886   3.676   3.789   8.094  0.4418 -2.1214  1.6092
 3084SOL     OW20887   1.638   4.647  11.074  0.2800 -0.3549  0.3652
 3084SOL    HW120888   1.607   4.562  11.106  1.1553 -1.3985 -1.6001
 3084SOL    HW220889   1.709   4.617  11.017 -0.3805 -0.1394 -0.5681
 3085SOL     OW20890   3.546   0.785  13.557  0.0951 -0.0173 -0.1945
 3085SOL    HW120891   3.598   0.757  13.481 -0.2613 -0.4177 -0.2909
 3085SOL    HW220892   3.488   0.850  13.517  0.7764  0.0894 -1.0354
 3086SOL     OW20893   3.038   1.606  11.692 -0.3988 -0.2112 -0.2455
 3086SOL    HW120894   3.057   1.518  11.659  0.6796  1.2883 -3.6152
 3086SOL    HW220895   2.992   1.655  11.624 -1.7543  0.3452  1.0782
 3087SOL     OW20896   3.995   3.175   1.798  0.5760 -0.2232  0.3383
 3087SOL    HW120897   3.958   3.225   1.871 -2.7254 -3.1500  0.6927
 3087SOL    HW220898   3.917   3.164   1.743  1.6167 -0.6620 -1.0521
 3088SOL     OW20899   0.727   1.972   5.347  0.1522 -0.2816 -0.1246
 3088SOL    HW120900   0.699   2.030   5.276  0.5616  0.1673  0.0846
 3088SOL    HW220901   0.687   2.015   5.422 -0.7828 -0.2310 -0.6456
 3089SOL     OW20902   2.226   1.746   6.401  0.3586 -0.1922 -0.6805
 3089SOL    HW120903   2.161   1.682   6.431  1.0538 -0.0658  1.1073
 3089SOL    HW220904   2.301   1.700   6.364  1.5958  2.8470 -1.9406
 3090SOL     OW20905   4.126   0.318   8.133  0.3385  0.3656  0.2608
 3090SOL    HW120906   4.117   0.224   8.122 -1.5083  0.7264 -1.4049
 3090SOL    HW220907   4.066   0.351   8.066 -1.0756 -0.8715  0.9109
 3091SOL     OW20908   4.130   2.737   1.307  0.4945 -0.1345  0.6905
 3091SOL    HW120909   4.209   2.690   1.334 -0.3755 -1.5006  0.9091
 3091SOL    HW220910   4.144   2.831   1.315  0.7509 -0.3143  2.2958
 3092SOL     OW20911   1.865   1.972  12.543  0.3238  0.1658  0.8765
 3092SOL    HW120912   1.911   1.937  12.466  2.3547  0.6983  1.8477
 3092SOL    HW220913   1.842   1.883  12.571  0.7238  0.2528  1.4710
 3093SOL     OW20914   2.845   2.575  16.741 -0.4805  0.1355  0.6160
 3093SOL    HW120915   2.801   2.499  16.778  1.9236 -1.2768  0.5902
 3093SOL    HW220916   2.869   2.618  16.823 -1.1662 -1.9111  1.8859
 3094SOL     OW20917   0.046   0.637   6.724  0.6347  0.2513 -0.0547
 3094SOL    HW120918   0.103   0.585   6.781  0.6900  0.3579 -0.0144
 3094SOL    HW220919   0.043   0.588   6.642  0.1948 -1.9329  1.2639
 3095SOL     OW20920   0.728   3.803   7.240 -0.4073 -0.1275 -0.8133
 3095SOL    HW120921   0.821   3.810   7.218 -0.0836 -0.9036  0.3058
 3095SOL    HW220922   0.686   3.838   7.161 -0.1491  1.1697 -0.3779
 3096SOL     OW20923   1.917   4.261   4.229  0.5448 -0.3662 -0.1091
 3096SOL    HW120924   1.980   4.247   4.158  0.2421  2.2205 -0.8789
 3096SOL    HW220925   1.962   4.315   4.294 -0.8077 -1.5115  1.7637
 3097SOL     OW20926   0.039   3.136   6.024 -0.4047  0.0370  0.0438
 3097SOL    HW120927   4.687   3.151   5.993  0.0064  1.2511 -0.5477
 3097SOL    HW220928   0.043   3.043   6.047  0.1177 -0.2714 -1.3041
 3098SOL     OW20929   2.909   3.364   6.950  0.3128  0.0301  0.1142
 3098SOL    HW120930   2.823   3.399   6.926  0.3965 -0.2811 -0.6196
 3098SOL    HW220931   2.949   3.445   6.982  0.8709  0.6929 -2.3404
 3099SOL     OW20932   3.083   3.664   8.068  0.5309  0.0864  0.4167
 3099SOL    HW120933   3.024   3.729   8.031  2.6642  0.9124 -1.5374
 3099SOL    HW220934   3.028   3.587   8.069  1.7698 -0.7921  0.8240
 3100SOL     OW20935   0.149   0.716   8.599  0.2686  0.0187  0.2277
 3100SOL    HW120936   0.187   0.663   8.669 -0.1241 -0.9469 -0.3020
 3100SOL    HW220937   0.225   0.750   8.552  1.6991 -0.2409  2.3440
 3101SOL     OW20938   2.716   0.091   4.939 -0.1352 -0.1166 -0.8929
 3101SOL    HW120939   2.762   0.029   4.883  0.9606 -0.3083  0.2133
 3101SOL    HW220940   2.662   0.025   4.982 -0.2251  1.1787  0.9897
 3102SOL     OW20941   4.066   0.950  10.999 -0.2462  0.1678  0.7101
 3102SOL    HW120942   4.121   0.891  11.051  0.8609  0.2853 -0.3194
 3102SOL    HW220943   4.036   0.899  10.923  0.7857 -0.7630  0.9150
 3103SOL     OW20944   0.802   1.923   3.752 -0.6536 -0.5474  0.0062
 3103SOL    HW120945   0.896   1.938   3.748 -0.8427  0.9361  1.6442
 3103SOL    HW220946   0.791   1.927   3.847 -0.5581  0.3918 -0.0240
 3104SOL     OW20947   4.438   4.700   0.264 -0.1328  0.4173 -0.3121
 3104SOL    HW120948   4.485   4.621   0.239  0.6267  0.4994  0.8410
 3104SOL    HW220949   4.373   4.668   0.326 -0.9660 -1.9951 -2.4708
 3105SOL     OW20950   1.427   1.776   6.157 -0.1615 -0.1161 -0.5616
 3105SOL    HW120951   1.430   1.682   6.141  2.3684 -0.0219 -0.5306
 3105SOL    HW220952   1.427   1.812   6.069 -0.5447 -1.5347 -1.1383
 3106SOL     OW20953   4.636   0.201   2.591 -0.1298 -0.3459  0.0105
 3106SOL    HW120954   4.664   0.194   2.499  0.6255  1.8107  0.0863
 3106SOL    HW220955   4.599   0.289   2.589 -0.2262 -0.3658  1.2756
 3107SOL     OW20956   3.804   2.315   8.964  0.0377 -0.2796 -0.3227
 3107SOL    HW120957   3.871   2.367   8.920 -0.1919 -1.7280 -2.3327
 3107SOL    HW220958   3.855   2.250   9.013  0.9937  1.5351  1.1028
 3108SOL     OW20959   0.111   0.197   1.001  0.1357 -0.7060 -0.1402
 3108SOL    HW120960   0.083   0.281   0.966 -1.6389 -1.3558 -0.2775
 3108SOL    HW220961   0.206   0.205   1.001  0.0491  0.3577 -2.3970
 3109SOL     OW20962   1.394   2.127   8.296  0.0901  0.0315  0.2529
 3109SOL    HW120963   1.365   2.067   8.364  1.3816  0.2945  1.0443
 3109SOL    HW220964   1.444   2.195   8.342 -0.6497  0.8321 -0.1252
 3110SOL     OW20965   0.842   2.340  13.565  0.3556  0.1246 -0.0152
 3110SOL    HW120966   0.891   2.420  13.548  0.5650  0.2066  0.9580
 3110SOL    HW220967   0.752   2.364  13.544 -0.2228 -0.0823  2.1784
 3111SOL     OW20968   2.598   3.675   2.647  0.4881 -0.6891 -0.1449
 3111SOL    HW120969   2.566   3.589   2.620  0.8552 -0.7632 -0.3421
 3111SOL    HW220970   2.518   3.718   2.678  0.8484  0.4309 -0.7948
 3112SOL     OW20971   0.352   4.314   7.419  0.0675 -0.0710 -0.0301
 3112SOL    HW120972   0.353   4.321   7.514 -0.0890  0.0426 -0.0373
 3112SOL    HW220973   0.257   4.319   7.407 -0.0557  0.6903  1.3080
 3113SOL     OW20974   0.071   3.329   5.815 -0.0802  0.3789  0.5340
 3113SOL    HW120975   0.047   3.263   5.881 -0.8697 -1.5499 -1.6672
 3113SOL    HW220976   0.027   3.306   5.733  0.0224  0.4360  0.4647
 3114SOL     OW20977   4.342   2.597   4.589 -0.1547 -0.2666  0.2027
 3114SOL    HW120978   4.270   2.538   4.610  1.4061 -2.9193 -1.9207
 3114SOL    HW220979   4.313   2.667   4.648  0.1719  0.0182  0.0276
 3115SOL     OW20980   1.673   2.575   7.799  0.3965  0.1133 -0.1053
 3115SOL    HW120981   1.588   2.585   7.841  0.3583  0.8800 -0.3613
 3115SOL    HW220982   1.721   2.537   7.872 -0.0867  1.6615  1.0288
 3116SOL     OW20983   2.327   1.032   5.166  0.1496 -0.2694  0.0798
 3116SOL    HW120984   2.239   1.059   5.191 -0.4612  0.8812 -3.3075
 3116SOL    HW220985   2.348   1.093   5.095 -0.6795 -0.8076 -0.6342
 3117SOL     OW20986   0.813   0.504  17.556  0.0395 -0.0123 -0.1590
 3117SOL    HW120987   0.896   0.463  17.580 -1.8932 -2.1386  2.8051
 3117SOL    HW220988   0.840   0.596  17.561  1.8777 -0.5696  0.1540
 3118SOL     OW20989   3.643   4.704   8.399  0.0404 -0.1944 -0.5602
 3118SOL    HW120990   3.604   0.025   8.464 -0.3380  0.3538 -1.2767
 3118SOL    HW220991   3.672   4.626   8.445  0.8045  1.1114  1.1484
 3119SOL     OW20992   1.533   1.734   6.645 -0.3263 -0.4713 -0.0137
 3119SOL    HW120993   1.557   1.720   6.553 -2.8901 -1.1689 -0.5855
 3119SOL    HW220994   1.521   1.828   6.635  0.2677 -0.3117  0.7389
 3120SOL     OW20995   0.816   1.118  12.177  0.4226  0.2307 -0.4499
 3120SOL    HW120996   0.856   1.057  12.115 -0.1228  0.8141 -1.3776
 3120SOL    HW220997   0.845   1.089  12.264  2.0348 -0.4551 -1.2116
 3121SOL     OW20998   2.206   3.106  10.317 -0.2768  0.0572 -0.2067
 3121SOL    HW120999   2.143   3.036  10.332 -0.3474  0.6300  2.2636
 3121SOL    HW221000   2.283   3.071  10.361 -0.1257  0.6573  0.0196
 3122SOL     OW21001   0.649   4.574   3.184 -0.0349  0.3780 -0.5598
 3122SOL    HW121002   0.693   4.544   3.105  0.1773 -1.3436  0.2108
 3122SOL    HW221003   0.602   4.493   3.206 -1.7656  1.8879  1.3307
 3123SOL     OW21004   2.441   2.779  17.401  0.2528 -0.1795 -0.2518
 3123SOL    HW121005   2.507   2.772  17.332  0.3523 -0.6836 -0.1040
 3123SOL    HW221006   2.455   2.699  17.453  2.2980  1.4481  1.7149
 3124SOL     OW21007   3.339   3.807   2.088 -0.2041  0.3478  0.0289
 3124SOL    HW121008   3.428   3.774   2.074 -0.4996 -1.5483  2.4872
 3124SOL    HW221009   3.343   3.902   2.104  0.1480  0.2681  0.4190
 3125SOL     OW21010   3.145   2.420  13.621  0.2598  0.5465  0.1301
 3125SOL    HW121011   3.156   2.443  13.528 -0.9497  2.3464  0.4109
 3125SOL    HW221012   3.148   2.508  13.658  2.1358  0.4657  0.1453
 3126SOL     OW21013   0.496   0.820   0.834 -0.3870  0.2350  0.2730
 3126SOL    HW121014   0.548   0.744   0.862  0.3639  0.7850  0.3540
 3126SOL    HW221015   0.494   0.815   0.739 -1.2224 -0.2230  0.3079
 3127SOL     OW21016   0.492   0.843  15.512 -0.2654 -0.0675  0.0531
 3127SOL    HW121017   0.499   0.782  15.439 -0.6332 -0.4976  0.3806
 3127SOL    HW221018   0.585   0.861  15.519 -0.3844  0.6712 -0.2321
 3128SOL     OW21019   0.922   2.887  16.909 -0.5457  0.0017 -0.7174
 3128SOL    HW121020   0.985   2.881  16.836  0.0825  1.1551 -0.2687
 3128SOL    HW221021   0.861   2.825  16.869 -2.1024  1.2379 -0.2330
 3129SOL     OW21022   2.745   0.293  11.102  0.1732  0.1881 -0.5096
 3129SOL    HW121023   2.838   0.314  11.104  0.0637  0.5774  0.2171
 3129SOL    HW221024   2.716   0.354  11.169 -1.6221  0.0822 -1.1735
 3130SOL     OW21025   3.541   1.383   8.614 -0.3120  0.8332 -0.0848
 3130SOL    HW121026   3.484   1.340   8.679 -0.6630  2.1700  0.4828
 3130SOL    HW221027   3.496   1.467   8.615  0.1536  1.0827 -0.4101
 3131SOL     OW21028   3.492   1.572  16.042 -0.1071 -0.5946  0.4876
 3131SOL    HW121029   3.422   1.554  16.105 -1.2093 -0.3395 -0.6586
 3131SOL    HW221030   3.437   1.578  15.963 -0.7398  1.1622  1.0556
 3132SOL     OW21031   1.326   3.259   8.754 -0.0238 -0.1295  0.6580
 3132SOL    HW121032   1.234   3.280   8.772 -0.4475 -1.1769 -0.2723
 3132SOL    HW221033   1.362   3.324   8.814  2.4076 -0.5556 -0.3672
 3133SOL     OW21034   0.077   3.356   4.579 -0.4015  0.0245 -0.8927
 3133SOL    HW121035   0.051   3.341   4.670 -0.5325 -1.0125 -1.0986
 3133SOL    HW221036   0.019   3.430   4.560  1.1541  1.2220 -0.9636
 3134SOL     OW21037   3.953   3.784   5.994  0.7124  0.2134 -0.0113
 3134SOL    HW121038   4.008   3.835   6.054 -0.1315  0.9425  0.1632
 3134SOL    HW221039   3.869   3.803   6.036 -0.4453  0.3548 -2.3928
 3135SOL     OW21040   3.039   2.776   0.126 -0.1524 -0.5589  0.0468
 3135SOL    HW121041   2.966   2.762   0.066 -0.1945 -3.4436  0.7636
 3135SOL    HW221042   2.997   2.815   0.202  2.7519  0.3928  1.1579
 3136SOL     OW21043   0.436   0.986   6.845 -0.4366 -0.6192 -0.3996
 3136SOL    HW121044   0.364   0.938   6.804 -0.9553  0.5234 -0.8306
 3136SOL    HW221045   0.468   1.041   6.774 -2.2109 -1.2385 -1.6941
 3137SOL     OW21046   0.884   3.396   5.129  0.1218 -0.1865 -0.4269
 3137SOL    HW121047   0.836   3.347   5.062  0.1283 -1.2882  0.3692
 3137SOL    HW221048   0.814   3.397   5.194  0.5940  2.2450  0.0162
 3138SOL     OW21049   2.627   2.586   5.638 -0.2600 -0.1999 -0.1613
 3138SOL    HW121050   2.674   2.503   5.634 -2.7481 -1.6933  1.1284
 3138SOL    HW221051   2.641   2.618   5.549  0.0022  0.4470  0.1165
 3139SOL     OW21052   4.717   3.662   6.697  0.6553 -0.0645 -0.4773
 3139SOL    HW121053   0.051   3.702   6.746 -1.1774  0.4575  1.7961
 3139SOL    HW221054   4.688   3.591   6.754 -1.2575  1.9407  1.0580
 3140SOL     OW21055   1.996   0.074   8.413 -0.3778 -0.3432  0.0895
 3140SOL    HW121056   1.977   0.028   8.494  0.6864  1.6086  1.4444
 3140SOL    HW221057   2.014   0.164   8.442 -1.1246  0.4508 -1.8497
 3141SOL     OW21058   2.005   0.361   5.448  0.2273  0.5611 -0.0500
 3141SOL    HW121059   2.037   0.287   5.397 -0.1832  0.0107  0.4891
 3141SOL    HW221060   1.912   0.340   5.440  0.2040  1.1954 -1.4742
 3142SOL     OW21061   1.277   1.334   0.661 -0.0228  0.6321 -0.2099
 3142SOL    HW121062   1.261   1.322   0.568  0.8742 -0.1551 -0.2491
 3142SOL    HW221063   1.304   1.426   0.660  0.5794  0.4450 -0.5352
 3143SOL     OW21064   1.022   0.770   1.093  0.0065  0.3140  0.8724
 3143SOL    HW121065   1.026   0.842   1.156  1.2036  0.7490  0.2925
 3143SOL    HW221066   1.057   0.819   1.019  1.4233 -1.5947  0.2874
 3144SOL     OW21067   1.176   4.675  10.614 -0.1118 -0.3580  0.3755
 3144SOL    HW121068   1.149   4.705  10.701 -0.5521  0.3514 -0.0106
 3144SOL    HW221069   1.192   0.023  10.575 -2.0666 -0.9630 -1.7813
 3145SOL     OW21070   2.116   0.908   6.196 -0.1258 -0.1534 -0.3254
 3145SOL    HW121071   2.059   0.973   6.155  0.4263  1.7757  1.9421
 3145SOL    HW221072   2.206   0.937   6.180  0.6706 -1.7808  1.1660
 3146SOL     OW21073   2.450   2.653   6.644 -0.1129  0.1057 -0.0249
 3146SOL    HW121074   2.431   2.668   6.737  3.3202 -3.0892  1.1976
 3146SOL    HW221075   2.361   2.651   6.610 -0.0666  1.2298 -0.2029
 3147SOL     OW21076   2.664   4.438   2.799  0.3734 -0.2263  0.0416
 3147SOL    HW121077   2.681   4.434   2.893  3.9161  0.4285 -0.5478
 3147SOL    HW221078   2.625   4.525   2.790 -0.3912 -0.8834 -3.0837
 3148SOL     OW21079   1.010   3.181   7.628  0.1095  0.4078  0.2533
 3148SOL    HW121080   0.955   3.163   7.705 -0.2604  1.4763  0.2416
 3148SOL    HW221081   0.999   3.099   7.580 -2.7177 -0.2212  1.9541
 3149SOL     OW21082   2.734   2.151   6.955 -0.4571 -0.3279  0.4294
 3149SOL    HW121083   2.747   2.152   7.050 -0.1568  1.3683  0.3717
 3149SOL    HW221084   2.822   2.138   6.919 -1.0018  0.9890 -1.3675
 3150SOL     OW21085   4.059   2.462   2.106  0.0441 -0.4474  0.1327
 3150SOL    HW121086   4.081   2.524   2.037 -3.0755 -1.5733 -1.9031
 3150SOL    HW221087   3.994   2.508   2.160  0.9673  1.2743 -0.2345
 3151SOL     OW21088   4.144   2.711  13.173 -0.7392 -0.3688  0.0337
 3151SOL    HW121089   4.219   2.697  13.115 -0.2476  0.6084  0.4291
 3151SOL    HW221090   4.083   2.724  13.101 -1.1742  3.6641  1.1463
 3152SOL     OW21091   0.309   2.136   2.021 -0.6078  0.5678  0.3854
 3152SOL    HW121092   0.231   2.141   1.965  0.1989  2.2521 -0.5917
 3152SOL    HW221093   0.327   2.228   2.040  3.2798 -0.1691  0.2907
 3153SOL     OW21094   3.471   0.271   9.214  0.0724  0.1836 -0.1518
 3153SOL    HW121095   3.475   0.191   9.267 -0.6387 -0.1357 -0.5888
 3153SOL    HW221096   3.425   0.242   9.136  0.7750 -1.4070  0.0204
 3154SOL     OW21097   0.132   3.996   5.797 -0.0172  0.0898 -0.4771
 3154SOL    HW121098   0.096   4.007   5.885  1.2407 -0.1075  0.0609
 3154SOL    HW221099   0.056   3.979   5.742 -1.2695 -2.1903  1.9992
 3155SOL     OW21100   0.345   3.301   5.785  0.4271  0.2800  0.2871
 3155SOL    HW121101   0.373   3.278   5.874 -0.3543  1.6085  0.8743
 3155SOL    HW221102   0.250   3.289   5.786  0.2776  1.5007 -2.8587
 3156SOL     OW21103   2.592   3.228   0.248  0.1064  0.1911 -0.5447
 3156SOL    HW121104   2.632   3.313   0.267  0.4574 -0.3441  1.1094
 3156SOL    HW221105   2.502   3.237   0.277  0.6760 -0.5494  1.4243
 3157SOL     OW21106   3.994   4.440  16.576 -0.1711 -0.5813 -0.4513
 3157SOL    HW121107   3.966   4.497  16.648  0.1779 -1.2996  0.2394
 3157SOL    HW221108   3.911   4.434  16.528 -0.9120 -2.0766  1.0263
 3158SOL     OW21109   4.066   1.175  11.459  0.3007  0.3606 -0.0793
 3158SOL    HW121110   3.973   1.200  11.462  0.3588  0.8084 -1.9546
 3158SOL    HW221111   4.091   1.258  11.499  0.2021  0.1699  0.3756
 3159SOL     OW21112   1.368   4.343   3.754 -0.2375 -0.1432  0.1793
 3159SOL    HW121113   1.290   4.379   3.797  1.7593  3.4605  0.8014
 3159SOL    HW221114   1.415   4.421   3.723 -0.4238 -1.1268 -2.5128
 3160SOL     OW21115   1.545   0.372   1.436  0.7136 -0.3366  0.4562
 3160SOL    HW121116   1.595   0.446   1.403 -0.0317 -0.5761 -1.2187
 3160SOL    HW221117   1.600   0.310   1.389 -0.6648 -2.3414  1.4695
 3161SOL     OW21118   2.696   3.849   5.868 -0.0434 -0.5599  0.4027
 3161SOL    HW121119   2.772   3.908   5.864  0.4659 -1.2631 -0.2875
 3161SOL    HW221120   2.643   3.864   5.790 -1.8893 -0.5165  1.6718
 3162SOL     OW21121   0.804   4.300   4.353  0.4732  0.2187 -0.0123
 3162SOL    HW121122   0.873   4.350   4.397 -0.7493  0.1962  1.9833
 3162SOL    HW221123   0.834   4.209   4.357  1.9820  0.7291  0.0049
 3163SOL     OW21124   0.401   4.528   8.833  0.0639 -0.1248  0.5525
 3163SOL    HW121125   0.468   4.589   8.803 -1.4737  1.6728  0.7477
 3163SOL    HW221126   0.439   4.442   8.818  1.2826  0.5916 -0.4885
 3164SOL     OW21127   4.152   2.326   4.127  0.7670 -0.1646  0.3234
 3164SOL    HW121128   4.214   2.286   4.067 -0.5917 -0.3899 -0.9264
 3164SOL    HW221129   4.080   2.264   4.137  0.9021 -0.2574  0.7399
 3165SOL     OW21130   4.316   0.681   4.841  0.1754  0.2213  0.5984
 3165SOL    HW121131   4.369   0.637   4.775  2.2410 -1.1778  3.2063
 3165SOL    HW221132   4.293   0.610   4.901  1.8044  0.0665  1.0488
 3166SOL     OW21133   1.837   4.723  11.920 -0.1877 -0.0472 -0.3318
 3166SOL    HW121134   1.782   0.031  11.983 -1.6043 -1.8304 -0.2893
 3166SOL    HW221135   1.826   4.635  11.955 -1.5101 -1.0002 -3.1055
 3167SOL     OW21136   0.274   1.855   7.261  0.2071  0.1494 -0.4845
 3167SOL    HW121137   0.200   1.800   7.287  0.3354  1.4061  2.6241
 3167SOL    HW221138   0.320   1.805   7.194 -0.7506  1.1467 -1.8723
 3168SOL     OW21139   2.991   1.684   9.701  0.2083  0.2148 -0.1605
 3168SOL    HW121140   3.011   1.771   9.737 -0.1623 -1.2977  3.7422
 3168SOL    HW221141   3.020   1.682   9.610  0.0740  0.6021 -0.2107
 3169SOL     OW21142   3.939   0.877   3.951 -0.6100  0.1192 -0.3247
 3169SOL    HW121143   3.856   0.849   3.989 -0.2103  1.3659  1.4677
 3169SOL    HW221144   3.926   0.971   3.935  2.3062  0.7393  0.8461
 3170SOL     OW21145   0.191   1.325   0.803  0.0451 -0.2685 -0.0405
 3170SOL    HW121146   0.252   1.314   0.877 -0.2991 -0.6598  0.1843
 3170SOL    HW221147   0.181   1.231   0.789 -3.1386  0.0239  0.3721
 3171SOL     OW21148   4.307   4.368  10.114  0.7649 -0.2947 -0.3271
 3171SOL    HW121149   4.320   4.276  10.136 -1.0305 -0.3987  0.3395
 3171SOL    HW221150   4.268   4.407  10.192 -1.3799 -0.4620 -1.3140
 3172SOL     OW21151   1.172   2.952   8.497 -0.3716  0.3256 -0.0315
 3172SOL    HW121152   1.244   2.961   8.435  1.7602 -0.9289  2.2289
 3172SOL    HW221153   1.212   2.990   8.575  3.0330 -2.4587 -0.4438
 3173SOL     OW21154   3.566   3.034   1.463  0.7591  0.1137 -0.6659
 3173SOL    HW121155   3.597   2.944   1.449 -0.0245  0.0232 -1.8953
 3173SOL    HW221156   3.586   3.039   1.556 -1.0805  0.5377 -0.2996
 3174SOL     OW21157   3.878   1.112   8.197  0.1710  0.3088  0.4328
 3174SOL    HW121158   3.907   1.073   8.115 -3.4551 -0.2257 -0.5822
 3174SOL    HW221159   3.870   1.040   8.260 -0.8737 -0.5572 -0.6929
 3175SOL     OW21160   1.275   2.627   7.174  0.3961 -0.3820 -0.2003
 3175SOL    HW121161   1.345   2.569   7.206 -0.6735  0.0468  2.9161
 3175SOL    HW221162   1.311   2.677   7.101 -2.0954  1.0472 -0.4405
 3176SOL     OW21163   3.212   2.847   5.677 -0.1201 -0.4721  0.2697
 3176SOL    HW121164   3.238   2.929   5.636 -0.8862 -0.6215 -0.5187
 3176SOL    HW221165   3.174   2.882   5.757  0.3005 -0.3607  0.4225
 3177SOL     OW21166   3.656   4.122   5.661  0.2179  0.7737  0.1747
 3177SOL    HW121167   3.569   4.159   5.673 -0.0061  0.4552 -0.4707
 3177SOL    HW221168   3.680   4.093   5.749 -0.5738  0.8315  0.4121
 3178SOL     OW21169   0.958   2.088  13.550  0.2836  0.4045 -0.4969
 3178SOL    HW121170   1.042   2.098  13.593 -0.3813 -1.9076  1.3518
 3178SOL    HW221171   0.937   2.181  13.542 -0.4476  0.1855 -1.1474
 3179SOL     OW21172   2.070   0.640  14.076  0.3745 -0.3727  0.2895
 3179SOL    HW121173   2.140   0.674  14.132 -0.6190  2.2351 -0.0396
 3179SOL    HW221174   2.003   0.707  14.086  1.8041  1.5155 -2.6511
 3180SOL     OW21175   3.788   4.571   7.335  0.2890  0.6764  0.6019
 3180SOL    HW121176   3.848   4.500   7.358  1.1424  0.1573 -3.2572
 3180SOL    HW221177   3.846   4.647   7.328 -0.7118  1.5078  1.4000
 3181SOL     OW21178   0.210   1.877   6.784  0.5009 -0.2325 -0.2392
 3181SOL    HW121179   0.270   1.806   6.803 -0.1846  0.4272  4.2646
 3181SOL    HW221180   0.158   1.885   6.864  1.6992  0.1030  0.5074
 3182SOL     OW21181   1.422   1.109   8.460 -0.1837  0.0360 -0.3279
 3182SOL    HW121182   1.402   1.112   8.554 -0.1860  0.1171 -0.3307
 3182SOL    HW221183   1.482   1.035   8.463  1.0319  1.0534  0.7827
 3183SOL     OW21184   2.496   3.701   7.342 -0.0979 -0.0002 -0.3160
 3183SOL    HW121185   2.425   3.695   7.405 -0.0912 -0.1796 -0.3271
 3183SOL    HW221186   2.507   3.613   7.306  0.1837  0.0209 -0.2784
 3184SOL     OW21187   4.483   4.175   5.195 -0.1196  0.8402  0.2422
 3184SOL    HW121188   4.408   4.228   5.170 -1.4687  0.4740  3.6223
 3184SOL    HW221189   4.498   4.199   5.286  0.7408 -0.9301  0.5754
 3185SOL     OW21190   2.391   4.006   6.297 -0.3745 -0.2652  0.3139
 3185SOL    HW121191   2.418   3.959   6.376 -0.5974  0.4660  0.8230
 3185SOL    HW221192   2.463   4.066   6.276 -1.2629  0.5528 -0.4474
 3186SOL     OW21193   1.412   4.156   3.175  0.5812 -0.5068 -0.0291
 3186SOL    HW121194   1.423   4.192   3.263 -4.4309 -1.5184  1.0161
 3186SOL    HW221195   1.412   4.236   3.123 -0.8329  0.7314  1.8374
 3187SOL     OW21196   4.117   4.683   7.004  0.1321  0.2062 -0.0700
 3187SOL    HW121197   4.138   4.610   6.946 -1.8197 -0.0527 -0.4680
 3187SOL    HW221198   4.193   0.001   7.020  1.8276 -2.2665  0.4568
 3188SOL     OW21199   3.026   2.787   8.592 -0.4687  0.2292  0.3527
 3188SOL    HW121200   2.945   2.748   8.559 -0.7144  2.3210 -1.5498
 3188SOL    HW221201   3.032   2.753   8.681 -0.4786  1.9937  1.0198
 3189SOL     OW21202   0.826   0.309   7.297  0.0651 -0.0456  0.1342
 3189SOL    HW121203   0.760   0.258   7.252  1.4485 -0.4818 -1.4110
 3189SOL    HW221204   0.872   0.339   7.218 -1.1387 -0.3230 -0.6661
 3190SOL     OW21205   1.126   0.552  10.938  0.0736  0.1340 -0.7090
 3190SOL    HW121206   1.191   0.604  10.986  0.5448  0.7753 -2.0303
 3190SOL    HW221207   1.166   0.466  10.952 -0.8533 -0.0994  0.5112
 3191SOL     OW21208   3.430   2.770   8.770 -0.5427  0.5001  0.1640
 3191SOL    HW121209   3.454   2.692   8.821 -0.4199 -0.2133 -1.0015
 3191SOL    HW221210   3.441   2.748   8.678 -0.4709 -0.6294  0.4501
 3192SOL     OW21211   2.685   0.160   3.922  0.2600 -0.0998 -0.0476
 3192SOL    HW121212   2.630   0.130   3.850  1.2065 -1.1819 -0.3057
 3192SOL    HW221213   2.692   0.252   3.894  0.1571 -0.6052 -1.7235
 3193SOL     OW21214   2.293   3.312  15.117 -0.1555  0.3805 -0.0766
 3193SOL    HW121215   2.321   3.382  15.176  1.3420  0.4228 -0.8272
 3193SOL    HW221216   2.227   3.363  15.071 -0.4247 -0.1125 -0.2283
 3194SOL     OW21217   4.463   2.943   6.733 -0.2270 -0.2647 -0.1451
 3194SOL    HW121218   4.508   2.960   6.650  0.4062 -0.1772  0.2138
 3194SOL    HW221219   4.528   2.891   6.780 -0.0281  0.3129  0.2116
 3195SOL     OW21220   0.323   3.710   2.737 -0.3934  0.0986  0.0920
 3195SOL    HW121221   0.319   3.749   2.825  0.0258 -0.9732  0.5738
 3195SOL    HW221222   0.304   3.617   2.747  2.2612 -0.5430 -1.0654
 3196SOL     OW21223   4.621   1.648  14.920 -0.1187  0.2644  0.4948
 3196SOL    HW121224   4.610   1.728  14.869 -1.0424 -0.8446 -1.0562
 3196SOL    HW221225   4.645   1.682  15.006 -0.5218  0.2038  0.6265
 3197SOL     OW21226   0.615   4.504  11.482  0.7016  0.2766  0.1088
 3197SOL    HW121227   0.556   4.579  11.486  3.1708  2.3370 -2.2179
 3197SOL    HW221228   0.594   4.482  11.391  0.2445  0.3334  0.2005
 3198SOL     OW21229   2.338   3.267  15.865 -0.3286 -0.2180  0.3206
 3198SOL    HW121230   2.423   3.304  15.890  0.3393 -0.6425 -1.3387
 3198SOL    HW221231   2.329   3.277  15.770  1.8445 -1.3656 -0.0202
 3199SOL     OW21232   2.748   1.055   8.743 -0.1717 -0.0563 -0.1619
 3199SOL    HW121233   2.726   1.074   8.652  0.3780 -2.1804 -0.7381
 3199SOL    HW221234   2.808   1.128   8.762  1.0947 -0.9145 -0.8934
 3200SOL     OW21235   0.723   0.504  10.446  0.7873 -0.2274  0.7449
 3200SOL    HW121236   0.661   0.448  10.398  1.1165  1.2146 -1.3385
 3200SOL    HW221237   0.760   0.437  10.503  0.1322 -0.9402  0.3433
 3201SOL     OW21238   3.704   2.228   2.930  0.0853 -0.2398  0.3570
 3201SOL    HW121239   3.661   2.281   2.997  0.7908  1.0638 -0.2189
 3201SOL    HW221240   3.785   2.204   2.974  0.4490  2.3317  1.1152
 3202SOL     OW21241   2.210   3.264   7.704  0.2365  0.2320 -0.6817
 3202SOL    HW121242   2.125   3.265   7.659  1.3313 -1.5144 -2.7576
 3202SOL    HW221243   2.267   3.239   7.632  0.4457  0.0263 -0.4450
 3203SOL     OW21244   1.836   4.161   9.327  0.1831 -0.9756 -0.0447
 3203SOL    HW121245   1.828   4.189   9.418 -0.5974 -1.1626 -0.0619
 3203SOL    HW221246   1.786   4.232   9.287 -0.5001 -0.5360  1.6133
 3204SOL     OW21247   1.752   3.952   5.096  0.0208  0.1879  0.4943
 3204SOL    HW121248   1.701   3.928   5.173  0.5404  0.6635  0.9859
 3204SOL    HW221249   1.682   3.997   5.049 -0.6567  0.3965  1.7228
 3205SOL     OW21250   1.082   1.238  10.598  0.1102 -0.2567 -0.8997
 3205SOL    HW121251   1.150   1.233  10.531  1.2185  1.7198  0.0801
 3205SOL    HW221252   1.104   1.168  10.659  0.4795  0.6879  0.0609
 3206SOL     OW21253   2.035   4.234   1.475  0.2996  0.4364 -0.0338
 3206SOL    HW121254   1.949   4.196   1.458  0.8365 -0.7576 -0.0892
 3206SOL    HW221255   2.074   4.228   1.388  0.2924  2.5157 -0.1742
 3207SOL     OW21256   0.948   2.595   9.593 -0.4728 -0.0763  0.6675
 3207SOL    HW121257   0.948   2.547   9.675  0.4348  0.5726  1.0595
 3207SOL    HW221258   1.014   2.550   9.540  1.2844  1.8128  1.1987
 3208SOL     OW21259   3.291   1.918   2.310 -0.2954  0.4496 -0.4537
 3208SOL    HW121260   3.202   1.895   2.338  0.2156  0.1602  0.9043
 3208SOL    HW221261   3.269   2.000   2.265 -0.6559 -1.4747 -3.7935
 3209SOL     OW21262   1.926   0.060   3.860  1.0886  0.4905 -0.3105
 3209SOL    HW121263   1.852   0.086   3.806 -0.1887 -0.7786  0.8146
 3209SOL    HW221264   1.975   0.141   3.869 -1.7734  1.8771  2.5243
 3210SOL     OW21265   2.337   3.238  17.709 -0.6324 -0.0786  0.0795
 3210SOL    HW121266   2.392   3.317  17.718 -1.2748  0.2339  1.2304
 3210SOL    HW221267   2.381   3.177  17.650 -0.0126 -1.5755  2.1082
 3211SOL     OW21268   0.850   2.826   1.550 -0.1570 -0.1369 -0.3418
 3211SOL    HW121269   0.756   2.831   1.534 -0.3193  0.2973  0.7472
 3211SOL    HW221270   0.880   2.916   1.542  0.1101 -0.1407  0.6101
 3212SOL     OW21271   1.805   0.141   7.525 -0.0606  0.3537  0.3468
 3212SOL    HW121272   1.859   0.134   7.604  2.2555  0.3134 -1.2548
 3212SOL    HW221273   1.769   0.053   7.514 -1.4446  1.0433 -0.6342
 3213SOL     OW21274   0.749   1.297   9.068  0.2836  0.3410  0.0894
 3213SOL    HW121275   0.773   1.229   9.131 -1.2485 -0.3630 -0.0940
 3213SOL    HW221276   0.662   1.265   9.043  1.1414 -1.5791 -0.4045
 3214SOL     OW21277   2.553   2.111  15.811  0.1629  0.7212  0.2676
 3214SOL    HW121278   2.506   2.085  15.890 -0.1702 -0.8164 -0.4486
 3214SOL    HW221279   2.516   2.196  15.786  2.0989  1.7620  0.9462
 3215SOL     OW21280   0.946   3.851   5.380 -0.3225  0.3380  0.7746
 3215SOL    HW121281   1.024   3.853   5.435  0.9275  0.1112 -0.9785
 3215SOL    HW221282   0.916   3.760   5.382 -0.1546  0.2568 -0.5759
 3216SOL     OW21283   3.110   0.596   3.856  0.7727  0.0824  0.2367
 3216SOL    HW121284   3.201   0.618   3.878  0.6368  0.8958 -0.0043
 3216SOL    HW221285   3.057   0.614   3.934  0.1671  1.1612 -0.4223
 3217SOL     OW21286   2.283   2.071   5.140  0.5223 -0.1850  0.0624
 3217SOL    HW121287   2.192   2.095   5.159  0.1465 -0.5370 -1.2753
 3217SOL    HW221288   2.296   2.117   5.057  1.9605  1.0587  0.9949
 3218SOL     OW21289   3.433   1.886   3.337 -0.5776 -0.4887  0.7996
 3218SOL    HW121290   3.368   1.956   3.342  1.4227  1.3182  1.2457
 3218SOL    HW221291   3.512   1.935   3.319  0.9711 -3.0191  0.6548
 3219SOL     OW21292   1.178   1.940   3.361 -0.0365  0.0785  0.4388
 3219SOL    HW121293   1.165   2.025   3.320  1.3418 -0.2341 -0.6426
 3219SOL    HW221294   1.095   1.893   3.350 -0.6397  1.0747  0.7995
 3220SOL     OW21295   2.280   3.057   6.595 -0.5919 -0.4425 -0.1311
 3220SOL    HW121296   2.353   2.996   6.600 -1.7674 -1.9760 -1.4123
 3220SOL    HW221297   2.318   3.143   6.580 -1.8844  0.3137  0.9771
 3221SOL     OW21298   4.566   0.900   9.480 -0.7646  0.0333 -0.0446
 3221SOL    HW121299   4.559   0.805   9.475 -1.5824  0.2171 -2.3471
 3221SOL    HW221300   4.609   0.920   9.397  0.0771 -0.5024  0.2637
 3222SOL     OW21301   4.016   0.355   0.831 -0.1589 -0.0877  0.4760
 3222SOL    HW121302   4.026   0.287   0.898 -0.2034 -1.3802 -0.8246
 3222SOL    HW221303   4.079   0.323   0.766  0.5720 -0.2743  1.2836
 3223SOL     OW21304   2.546   4.550  14.938  0.7490  0.7896 -0.5242
 3223SOL    HW121305   2.616   4.495  14.901  0.1832 -0.3867  0.1796
 3223SOL    HW221306   2.473   4.488  14.940  0.9353  0.5604 -0.7128
 3224SOL     OW21307   2.415   3.530   5.882 -0.1925 -0.3663  0.3361
 3224SOL    HW121308   2.382   3.440   5.885  1.2513 -0.8003  2.6346
 3224SOL    HW221309   2.356   3.584   5.934 -3.4951 -1.6785 -2.0871
 3225SOL     OW21310   2.001   0.210  17.253  0.2475 -0.3600  0.0692
 3225SOL    HW121311   1.986   0.182  17.343 -1.0899 -0.6296 -0.2251
 3225SOL    HW221312   2.088   0.248  17.266 -0.0421 -0.8238  3.3787
 3226SOL     OW21313   1.244   3.587   7.482 -0.6794 -0.0678  0.0844
 3226SOL    HW121314   1.338   3.592   7.469 -0.8725  3.0239 -0.1935
 3226SOL    HW221315   1.236   3.512   7.540  1.6813  0.8844  1.6327
 3227SOL     OW21316   4.021   1.833  11.834  0.0965 -0.0203  0.3152
 3227SOL    HW121317   3.932   1.852  11.863 -1.4810 -3.0131 -2.4859
 3227SOL    HW221318   4.021   1.862  11.743  0.2834  2.8488  1.2511
 3228SOL     OW21319   3.159   4.254   7.063  0.2670 -0.3338 -0.5273
 3228SOL    HW121320   3.079   4.202   7.051  0.5747 -0.2514 -2.9566
 3228SOL    HW221321   3.137   4.342   7.034  0.7712 -0.7959 -2.3591
 3229SOL     OW21322   0.004   1.570   3.023  0.5403 -0.7051 -0.0070
 3229SOL    HW121323   4.649   1.552   3.040  0.2565 -0.1846 -0.9508
 3229SOL    HW221324   0.009   1.659   3.060  3.8149 -0.9469  0.0946
 3230SOL     OW21325   1.076   0.320   5.183 -0.3481  0.0193  0.0908
 3230SOL    HW121326   1.163   0.322   5.144 -0.5448 -0.1695 -0.3649
 3230SOL    HW221327   1.011   0.271   5.132  0.1330 -0.0099 -0.4867
 3231SOL     OW21328   4.031   3.338   5.035  0.6201  0.0284  0.0743
 3231SOL    HW121329   4.080   3.403   5.086  2.8267 -0.5056 -1.3637
 3231SOL    HW221330   4.006   3.276   5.104 -1.0042  1.1865  0.5274
 3232SOL     OW21331   1.566   1.251   4.853 -0.0524 -0.2761  0.5330
 3232SOL    HW121332   1.620   1.293   4.919  2.5069 -1.8486 -0.5486
 3232SOL    HW221333   1.489   1.220   4.900  0.5084  0.6789  2.0906
 3233SOL     OW21334   3.442   2.202  16.846 -0.0728  0.1735  0.0354
 3233SOL    HW121335   3.490   2.194  16.928 -2.0090  1.8770  1.3247
 3233SOL    HW221336   3.511   2.246  16.798  1.6446 -1.1872  1.2570
 3234SOL     OW21337   0.657   0.743  11.614 -0.6979 -0.1443  0.7101
 3234SOL    HW121338   0.694   0.728  11.701  1.5048 -2.1240 -0.5675
 3234SOL    HW221339   0.627   0.657  11.584 -0.6963 -0.6503  2.1697
 3235SOL     OW21340   3.890   3.815   5.035 -0.2532  0.1242 -0.3202
 3235SOL    HW121341   3.903   3.788   5.126 -0.8358 -0.7226 -0.4856
 3235SOL    HW221342   3.974   3.842   4.999  1.2890 -3.1603  0.7573
 3236SOL     OW21343   2.866   3.495   8.813 -0.1355 -0.4714  0.1335
 3236SOL    HW121344   2.777   3.526   8.827  0.0251  0.7086 -1.5178
 3236SOL    HW221345   2.895   3.468   8.900  1.2253  2.6108  0.6376
 3237SOL     OW21346   2.090   2.189   2.332 -1.0359  0.8722 -0.2728
 3237SOL    HW121347   2.052   2.205   2.245 -0.1114 -0.2858 -0.8895
 3237SOL    HW221348   2.003   2.205   2.369  0.4788  1.6487  2.9625
 3238SOL     OW21349   1.569   2.917   7.971  0.1943 -0.1084  0.1276
 3238SOL    HW121350   1.582   2.833   8.014  0.2047 -0.5196 -0.6881
 3238SOL    HW221351   1.647   2.932   7.917 -1.7220  0.2956 -2.5635
 3239SOL     OW21352   4.066   0.384   6.125  0.4843  0.0970 -0.2025
 3239SOL    HW121353   4.090   0.364   6.216 -0.7203  0.0873  0.1171
 3239SOL    HW221354   4.085   0.298   6.089  2.9994 -0.1189  1.6386
 3240SOL     OW21355   4.414   0.149   1.111 -0.0261 -0.1586  0.1776
 3240SOL    HW121356   4.504   0.168   1.138 -0.5027  1.2482  0.7695
 3240SOL    HW221357   4.405   0.213   1.040  0.2053  0.0391  0.3275
 3241SOL     OW21358   3.796   1.355   2.968  0.5446 -0.0264  0.3663
 3241SOL    HW121359   3.750   1.335   3.050 -0.1387  0.7002  0.1607
 3241SOL    HW221360   3.735   1.410   2.919 -1.1627 -1.7198  0.5622
 3242SOL     OW21361   4.003   3.577  13.730 -0.3239 -0.0993 -0.3840
 3242SOL    HW121362   3.925   3.632  13.718 -0.5297 -0.4862 -0.8125
 3242SOL    HW221363   3.961   3.491  13.724  0.6124 -0.4807 -1.4307
 3243SOL     OW21364   2.143   0.088  13.742  0.0480 -0.4242 -0.2361
 3243SOL    HW121365   2.067   0.093  13.800  1.4376 -3.5502  1.8770
 3243SOL    HW221366   2.208   0.145  13.784  0.6753 -1.3599  0.0798
 3244SOL     OW21367   1.637   1.192   8.288 -0.5287 -0.3101  0.1285
 3244SOL    HW121368   1.682   1.108   8.288 -1.5024 -0.8338 -0.2166
 3244SOL    HW221369   1.554   1.176   8.333 -1.0441 -0.0974 -0.7573
 3245SOL     OW21370   1.703   2.242   3.245  0.2018  0.1990 -0.2015
 3245SOL    HW121371   1.750   2.186   3.307  1.8285  1.0788 -0.6409
 3245SOL    HW221372   1.632   2.264   3.306  1.2184  0.9463  0.7331
 3246SOL     OW21373   0.966   1.910   2.532  0.1243  0.3699  0.3898
 3246SOL    HW121374   1.027   1.839   2.550 -0.0936  0.5321  1.7827
 3246SOL    HW221375   1.001   1.944   2.450  0.1612 -2.6269 -0.8333
 3247SOL     OW21376   0.236   0.453  10.851 -0.0962 -0.1693  1.2612
 3247SOL    HW121377   0.243   0.363  10.884 -1.7250 -0.3565  1.0660
 3247SOL    HW221378   0.325   0.484  10.869  0.2940 -0.3342 -0.3057
 3248SOL     OW21379   1.091   0.980   1.644 -0.4244 -0.0730  0.0922
 3248SOL    HW121380   1.042   1.063   1.651 -2.4794 -1.3208  0.4397
 3248SOL    HW221381   1.037   0.925   1.588 -0.0444 -0.4493  0.0967
 3249SOL     OW21382   3.046   1.693   3.119 -0.0566 -0.8023 -0.1772
 3249SOL    HW121383   3.014   1.767   3.170  1.4903  0.2256 -0.7102
 3249SOL    HW221384   3.014   1.718   3.032  1.7646  0.3138 -0.5200
 3250SOL     OW21385   2.936   2.758  17.346  0.3315  0.2485 -0.5610
 3250SOL    HW121386   3.024   2.720  17.351 -0.5729 -1.6338  1.1132
 3250SOL    HW221387   2.945   2.852  17.334  0.7004  0.5020  1.6669
 3251SOL     OW21388   3.197   1.951   4.888  0.2430  0.1808  0.1443
 3251SOL    HW121389   3.191   2.040   4.923  0.3553 -0.0515  0.7482
 3251SOL    HW221390   3.122   1.951   4.829  0.2467  1.2013  0.1467
 3252SOL     OW21391   4.067   2.639   5.787 -0.5142  0.4138 -0.0493
 3252SOL    HW121392   3.992   2.678   5.832 -0.0742  3.4249 -1.9935
 3252SOL    HW221393   4.029   2.552   5.775  1.4338 -0.1293 -2.2146
 3253SOL     OW21394   4.387   4.724   1.377  0.1260 -0.1898  0.1514
 3253SOL    HW121395   4.357   0.057   1.434  0.7411 -0.9340  1.3714
 3253SOL    HW221396   4.396   0.025   1.289  1.4685 -1.8459 -0.4287
 3254SOL     OW21397   1.784   1.692  12.630  0.3323  0.0229 -0.0311
 3254SOL    HW121398   1.771   1.682  12.535 -1.5022  1.7187  0.0400
 3254SOL    HW221399   1.793   1.600  12.655  3.4008 -0.3886 -2.6834
 3255SOL     OW21400   1.031   0.075   6.120 -0.0202  0.1231 -0.0487
 3255SOL    HW121401   0.996   0.164   6.123 -0.0294  0.0639  1.5277
 3255SOL    HW221402   0.991   0.039   6.200 -0.9133 -2.1102 -1.4807
 3256SOL     OW21403   0.974   0.725   3.338 -0.0605  0.2863 -0.3551
 3256SOL    HW121404   0.898   0.778   3.362 -0.4710 -0.8434  0.8111
 3256SOL    HW221405   0.924   0.645   3.325  1.7768 -0.7162 -1.1999
 3257SOL     OW21406   3.200   3.171   6.985  0.1790  0.0659 -0.5391
 3257SOL    HW121407   3.292   3.148   6.972  0.2654  0.7605 -1.1595
 3257SOL    HW221408   3.150   3.113   6.928 -0.1830  0.7746 -0.9371
 3258SOL     OW21409   3.042   0.673   3.567  0.0217 -0.0617 -0.1576
 3258SOL    HW121410   3.094   0.667   3.647  0.1721 -0.8134 -0.3123
 3258SOL    HW221411   2.952   0.673   3.601 -0.4799 -1.3379 -1.4842
 3259SOL     OW21412   0.327   2.930   3.611  0.7102  0.0885 -0.1841
 3259SOL    HW121413   0.378   2.849   3.609  1.7218  0.7002  0.7416
 3259SOL    HW221414   0.240   2.898   3.635  0.6539  1.2070  1.0949
 3260SOL     OW21415   0.044   2.212   6.790 -0.6601  0.1132 -0.1162
 3260SOL    HW121416   4.707   2.168   6.832  0.3619 -0.7172  0.8087
 3260SOL    HW221417   0.098   2.231   6.866 -0.6953  1.9139 -0.5404
 3261SOL     OW21418   2.290   0.580  16.733 -0.2028 -0.1582 -0.7826
 3261SOL    HW121419   2.249   0.656  16.773 -0.5386 -2.2142  2.7815
 3261SOL    HW221420   2.218   0.556  16.674 -2.1678  3.6826  0.0831
 3262SOL     OW21421   4.309   3.382   8.746 -0.4605 -0.4021 -0.2359
 3262SOL    HW121422   4.226   3.398   8.702 -2.3611 -0.4834  3.3125
 3262SOL    HW221423   4.367   3.372   8.671  1.4717  2.8344  0.8027
 3263SOL     OW21424   0.469   1.105  11.978 -0.0468 -0.0664 -0.2622
 3263SOL    HW121425   0.553   1.061  11.966  0.2256 -0.1196  1.8634
 3263SOL    HW221426   0.460   1.120  11.883  1.2493  2.0027 -0.0669
 3264SOL     OW21427   1.794   3.377   7.835  0.1551 -0.2058  0.4880
 3264SOL    HW121428   1.750   3.395   7.752  1.4475  2.0588  0.2705
 3264SOL    HW221429   1.719   3.346   7.884 -1.0923  1.4465 -0.3593
 3265SOL     OW21430   2.881   0.836  16.857 -0.0415  0.3427 -0.4969
 3265SOL    HW121431   2.815   0.856  16.790  0.4026 -2.4322 -1.7703
 3265SOL    HW221432   2.822   0.829  16.932  0.3799  2.8083  0.0617
 3266SOL     OW21433   3.129   0.125  17.452  0.7448  0.2804 -0.0469
 3266SOL    HW121434   3.102   0.063  17.520  1.1695  1.2797  1.0240
 3266SOL    HW221435   3.043   0.145  17.414  1.1172  1.8208 -0.0859
 3267SOL     OW21436   0.135   3.645  13.492  0.4217  0.1432 -0.2110
 3267SOL    HW121437   0.110   3.645  13.399  0.7453 -0.8391 -0.2945
 3267SOL    HW221438   0.181   3.561  13.497 -2.2265 -1.3131  0.0441
 3268SOL     OW21439   0.018   2.562   7.637  0.0807  0.0536  0.7174
 3268SOL    HW121440   0.002   2.505   7.562  0.0735  2.9709 -1.4862
 3268SOL    HW221441   0.069   2.500   7.690  0.7163  0.8130  1.0029
 3269SOL     OW21442   4.518   1.095   5.422  0.0236 -0.2371  0.5343
 3269SOL    HW121443   4.545   1.068   5.334 -0.4011 -0.8393  0.5916
 3269SOL    HW221444   4.542   1.187   5.418 -0.4882 -0.0868  1.0671
 3270SOL     OW21445   4.412   3.656   2.201 -0.1791 -0.4780  0.3013
 3270SOL    HW121446   4.507   3.643   2.195 -0.4944 -2.7072 -0.0531
 3270SOL    HW221447   4.392   3.596   2.273 -1.4609  0.1891  0.4871
 3271SOL     OW21448   0.943   3.664   6.312  0.2466 -0.0360 -0.0229
 3271SOL    HW121449   1.017   3.724   6.320 -0.0568  0.0619  2.2114
 3271SOL    HW221450   0.870   3.725   6.301  0.3026  0.2858  1.4258
 3272SOL     OW21451   2.025   3.540   7.469  0.4601 -0.2117 -0.1182
 3272SOL    HW121452   2.009   3.448   7.492  1.9516 -0.8945 -1.7990
 3272SOL    HW221453   1.960   3.547   7.399  1.0810 -2.3309 -0.9193
 3273SOL     OW21454   2.771   0.268   3.299 -0.1981  0.0428  0.0937
 3273SOL    HW121455   2.804   0.178   3.293 -0.5726 -0.2896  2.9611
 3273SOL    HW221456   2.824   0.320   3.239  1.3727 -0.4369  1.0618
 3274SOL     OW21457   2.049   1.629   3.548  0.3966 -0.0032 -0.4278
 3274SOL    HW121458   2.099   1.591   3.477  0.7986  0.2781 -0.2942
 3274SOL    HW221459   2.059   1.719   3.517  0.4921  0.0063 -0.3675
 3275SOL     OW21460   0.857   2.627   8.848 -0.5944  0.1879  0.3739
 3275SOL    HW121461   0.815   2.650   8.931 -0.8115 -1.7221  0.7849
 3275SOL    HW221462   0.842   2.711   8.803  0.0590 -0.6799 -1.4408
 3276SOL     OW21463   2.707   4.636  16.939 -0.3621  0.9770 -0.4339
 3276SOL    HW121464   2.716   4.681  17.023 -0.0642 -0.3876  0.2562
 3276SOL    HW221465   2.614   4.617  16.951  0.0576 -0.7643  0.0527
 3277SOL     OW21466   4.502   3.439   3.415  0.1924 -0.4419 -0.3451
 3277SOL    HW121467   4.417   3.435   3.371 -1.1268 -0.9884  2.3028
 3277SOL    HW221468   4.523   3.347   3.399  2.3251  0.0680 -0.4192
 3278SOL     OW21469   2.306   1.889  15.434  0.6233 -0.1633 -0.2974
 3278SOL    HW121470   2.228   1.912  15.383  1.4446 -0.4277 -1.6700
 3278SOL    HW221471   2.321   1.976  15.473  0.3229 -0.3074  0.1415
 3279SOL     OW21472   0.993   0.033  11.286 -0.4466  0.3619 -0.2234
 3279SOL    HW121473   0.982   4.713  11.361 -0.3373  0.1872 -0.3396
 3279SOL    HW221474   1.064   0.085  11.322 -1.3069  1.8259 -0.6188
 3280SOL     OW21475   0.802   2.834   5.645 -0.1087 -0.5139 -0.2373
 3280SOL    HW121476   0.817   2.902   5.580 -1.7288 -1.0150 -1.1392
 3280SOL    HW221477   0.710   2.822   5.620 -0.0776 -1.2227 -0.0184
 3281SOL     OW21478   0.436   1.488   4.746  0.2783 -0.2084 -1.0376
 3281SOL    HW121479   0.436   1.468   4.653  0.5431  0.7520 -1.2491
 3281SOL    HW221480   0.398   1.409   4.784 -0.0656  0.2078 -0.5205
 3282SOL     OW21481   2.520   3.669   2.011  0.0788  0.4281 -0.4706
 3282SOL    HW121482   2.593   3.730   2.000  0.8252 -0.2643  0.7136
 3282SOL    HW221483   2.566   3.593   2.046 -2.2304 -0.3851  0.7866
 3283SOL     OW21484   0.110   0.593   5.355  0.1947 -0.0988 -0.2112
 3283SOL    HW121485   0.032   0.588   5.300 -0.9014  1.2715  1.1952
 3283SOL    HW221486   0.171   0.577   5.283  0.4168 -1.4556  0.2765
 3284SOL     OW21487   3.456   0.216  10.842 -0.9764  0.4542 -0.6361
 3284SOL    HW121488   3.490   0.132  10.812 -1.9387  0.1252 -0.8099
 3284SOL    HW221489   3.540   0.259  10.855  1.4532 -4.7894  1.0850
 3285SOL     OW21490   4.361   0.925   4.955 -0.2786  0.5712 -0.2563
 3285SOL    HW121491   4.338   0.842   4.913 -0.3798 -0.1316  1.1749
 3285SOL    HW221492   4.345   0.906   5.047  0.2035  0.8007 -0.1267
 3286SOL     OW21493   2.650   2.479   6.652  0.0077  0.0302  0.4289
 3286SOL    HW121494   2.600   2.397   6.654  0.4853 -0.2336  1.5812
 3286SOL    HW221495   2.584   2.547   6.668 -0.9922 -0.5339 -1.2299
 3287SOL     OW21496   0.139   1.530   3.660 -0.5494 -0.5180  0.2020
 3287SOL    HW121497   0.059   1.566   3.699 -0.8366 -1.5703  0.5981
 3287SOL    HW221498   0.105   1.477   3.588 -1.2626  1.4274 -0.9077
 3288SOL     OW21499   0.406   3.695  10.285 -0.1105 -0.4901 -0.5420
 3288SOL    HW121500   0.370   3.665  10.201  0.0395  2.1767 -1.5543
 3288SOL    HW221501   0.468   3.626  10.309  0.7369  1.9089  4.0291
 3289SOL     OW21502   0.141   1.935   2.925  0.3548 -0.5834  0.0245
 3289SOL    HW121503   0.164   1.878   2.852  1.6135  2.2197 -1.7779
 3289SOL    HW221504   0.222   1.987   2.928 -0.9089  1.3542  0.2841
 3290SOL     OW21505   3.585   4.160   4.131  0.3190 -0.0891  0.4416
 3290SOL    HW121506   3.501   4.164   4.086  0.6795 -3.3807 -0.6136
 3290SOL    HW221507   3.563   4.115   4.212  0.8536 -0.7231  0.2402
 3291SOL     OW21508   2.828   0.251  13.928 -0.5280  0.1034 -0.5764
 3291SOL    HW121509   2.784   0.184  13.980 -0.1221  1.6997  1.8606
 3291SOL    HW221510   2.883   0.201  13.867 -0.5223 -3.2580  2.1733
 3292SOL     OW21511   2.895   4.315   0.984 -0.2608  0.1008  0.3017
 3292SOL    HW121512   2.890   4.411   0.984 -2.2380 -0.0198  1.0992
 3292SOL    HW221513   2.973   4.290   0.934  0.4508 -1.2373  2.1004
 3293SOL     OW21514   2.328   2.303   7.285 -0.0729  0.5890  0.2183
 3293SOL    HW121515   2.328   2.319   7.191  3.6059  0.0884  0.1364
 3293SOL    HW221516   2.233   2.295   7.297 -0.1259  1.4157  0.3681
 3294SOL     OW21517   3.232   0.871   6.156  0.2147  0.1254 -0.1858
 3294SOL    HW121518   3.200   0.822   6.080 -0.9400 -1.0508  1.0780
 3294SOL    HW221519   3.147   0.891   6.195  1.5989  3.8785  0.8622
 3295SOL     OW21520   1.703   2.725   3.460 -0.5981  0.0260 -0.1039
 3295SOL    HW121521   1.766   2.655   3.443 -0.9189  0.1260 -1.7181
 3295SOL    HW221522   1.624   2.671   3.452 -0.0843 -0.5101 -1.5106
 3296SOL     OW21523   0.956   3.963   5.088 -0.1205 -0.0654 -0.8821
 3296SOL    HW121524   0.903   3.887   5.062  1.3243 -1.1968 -0.5554
 3296SOL    HW221525   1.000   3.978   5.005 -0.0353  0.3033 -0.7700
 3297SOL     OW21526   4.105   0.170   2.204 -0.0198 -0.2884 -0.0498
 3297SOL    HW121527   4.142   0.247   2.247 -2.6184 -0.2137  2.0263
 3297SOL    HW221528   4.021   0.205   2.176 -0.1344  0.5595  1.3919
 3298SOL     OW21529   3.783   1.596  10.625 -0.2799 -0.1251  0.0280
 3298SOL    HW121530   3.699   1.621  10.663  0.4117  0.7261  1.0132
 3298SOL    HW221531   3.837   1.625  10.698  0.3071 -2.3909  0.4908
 3299SOL     OW21532   0.470   2.844  14.258  0.1846  0.5406 -0.3848
 3299SOL    HW121533   0.516   2.762  14.278  1.1511  0.9207 -1.0491
 3299SOL    HW221534   0.401   2.811  14.200  0.4442  0.5868 -0.7199
 3300SOL     OW21535   2.882   2.270   7.595 -0.1388  0.1205  0.6220
 3300SOL    HW121536   2.955   2.326   7.568 -0.0632  0.7231  2.0985
 3300SOL    HW221537   2.909   2.271   7.687  0.1940  0.0988  0.5258
 3301SOL     OW21538   1.267   2.128   1.707 -0.0050  0.1349  0.2045
 3301SOL    HW121539   1.237   2.049   1.753  2.8969  0.1573  2.1037
 3301SOL    HW221540   1.332   2.159   1.770  2.2004  1.8076 -2.8950
 3302SOL     OW21541   2.898   0.935   6.616  0.1959 -0.6014 -0.1536
 3302SOL    HW121542   2.863   0.870   6.556  1.3856 -0.8588 -0.5769
 3302SOL    HW221543   2.822   0.949   6.671 -0.2171 -0.4607 -0.7580
 3303SOL     OW21544   4.102   1.829   5.623 -0.2273  0.0515  0.3263
 3303SOL    HW121545   4.087   1.745   5.579  1.5052 -0.7813  1.3100
 3303SOL    HW221546   4.059   1.817   5.707 -2.4168  0.9232 -0.6836
 3304SOL     OW21547   3.680   0.843  16.293 -0.2462  0.6115  0.2976
 3304SOL    HW121548   3.699   0.849  16.387 -0.5884  0.8226  0.3556
 3304SOL    HW221549   3.762   0.854  16.245 -0.0383 -1.1191  0.2648
 3305SOL     OW21550   2.320   4.330  14.545 -0.6268  0.1267 -0.5001
 3305SOL    HW121551   2.229   4.322  14.573  0.1891 -1.9851  1.4979
 3305SOL    HW221552   2.359   4.265  14.603  1.7076  0.8769 -1.2055
 3306SOL     OW21553   1.737   0.569   1.042 -0.1722 -0.3531  0.4929
 3306SOL    HW121554   1.670   0.623   0.999  0.7959  0.7675  0.4112
 3306SOL    HW221555   1.769   0.523   0.964 -3.1842  1.1340 -1.6420
 3307SOL     OW21556   0.003   1.954  17.333 -0.7132  0.5497 -0.5435
 3307SOL    HW121557   0.097   1.944  17.323 -1.0543 -0.1311 -2.8920
 3307SOL    HW221558   4.721   1.864  17.362  1.4852  0.6595  1.2603
 3308SOL     OW21559   2.634   3.190   1.397 -0.1247 -0.2034 -0.1231
 3308SOL    HW121560   2.666   3.142   1.473  0.5468  2.1728  1.0955
 3308SOL    HW221561   2.607   3.124   1.332 -0.0393 -1.5360  1.2121
 3309SOL     OW21562   0.239   3.191   9.176  0.3348 -1.2893 -0.2553
 3309SOL    HW121563   0.279   3.121   9.227  2.8800  0.6878  0.4756
 3309SOL    HW221564   0.296   3.265   9.198 -2.8214  1.6915 -2.1151
 3310SOL     OW21565   2.747   0.534   3.168 -0.3056 -0.3612 -0.1854
 3310SOL    HW121566   2.668   0.573   3.130  0.0739  1.8210  1.2711
 3310SOL    HW221567   2.757   0.585   3.248  0.4988  0.7880 -1.0204
 3311SOL     OW21568   4.208   2.587  11.073  0.0611 -0.7589 -0.0229
 3311SOL    HW121569   4.199   2.574  10.978 -0.4072  1.2719 -0.2540
 3311SOL    HW221570   4.302   2.576  11.085  0.3847  0.7029 -1.1640
 3312SOL     OW21571   1.683   4.066   8.393 -0.4235 -0.0085 -0.3412
 3312SOL    HW121572   1.722   3.979   8.383  1.1235  0.5337  0.9501
 3312SOL    HW221573   1.626   4.073   8.316 -1.1812 -0.2177  0.1960
 3313SOL     OW21574   3.625   2.437   9.886 -0.3737  0.0630 -0.4494
 3313SOL    HW121575   3.648   2.380   9.959  3.0326  0.8157 -0.9335
 3313SOL    HW221576   3.544   2.476   9.918  0.4430 -0.8509  2.6762
 3314SOL     OW21577   2.591   0.705   5.132  0.5475  0.5688  0.4297
 3314SOL    HW121578   2.624   0.787   5.096  1.6022 -0.6693 -1.4973
 3314SOL    HW221579   2.668   0.673   5.180 -0.4075 -0.3105  1.3514
 3315SOL     OW21580   1.664   1.331  15.723 -0.2090  1.1190 -0.3963
 3315SOL    HW121581   1.714   1.309  15.644 -0.7556  2.1847 -1.0412
 3315SOL    HW221582   1.696   1.420  15.731  0.1294  1.0099 -0.5393
 3316SOL     OW21583   0.682   3.099   3.081  0.0421  0.0355  0.5469
 3316SOL    HW121584   0.658   3.032   3.145 -0.8138  2.1500  2.4398
 3316SOL    HW221585   0.778   3.095   3.088  0.1574 -0.7118 -1.3598
 3317SOL     OW21586   1.013   1.293   4.571  0.1179  0.0074 -0.1270
 3317SOL    HW121587   1.042   1.290   4.480  0.5287 -0.1995  0.0116
 3317SOL    HW221588   1.009   1.200   4.595  2.1774  0.0437  0.4060
 3318SOL     OW21589   4.465   4.633   9.193 -0.0511  0.2481  0.8535
 3318SOL    HW121590   4.502   4.647   9.106 -0.0483 -2.0585  0.4914
 3318SOL    HW221591   4.372   4.630   9.168 -0.2169  1.7704  1.2670
 3319SOL     OW21592   0.749   0.523   3.340 -0.0089 -0.5237  0.7458
 3319SOL    HW121593   0.739   0.494   3.431 -0.2714 -3.3384 -0.1721
 3319SOL    HW221594   0.773   0.444   3.292  1.2754 -0.4947  1.3380
 3320SOL     OW21595   4.417   2.767  15.213  0.0006  0.4710 -0.0940
 3320SOL    HW121596   4.370   2.836  15.166 -0.1493 -0.6150 -1.5500
 3320SOL    HW221597   4.430   2.704  15.142 -0.6186 -1.3460  1.4212
 3321SOL     OW21598   4.020   3.353  15.354 -0.4987  0.4219 -0.0178
 3321SOL    HW121599   3.938   3.382  15.313  0.0669  0.7986 -0.8777
 3321SOL    HW221600   3.995   3.265  15.381  0.9534  0.4187  1.2774
 3322SOL     OW21601   1.448   4.559   5.763 -0.0629 -0.3614 -0.1513
 3322SOL    HW121602   1.455   4.525   5.673 -1.1391  1.2607 -0.8493
 3322SOL    HW221603   1.538   4.549   5.796 -0.0987  2.5997  0.8184
 3323SOL     OW21604   2.368   2.775   5.414 -0.1815  0.3387  0.3343
 3323SOL    HW121605   2.372   2.759   5.320  0.0503  1.1926  0.1992
 3323SOL    HW221606   2.440   2.838   5.425 -0.8354  1.0552  0.5232
 3324SOL     OW21607   0.351   4.409  10.800  0.4907  0.1315 -0.5033
 3324SOL    HW121608   0.292   4.339  10.774 -1.3732  0.4486  2.8965
 3324SOL    HW221609   0.392   4.429  10.715 -1.8544  0.4536 -1.5538
 3325SOL     OW21610   2.033   2.731   8.279 -0.9477  1.4680 -0.2087
 3325SOL    HW121611   1.965   2.664   8.285 -0.2926  0.7994 -0.2462
 3325SOL    HW221612   1.978   2.781   8.218  0.5363  2.4497 -0.7335
 3326SOL     OW21613   4.419   0.617   4.287  0.0404  0.0050 -0.7577
 3326SOL    HW121614   4.408   0.533   4.243 -0.0856 -2.3917  3.8183
 3326SOL    HW221615   4.514   0.616   4.296  0.2561  3.8587 -2.5478
 3327SOL     OW21616   0.518   1.042   7.886  0.2706 -0.0941  0.3532
 3327SOL    HW121617   0.485   1.053   7.976  0.0201 -2.2409  0.5063
 3327SOL    HW221618   0.496   0.951   7.867  1.7144 -0.3112 -0.2438
 3328SOL     OW21619   1.155   2.178  15.359 -0.0984 -0.2225  0.4779
 3328SOL    HW121620   1.154   2.104  15.299 -1.1766  0.1530  0.0359
 3328SOL    HW221621   1.231   2.157  15.413  0.5721  0.0886 -0.3478
 3329SOL     OW21622   2.658   0.476   4.998 -0.1171  0.0749 -0.4704
 3329SOL    HW121623   2.623   0.560   5.028 -0.9762 -0.9829  1.4713
 3329SOL    HW221624   2.739   0.457   5.046 -1.0104 -2.4099  0.0671
 3330SOL     OW21625   1.389   4.098   3.898  0.2451 -0.2493  0.0083
 3330SOL    HW121626   1.350   4.124   3.982 -1.7314 -1.5037 -0.5189
 3330SOL    HW221627   1.407   4.178   3.849  2.9520 -0.3309  0.9002
 3331SOL     OW21628   2.369   1.342   2.472 -0.0128 -0.2074 -0.0800
 3331SOL    HW121629   2.397   1.251   2.460 -0.3257 -0.2832 -0.2300
 3331SOL    HW221630   2.423   1.390   2.409 -0.7247  2.9862  1.7686
 3332SOL     OW21631   0.104   4.094  11.879  0.5344 -0.2980 -0.0543
 3332SOL    HW121632   0.173   4.101  11.813 -0.1369  0.0378 -0.7188
 3332SOL    HW221633   0.103   4.001  11.899 -0.4284 -0.1722  0.4557
 3333SOL     OW21634   4.685   3.694  16.145  0.1154  0.0525  0.0550
 3333SOL    HW121635   4.655   3.762  16.084  0.2357  1.1714  1.2525
 3333SOL    HW221636   4.638   3.618  16.108  2.2509  0.2125 -2.9830
 3334SOL     OW21637   3.361   1.286   9.093 -0.0571  0.5233 -0.1457
 3334SOL    HW121638   3.426   1.279   9.163 -1.2880  0.1737  0.9775
 3334SOL    HW221639   3.283   1.317   9.140  0.8705  2.1632  0.3117
 3335SOL     OW21640   3.390   1.966  15.095  0.2221 -0.6044  0.2579
 3335SOL    HW121641   3.480   1.973  15.064 -0.2528 -1.4392 -1.3440
 3335SOL    HW221642   3.347   1.905  15.034  0.2815 -1.2586  0.8772
 3336SOL     OW21643   3.753   4.261   3.097  0.2771  0.0822 -0.1360
 3336SOL    HW121644   3.823   4.230   3.156 -0.0832  2.1657  1.3518
 3336SOL    HW221645   3.790   4.262   3.009  2.3671  2.1960  0.7788
 3337SOL     OW21646   2.456   4.113  14.693  0.0169  0.4965  0.1901
 3337SOL    HW121647   2.517   4.040  14.706  0.0946  0.4607 -0.4155
 3337SOL    HW221648   2.372   4.066  14.694  0.9006 -1.1252 -1.6543
 3338SOL     OW21649   4.331   3.996   8.132 -0.3255  0.4670  0.3268
 3338SOL    HW121650   4.321   3.969   8.041 -0.3855 -0.4242  0.5990
 3338SOL    HW221651   4.378   4.079   8.123  0.5504 -0.1025 -0.4233
 3339SOL     OW21652   2.757   2.001  11.369  0.4347 -0.4743  0.0262
 3339SOL    HW121653   2.794   2.027  11.284  0.6769  1.3260  0.6764
 3339SOL    HW221654   2.662   2.005  11.357  0.5597  0.6072 -0.6454
 3340SOL     OW21655   3.577   2.177   2.370 -0.6116 -0.0610  0.0595
 3340SOL    HW121656   3.505   2.207   2.426  1.4134 -0.7771  3.0760
 3340SOL    HW221657   3.617   2.115   2.431 -0.4255 -0.1251 -0.1271
 3341SOL     OW21658   4.194   3.497  10.510  0.5278 -0.6071 -0.2206
 3341SOL    HW121659   4.124   3.550  10.472  1.3719  0.6486 -0.0105
 3341SOL    HW221660   4.187   3.416  10.458  0.1559 -2.8242  3.3087
 3342SOL     OW21661   2.691   2.633  15.297  0.7235  0.0352 -0.6905
 3342SOL    HW121662   2.683   2.560  15.236  0.9916 -0.3877 -0.2165
 3342SOL    HW221663   2.693   2.706  15.236 -3.7224  0.8498  0.1080
 3343SOL     OW21664   0.044   1.127   8.827 -0.4434 -0.0591  0.3169
 3343SOL    HW121665   0.076   1.175   8.904  0.4778 -2.0350  1.1796
 3343SOL    HW221666   4.687   1.128   8.840 -0.2096 -1.6079  2.1348
 3344SOL     OW21667   1.517   2.096   5.409  0.2350 -0.3574 -0.2539
 3344SOL    HW121668   1.487   2.050   5.331  0.9547  0.5100 -1.0465
 3344SOL    HW221669   1.540   2.174   5.359 -0.6199 -0.1187 -0.2641
 3345SOL     OW21670   0.174   0.555  13.415 -0.1483  0.4388  0.4787
 3345SOL    HW121671   0.227   0.633  13.398 -2.9494  2.4269  0.8777
 3345SOL    HW221672   0.227   0.479  13.389 -0.6308  0.0159  0.7451
 3346SOL     OW21673   1.112   2.937   3.391  0.1242 -0.7683  0.1243
 3346SOL    HW121674   1.191   2.914   3.441 -0.8335 -2.9933  0.6302
 3346SOL    HW221675   1.122   2.885   3.311 -1.5443 -1.5093  0.3853
 3347SOL     OW21676   3.611   4.696   2.798 -0.4540  0.1211 -0.1154
 3347SOL    HW121677   3.534   0.015   2.797 -1.3807 -1.1341 -0.1194
 3347SOL    HW221678   3.605   4.666   2.889 -1.1799  0.5900 -0.0161
 3348SOL     OW21679   0.437   3.356   7.184  0.0772  0.0416  0.2711
 3348SOL    HW121680   0.478   3.365   7.098 -0.2206 -0.1744  0.1065
 3348SOL    HW221681   0.505   3.348   7.252  0.2751  1.1606  0.2106
 3349SOL     OW21682   2.383   4.538   7.842  0.4369  0.9598 -0.3289
 3349SOL    HW121683   2.402   4.510   7.932  1.3727 -0.3496 -0.9451
 3349SOL    HW221684   2.445   4.484   7.793 -0.7554 -1.6186  0.9935
 3350SOL     OW21685   2.556   2.687   0.025 -0.3841  0.5528  0.6852
 3350SOL    HW121686   2.564   2.607   0.077  2.8496  0.2515 -0.3178
 3350SOL    HW221687   2.510   2.658  17.695  0.9207  1.0496 -0.2603
 3351SOL     OW21688   3.445   2.478  16.595  0.3241 -0.0161  0.2458
 3351SOL    HW121689   3.372   2.489  16.656  1.0291  0.0264  1.0827
 3351SOL    HW221690   3.523   2.447  16.642 -0.5822 -2.1315  0.3573
 3352SOL     OW21691   2.804   2.240   9.090  0.1227  0.5744  0.1923
 3352SOL    HW121692   2.843   2.246   9.003 -1.9993  2.1579 -0.6553
 3352SOL    HW221693   2.883   2.229   9.143  0.4085 -1.2512 -0.6181
 3353SOL     OW21694   3.022   4.521  10.349  0.1335 -0.3151  0.4637
 3353SOL    HW121695   3.058   4.580  10.414 -2.0701  1.9159 -0.3219
 3353SOL    HW221696   3.041   4.439  10.394  0.9798 -0.6514 -0.5040
 3354SOL     OW21697   1.017   2.655   7.867 -0.1993  0.1696  0.1651
 3354SOL    HW121698   0.967   2.599   7.926 -1.2911  0.1326 -0.7877
 3354SOL    HW221699   1.103   2.655   7.910  0.4743  0.4523 -1.1777
 3355SOL     OW21700   2.663   4.104  12.498  0.3545 -0.1123 -0.2100
 3355SOL    HW121701   2.596   4.061  12.550  0.7082 -0.5312 -0.1034
 3355SOL    HW221702   2.613   4.125  12.419  0.6850  0.2031 -0.3379
 3356SOL     OW21703   4.296   0.868   5.210  0.0176  0.1755 -0.2487
 3356SOL    HW121704   4.293   0.786   5.260  2.0481  0.2589  0.0127
 3356SOL    HW221705   4.213   0.901   5.244 -0.3228 -3.5143  2.5428
 3357SOL     OW21706   0.146   4.041  17.423 -0.1470  0.5215  0.2059
 3357SOL    HW121707   0.147   4.126  17.380 -0.8817  0.7546  0.6607
 3357SOL    HW221708   0.071   4.043  17.483 -1.1867 -0.1376 -1.0758
 3358SOL     OW21709   3.120   1.055   1.210 -0.7299  0.0095  0.0611
 3358SOL    HW121710   3.042   1.065   1.155  0.8487 -2.2146 -2.5738
 3358SOL    HW221711   3.085   1.104   1.285  2.1484  0.0998  1.3275
 3359SOL     OW21712   1.535   1.227   5.823  0.6279  0.0023  0.0872
 3359SOL    HW121713   1.455   1.280   5.820 -0.4799 -1.7729 -1.4373
 3359SOL    HW221714   1.532   1.202   5.730 -3.0935 -0.0987  0.2356
 3360SOL     OW21715   1.122   4.603   3.407 -0.1275  0.3895 -0.6180
 3360SOL    HW121716   1.039   4.555   3.401  0.3776 -0.0216 -4.0293
 3360SOL    HW221717   1.113   4.653   3.488  0.1133  0.8200 -0.8578
 3361SOL     OW21718   3.449   2.989  12.073  0.7485 -0.2674  0.4918
 3361SOL    HW121719   3.510   3.046  12.120  3.0184 -1.0890 -1.4822
 3361SOL    HW221720   3.513   2.920  12.056 -1.2930 -1.5368 -1.9232
 3362SOL     OW21721   0.349   0.432   0.140  0.0036 -0.6049 -0.5642
 3362SOL    HW121722   0.416   0.376   0.102  1.7741  0.1035  1.5204
 3362SOL    HW221723   0.267   0.398   0.105  0.0349 -0.3187 -0.9148
 3363SOL     OW21724   0.288   1.536  11.377  0.2868  0.8460  0.1141
 3363SOL    HW121725   0.337   1.517  11.457 -1.4916  0.4482  1.1186
 3363SOL    HW221726   0.270   1.447  11.346  1.1443 -0.1462  2.4821
 3364SOL     OW21727   0.454   1.728  15.191 -0.1942  0.0828  0.4725
 3364SOL    HW121728   0.400   1.650  15.197 -0.5585  0.3412  0.5058
 3364SOL    HW221729   0.387   1.796  15.197  1.3495  1.6992 -0.5137
 3365SOL     OW21730   2.230   3.441   9.335 -0.0114  0.3168 -0.1225
 3365SOL    HW121731   2.239   3.349   9.313 -0.0074  0.8724 -2.5280
 3365SOL    HW221732   2.313   3.445   9.382  0.4123 -2.5692 -0.6617
 3366SOL     OW21733   3.709   1.054   7.059 -0.2708 -0.0702 -0.3780
 3366SOL    HW121734   3.650   0.980   7.068  2.0142 -1.7602  0.6267
 3366SOL    HW221735   3.795   1.013   7.061 -1.7137 -3.0736 -0.1613
 3367SOL     OW21736   2.281   3.602  14.689 -0.0498 -0.3930  0.6669
 3367SOL    HW121737   2.210   3.579  14.749 -1.9718 -1.3260 -1.9290
 3367SOL    HW221738   2.242   3.563  14.610 -0.1929  2.1002 -0.5033
 3368SOL     OW21739   1.089   0.273   4.725 -0.4682  0.3815  0.6764
 3368SOL    HW121740   1.118   0.355   4.766  1.7927 -0.3967  0.6135
 3368SOL    HW221741   1.013   0.298   4.672 -0.1632  0.7239  0.4023
 3369SOL     OW21742   1.234   3.318   7.674 -0.3677  0.0685 -0.3935
 3369SOL    HW121743   1.160   3.263   7.649 -2.0782  2.6706 -1.0551
 3369SOL    HW221744   1.310   3.282   7.629  2.7862  3.7053  2.0158
 3370SOL     OW21745   1.376   2.720   3.719  0.2035  0.1725  0.1712
 3370SOL    HW121746   1.404   2.668   3.644  2.1701 -2.8408  2.9960
 3370SOL    HW221747   1.292   2.756   3.689  1.5714  2.1738 -1.2869
 3371SOL     OW21748   0.042   2.669   8.512 -0.2784 -0.1077 -0.1255
 3371SOL    HW121749   4.691   2.634   8.522  0.7398 -2.4851  0.5339
 3371SOL    HW221750   0.070   2.687   8.602  1.9979  0.5771 -0.9694
 3372SOL     OW21751   3.951   0.830   4.256 -0.2607  0.2658  0.1626
 3372SOL    HW121752   4.046   0.834   4.244 -0.0930 -2.4408  0.7868
 3372SOL    HW221753   3.928   0.747   4.214  0.0891  0.4703 -0.4274
 3373SOL     OW21754   1.160   2.085   3.118  0.3599 -0.0444 -0.0632
 3373SOL    HW121755   1.195   2.172   3.134 -1.4320  0.4021  1.4349
 3373SOL    HW221756   1.224   2.053   3.054 -1.0301  1.3507 -2.1497
 3374SOL     OW21757   0.070   4.068   6.083 -0.2936  0.2844  0.2469
 3374SOL    HW121758   0.041   4.091   6.172 -0.3676  1.0445  0.0271
 3374SOL    HW221759   0.021   3.988   6.061 -1.2670  0.4806  1.6746
 3375SOL     OW21760   0.156   0.749  17.645 -0.4453  0.3505  0.0731
 3375SOL    HW121761   0.151   0.797  17.727 -1.3254 -0.2574  0.3694
 3375SOL    HW221762   0.248   0.724  17.651 -1.4163 -2.2783  3.5700
 3376SOL     OW21763   4.229   2.839  12.202 -0.0181  0.0324 -0.5694
 3376SOL    HW121764   4.146   2.874  12.234  0.6734  1.6597 -0.5594
 3376SOL    HW221765   4.247   2.896  12.128  0.3480 -0.2626 -0.7025
 3377SOL     OW21766   4.093   2.782   7.838  0.3814 -0.1396  0.3136
 3377SOL    HW121767   4.111   2.722   7.910  1.3582 -2.4011 -1.8579
 3377SOL    HW221768   4.171   2.835   7.824 -0.0517  0.5445  0.4367
 3378SOL     OW21769   3.171   1.453   5.525  0.4486  0.5673  0.7292
 3378SOL    HW121770   3.214   1.400   5.458 -1.1185 -0.4845  0.5560
 3378SOL    HW221771   3.126   1.378   5.564 -0.9674  0.6985 -0.6444
 3379SOL     OW21772   2.715   3.375   5.526 -0.0719  0.2962 -0.2952
 3379SOL    HW121773   2.793   3.426   5.546 -0.7257 -0.0229  2.9612
 3379SOL    HW221774   2.711   3.374   5.430  0.0679  1.1851 -0.3046
 3380SOL     OW21775   3.271   2.609   8.209 -0.0496 -0.6042  0.4117
 3380SOL    HW121776   3.316   2.577   8.287 -0.2707 -0.2933  0.6684
 3380SOL    HW221777   3.275   2.535   8.149 -0.5932 -0.1251 -0.2105
 3381SOL     OW21778   0.469   3.826  14.980  0.4115 -0.6022  0.1897
 3381SOL    HW121779   0.459   3.733  14.996 -0.0489 -0.8398 -1.4297
 3381SOL    HW221780   0.553   3.832  14.934  0.5028 -0.5491  0.3651
 3382SOL     OW21781   1.681   3.188   0.374 -0.3345 -0.0561 -0.0907
 3382SOL    HW121782   1.670   3.093   0.363  0.8180 -0.3730  1.4564
 3382SOL    HW221783   1.741   3.197   0.448 -0.6638  0.9850  0.0470
 3383SOL     OW21784   2.866   3.670   6.809  0.2350 -0.2184  0.3962
 3383SOL    HW121785   2.782   3.628   6.827 -0.4700  0.4492 -1.3288
 3383SOL    HW221786   2.920   3.657   6.887 -0.6526 -2.0586  0.6975
 3384SOL     OW21787   0.309   2.821   8.120  0.5220 -0.0347 -0.5215
 3384SOL    HW121788   0.215   2.837   8.131  0.8220  0.1247  1.7899
 3384SOL    HW221789   0.324   2.757   8.190  0.3266 -0.1549 -0.5868
 3385SOL     OW21790   1.158   0.808   7.213  0.5446  0.0644  0.5655
 3385SOL    HW121791   1.180   0.850   7.130  0.6228 -0.0125  0.5474
 3385SOL    HW221792   1.112   0.728   7.186  0.5734  0.5796 -1.0006
 3386SOL     OW21793   3.616   0.453   5.185 -0.2300  0.0408  0.3124
 3386SOL    HW121794   3.564   0.374   5.201  0.3736 -0.4996 -0.4076
 3386SOL    HW221795   3.649   0.437   5.096  0.3075  0.3289  0.4651
 3387SOL     OW21796   3.860   4.489   2.438 -0.4985  0.1405 -0.0287
 3387SOL    HW121797   3.812   4.534   2.507 -2.7875 -1.9806 -0.2363
 3387SOL    HW221798   3.901   4.558   2.386 -1.4394  0.6058 -0.1520
 3388SOL     OW21799   3.484   1.912   1.289 -0.4325  0.0902 -0.0382
 3388SOL    HW121800   3.468   1.992   1.339 -0.8528  0.5930 -0.9865
 3388SOL    HW221801   3.441   1.929   1.205  2.0900  1.2343 -1.1255
 3389SOL     OW21802   2.872   3.483  12.092  0.5602 -0.5523  0.0777
 3389SOL    HW121803   2.833   3.403  12.056 -0.5862 -0.5689  1.3680
 3389SOL    HW221804   2.798   3.541  12.082 -0.1588 -1.1163  1.9693
 3390SOL     OW21805   4.214   1.697   2.483 -0.4639  0.2657 -0.1736
 3390SOL    HW121806   4.293   1.653   2.452 -0.7677 -1.2026  1.1524
 3390SOL    HW221807   4.165   1.712   2.402 -1.6372 -0.3073  0.4401
 3391SOL     OW21808   3.128   4.228   6.336  0.7014  0.3879  0.9290
 3391SOL    HW121809   3.168   4.296   6.282 -0.9702  0.5356 -0.1178
 3391SOL    HW221810   3.140   4.155   6.276  0.4750  0.7219  0.4827
 3392SOL     OW21811   1.473   2.133   7.848  0.0884 -0.2784  0.4307
 3392SOL    HW121812   1.552   2.080   7.832  0.6366  1.3565 -2.3313
 3392SOL    HW221813   1.442   2.083   7.924  0.0409 -1.3432 -0.2794
 3393SOL     OW21814   2.730   0.692   4.234  0.1581  0.0393 -0.5661
 3393SOL    HW121815   2.753   0.771   4.283  0.5486 -0.4861  0.0969
 3393SOL    HW221816   2.762   0.712   4.146 -0.2302 -0.9036 -0.9161
 3394SOL     OW21817   0.646   1.300   3.327 -0.5567  0.1719  0.2520
 3394SOL    HW121818   0.729   1.257   3.310 -0.1805  0.8494  0.3854
 3394SOL    HW221819   0.584   1.228   3.337  0.1276 -0.4744 -0.2557
 3395SOL     OW21820   1.703   3.913  11.223 -0.8065 -0.1708  0.2101
 3395SOL    HW121821   1.784   3.890  11.178 -1.2345 -1.0929 -0.0870
 3395SOL    HW221822   1.719   3.901  11.316  0.9406 -0.3120 -0.1035
 3396SOL     OW21823   4.003   2.930   6.616  0.5820 -0.0901 -0.0155
 3396SOL    HW121824   4.070   2.908   6.681 -0.1619  0.3984  0.9264
 3396SOL    HW221825   3.930   2.951   6.675  1.2982  2.0623  0.0763
 3397SOL     OW21826   0.878   0.370   1.243  0.0999  0.1819 -0.3433
 3397SOL    HW121827   0.848   0.350   1.331  0.6211  0.1627 -0.1680
 3397SOL    HW221828   0.900   0.463   1.250 -0.0617  0.2819 -1.1538
 3398SOL     OW21829   2.624   1.206   4.629 -0.8617 -0.1636  0.8798
 3398SOL    HW121830   2.603   1.138   4.565  0.7585  0.6149 -0.4611
 3398SOL    HW221831   2.547   1.179   4.679 -1.7376  0.0813 -0.3353
 3399SOL     OW21832   2.708   3.744  13.768  0.4219  0.6023 -0.0974
 3399SOL    HW121833   2.619   3.729  13.799 -0.1306 -0.8786 -2.4108
 3399SOL    HW221834   2.690   3.788  13.685  1.8938  0.6597 -0.3989
 3400SOL     OW21835   3.974   3.534   8.160  0.5420 -0.4979  0.0654
 3400SOL    HW121836   3.882   3.537   8.132  0.4368  1.8582  0.6491
 3400SOL    HW221837   3.973   3.451   8.207  2.0882  0.3647  1.5958
 3401SOL     OW21838   2.527   3.305   4.257 -0.9839 -0.3416 -0.1800
 3401SOL    HW121839   2.485   3.226   4.224  0.2841  0.3296 -3.3982
 3401SOL    HW221840   2.454   3.345   4.305 -0.0263  0.0428  0.9380
 3402SOL     OW21841   0.810   4.638  16.468  0.0497  0.1170 -0.4421
 3402SOL    HW121842   0.839   4.682  16.548 -0.2847  1.6306 -1.1644
 3402SOL    HW221843   0.866   4.673  16.399 -1.1672  1.4522 -0.7471
 3403SOL     OW21844   4.600   2.993   3.851 -0.0331 -0.2278 -0.0369
 3403SOL    HW121845   4.614   2.900   3.833 -1.1205 -0.9312  2.7935
 3403SOL    HW221846   4.566   2.989   3.940  1.4397  2.0986  0.6523
 3404SOL     OW21847   2.641   0.002   7.634  0.2446 -0.3536 -0.2936
 3404SOL    HW121848   2.626   4.698   7.719 -0.4253 -1.4253 -0.9319
 3404SOL    HW221849   2.556   0.020   7.594  0.9355 -0.0427 -1.6317
 3405SOL     OW21850   1.458   2.110  10.853 -0.7626  0.1688 -0.5409
 3405SOL    HW121851   1.547   2.096  10.884 -1.3125  0.3066  1.1159
 3405SOL    HW221852   1.402   2.081  10.925  0.5127  0.0532  0.4038
 3406SOL     OW21853   4.049   0.768   1.718  0.2640 -0.1464 -0.2454
 3406SOL    HW121854   4.019   0.829   1.786  0.4255 -0.7163  0.3343
 3406SOL    HW221855   4.142   0.784   1.734  0.7168 -2.0812 -0.9885
 3407SOL     OW21856   1.599   4.039   8.649 -0.0330 -0.2893  0.2458
 3407SOL    HW121857   1.631   4.058   8.561  0.1686 -1.2774  0.1029
 3407SOL    HW221858   1.527   4.102   8.653 -1.1378 -1.2763 -3.5590
 3408SOL     OW21859   2.750   4.451   5.505  0.2220 -0.3101  0.3215
 3408SOL    HW121860   2.839   4.428   5.476  1.0549  2.5353  0.6031
 3408SOL    HW221861   2.720   4.485   5.420  1.2229  0.4512  0.2699
 3409SOL     OW21862   3.824   1.446   5.296 -0.3589 -0.1932  0.0134
 3409SOL    HW121863   3.842   1.531   5.256 -1.9369 -0.6680 -1.6821
 3409SOL    HW221864   3.888   1.389   5.255 -0.6689 -1.8639  1.8587
 3410SOL     OW21865   0.932   2.246   3.076  0.4413 -0.4359  0.3129
 3410SOL    HW121866   1.009   2.190   3.082  0.6806 -0.1177  0.2737
 3410SOL    HW221867   0.886   2.227   3.158 -0.6910  0.1486 -0.1899
 3411SOL     OW21868   2.194   1.488   2.831 -0.3621  0.0501  0.3019
 3411SOL    HW121869   2.153   1.502   2.917 -1.5002  0.5561 -0.3231
 3411SOL    HW221870   2.122   1.527   2.781 -0.3036  0.2593  0.3777
 3412SOL     OW21871   0.880   0.343   0.658  0.3568 -0.2013 -0.5989
 3412SOL    HW121872   0.955   0.293   0.624  1.6240  1.7025 -0.5781
 3412SOL    HW221873   0.827   0.358   0.579 -1.5281  0.3831  0.7943
 3413SOL     OW21874   3.572   4.516   2.026 -0.2145 -0.2254  0.0093
 3413SOL    HW121875   3.523   4.581   1.976  0.6128  0.4167  0.0190
 3413SOL    HW221876   3.636   4.491   1.958  0.8088  0.1267  0.8426
 3414SOL     OW21877   0.459   4.317   2.231  0.1947 -0.0779 -0.6197
 3414SOL    HW121878   0.393   4.286   2.169  0.0841 -2.0577  0.4976
 3414SOL    HW221879   0.532   4.256   2.219  0.7014  0.5058 -0.5467
 3415SOL     OW21880   1.273   3.180   3.430 -0.2713  0.2755 -0.0277
 3415SOL    HW121881   1.182   3.155   3.415 -0.2027 -0.5156  0.8626
 3415SOL    HW221882   1.291   3.215   3.342  0.7064 -1.6945 -0.6204
 3416SOL     OW21883   1.797   3.196   1.449 -0.4131 -0.1457  0.0454
 3416SOL    HW121884   1.722   3.250   1.421  1.0063  1.7772 -0.0626
 3416SOL    HW221885   1.781   3.116   1.398  0.4626  0.1824 -0.7459
 3417SOL     OW21886   2.205   0.790  13.224  0.0818 -0.4727 -0.2014
 3417SOL    HW121887   2.144   0.729  13.265  0.5967 -1.0768 -0.3302
 3417SOL    HW221888   2.272   0.801  13.292  0.5262  0.7044 -0.8197
 3418SOL     OW21889   1.311   3.992   7.307 -0.2860 -0.4094 -0.2170
 3418SOL    HW121890   1.288   3.910   7.264 -3.2400  0.6313 -0.6978
 3418SOL    HW221891   1.353   4.033   7.232 -1.0757  3.3398  1.3526
 3419SOL     OW21892   3.323   3.666   2.490 -0.6421 -0.3223 -0.1094
 3419SOL    HW121893   3.238   3.635   2.457 -0.9214 -2.3134  2.5362
 3419SOL    HW221894   3.344   3.611   2.565  2.1937 -1.7031 -1.9151
 3420SOL     OW21895   3.471   1.325   6.043  0.3763  0.6462  0.1753
 3420SOL    HW121896   3.400   1.265   6.064 -1.2025  2.0877 -0.9628
 3420SOL    HW221897   3.431   1.377   5.973 -1.1336  0.1313  0.6656
 3421SOL     OW21898   3.095   2.772   3.637 -0.4056  0.0512  0.2865
 3421SOL    HW121899   3.109   2.689   3.683  2.7813  0.7846  0.6407
 3421SOL    HW221900   3.000   2.768   3.626 -0.2564 -0.2422 -0.8988
 3422SOL     OW21901   1.240   2.901   3.980 -0.1501 -0.0005  0.5695
 3422SOL    HW121902   1.193   2.819   3.992  0.7421 -0.3623  1.6351
 3422SOL    HW221903   1.321   2.862   4.011  2.0431  0.5323 -4.5781
 3423SOL     OW21904   0.876   0.607   2.608  0.0794 -0.1919  0.1903
 3423SOL    HW121905   0.785   0.635   2.612  0.7150  2.2611 -2.1320
 3423SOL    HW221906   0.921   0.680   2.651  0.4262 -1.1154  1.3840
 3424SOL     OW21907   1.655   4.520   1.820  0.6576  0.4455 -0.1001
 3424SOL    HW121908   1.600   4.596   1.802 -1.8110 -1.6375 -1.3114
 3424SOL    HW221909   1.633   4.487   1.908  1.3518  0.0598 -0.0693
 3425SOL     OW21910   3.432   1.807  10.707  0.4839 -0.1430 -0.6700
 3425SOL    HW121911   3.527   1.819  10.716  0.3503 -1.1388  2.0068
 3425SOL    HW221912   3.441   1.713  10.686 -3.4508 -0.8195  0.7631
 3426SOL     OW21913   0.179   4.442   0.531  0.4022  0.7559  0.2105
 3426SOL    HW121914   0.182   4.374   0.597  0.4133  0.8739  0.3324
 3426SOL    HW221915   0.246   4.506   0.555 -1.8118  1.5706  4.1909
 3427SOL     OW21916   2.706   1.292   8.209 -0.2174  0.2910 -0.9203
 3427SOL    HW121917   2.650   1.288   8.131 -4.4218 -1.4327  2.1507
 3427SOL    HW221918   2.695   1.200   8.234 -1.4424 -0.2074 -3.2302
 3428SOL     OW21919   0.525   2.449   2.862  0.4619  0.3522 -0.2263
 3428SOL    HW121920   0.434   2.447   2.892  0.7375  0.0770  0.5795
 3428SOL    HW221921   0.555   2.530   2.904  0.1418  1.3463 -1.8725
 3429SOL     OW21922   2.525   0.057   2.991  0.3065  0.4128  0.0974
 3429SOL    HW121923   2.555   0.026   2.905 -3.3360 -1.5797 -0.4225
 3429SOL    HW221924   2.578   0.011   3.056  0.1760  0.3611  0.1659
 3430SOL     OW21925   1.398   1.108   4.446 -0.2617  0.1315  0.5053
 3430SOL    HW121926   1.439   1.090   4.362 -0.3585 -1.6151  0.8380
 3430SOL    HW221927   1.428   1.199   4.454 -1.3178  0.4754  0.6506
 3431SOL     OW21928   3.699   0.438  17.525 -0.2034  0.7872 -0.2759
 3431SOL    HW121929   3.616   0.470  17.490 -0.4864  0.1199 -0.2085
 3431SOL    HW221930   3.717   0.512  17.584 -0.7658 -1.5089  2.7531
 3432SOL     OW21931   0.655   0.072   7.214 -0.1256  0.2989  0.4352
 3432SOL    HW121932   0.706   0.020   7.275  1.2821  2.2378  0.9234
 3432SOL    HW221933   0.661   0.021   7.133  3.5186  1.6280 -0.1692
 3433SOL     OW21934   3.117   1.435   4.260  0.0687  0.1601  0.4213
 3433SOL    HW121935   3.152   1.524   4.254  0.4384 -0.1018 -1.3400
 3433SOL    HW221936   3.085   1.417   4.172 -0.3515  0.5461  0.4906
 3434SOL     OW21937   1.318   4.473  11.789 -0.0397 -0.8035 -0.2457
 3434SOL    HW121938   1.291   4.564  11.782  0.5748 -0.4769  1.4301
 3434SOL    HW221939   1.411   4.489  11.809 -0.8203  2.8544  0.5231
 3435SOL     OW21940   1.577   0.274   3.168 -0.0576 -0.3664 -0.0880
 3435SOL    HW121941   1.667   0.290   3.197  0.1176 -1.1704 -0.1908
 3435SOL    HW221942   1.532   0.341   3.218 -0.3841  0.0036 -0.8788
 3436SOL     OW21943   3.326   4.347   1.235 -0.1242 -0.0128  0.3940
 3436SOL    HW121944   3.262   4.275   1.239 -1.2938  0.8962 -2.2098
 3436SOL    HW221945   3.278   4.410   1.183  2.6009  0.6588 -1.2759
 3437SOL     OW21946   3.303   4.667  15.905 -0.4204  0.5194 -0.2083
 3437SOL    HW121947   3.212   4.674  15.876 -0.9533  2.3154  1.9248
 3437SOL    HW221948   3.325   0.017  15.873 -2.2895  0.9772 -0.2266
 3438SOL     OW21949   1.846   3.431   8.618 -0.5075 -0.3675  0.0044
 3438SOL    HW121950   1.765   3.441   8.567  0.2682 -0.9156 -1.3400
 3438SOL    HW221951   1.893   3.361   8.573 -0.9489 -1.1813  0.8121
 3439SOL     OW21952   2.373   4.010  11.729  0.2400 -0.4296 -0.4060
 3439SOL    HW121953   2.386   4.090  11.678  0.8050  0.0952  0.5631
 3439SOL    HW221954   2.279   4.017  11.749  0.8656  0.6698  2.1797
 3440SOL     OW21955   2.689   2.537   1.192  0.5140  0.3297 -0.0813
 3440SOL    HW121956   2.765   2.556   1.138  0.3558 -0.0849 -0.4462
 3440SOL    HW221957   2.695   2.445   1.216 -0.9468  0.3188  0.2947
 3441SOL     OW21958   1.221   2.675   6.336 -0.4979  0.1240  0.3686
 3441SOL    HW121959   1.180   2.668   6.250  4.4219  0.5363 -2.0309
 3441SOL    HW221960   1.233   2.770   6.328 -0.8566  0.1532  0.1640
 3442SOL     OW21961   1.335   1.975   8.890 -0.6858 -0.2245 -0.2463
 3442SOL    HW121962   1.277   2.044   8.921 -1.9608 -0.4923 -2.0565
 3442SOL    HW221963   1.313   1.983   8.797  2.3608 -0.7695 -1.0259
 3443SOL     OW21964   1.439   4.227   1.770  0.3378 -0.8359  0.0763
 3443SOL    HW121965   1.458   4.262   1.857  0.9168  0.8073 -0.7121
 3443SOL    HW221966   1.439   4.133   1.786  2.6202 -0.7366  0.5609
 3444SOL     OW21967   4.490   0.990  17.140  0.1471  0.5630  0.0883
 3444SOL    HW121968   4.538   0.909  17.121  2.1429  1.5010  1.1623
 3444SOL    HW221969   4.497   1.041  17.059  1.5569  0.6916  0.2884
 3445SOL     OW21970   3.694   2.340   2.043  0.1143  0.2634  0.4057
 3445SOL    HW121971   3.686   2.351   1.949 -0.7328  0.1401  0.4661
 3445SOL    HW221972   3.604   2.315   2.062 -0.2486  1.7283  0.6103
 3446SOL     OW21973   0.140   3.538   0.686  0.2857 -0.4397  0.0149
 3446SOL    HW121974   0.078   3.498   0.747 -1.2603  2.1418  0.1356
 3446SOL    HW221975   0.227   3.523   0.722  0.3600  0.9414  0.4107
 3447SOL     OW21976   3.554   4.553  11.554  0.2120  0.1862 -0.1004
 3447SOL    HW121977   3.548   4.647  11.574  1.4082  0.3277 -0.3881
 3447SOL    HW221978   3.635   4.533  11.601  0.2669 -0.6346 -0.5482
 3448SOL     OW21979   3.161   4.176  17.026 -0.0178  0.0263  0.8941
 3448SOL    HW121980   3.253   4.200  17.038  0.4674 -1.4177  0.0671
 3448SOL    HW221981   3.120   4.253  17.067 -2.1323 -1.3775  1.3987
 3449SOL     OW21982   2.291   3.878   5.398 -0.4741 -0.4215 -0.1162
 3449SOL    HW121983   2.278   3.895   5.305 -0.6010  0.0725 -0.0092
 3449SOL    HW221984   2.378   3.840   5.406 -0.1546  0.3336 -0.0001
 3450SOL     OW21985   1.591   3.831   6.384  0.9251 -0.5648 -0.4087
 3450SOL    HW121986   1.568   3.744   6.416 -0.5568 -0.6541 -1.7057
 3450SOL    HW221987   1.509   3.877   6.402 -0.5820 -2.4412 -2.5366
 3451SOL     OW21988   0.293   3.623   7.571 -0.9542 -0.1657  0.8832
 3451SOL    HW121989   0.339   3.595   7.650  0.4289 -0.2918  0.0193
 3451SOL    HW221990   0.259   3.537   7.546  1.3636 -0.8787  0.2216
 3452SOL     OW21991   1.936   3.054  16.357 -0.9395 -0.4531 -0.4169
 3452SOL    HW121992   1.988   3.135  16.362 -0.7079 -0.4329 -3.4257
 3452SOL    HW221993   1.910   3.045  16.449 -0.4777  0.8506 -0.1576
 3453SOL     OW21994   0.586   0.497  17.718  0.9699 -0.1659  0.0892
 3453SOL    HW121995   0.667   0.498  17.668  1.0238  2.3459  0.2189
 3453SOL    HW221996   0.534   0.447  17.655 -2.0031  0.0763  2.3011
 3454SOL     OW21997   1.534   3.303   8.555 -0.7619  0.2795  0.4129
 3454SOL    HW121998   1.535   3.395   8.529  1.1507 -0.1997 -1.1395
 3454SOL    HW221999   1.459   3.300   8.615 -1.5243 -1.3401 -0.6403
 3455SOL     OW22000   1.620   0.194   4.662 -0.0248 -0.1157 -0.0446
 3455SOL    HW122001   1.560   0.260   4.694 -0.3701 -0.5126  0.1242
 3455SOL    HW222002   1.711   0.222   4.674  0.9371 -2.6356 -1.3063
 3456SOL     OW22003   1.897   2.530   3.468  0.3153  0.2819  0.5594
 3456SOL    HW122004   1.956   2.552   3.540 -1.3991  0.2303  1.9777
 3456SOL    HW222005   1.968   2.533   3.404  2.1958  0.1922  2.6615
 3457SOL     OW22006   3.633   4.045   1.966 -0.5378  0.1148 -0.0950
 3457SOL    HW122007   3.668   4.128   1.934 -0.7668  0.6047  0.9232
 3457SOL    HW222008   3.685   4.020   2.043  1.4134  0.3837 -1.3403
 3458SOL     OW22009   3.170   3.886   6.632 -0.1537 -0.1701 -0.3796
 3458SOL    HW122010   3.261   3.885   6.661  0.0787 -0.6319 -1.1128
 3458SOL    HW222011   3.125   3.965   6.663  0.3011 -0.4155  0.8871
 3459SOL     OW22012   0.060   0.439   0.872 -0.1789  0.0048 -0.1724
 3459SOL    HW122013   0.152   0.454   0.895 -0.8078  1.7176  1.3362
 3459SOL    HW222014   0.030   0.526   0.845 -0.1866 -0.4924 -1.7526
 3460SOL     OW22015   0.679   4.401   6.422 -0.1576 -0.2375 -0.0667
 3460SOL    HW122016   0.735   4.407   6.345 -0.6651 -0.5498 -0.4662
 3460SOL    HW222017   0.627   4.480   6.410  0.3795  0.1838  0.4011
 3461SOL     OW22018   1.324   2.836   5.409  0.2693 -0.1906  0.1218
 3461SOL    HW122019   1.398   2.896   5.404 -0.6819  0.9942  0.0294
 3461SOL    HW222020   1.338   2.793   5.325  0.4380 -3.0814  1.6478
 3462SOL     OW22021   3.567   2.040  14.715 -0.0638 -0.4599  0.2700
 3462SOL    HW122022   3.593   2.045  14.623 -2.3049 -1.8746 -0.4441
 3462SOL    HW222023   3.652   2.021  14.753 -0.4608 -1.2173  0.7834
 3463SOL     OW22024   2.179   2.183  11.474  0.0433  0.0869  0.0856
 3463SOL    HW122025   2.207   2.262  11.521 -1.5834  0.2972  0.6792
 3463SOL    HW222026   2.086   2.180  11.494 -0.1576 -0.1075 -0.8678
 3464SOL     OW22027   1.935   1.591   7.802  0.0921 -0.6578 -0.0307
 3464SOL    HW122028   1.882   1.514   7.781 -1.4798  0.1269  1.1066
 3464SOL    HW222029   1.947   1.616   7.711  0.3289  0.3614  0.2876
 3465SOL     OW22030   2.055   0.668   0.038 -0.3261  0.0722  0.2475
 3465SOL    HW122031   2.037   0.737   0.101  2.2852 -0.9582  2.1145
 3465SOL    HW222032   2.138   0.630   0.066  0.9557  1.0838 -2.1046
 3466SOL     OW22033   4.329   3.325   4.098 -0.1838  0.0400  0.0863
 3466SOL    HW122034   4.296   3.381   4.028  1.0590  0.6107 -0.0447
 3466SOL    HW222035   4.289   3.239   4.086 -1.2856  0.3084  1.7498
 3467SOL     OW22036   2.190   1.576   3.998 -0.0125 -0.0877  0.2032
 3467SOL    HW122037   2.124   1.507   4.002 -0.8967  0.7748  0.5350
 3467SOL    HW222038   2.249   1.535   4.062  1.0760  0.0342 -0.7211
 3468SOL     OW22039   1.384   3.115   3.812 -0.3885  0.3866 -0.1499
 3468SOL    HW122040   1.369   3.042   3.872  1.4119  0.7340  0.7114
 3468SOL    HW222041   1.446   3.161   3.869 -0.6328 -1.5459  1.6543
 3469SOL     OW22042   4.048   3.316   7.900 -0.0687  0.2750 -0.0111
 3469SOL    HW122043   4.119   3.266   7.940 -0.4141  0.2450  0.5685
 3469SOL    HW222044   3.987   3.243   7.905  0.4282 -0.2161 -1.2511
 3470SOL     OW22045   4.171   3.238   6.767  0.0936 -0.5104 -0.5567
 3470SOL    HW122046   4.162   3.285   6.684  2.0779 -1.0751 -1.0797
 3470SOL    HW222047   4.109   3.292   6.815  0.3013 -0.2278 -0.6070
 3471SOL     OW22048   4.159   1.267   8.585  0.4763 -0.3667 -0.4254
 3471SOL    HW122049   4.223   1.316   8.533  0.9882  2.4595  2.8303
 3471SOL    HW222050   4.157   1.185   8.536  0.3152 -0.8099  0.3320
 3472SOL     OW22051   1.014   4.223   3.651 -0.4940 -0.0766 -0.1304
 3472SOL    HW122052   1.024   4.179   3.566 -0.0808  1.8000 -1.0614
 3472SOL    HW222053   0.919   4.230   3.646 -0.6063 -1.6057 -0.0455
 3473SOL     OW22054   0.282   0.834   0.372 -0.0040  0.4141  0.2651
 3473SOL    HW122055   0.372   0.852   0.399 -0.2545  0.4610  1.0913
 3473SOL    HW222056   0.277   0.743   0.403 -1.3183  0.3124 -0.2303
 3474SOL     OW22057   0.865   4.635   4.600 -0.1554 -0.3050  0.3099
 3474SOL    HW122058   0.887   4.542   4.602 -1.4130 -0.6035  0.3740
 3474SOL    HW222059   0.799   4.645   4.668  0.6252  1.2356  0.8321
 3475SOL     OW22060   4.619   3.585   0.434  0.5160  0.2375  0.2627
 3475SOL    HW122061   4.701   3.545   0.408  2.1270  2.7037  1.5519
 3475SOL    HW222062   4.610   3.558   0.525 -0.0939  1.3089  0.5207
 3476SOL     OW22063   1.786   1.169  15.266 -0.7393 -0.1424 -0.3287
 3476SOL    HW122064   1.861   1.136  15.315 -0.2482  1.5008  0.0049
 3476SOL    HW222065   1.835   1.211  15.196  1.0831 -3.2975 -0.9468
 3477SOL     OW22066   3.632   2.597  14.882 -0.2389  0.4049  0.7428
 3477SOL    HW122067   3.660   2.611  14.972  1.7211  1.2583  0.0060
 3477SOL    HW222068   3.539   2.619  14.887 -0.8402 -1.9745 -0.0150
 3478SOL     OW22069   4.022   1.434   4.402  0.0888  0.3239 -0.0983
 3478SOL    HW122070   4.054   1.519   4.372  0.2807  1.0455  2.1312
 3478SOL    HW222071   4.064   1.374   4.340 -1.0268 -2.1152  1.5296
 3479SOL     OW22072   2.439   3.524   0.068  0.2740 -0.8072  0.2716
 3479SOL    HW122073   2.529   3.533   0.100  0.1621  3.4255 -0.6937
 3479SOL    HW222074   2.387   3.481   0.136  0.9502 -2.5324 -0.2804
 3480SOL     OW22075   0.760   2.163   6.832 -0.5984  0.1408 -0.3327
 3480SOL    HW122076   0.772   2.137   6.741 -2.0846 -2.3652  0.1856
 3480SOL    HW222077   0.830   2.228   6.842 -0.5622  0.1448 -0.6121
 3481SOL     OW22078   3.075   1.243   5.978 -0.5236 -0.3725  0.1103
 3481SOL    HW122079   3.131   1.168   5.997  2.3506  0.2883 -5.7087
 3481SOL    HW222080   3.072   1.284   6.065 -1.4593 -0.3962  0.0912
 3482SOL     OW22081   4.326   0.497   8.017 -0.3861  0.1815  0.1266
 3482SOL    HW122082   4.320   0.573   8.075  0.8276 -0.2732  0.8438
 3482SOL    HW222083   4.272   0.433   8.062 -0.5980  0.6734  0.5684
 3483SOL     OW22084   3.540   4.534   3.905  0.0866 -0.3260 -0.2742
 3483SOL    HW122085   3.626   4.530   3.862  0.5450  0.5819  0.5670
 3483SOL    HW222086   3.514   4.610   3.853  0.6262  0.6956  0.9545
 3484SOL     OW22087   3.953   3.863   3.161 -0.6091  0.1248  0.2210
 3484SOL    HW122088   4.000   3.846   3.243  0.4012 -1.0979 -0.6063
 3484SOL    HW222089   3.928   3.771   3.152 -0.4220  0.1816 -0.8522
 3485SOL     OW22090   4.496   4.030   4.376  0.6407  0.4078  0.2823
 3485SOL    HW122091   4.580   3.987   4.391  0.4297 -0.2229 -0.3019
 3485SOL    HW222092   4.492   4.078   4.458 -0.4262  0.5414  0.1579
 3486SOL     OW22093   0.354   0.657   5.920  0.4238 -0.0510 -0.7290
 3486SOL    HW122094   0.363   0.591   5.851 -1.3405  0.0297 -1.0207
 3486SOL    HW222095   0.264   0.689   5.921  0.8042  1.0005  0.2808
 3487SOL     OW22096   0.533   4.073   2.531 -0.1608 -0.6000  0.0916
 3487SOL    HW122097   0.468   4.100   2.467  0.2271  2.5225  1.0370
 3487SOL    HW222098   0.613   4.118   2.504 -0.5301 -0.5074 -0.8453
 3488SOL     OW22099   1.536   4.343   2.925  0.3397  0.4697 -0.1593
 3488SOL    HW122100   1.619   4.325   2.969  0.7130  1.6447 -0.3842
 3488SOL    HW222101   1.544   4.435   2.897  1.1522  0.6639  0.6941
 3489SOL     OW22102   3.458   1.157   8.424  0.2785  0.4575 -0.0991
 3489SOL    HW122103   3.476   1.250   8.439  2.3982 -0.3841  2.5216
 3489SOL    HW222104   3.388   1.142   8.488  1.4652  0.1082  1.1233
 3490SOL     OW22105   3.328   3.186   3.852 -0.2025 -0.3070  0.0207
 3490SOL    HW122106   3.307   3.249   3.783  0.1281  0.8381  0.9664
 3490SOL    HW222107   3.261   3.121   3.831  0.4206 -1.2942  1.1410
 3491SOL     OW22108   4.628   3.714   5.765 -0.4316  0.2612 -0.5300
 3491SOL    HW122109   4.690   3.667   5.709 -0.9330 -1.8015  0.6248
 3491SOL    HW222110   4.618   3.792   5.712 -0.2856  0.8874  0.3626
 3492SOL     OW22111   3.390   1.968   6.059 -0.0977  0.0143 -0.4290
 3492SOL    HW122112   3.486   1.963   6.064 -0.0887  1.7895  1.5137
 3492SOL    HW222113   3.372   2.041   6.118 -1.8750 -0.9605  0.2196
 3493SOL     OW22114   0.137   4.714   9.917  0.2142 -0.2703 -0.2294
 3493SOL    HW122115   0.217   0.029   9.925  0.0879  0.0470 -1.0011
 3493SOL    HW222116   0.142   4.697   9.823 -1.2117 -0.4596 -0.2654
 3494SOL     OW22117   3.262   3.592   3.580  0.3380 -0.4345 -0.0878
 3494SOL    HW122118   3.286   3.640   3.500 -2.1481  0.8693 -0.0507
 3494SOL    HW222119   3.169   3.585   3.560 -0.0723  1.4795  1.2173
 3495SOL     OW22120   2.233   0.271  10.197 -0.2881  0.1304 -0.0260
 3495SOL    HW122121   2.264   0.347  10.148  1.5933 -0.1352  0.7770
 3495SOL    HW222122   2.310   0.243  10.245  2.0067  2.4647 -2.3665
 3496SOL     OW22123   3.029   2.635   9.480  0.0513  0.9614  0.2017
 3496SOL    HW122124   3.076   2.717   9.497 -0.2767  1.2275 -0.1746
 3496SOL    HW222125   3.094   2.570   9.455 -1.6061 -0.1988 -1.1316
 3497SOL     OW22126   2.579   1.210   5.052 -0.6709  0.3143  0.4740
 3497SOL    HW122127   2.645   1.275   5.078  3.1283 -4.7202  3.4146
 3497SOL    HW222128   2.603   1.131   5.099 -0.8632  0.0697  0.1592
 3498SOL     OW22129   2.055   1.619  16.009 -0.1780 -0.2286 -0.0237
 3498SOL    HW122130   2.022   1.706  16.032  1.3321  0.5704 -0.8531
 3498SOL    HW222131   1.971   1.573  16.019  0.5484 -0.9505  2.5896
 3499SOL     OW22132   2.001   0.531  10.424  0.2228 -0.0207 -0.1004
 3499SOL    HW122133   1.994   0.508  10.516  0.4727 -0.7863 -0.2717
 3499SOL    HW222134   2.067   0.601  10.415 -2.1300  2.2092 -0.0179
 3500SOL     OW22135   1.013   3.474  17.163 -0.2118 -0.0351 -0.5192
 3500SOL    HW122136   0.940   3.447  17.106 -0.9386  1.2966 -0.2042
 3500SOL    HW222137   0.993   3.568  17.159 -1.1340 -0.1893  0.7171
 3501SOL     OW22138   3.748   0.780   2.061  0.0263 -0.3347  0.1354
 3501SOL    HW122139   3.750   0.872   2.036  0.4061 -0.7351 -1.2966
 3501SOL    HW222140   3.766   0.739   1.977 -1.3248  0.3745 -0.4885
 3502SOL     OW22141   3.118   1.625   3.846  0.5629  0.2538  0.3967
 3502SOL    HW122142   3.175   1.594   3.775  0.1819 -1.2760  0.7719
 3502SOL    HW222143   3.102   1.541   3.887 -1.5141  0.8780  0.8240
 3503SOL     OW22144   1.322   1.613   9.203  0.1274  0.2779  0.0163
 3503SOL    HW122145   1.361   1.607   9.116 -0.5312  1.4997 -0.3681
 3503SOL    HW222146   1.365   1.533   9.232  0.4481  1.0515  1.7086
 3504SOL     OW22147   2.676   3.739   1.268  0.9189 -0.7641  0.0706
 3504SOL    HW122148   2.699   3.700   1.352  2.3386  0.7095  0.3749
 3504SOL    HW222149   2.630   3.661   1.237  0.5846 -1.2004  1.6514
 3505SOL     OW22150   2.287   3.517   8.865  0.2282 -0.0820 -0.2620
 3505SOL    HW122151   2.380   3.504   8.883  0.4853  0.8741 -0.8504
 3505SOL    HW222152   2.250   3.429   8.860 -1.8953  0.6893  1.7400
 3506SOL     OW22153   1.487   3.884   3.164  0.6718  0.3445  0.2763
 3506SOL    HW122154   1.532   3.898   3.081 -1.6282 -2.6967 -1.4743
 3506SOL    HW222155   1.482   3.979   3.170  1.8693  0.4539 -0.4533
 3507SOL     OW22156   0.134   2.870   7.852  0.1443  0.2156  0.5558
 3507SOL    HW122157   0.222   2.906   7.850  0.1622  0.1728  0.5739
 3507SOL    HW222158   0.145   2.789   7.902  1.8243  1.2180  1.8074
 3508SOL     OW22159   1.618   1.584   4.045 -0.0271 -0.4490  0.4983
 3508SOL    HW122160   1.609   1.676   4.020  0.7793 -0.1864  1.1894
 3508SOL    HW222161   1.525   1.562   4.039 -0.4105  1.3618 -0.3404
 3509SOL     OW22162   4.186   3.684  12.588 -0.0128 -0.1887 -0.5867
 3509SOL    HW122163   4.144   3.695  12.674 -0.8493 -0.3060 -0.9863
 3509SOL    HW222164   4.244   3.611  12.612  1.5626  1.6365  1.1583
 3510SOL     OW22165   0.441   1.027   4.152 -0.0920 -0.1220 -0.4686
 3510SOL    HW122166   0.381   1.017   4.226  1.6439 -1.8551  0.7163
 3510SOL    HW222167   0.483   0.941   4.148  0.4318  0.1733 -1.4210
 3511SOL     OW22168   3.271   1.415   5.121 -0.1760  0.2189 -0.0321
 3511SOL    HW122169   3.241   1.496   5.162  0.4487  0.9126 -0.9335
 3511SOL    HW222170   3.296   1.356   5.192 -0.5802  0.5364  0.3706
 3512SOL     OW22171   2.736   3.282  12.477 -0.2093  0.6280 -0.5506
 3512SOL    HW122172   2.761   3.363  12.431  0.5539 -0.0191 -1.2934
 3512SOL    HW222173   2.663   3.314  12.530 -0.4355 -1.4124  0.3480
 3513SOL     OW22174   3.937   2.635  13.989 -0.1936 -0.1763  0.2650
 3513SOL    HW122175   3.846   2.610  14.009  0.2754  0.1879  2.7993
 3513SOL    HW222176   3.931   2.624  13.894 -0.5349  0.1215  0.2542
 3514SOL     OW22177   4.502   0.903   4.457 -0.2509  0.5434 -0.6013
 3514SOL    HW122178   4.416   0.864   4.471  0.6832 -0.6295  1.8785
 3514SOL    HW222179   4.516   0.935   4.546 -1.7341 -1.3198  0.2928
 3515SOL     OW22180   0.529   1.204   7.194 -0.0906  0.0513 -0.0523
 3515SOL    HW122181   0.578   1.158   7.262 -1.0594 -0.8031  0.0561
 3515SOL    HW222182   0.568   1.291   7.206  0.8797 -0.7555  2.6314
 3516SOL     OW22183   4.291   4.244   0.784 -0.1062 -0.3301  0.5040
 3516SOL    HW122184   4.302   4.168   0.727 -1.2628  0.1987 -0.4436
 3516SOL    HW222185   4.200   4.237   0.815  0.0222  0.9902  1.1625
 3517SOL     OW22186   1.032   0.989   1.280  0.1092 -0.6306 -0.5618
 3517SOL    HW122187   0.963   1.040   1.324 -0.3390 -1.1826 -0.6267
 3517SOL    HW222188   1.103   1.051   1.263 -0.2621 -0.5141 -1.7051
 3518SOL     OW22189   0.922   1.207   1.981  0.4823 -0.2339 -0.2474
 3518SOL    HW122190   0.981   1.165   1.918 -2.1762 -0.4596 -2.5912
 3518SOL    HW222191   0.873   1.259   1.917 -0.4014  0.9372  1.3900
 3519SOL     OW22192   2.557   1.384  16.076  0.0101  0.1154 -0.3541
 3519SOL    HW122193   2.470   1.356  16.106  0.4614  1.1357  1.8989
 3519SOL    HW222194   2.579   1.307  16.024  1.9932  0.3327  0.1826
 3520SOL     OW22195   4.674   3.960   0.740 -0.8406 -0.0925  0.0059
 3520SOL    HW122196   4.737   3.901   0.700 -1.4629 -0.1833 -0.8372
 3520SOL    HW222197   4.592   3.933   0.699 -0.2215 -0.7779 -0.7736
 3521SOL     OW22198   2.395   1.116   4.266 -0.1967  0.3530  0.4597
 3521SOL    HW122199   2.442   1.091   4.345  2.8677 -0.1659 -1.5632
 3521SOL    HW222200   2.311   1.071   4.275  0.8656 -1.1415  2.6764
 3522SOL     OW22201   2.098   0.679   6.955  0.2091 -0.1964 -0.3791
 3522SOL    HW122202   2.040   0.676   7.031  0.8604 -3.5022 -0.0331
 3522SOL    HW222203   2.184   0.643   6.976 -0.0452  0.8979  2.5704
 3523SOL     OW22204   0.275   0.540   6.877  0.6229 -0.0160  0.2413
 3523SOL    HW122205   0.328   0.508   6.804  3.9373  0.5586  2.3788
 3523SOL    HW222206   0.328   0.610   6.916 -0.1628  0.1798  0.9565
 3524SOL     OW22207   0.801   1.161   5.997  1.0388  0.2755 -0.3795
 3524SOL    HW122208   0.877   1.164   6.055  2.7185 -2.0492 -2.4418
 3524SOL    HW222209   0.849   1.172   5.915  0.5556 -2.4668 -1.0556
 3525SOL     OW22210   4.215   3.253   8.957  0.5823  0.0089 -0.0852
 3525SOL    HW122211   4.258   3.281   8.876  0.1102  0.1125 -0.3023
 3525SOL    HW222212   4.280   3.286   9.019  1.2119 -1.2909 -0.0606
 3526SOL     OW22213   4.046   1.060   2.581 -0.0862 -0.0698 -0.4005
 3526SOL    HW122214   4.096   1.062   2.663 -0.6497  2.8311 -0.1019
 3526SOL    HW222215   4.047   1.150   2.548 -0.1659  0.8325  2.0526
 3527SOL     OW22216   2.117   0.656   6.648 -0.5834  0.0012 -0.2180
 3527SOL    HW122217   2.054   0.584   6.652  0.7141 -1.0869  0.7645
 3527SOL    HW222218   2.131   0.673   6.741  0.1203 -0.4205 -0.2395
 3528SOL     OW22219   4.628   3.182  10.390 -0.2045  0.3329 -0.0948
 3528SOL    HW122220   4.680   3.215  10.316  2.4593 -1.7095  0.8678
 3528SOL    HW222221   4.624   3.273  10.421 -0.7231  0.1583  0.3457
 3529SOL     OW22222   0.653   3.904   7.654 -0.5454 -0.3935 -0.0245
 3529SOL    HW122223   0.713   3.837   7.688  0.4506  0.3835 -0.2754
 3529SOL    HW222224   0.720   3.969   7.637  0.5408 -0.9469  2.0999
 3530SOL     OW22225   2.045   4.625   6.100 -0.1684  0.1347  0.0442
 3530SOL    HW122226   1.977   4.556   6.103  1.2635 -1.2485  0.7127
 3530SOL    HW222227   2.103   4.591   6.033  1.3383 -0.2679  1.5565
 3531SOL     OW22228   2.543   1.936   5.803 -0.0744  0.1156 -0.2264
 3531SOL    HW122229   2.463   1.883   5.793  0.2599 -0.7698  1.6670
 3531SOL    HW222230   2.605   1.902   5.739 -0.0921  2.3586 -1.4050
 3532SOL     OW22231   1.805   0.371   9.751  0.3839 -0.1972 -0.0705
 3532SOL    HW122232   1.821   0.385   9.845 -1.0426 -4.6185  0.8752
 3532SOL    HW222233   1.722   0.324   9.761  0.6348 -0.4129  1.0492
 3533SOL     OW22234   4.080   0.017   6.679 -0.1202  0.0804  0.3260
 3533SOL    HW122235   4.175   0.016   6.676 -0.1177  2.5951 -0.2489
 3533SOL    HW222236   4.071   4.662   6.705 -0.5333  0.0506  0.0821
 3534SOL     OW22237   0.130   4.308  17.355  0.2322 -0.3091  0.2357
 3534SOL    HW122238   0.109   4.357  17.276 -1.9467 -1.0213  0.3782
 3534SOL    HW222239   0.044   4.307  17.397 -1.3853  0.3493 -3.0718
 3535SOL     OW22240   0.843   0.944  11.529 -0.2055  0.2759 -0.0611
 3535SOL    HW122241   0.802   1.029  11.545 -1.1459 -0.1303 -0.3170
 3535SOL    HW222242   0.778   0.876  11.546 -2.6366  2.2556 -1.2744
 3536SOL     OW22243   1.834   2.064   3.916  0.6645 -0.4255  0.3782
 3536SOL    HW122244   1.762   2.097   3.969  2.0773  0.5601  1.7086
 3536SOL    HW222245   1.914   2.103   3.952  0.8917 -0.5795  0.0458
 3537SOL     OW22246   2.951   3.208   6.730 -0.4087 -0.1027  0.2548
 3537SOL    HW122247   2.942   3.270   6.802  2.0312 -0.0589  0.5074
 3537SOL    HW222248   2.929   3.123   6.767  0.8475  1.0023  3.4560
 3538SOL     OW22249   0.630   2.145   5.168  0.1874 -0.2423  1.0713
 3538SOL    HW122250   0.675   2.216   5.122  1.0673  0.2914  2.7563
 3538SOL    HW222251   0.603   2.094   5.091  2.9728 -1.2383  0.7584
 3539SOL     OW22252   3.284   4.018   3.727  0.0656 -0.0779 -0.0354
 3539SOL    HW122253   3.291   4.011   3.632 -2.0686  1.4569 -0.2917
 3539SOL    HW222254   3.348   4.088   3.740 -0.1436  0.1447 -0.2097
 3540SOL     OW22255   1.805   0.043  12.660  0.1835 -0.0417 -0.8928
 3540SOL    HW122256   1.795   4.690  12.689  0.1212  0.5215  0.8424
 3540SOL    HW222257   1.833   0.032  12.569 -0.7083  1.6526 -1.3603
 3541SOL     OW22258   0.981   2.333   6.793  0.0211  0.2321  0.4457
 3541SOL    HW122259   0.997   2.399   6.860  1.4007  0.0550  0.3025
 3541SOL    HW222260   1.066   2.329   6.749 -0.6936  1.2481 -1.0666
 3542SOL     OW22261   4.534   2.050   5.834  0.4508  0.2898 -0.0855
 3542SOL    HW122262   4.605   2.034   5.772  0.2346 -0.3991 -0.1612
 3542SOL    HW222263   4.460   2.012   5.785  1.7687 -2.5567  0.1016
 3543SOL     OW22264   0.741   3.072   7.431  0.2399 -0.0853  0.2746
 3543SOL    HW122265   0.833   3.050   7.449  0.3700  0.0750 -0.2056
 3543SOL    HW222266   0.737   3.043   7.341  0.3825 -4.3540  1.6748
 3544SOL     OW22267   3.087   2.028   5.551  0.1612  0.5316  0.0318
 3544SOL    HW122268   3.077   1.936   5.574  1.4642 -0.1803 -2.2681
 3544SOL    HW222269   3.140   2.066   5.622  0.8388  0.2783 -0.3385
 3545SOL     OW22270   4.178   3.068   2.489 -0.4139 -0.2917 -0.1609
 3545SOL    HW122271   4.247   3.003   2.483 -1.1511 -1.2634  1.7872
 3545SOL    HW222272   4.213   3.126   2.557  0.2633 -1.6371  0.6481
 3546SOL     OW22273   3.181   3.659  11.765 -0.0860 -0.5944  0.2374
 3546SOL    HW122274   3.129   3.605  11.705 -2.1136  3.1940 -1.4471
 3546SOL    HW222275   3.200   3.589  11.827  0.8613  0.5984  1.3086
 3547SOL     OW22276   1.197   1.561   8.516 -0.1281  0.0353  0.8916
 3547SOL    HW122277   1.203   1.489   8.579  1.0804  0.7156  1.5669
 3547SOL    HW222278   1.110   1.544   8.479  0.7256 -0.3247 -0.9314
 3548SOL     OW22279   2.739   3.343  14.679  0.6167 -0.0796 -0.2266
 3548SOL    HW122280   2.667   3.405  14.683  2.7323  2.3144  0.3202
 3548SOL    HW222281   2.717   3.298  14.597 -1.6244  3.5233 -1.5795
 3549SOL     OW22282   2.407   1.110  11.553 -0.1849  0.5180 -0.0441
 3549SOL    HW122283   2.465   1.037  11.531  1.0397  1.9853 -1.7407
 3549SOL    HW222284   2.367   1.134  11.469 -1.4052  0.0818  0.4118
 3550SOL     OW22285   4.013   3.005   7.518  0.1829  0.0837 -0.0447
 3550SOL    HW122286   4.035   2.919   7.555  0.1164 -0.5597 -1.5053
 3550SOL    HW222287   3.958   3.036   7.590 -1.5438 -1.2092 -0.8024
 3551SOL     OW22288   2.390   2.714  14.182  0.0005  0.2316  0.1756
 3551SOL    HW122289   2.480   2.709  14.216 -0.2401 -0.1970  0.7512
 3551SOL    HW222290   2.394   2.689  14.090 -0.9206 -0.8157  0.4179
 3552SOL     OW22291   0.008   1.960   7.766 -0.0836  0.3730 -0.1640
 3552SOL    HW122292   4.726   2.028   7.830 -0.4123 -1.0907  1.2687
 3552SOL    HW222293   4.732   2.011   7.686  1.8064 -1.4829 -1.6787
 3553SOL     OW22294   4.232   2.186   2.298 -0.1926  0.1953 -0.0703
 3553SOL    HW122295   4.238   2.109   2.354 -1.5248  0.4788  0.4505
 3553SOL    HW222296   4.221   2.258   2.360 -2.5018  0.8759 -1.2803
 3554SOL     OW22297   1.300   1.827  11.095  0.2615  0.1015 -0.3452
 3554SOL    HW122298   1.300   1.914  11.136 -0.0324  0.1789 -0.5132
 3554SOL    HW222299   1.262   1.778  11.168  1.5225 -0.4689 -0.0633
 3555SOL     OW22300   2.788   2.438  15.897  0.6294  0.2142 -0.4931
 3555SOL    HW122301   2.784   2.457  15.991  1.5818 -0.4830 -0.3168
 3555SOL    HW222302   2.820   2.348  15.898 -0.9509 -0.3308  1.3311
 3556SOL     OW22303   4.641   2.847   3.352 -0.6656 -0.7472  0.4810
 3556SOL    HW122304   4.659   2.755   3.375  1.0347 -0.8907 -1.3953
 3556SOL    HW222305   4.546   2.851   3.344 -0.6292  0.3970  0.6299
 3557SOL     OW22306   2.955   1.880   3.714  0.2963 -0.3507 -0.0164
 3557SOL    HW122307   2.961   1.816   3.644  0.8968  0.8434 -1.0640
 3557SOL    HW222308   2.991   1.828   3.786  0.0794  0.0902  0.4123
 3558SOL     OW22309   4.638   1.157   4.858  0.0842  0.0189  0.1478
 3558SOL    HW122310   4.557   1.208   4.849 -1.1950 -2.6904 -4.0678
 3558SOL    HW222311   4.706   1.224   4.863  1.3201 -1.0532 -1.9404
 3559SOL     OW22312   3.641   4.384   8.852  0.2934 -0.2638  0.0971
 3559SOL    HW122313   3.547   4.388   8.869  0.2930  0.4544 -0.0616
 3559SOL    HW222314   3.648   4.307   8.796  2.1585  0.2100 -0.3373
 3560SOL     OW22315   4.280   2.771   5.941 -0.4566 -0.3501 -0.0791
 3560SOL    HW122316   4.234   2.789   6.023 -1.9137 -0.2838 -0.9107
 3560SOL    HW222317   4.229   2.702   5.900 -2.4212  1.0138  0.0657
 3561SOL     OW22318   2.648   3.941   4.971 -0.3744  0.4131  0.0294
 3561SOL    HW122319   2.720   3.965   5.029 -0.2294  0.0379  0.0034
 3561SOL    HW222320   2.702   3.892   4.910 -0.9343  0.6048 -0.6238
 3562SOL     OW22321   1.942   3.111  11.290 -0.2026  0.1406  0.2662
 3562SOL    HW122322   1.952   3.017  11.304 -0.6228 -0.0112 -0.4474
 3562SOL    HW222323   2.035   3.127  11.278 -0.2862  2.0335  2.2148
 3563SOL     OW22324   3.825   2.976   6.409 -0.4219 -0.4575  0.0368
 3563SOL    HW122325   3.751   2.916   6.424 -1.3514  0.8507  0.7087
 3563SOL    HW222326   3.876   2.980   6.490  1.0096 -0.4025 -0.8871
 3564SOL     OW22327   3.977   2.532  13.303  0.2532  0.1588 -0.5964
 3564SOL    HW122328   4.056   2.540  13.250  2.0126  0.7430  2.1204
 3564SOL    HW222329   3.982   2.610  13.358 -0.8346 -0.8947  1.0238
 3565SOL     OW22330   2.535   3.330  16.621  0.3565 -0.0546 -0.1641
 3565SOL    HW122331   2.538   3.347  16.715  1.0677 -0.2967 -0.1364
 3565SOL    HW222332   2.612   3.382  16.595  0.5703  0.3481  1.3134
 3566SOL     OW22333   1.461   2.340   1.190 -0.2553  0.2453  0.0547
 3566SOL    HW122334   1.508   2.417   1.221  0.7210  0.1625 -1.2095
 3566SOL    HW222335   1.483   2.277   1.259 -0.5040  0.4257  0.2958
 3567SOL     OW22336   2.807   3.794   4.769 -0.2211 -0.4044 -0.0938
 3567SOL    HW122337   2.784   3.702   4.784  0.8740 -0.8536 -1.1876
 3567SOL    HW222338   2.845   3.781   4.682  0.1469  2.1356 -0.3101
 3568SOL     OW22339   3.803   3.288  14.938  0.4574  0.7653 -0.0291
 3568SOL    HW122340   3.761   3.328  15.014  2.4625  1.3300  0.7825
 3568SOL    HW222341   3.825   3.203  14.976  0.9642  0.1889 -1.6176
 3569SOL     OW22342   0.414   2.779   5.905  0.2413 -0.0622 -0.4130
 3569SOL    HW122343   0.397   2.874   5.908  2.3360  0.2761  1.0235
 3569SOL    HW222344   0.413   2.746   5.995  1.5796 -0.1727 -0.4320
 3570SOL     OW22345   1.915   4.657  13.717 -0.0713 -0.6394  0.0232
 3570SOL    HW122346   1.880   0.005  13.692 -0.3808 -0.5726  0.6977
 3570SOL    HW222347   2.002   4.667  13.756  1.7829 -0.9173 -3.9826
 3571SOL     OW22348   4.423   3.438   7.555  0.4597  0.0586 -0.0426
 3571SOL    HW122349   4.409   3.343   7.553  0.8776 -0.0319  1.1962
 3571SOL    HW222350   4.340   3.468   7.592  0.3548  1.5102 -1.4765
 3572SOL     OW22351   3.658   2.369  14.653 -0.5089 -0.4201 -0.0717
 3572SOL    HW122352   3.737   2.323  14.681  1.4518  1.0692 -3.3177
 3572SOL    HW222353   3.680   2.458  14.680 -2.8058 -0.2147  1.1298
 3573SOL     OW22354   3.793   1.526   4.873  0.1159 -0.1764  0.5520
 3573SOL    HW122355   3.734   1.503   4.945 -0.4175  1.9606  0.7847
 3573SOL    HW222356   3.782   1.445   4.824  0.0493 -0.2532  0.6925
 3574SOL     OW22357   1.975   4.254   2.096 -0.2743  0.4691  0.3320
 3574SOL    HW122358   2.069   4.262   2.108  0.2537 -2.1655 -2.0074
 3574SOL    HW222359   1.955   4.310   2.021  0.0118  1.1703  0.7824
 3575SOL     OW22360   4.691   0.101   3.718  0.7948  0.2490  0.3215
 3575SOL    HW122361   4.662   0.060   3.636  0.9499  1.3940 -0.3023
 3575SOL    HW222362   0.044   0.072   3.717  0.8288  0.3712 -0.5397
 3576SOL     OW22363   2.179   3.383   4.935 -0.0747 -0.1207 -0.0630
 3576SOL    HW122364   2.170   3.328   5.013  2.2210 -2.0130 -1.1196
 3576SOL    HW222365   2.109   3.448   4.942  0.4080  0.4546 -0.6599
 3577SOL     OW22366   1.871   1.785   8.711  0.0375  0.1279 -0.1317
 3577SOL    HW122367   1.790   1.835   8.711  0.2226  0.4289 -0.9968
 3577SOL    HW222368   1.847   1.697   8.683 -0.1916  0.0810  0.2091
 3578SOL     OW22369   4.235   4.310   2.474 -0.1461  0.0904 -0.2361
 3578SOL    HW122370   4.310   4.255   2.450 -1.7827 -2.4654  0.5071
 3578SOL    HW222371   4.285   4.387   2.502  2.2546  0.0792 -4.4298
 3579SOL     OW22372   0.237   2.408   4.372  0.0397 -0.1272  0.1881
 3579SOL    HW122373   0.182   2.460   4.431 -0.6179  1.0475 -1.4550
 3579SOL    HW222374   0.235   2.462   4.293 -3.1996  1.3622  1.2997
 3580SOL     OW22375   1.008   0.684   2.160  0.6518 -0.1655  0.5909
 3580SOL    HW122376   0.912   0.690   2.154  0.4294 -1.3032  2.6896
 3580SOL    HW222377   1.020   0.667   2.254  0.8940 -2.6175  0.1235
 3581SOL     OW22378   3.880   2.666   3.813  0.3443 -0.2140 -0.1249
 3581SOL    HW122379   3.855   2.575   3.828 -1.4921  0.0499 -1.6749
 3581SOL    HW222380   3.945   2.674   3.884  0.7889 -2.7873 -0.2336
 3582SOL     OW22381   2.196   2.604   6.608  0.2078  0.2367  0.4955
 3582SOL    HW122382   2.140   2.572   6.678 -0.4621  1.6274  0.6039
 3582SOL    HW222383   2.210   2.519   6.567  1.2533  1.5187 -1.8325
 3583SOL     OW22384   3.301   4.117   4.406  0.0372 -0.2324 -0.0545
 3583SOL    HW122385   3.380   4.090   4.359  0.2575  1.5031 -0.6939
 3583SOL    HW222386   3.319   4.206   4.436  3.8095 -0.6969 -0.8997
 3584SOL     OW22387   4.229   3.519   3.877 -0.0677  0.5341  0.0666
 3584SOL    HW122388   4.289   3.593   3.864  0.3601  0.7052  3.1107
 3584SOL    HW222389   4.200   3.508   3.786  0.1737 -0.0013  0.0553
 3585SOL     OW22390   0.525   2.767   5.657 -0.1976 -0.1572  0.1251
 3585SOL    HW122391   0.503   2.782   5.749  1.4612  4.0441 -0.1774
 3585SOL    HW222392   0.533   2.671   5.658 -1.6995 -0.2695  0.4951
 3586SOL     OW22393   0.429   0.015  10.723 -0.3088  0.4928  0.4240
 3586SOL    HW122394   0.518   4.733  10.751 -0.4678 -0.2154  0.4538
 3586SOL    HW222395   0.446   0.040  10.632  3.8604 -0.4415  0.9521
 3587SOL     OW22396   1.719   1.184   8.880  0.4731 -0.1447  0.3170
 3587SOL    HW122397   1.795   1.131   8.903  0.1814 -0.4225  0.6344
 3587SOL    HW222398   1.669   1.116   8.835 -0.6385 -0.2136  1.6516
 3588SOL     OW22399   1.290   0.061   3.323  0.2776  0.4028  0.2532
 3588SOL    HW122400   1.232   4.726   3.343  1.6926 -1.6873 -3.2777
 3588SOL    HW222401   1.367   0.006   3.310 -0.4632  0.6204 -4.8261
 3589SOL     OW22402   0.687   4.196  11.279 -0.1186 -0.0158 -0.3390
 3589SOL    HW122403   0.702   4.123  11.219 -0.1273 -2.7629  3.0094
 3589SOL    HW222404   0.612   4.242  11.241 -2.5340 -2.5175  1.3416
 3590SOL     OW22405   2.444   3.301   3.427  0.4083  0.3985 -0.3232
 3590SOL    HW122406   2.375   3.236   3.417  1.1712 -0.8085  2.2713
 3590SOL    HW222407   2.492   3.264   3.501  0.5039  0.0795 -0.5454
 3591SOL     OW22408   1.152   1.781  10.776 -0.0896  0.5641 -0.4373
 3591SOL    HW122409   1.202   1.816  10.849 -1.9103  1.3855  0.3917
 3591SOL    HW222410   1.175   1.688  10.783  0.5445  0.7181 -0.5249
 3592SOL     OW22411   0.826   2.821  10.496 -0.1441 -0.2026  0.5185
 3592SOL    HW122412   0.848   2.896  10.552 -1.2128 -0.5566  1.4253
 3592SOL    HW222413   0.893   2.757  10.521  0.6271  0.5289  0.3335
 3593SOL     OW22414   0.310   1.271  11.284  0.1259 -0.4336 -0.4597
 3593SOL    HW122415   0.317   1.264  11.189  3.0801 -0.1133 -0.2578
 3593SOL    HW222416   0.401   1.262  11.311 -0.5548  0.9715  2.2905
 3594SOL     OW22417   1.294   3.986   8.330 -0.0277  0.1000  0.0738
 3594SOL    HW122418   1.261   4.052   8.391  0.9523  1.2282 -0.6233
 3594SOL    HW222419   1.234   4.013   8.259 -0.6926 -0.2161  0.5130
 3595SOL     OW22420   4.732   1.074   6.013  0.5847  0.0446  0.5136
 3595SOL    HW122421   0.063   1.107   5.956 -0.2359  1.4791  0.3443
 3595SOL    HW222422   4.648   1.077   5.967 -0.3509 -3.4248  2.0099
 3596SOL     OW22423   2.002   2.833   3.125  0.2909 -0.4422 -0.3216
 3596SOL    HW122424   2.093   2.864   3.121  0.5512 -1.0105  1.1756
 3596SOL    HW222425   2.005   2.746   3.164 -0.5160  0.1775  1.1196
 3597SOL     OW22426   3.962   3.941   3.898  0.1799  0.8325 -0.1986
 3597SOL    HW122427   4.022   3.884   3.947  0.3035  1.4629  0.3884
 3597SOL    HW222428   3.915   3.890   3.832  1.6938  1.0935 -1.4842
 3598SOL     OW22429   2.674   1.434  10.095  0.4015  0.1033  0.6319
 3598SOL    HW122430   2.657   1.349  10.137 -1.7990  0.2263  0.0070
 3598SOL    HW222431   2.728   1.410  10.019  0.6764 -0.3290  0.9628
 3599SOL     OW22432   4.246   3.497   5.148 -0.1031  0.0930  0.0147
 3599SOL    HW122433   4.296   3.567   5.189  1.3644 -1.1204  0.2638
 3599SOL    HW222434   4.276   3.427   5.206  0.5270 -1.2092 -1.8895
 3600SOL     OW22435   0.310   1.699   8.318  0.0663  0.3927 -0.7406
 3600SOL    HW122436   0.373   1.652   8.264  2.5958  0.9242  1.6999
 3600SOL    HW222437   0.256   1.743   8.253  1.1345  3.3851  0.3755
 3601SOL     OW22438   0.492   1.797   1.636  0.0947  0.4280  0.0838
 3601SOL    HW122439   0.474   1.850   1.713  0.4458  0.1046  0.3876
 3601SOL    HW222440   0.554   1.736   1.675  0.2245  0.0411 -0.7208
 3602SOL     OW22441   2.913   2.263   9.482  0.2117  0.0608  0.2714
 3602SOL    HW122442   2.909   2.304   9.569  0.4396 -1.0411  0.8047
 3602SOL    HW222443   2.911   2.170   9.505 -1.4009 -0.4522 -2.0768
 3603SOL     OW22444   2.189   1.348   8.836  0.3540 -0.1532 -0.2426
 3603SOL    HW122445   2.255   1.381   8.776  1.7085 -2.2422  0.0935
 3603SOL    HW222446   2.226   1.386   8.916  0.2221 -0.6877  0.0702
 3604SOL     OW22447   1.744   1.447   4.398 -0.0854 -0.1028  0.0463
 3604SOL    HW122448   1.763   1.513   4.331  0.0053  0.6050  0.7685
 3604SOL    HW222449   1.649   1.451   4.390 -0.0337  0.8454 -0.0989
 3605SOL     OW22450   4.388   0.338   5.669  0.2294  0.2784 -0.5514
 3605SOL    HW122451   4.389   0.431   5.648 -0.8476  0.8530  1.9833
 3605SOL    HW222452   4.470   0.324   5.621  0.2064  3.3393 -1.4614
 3606SOL     OW22453   0.906   0.068  10.712 -0.3169 -0.5387 -0.4437
 3606SOL    HW122454   0.845   4.734  10.733 -2.8449  2.3754  2.1178
 3606SOL    HW222455   0.983   0.027  10.751  0.4665  0.1040 -1.3223
 3607SOL     OW22456   3.833   0.535  16.710 -0.3963  0.2804  0.3775
 3607SOL    HW122457   3.738   0.548  16.720 -0.6322 -0.1245 -1.4569
 3607SOL    HW222458   3.855   0.479  16.784 -0.6708  0.4833  0.6157
 3608SOL     OW22459   1.432   2.980   5.673 -0.0280  0.4222  0.1110
 3608SOL    HW122460   1.525   2.996   5.690  0.7801 -2.9145 -1.2465
 3608SOL    HW222461   1.416   2.887   5.687  3.4713  0.0453  1.6761
 3609SOL     OW22462   3.221   0.535   1.624  0.2412 -0.1464 -0.3259
 3609SOL    HW122463   3.187   0.593   1.693  2.7213  2.3062 -1.1811
 3609SOL    HW222464   3.142   0.520   1.571 -1.1679 -0.9764  1.9873
 3610SOL     OW22465   4.332   0.435   9.696 -0.1081 -0.6661 -0.5378
 3610SOL    HW122466   4.326   0.416   9.790  0.9819 -0.0514 -0.3460
 3610SOL    HW222467   4.333   0.345   9.663  0.0311 -1.3174  1.2401
 3611SOL     OW22468   3.171   3.491   9.773 -0.1089 -0.1112  0.9731
 3611SOL    HW122469   3.192   3.451   9.858  0.2615 -1.9032  0.0243
 3611SOL    HW222470   3.256   3.528   9.752  0.8618 -2.2133  1.2413
 3612SOL     OW22471   0.057   3.775   4.247  0.3895  0.1762 -0.0703
 3612SOL    HW122472   0.035   3.858   4.289  0.7735  0.3816 -0.2753
 3612SOL    HW222473   4.711   3.736   4.220  0.8488  0.1819 -1.5109
 3613SOL     OW22474   1.008   2.210  13.941  0.7997  0.6992 -0.7021
 3613SOL    HW122475   0.929   2.264  13.941 -0.7544 -1.5773 -0.9856
 3613SOL    HW222476   1.010   2.187  13.848  1.7964  0.3676 -0.5969
 3614SOL     OW22477   4.023   2.876  12.408  0.0758  0.2349 -0.3716
 3614SOL    HW122478   3.989   2.787  12.411 -1.1152  0.6799 -0.6338
 3614SOL    HW222479   4.075   2.881  12.488 -2.3711  0.3665  1.2397
 3615SOL     OW22480   4.418   4.506   2.524 -0.9332  0.3001 -0.1487
 3615SOL    HW122481   4.456   4.493   2.611  2.7615  0.1269 -1.7777
 3615SOL    HW222482   4.365   4.585   2.527  0.9674  1.5517  0.8009
 3616SOL     OW22483   2.924   1.299   7.098  0.2355  0.7776 -0.2552
 3616SOL    HW122484   3.012   1.277   7.128  0.6480 -0.1612 -2.1500
 3616SOL    HW222485   2.865   1.258   7.161  0.9023 -0.0061 -0.1336
 3617SOL     OW22486   1.071   2.574   3.497 -0.0301  0.1594 -0.8535
 3617SOL    HW122487   1.061   2.536   3.585  0.0343  0.5147 -0.6907
 3617SOL    HW222488   1.013   2.649   3.511  0.6842  0.9465 -2.2314
 3618SOL     OW22489   2.428   4.417  10.793 -0.3141  0.1052 -0.5963
 3618SOL    HW122490   2.453   4.474  10.721 -1.4404 -0.6916 -1.6329
 3618SOL    HW222491   2.448   4.330  10.760 -0.2017  0.0840 -0.4717
 3619SOL     OW22492   0.688   2.140   7.647  0.1744 -0.0076  0.2383
 3619SOL    HW122493   0.599   2.123   7.616 -0.0794 -0.8957  1.4861
 3619SOL    HW222494   0.708   2.212   7.587 -0.1623 -1.3783 -1.5098
 3620SOL     OW22495   0.486   3.244   8.273 -0.1258  0.0869 -0.4723
 3620SOL    HW122496   0.511   3.336   8.263  2.7135 -0.4810  1.6045
 3620SOL    HW222497   0.496   3.235   8.367 -1.2382 -2.9113 -0.6287
 3621SOL     OW22498   2.404   0.525   1.896 -0.6611  1.1292 -0.6533
 3621SOL    HW122499   2.440   0.531   1.808  3.8525 -0.5635  1.1184
 3621SOL    HW222500   2.337   0.459   1.876  0.4053  0.1186 -0.8947
 3622SOL     OW22501   4.282   4.696   0.972 -0.0606  0.0726 -0.0538
 3622SOL    HW122502   4.328   0.030   1.016 -0.3941 -1.2139  2.3984
 3622SOL    HW222503   4.279   4.622   1.033 -2.1972 -0.0844 -0.3391
 3623SOL     OW22504   3.811   3.327   3.482 -0.4257 -0.1596  0.3810
 3623SOL    HW122505   3.804   3.234   3.505  1.0914 -0.2480  0.4428
 3623SOL    HW222506   3.805   3.316   3.387 -0.9772 -3.7644  0.8417
 3624SOL     OW22507   0.808   0.331  10.639  0.2116  0.0755 -0.2662
 3624SOL    HW122508   0.826   0.333  10.733 -1.1903  0.1397  0.0096
 3624SOL    HW222509   0.817   0.237  10.622 -1.3436  0.3100 -2.4527
 3625SOL     OW22510   1.444   0.903   5.919 -0.1280  0.5297  0.5527
 3625SOL    HW122511   1.471   0.813   5.939  0.9068  0.6379 -0.4016
 3625SOL    HW222512   1.499   0.918   5.842  0.9951  1.3280  1.4986
 3626SOL     OW22513   4.426   3.029   8.388 -0.6128  0.8876 -0.1134
 3626SOL    HW122514   4.388   3.058   8.305 -0.7067  0.9278 -0.0557
 3626SOL    HW222515   4.516   3.060   8.400 -0.5301 -0.5845  3.0761
 3627SOL     OW22516   0.590   3.965   4.434 -0.3158 -0.4123 -0.3206
 3627SOL    HW122517   0.521   3.991   4.374  1.2102  0.8877 -1.4976
 3627SOL    HW222518   0.623   3.883   4.396 -3.0036 -2.4024  1.6753
 3628SOL     OW22519   4.503   0.566  17.434  0.2668  0.2569  0.2602
 3628SOL    HW122520   4.548   0.651  17.428 -0.3213  0.6325  1.2311
 3628SOL    HW222521   4.552   0.516  17.499  2.1768  1.5606 -0.1717
 3629SOL     OW22522   0.035   3.443  12.591 -0.6371  0.3701 -0.0006
 3629SOL    HW122523   0.113   3.447  12.535 -2.6462 -2.3052 -2.9466
 3629SOL    HW222524   4.716   3.505  12.544  1.5886  2.3963 -0.0312
 3630SOL     OW22525   3.906   1.247   2.162  0.4171 -0.1296 -0.6120
 3630SOL    HW122526   3.842   1.256   2.233  1.7387 -1.8874  0.7862
 3630SOL    HW222527   3.859   1.196   2.097 -1.4861 -0.5126  1.0622
 3631SOL     OW22528   1.367   4.454  17.394  0.2961 -0.0766 -0.8395
 3631SOL    HW122529   1.407   4.382  17.344 -1.8197 -1.6590 -0.2710
 3631SOL    HW222530   1.438   4.477  17.453 -1.2414  0.1641  0.9075
 3632SOL     OW22531   0.527   3.901   7.028  0.2336  0.6849 -0.2194
 3632SOL    HW122532   0.572   3.871   6.949  0.7067 -1.8974  1.0192
 3632SOL    HW222533   0.460   3.832   7.030  0.0020  0.9037 -0.4830
 3633SOL     OW22534   0.244   3.820  10.492 -0.5142  0.2847 -0.6319
 3633SOL    HW122535   0.162   3.821  10.442 -0.6927  1.6380 -0.3098
 3633SOL    HW222536   0.293   3.752  10.447 -1.1902 -0.8433  0.3099
 3634SOL     OW22537   0.263   4.682   8.639  0.3062 -0.3222 -0.1350
 3634SOL    HW122538   0.279   4.594   8.674  3.0989  0.3771  0.2952
 3634SOL    HW222539   0.342   4.731   8.663 -0.0968  1.2586 -1.9949
 3635SOL     OW22540   3.394   2.726  14.981 -0.0751  0.0929  0.1171
 3635SOL    HW122541   3.437   2.736  15.066  1.4115 -1.3623 -0.4508
 3635SOL    HW222542   3.307   2.766  14.989  0.5861  0.9621  2.8967
 3636SOL     OW22543   0.777   3.959   8.100  0.4695 -0.2692  0.0343
 3636SOL    HW122544   0.795   3.866   8.114 -2.6562 -0.5981  2.1139
 3636SOL    HW222545   0.718   3.985   8.171  3.1649 -0.0686  2.1985
 3637SOL     OW22546   3.359   4.137   1.718  0.0045  0.4779 -0.0094
 3637SOL    HW122547   3.302   4.111   1.790 -0.7485 -1.9867 -1.5047
 3637SOL    HW222548   3.381   4.053   1.678 -1.6799  0.2659 -0.4856
 3638SOL     OW22549   3.740   3.276  13.545 -0.2952  0.3098 -0.0338
 3638SOL    HW122550   3.735   3.354  13.601 -0.7688  0.0821  0.2399
 3638SOL    HW222551   3.813   3.298  13.487 -0.3775  0.1485 -0.1990
 3639SOL     OW22552   0.340   3.994   5.474  0.3445 -0.8530 -0.2720
 3639SOL    HW122553   0.260   4.046   5.467  1.1585  0.3067 -0.9722
 3639SOL    HW222554   0.394   4.049   5.530  2.3267 -0.7914 -2.2530
 3640SOL     OW22555   0.869   0.299   9.048  0.2298  0.2457  0.4016
 3640SOL    HW122556   0.955   0.283   9.086  0.7897 -0.5919 -1.2173
 3640SOL    HW222557   0.825   0.366   9.101  0.6176  0.8661 -0.0510
 3641SOL     OW22558   2.080   0.601   1.775  0.2754  0.1255  0.2085
 3641SOL    HW122559   2.078   0.689   1.811 -3.5678 -0.6258  1.7457
 3641SOL    HW222560   2.146   0.609   1.706  0.3824 -0.0451  0.2913
 3642SOL     OW22561   0.574   3.190   8.526  0.6580 -0.5776  0.1493
 3642SOL    HW122562   0.628   3.222   8.598 -0.4114 -0.9352  1.1094
 3642SOL    HW222563   0.569   3.096   8.545 -0.3512 -0.1932  1.8308
 3643SOL     OW22564   0.952   4.415  11.723 -0.2165 -0.3642  0.4007
 3643SOL    HW122565   0.907   4.360  11.659  0.3022 -1.3565  0.8831
 3643SOL    HW222566   0.958   4.496  11.673  2.6019 -1.3885 -0.9410
 3644SOL     OW22567   3.607   0.080  11.482  0.5201 -0.1881  0.4031
 3644SOL    HW122568   3.549   0.119  11.416  1.2935  0.5430  0.1546
 3644SOL    HW222569   3.595   0.149  11.547 -1.1492  0.3763 -0.5005
 3645SOL     OW22570   1.985   1.317   6.798 -0.1919 -0.9569  0.2358
 3645SOL    HW122571   2.017   1.262   6.870 -1.4568 -0.7568  0.9603
 3645SOL    HW222572   2.050   1.381   6.826 -0.9201 -0.8785  1.7664
 3646SOL     OW22573   0.145   0.749  12.192 -0.2884 -0.5781 -0.6791
 3646SOL    HW122574   0.224   0.763  12.243  0.0630  0.8758 -1.6261
 3646SOL    HW222575   0.190   0.768  12.110  0.5419  0.2687 -0.0274
 3647SOL     OW22576   0.336   0.130  10.010  0.1702 -0.5258 -0.0832
 3647SOL    HW122577   0.353   0.223  10.026  0.1688 -0.8497  1.8269
 3647SOL    HW222578   0.397   0.094  10.074 -0.1361  1.3071  1.2587
 3648SOL     OW22579   1.114   3.113   4.067  0.2470  0.6457 -0.1421
 3648SOL    HW122580   1.159   3.037   4.028 -1.7433 -0.1536 -0.8949
 3648SOL    HW222581   1.038   3.061   4.091  0.4156 -0.3934 -1.8106
 3649SOL     OW22582   2.030   4.217  17.337 -0.2632 -0.2666  0.1762
 3649SOL    HW122583   2.073   4.168  17.266 -0.8569 -0.6716  0.0997
 3649SOL    HW222584   2.104   4.211  17.398  0.1541 -1.7744 -0.4791
 3650SOL     OW22585   0.973   3.658  13.761 -0.1302 -0.3274  0.3622
 3650SOL    HW122586   1.046   3.601  13.782 -0.5762 -1.3773 -0.9299
 3650SOL    HW222587   1.012   3.745  13.752  1.9247 -1.4065 -0.9392
 3651SOL     OW22588   1.934   1.260   3.154 -0.0769  0.1271  0.1922
 3651SOL    HW122589   1.948   1.355   3.155  1.2539 -0.0889  2.0595
 3651SOL    HW222590   2.019   1.217   3.142 -0.6181 -1.6966  2.9663
 3652SOL     OW22591   0.175   0.774   6.446 -0.3400 -0.4655 -0.4165
 3652SOL    HW122592   0.106   0.708   6.439  2.4012 -3.1202 -2.3848
 3652SOL    HW222593   0.141   0.844   6.390 -0.4765  0.4598  0.8248
 3653SOL     OW22594   1.297   0.040  11.123  0.1572  0.2022  0.1143
 3653SOL    HW122595   1.298   0.021  11.217 -0.3741  0.1873  0.1173
 3653SOL    HW222596   1.292   4.697  11.072 -1.1890 -0.5174  1.3826
 3654SOL     OW22597   1.530   3.276  11.945 -0.2623 -0.4960  0.3252
 3654SOL    HW122598   1.446   3.233  11.962 -0.3073 -0.9208 -0.9632
 3654SOL    HW222599   1.525   3.309  11.856 -1.3081 -1.3022  0.0793
 3655SOL     OW22600   2.456   4.117  16.547 -0.4712 -0.2879  0.3857
 3655SOL    HW122601   2.546   4.146  16.563 -1.2572  2.7984 -0.8743
 3655SOL    HW222602   2.432   4.171  16.472  0.9867  1.8150  1.4364
 3656SOL     OW22603   4.312   4.384   5.983 -0.2637 -0.1247 -0.0381
 3656SOL    HW122604   4.376   4.314   5.993  0.3515  0.6572  1.5839
 3656SOL    HW222605   4.357   4.457   5.940 -1.7052 -0.6605 -2.4391
 3657SOL     OW22606   4.386   0.165   0.479  0.5747  0.0367 -0.0311
 3657SOL    HW122607   4.461   0.159   0.538 -0.5484 -1.0307  1.2845
 3657SOL    HW222608   4.377   0.078   0.441 -0.1451  0.2439 -0.3532
 3658SOL     OW22609   0.589   2.563   6.001 -0.3182  0.4295 -0.1346
 3658SOL    HW122610   0.515   2.590   5.946 -0.4165  3.0992  1.3331
 3658SOL    HW222611   0.662   2.575   5.940  1.2259  0.9270  1.8105
 3659SOL     OW22612   0.872   1.008  12.411 -0.3626 -0.4273  0.3090
 3659SOL    HW122613   0.812   1.061  12.464 -0.5537  1.0466 -1.3761
 3659SOL    HW222614   0.920   0.957  12.476  1.4219  0.7593 -0.0987
 3660SOL     OW22615   0.672   0.961   8.985  0.1250 -0.3413  0.6718
 3660SOL    HW122616   0.706   0.966   9.075  1.7430  0.3632  0.0009
 3660SOL    HW222617   0.606   1.030   8.983  2.2804  1.6806  0.4423
 3661SOL     OW22618   0.923   2.339   5.347 -0.1424  0.1069  0.1225
 3661SOL    HW122619   1.008   2.300   5.326 -0.1303  0.0794  0.2209
 3661SOL    HW222620   0.943   2.430   5.366  0.8996 -0.1226  0.1124
 3662SOL     OW22621   4.592   1.811   4.541  0.0851  0.0080  0.2976
 3662SOL    HW122622   4.600   1.729   4.590  0.3876  0.8362  1.6025
 3662SOL    HW222623   4.505   1.822   4.504 -0.2849 -2.2063  0.5177
 3663SOL     OW22624   2.768   1.248   0.652 -0.5684  0.4688  0.5176
 3663SOL    HW122625   2.755   1.153   0.647 -1.5631  0.6711 -0.6331
 3663SOL    HW222626   2.699   1.273   0.590 -0.6443 -0.7599  0.0946
 3664SOL     OW22627   0.749   0.244   5.660  0.4453  0.0734 -0.2846
 3664SOL    HW122628   0.716   0.320   5.708  1.0388 -1.1404  2.0507
 3664SOL    HW222629   0.831   0.229   5.708  0.8931 -1.1767 -1.4399
 3665SOL     OW22630   0.933   0.487   3.725 -0.4102 -0.2771 -0.6058
 3665SOL    HW122631   0.872   0.552   3.761  0.1620  1.1515 -2.2420
 3665SOL    HW222632   0.878   0.452   3.655 -2.8813 -1.6746  2.0167
 3666SOL     OW22633   0.778   2.990   7.142  0.3573  0.5219 -0.1993
 3666SOL    HW122634   0.823   3.019   7.062  0.2304 -0.1872 -0.5311
 3666SOL    HW222635   0.691   2.985   7.102 -0.4291  0.4279  1.5396
 3667SOL     OW22636   1.711   1.701  12.357 -0.0859  0.4071  0.4226
 3667SOL    HW122637   1.620   1.688  12.328 -0.1004  0.0117  0.6406
 3667SOL    HW222638   1.753   1.631  12.308 -2.4808  0.7106 -2.0606
 3668SOL     OW22639   4.409   2.795   5.693 -0.3441  0.7286 -0.1660
 3668SOL    HW122640   4.358   2.790   5.774  0.3126  1.5096  0.3077
 3668SOL    HW222641   4.498   2.807   5.726 -0.0496  0.3142 -0.8212
 3669SOL     OW22642   3.132   2.167   4.556  0.3922 -0.4217 -0.7366
 3669SOL    HW122643   3.210   2.114   4.537  1.6332  0.8543  0.7523
 3669SOL    HW222644   3.055   2.112   4.545 -0.1684  0.3238 -0.4629
 3670SOL     OW22645   3.610   0.088   6.520  0.7986 -0.1385 -0.0117
 3670SOL    HW122646   3.554   0.120   6.449 -0.1660  1.0809  1.2961
 3670SOL    HW222647   3.550   0.034   6.571 -0.2959  2.0846  1.0766
 3671SOL     OW22648   0.440   0.007  11.073 -0.4489  0.1481 -0.4101
 3671SOL    HW122649   0.434   0.035  11.164  2.2554  1.2162 -0.5456
 3671SOL    HW222650   0.528   4.708  11.084 -0.5012  0.3097  0.5451
 3672SOL     OW22651   0.735   1.164   9.590  0.0375 -0.5916 -0.8540
 3672SOL    HW122652   0.747   1.239   9.531  0.8480 -0.3273 -0.3444
 3672SOL    HW222653   0.641   1.146   9.584 -0.0180 -0.0209 -1.8500
 3673SOL     OW22654   4.584   0.072   7.294  0.7170 -0.7631 -0.3563
 3673SOL    HW122655   4.573   0.041   7.384 -0.4350  0.6260 -0.0285
 3673SOL    HW222656   4.558   0.164   7.297  0.0327 -1.0670  2.6639
 3674SOL     OW22657   2.505   2.884  15.517 -0.7707  0.0108  0.0557
 3674SOL    HW122658   2.413   2.909  15.533 -0.7002  1.6338 -2.0648
 3674SOL    HW222659   2.546   2.967  15.492  2.3977 -1.5893  0.0916
 3675SOL     OW22660   2.997   2.417   4.451 -0.0598 -0.4614 -0.6502
 3675SOL    HW122661   3.009   2.389   4.542 -0.1049  1.1571 -0.1547
 3675SOL    HW222662   3.032   2.506   4.451  0.6546 -0.7359  1.2378
 3676SOL     OW22663   1.360   3.250   3.185  0.0745  0.6369 -0.0439
 3676SOL    HW122664   1.377   3.173   3.129  0.5737  1.7130 -1.3714
 3676SOL    HW222665   1.351   3.318   3.118  0.1131  2.2614  1.6251
 3677SOL     OW22666   0.464   4.468  10.556  0.2893  0.5251  0.1877
 3677SOL    HW122667   0.434   4.555  10.530  0.2293 -0.3076 -2.4902
 3677SOL    HW222668   0.461   4.417  10.476  1.2991  0.1343  0.4016
 3678SOL     OW22669   4.350   0.602   2.464 -0.6445 -0.0644 -0.0409
 3678SOL    HW122670   4.281   0.604   2.398 -0.9991  1.2889  0.3663
 3678SOL    HW222671   4.302   0.638   2.539 -0.6665  0.1400 -0.1537
 3679SOL     OW22672   0.668   2.002  17.546  0.1754 -0.7133  0.6115
 3679SOL    HW122673   0.573   1.997  17.536  0.0990  3.2804 -0.5496
 3679SOL    HW222674   0.691   1.932  17.608 -0.8944 -1.2218  0.4352
 3680SOL     OW22675   2.078   1.574  12.443 -0.6842 -0.2156  0.7898
 3680SOL    HW122676   2.110   1.547  12.529  1.4714 -1.4499 -0.4080
 3680SOL    HW222677   1.985   1.563  12.461 -0.8905 -0.2939 -0.3272
 3681SOL     OW22678   0.663   3.303   6.124 -0.1322 -0.1418  0.7838
 3681SOL    HW122679   0.653   3.307   6.029  0.1689  0.9222  0.7989
 3681SOL    HW222680   0.572   3.285   6.148 -0.6903 -1.2355 -2.1215
 3682SOL     OW22681   2.466   1.119   8.246 -0.2518 -0.1607  0.6031
 3682SOL    HW122682   2.450   1.097   8.154  2.3324 -0.2040  0.1686
 3682SOL    HW222683   2.467   1.029   8.279 -0.4563 -0.2773  0.2878
 3683SOL     OW22684   4.510   0.922  17.486 -0.4288  0.0300 -0.3010
 3683SOL    HW122685   4.575   0.862  17.448  0.2902  0.2664  0.5769
 3683SOL    HW222686   4.571   0.984  17.525 -1.5107  0.3309  0.9117
 3684SOL     OW22687   0.346   1.485   2.366 -0.2337 -0.1304 -0.1470
 3684SOL    HW122688   0.354   1.581   2.368 -0.8774 -0.0932  0.5492
 3684SOL    HW222689   0.251   1.474   2.362 -0.3997  1.4213 -0.8624
 3685SOL     OW22690   1.416   2.674  17.324 -0.1207  0.1379 -0.9919
 3685SOL    HW122691   1.492   2.714  17.281 -1.4765  2.6538 -1.0490
 3685SOL    HW222692   1.442   2.673  17.416  0.5994 -4.6537 -1.2838
 3686SOL     OW22693   3.420   1.969   4.201  0.6283  0.5266 -0.1219
 3686SOL    HW122694   3.371   2.005   4.275  0.3052 -0.3513  0.0937
 3686SOL    HW222695   3.350   1.922   4.155  2.0360 -1.3301 -0.3819
 3687SOL     OW22696   0.360   4.515   6.531  0.3851  0.3371  0.3619
 3687SOL    HW122697   0.393   4.522   6.620 -0.2642 -0.9651  0.6919
 3687SOL    HW222698   0.291   4.582   6.529  0.5367  0.5007  0.7071
 3688SOL     OW22699   2.846   2.979   8.082 -0.5854 -1.0234 -0.0777
 3688SOL    HW122700   2.938   3.000   8.064 -0.2268 -0.9654  1.7521
 3688SOL    HW222701   2.822   3.058   8.131  2.4284 -0.3077  0.2109
 3689SOL     OW22702   1.315   0.515   7.596  0.2573  0.1436 -0.1566
 3689SOL    HW122703   1.267   0.569   7.660  0.5747  0.0660  0.1440
 3689SOL    HW222704   1.317   0.429   7.639  0.4088  0.3088  0.1699
 3690SOL     OW22705   3.735   1.014   5.165 -0.2093  0.5302 -0.5243
 3690SOL    HW122706   3.799   1.063   5.215  0.6145 -1.9642  0.8404
 3690SOL    HW222707   3.724   0.938   5.221  0.9328  0.8861  0.1734
 3691SOL     OW22708   0.107   0.736   4.096  0.4462 -0.1461 -0.2987
 3691SOL    HW122709   0.051   0.661   4.117 -0.8856  1.2893  1.2220
 3691SOL    HW222710   0.081   0.792   4.169 -1.4503 -0.7009 -0.5613
 3692SOL     OW22711   3.691   4.383   4.302 -0.6304 -0.1922 -0.8753
 3692SOL    HW122712   3.632   4.449   4.266  0.1912  0.7495 -0.4954
 3692SOL    HW222713   3.682   4.316   4.233 -0.6004  0.7917 -1.8336
 3693SOL     OW22714   0.654   2.020   7.335 -0.3430 -1.0801  0.1662
 3693SOL    HW122715   0.638   2.046   7.244 -0.5529 -1.9256 -0.0383
 3693SOL    HW222716   0.672   2.105   7.375 -0.6642 -1.1189  0.3927
 3694SOL     OW22717   0.795   0.356   1.494 -0.2831  0.2293  0.7969
 3694SOL    HW122718   0.704   0.377   1.516 -0.7708  0.2399 -1.1839
 3694SOL    HW222719   0.835   0.375   1.578 -1.1361 -0.1710  1.2996
 3695SOL     OW22720   2.867   0.205   6.892  0.1819 -0.3192  0.1311
 3695SOL    HW122721   2.936   0.261   6.928 -2.0885  1.7223  1.2702
 3695SOL    HW222722   2.824   0.279   6.851  0.2787 -0.7888 -0.8201
 3696SOL     OW22723   0.253   3.852   2.513  0.4152 -0.2950  0.5245
 3696SOL    HW122724   0.230   3.769   2.471 -0.3683  0.7016 -0.9916
 3696SOL    HW222725   0.258   3.823   2.605 -2.1886  0.6171  0.9461
 3697SOL     OW22726   3.468   1.008  12.411 -0.0439 -0.3425  0.1324
 3697SOL    HW122727   3.480   1.046  12.324 -0.8399  2.3921  1.2255
 3697SOL    HW222728   3.375   1.003  12.431 -0.5881 -0.4509 -2.4882
 3698SOL     OW22729   0.251   0.055  14.812  0.1526  0.4022  0.1539
 3698SOL    HW122730   0.156   0.063  14.810  0.0427 -0.3336  2.7151
 3698SOL    HW222731   0.269   0.124  14.876 -2.1312  1.5858 -0.4942
 3699SOL     OW22732   0.821   4.561   1.830  0.1206  0.2918 -0.3622
 3699SOL    HW122733   0.751   4.604   1.781  0.7717 -0.7729 -2.2266
 3699SOL    HW222734   0.777   4.484   1.865  1.4054  0.0971  0.8090
 3700SOL     OW22735   4.285   3.499  17.099  0.1244  0.5787 -0.1095
 3700SOL    HW122736   4.354   3.439  17.128 -0.5042 -0.8023 -1.4655
 3700SOL    HW222737   4.236   3.447  17.035 -1.0845  0.9462  0.5156
 3701SOL     OW22738   3.121   4.367   2.370 -0.0880  0.1026  0.2857
 3701SOL    HW122739   3.196   4.308   2.379 -0.9749 -0.9343  0.8256
 3701SOL    HW222740   3.110   4.371   2.275  1.1942 -1.9052  0.0542
 3702SOL     OW22741   4.425   0.649   6.989  0.3484  0.0889 -0.0522
 3702SOL    HW122742   4.434   0.744   6.995 -0.8654  0.1368  1.0769
 3702SOL    HW222743   4.379   0.632   7.071 -1.2589 -0.1120 -0.9913
 3703SOL     OW22744   3.508   4.731   6.812 -0.2057 -0.0078  0.2578
 3703SOL    HW122745   3.577   0.048   6.850 -0.1627 -0.0123  0.1855
 3703SOL    HW222746   3.486   4.673   6.885 -0.5346 -0.9361 -0.5801
 3704SOL     OW22747   0.174   0.649   2.133  0.6492  0.1393 -0.3051
 3704SOL    HW122748   0.113   0.587   2.172 -1.5029  2.1066 -0.5660
 3704SOL    HW222749   0.251   0.598   2.158  0.6775 -0.7185 -2.1357
 3705SOL     OW22750   3.083   0.394  10.670  0.5629  0.1145 -0.2805
 3705SOL    HW122751   2.996   0.433  10.673 -0.0987 -1.4189  0.1905
 3705SOL    HW222752   3.129   0.466  10.714  2.3014 -0.2988 -1.3892
 3706SOL     OW22753   2.734   2.548   3.837 -0.0009 -0.0485 -0.4611
 3706SOL    HW122754   2.745   2.566   3.930 -1.3972 -1.4121 -0.0443
 3706SOL    HW222755   2.729   2.639   3.809 -0.3650 -0.4101 -1.5706
 3707SOL     OW22756   3.384   1.638   2.792 -0.0042  0.2391  0.3679
 3707SOL    HW122757   3.426   1.677   2.716 -0.6958  0.0170 -0.1227
 3707SOL    HW222758   3.373   1.714   2.849  0.2736  0.3484  0.2769
 3708SOL     OW22759   4.424   1.609   2.346  0.4473 -0.2850 -0.5004
 3708SOL    HW122760   4.484   1.684   2.342 -0.6692  0.5618 -1.5714
 3708SOL    HW222761   4.435   1.583   2.255  0.4303  0.8686 -0.8378
 3709SOL     OW22762   1.218   4.619   7.522 -0.1193  0.0397  0.0784
 3709SOL    HW122763   1.255   4.625   7.609  0.9048  0.0689 -0.3600
 3709SOL    HW222764   1.186   4.529   7.521  0.8279 -0.2927  1.5119
 3710SOL     OW22765   2.990   3.289   7.900 -0.0115  0.0769  0.3187
 3710SOL    HW122766   3.035   3.224   7.954  1.9805  1.0859 -0.1178
 3710SOL    HW222767   2.909   3.247   7.871 -1.2653  1.3122  1.9910
 3711SOL     OW22768   2.867   4.071   1.865  0.4036  0.2899 -0.3625
 3711SOL    HW122769   2.913   3.996   1.829  0.5771  0.4878 -0.5495
 3711SOL    HW222770   2.777   4.043   1.848  0.2294  1.2256 -1.0070
 3712SOL     OW22771   3.763   2.207   6.590 -0.0791 -0.5760  0.4113
 3712SOL    HW122772   3.713   2.272   6.541  0.4688 -0.9765 -0.6774
 3712SOL    HW222773   3.760   2.246   6.677 -0.0135 -2.0816  1.0900
 3713SOL     OW22774   3.399   3.844  17.428  0.0843  0.3083  0.1557
 3713SOL    HW122775   3.360   3.859  17.514 -0.4693 -4.0343  0.6433
 3713SOL    HW222776   3.368   3.755  17.412  1.9088 -0.6156  1.6213
 3714SOL     OW22777   3.104   3.686   4.384 -0.9555 -0.3628 -0.3349
 3714SOL    HW122778   3.055   3.764   4.358 -1.9180  0.0409  2.6807
 3714SOL    HW222779   3.163   3.665   4.311 -3.1193 -2.7218 -1.3864
 3715SOL     OW22780   4.208   2.194  11.973 -0.3252 -0.0145 -0.0299
 3715SOL    HW122781   4.252   2.111  11.954  1.0387  0.6486  0.2517
 3715SOL    HW222782   4.228   2.209  12.066 -1.7197 -0.2933  0.3130
 3716SOL     OW22783   2.952   3.316  12.844 -0.4990 -0.2703  0.4441
 3716SOL    HW122784   2.934   3.279  12.758  1.1035 -0.0106 -0.0070
 3716SOL    HW222785   3.008   3.247  12.880  3.0864  2.7143  0.6677
 3717SOL     OW22786   1.728   0.174   8.182 -0.4225  0.3284  0.5804
 3717SOL    HW122787   1.658   0.118   8.149 -1.5343  1.0611  1.7150
 3717SOL    HW222788   1.676   0.239   8.229 -2.5886 -1.2768  0.3965
 3718SOL     OW22789   0.035   1.556   0.857  0.6411  0.4623  0.0987
 3718SOL    HW122790   0.090   1.487   0.820  1.2826  1.9224 -1.6143
 3718SOL    HW222791   0.085   1.628   0.820  1.8985 -0.0045  0.8790
 3719SOL     OW22792   3.054   2.890   2.415 -0.5496  0.2704 -0.0062
 3719SOL    HW122793   3.143   2.911   2.385 -0.1572  2.0712  2.3698
 3719SOL    HW222794   3.035   2.811   2.364 -1.4181 -0.1167  0.9288
 3720SOL     OW22795   4.335   2.308   3.639 -0.0861 -0.0303  0.2596
 3720SOL    HW122796   4.355   2.389   3.593 -1.6652 -0.0538 -0.4762
 3720SOL    HW222797   4.245   2.310   3.607  0.5390 -0.9027 -1.5757
 3721SOL     OW22798   1.678   3.873   2.645 -0.1911  0.4813  1.0122
 3721SOL    HW122799   1.634   3.814   2.585 -0.9552  2.4958 -0.3908
 3721SOL    HW222800   1.727   3.927   2.583 -2.7735  1.2214 -0.3736
 3722SOL     OW22801   1.522   4.548   6.946 -1.2070  0.5124  0.2013
 3722SOL    HW122802   1.613   4.555   6.917 -0.9785 -0.3507  0.7318
 3722SOL    HW222803   1.523   4.616   7.014  0.4045  0.5215  0.1839
 3723SOL     OW22804   1.662   2.426  16.685  0.0782  0.3413 -0.1126
 3723SOL    HW122805   1.572   2.458  16.693 -0.5962 -1.5448 -0.2409
 3723SOL    HW222806   1.641   2.375  16.606  0.1375  0.3181 -0.1132
 3724SOL     OW22807   2.306   2.441   5.842 -0.2071 -0.6374  0.2519
 3724SOL    HW122808   2.303   2.515   5.781 -0.5172 -0.0008  1.0466
 3724SOL    HW222809   2.373   2.390   5.796  0.5789  0.0409  0.6517
 3725SOL     OW22810   2.796   3.531  13.941  0.1419 -0.2887 -0.2930
 3725SOL    HW122811   2.745   3.506  14.018  1.8334  1.1598  1.2967
 3725SOL    HW222812   2.725   3.557  13.882 -0.8970  0.2002  1.1774
 3726SOL     OW22813   0.680   1.465   6.499 -0.3029  0.5057  0.0990
 3726SOL    HW122814   0.709   1.494   6.413 -2.3441  2.1733 -0.0063
 3726SOL    HW222815   0.591   1.450   6.467  0.5603 -2.8764 -0.7646
 3727SOL     OW22816   3.325   1.460   9.466 -0.7322  0.1904  0.5102
 3727SOL    HW122817   3.293   1.426   9.550  0.3177  3.2164  2.1048
 3727SOL    HW222818   3.243   1.469   9.418 -1.7015 -0.7082  1.9969
 3728SOL     OW22819   0.046   2.635   5.644 -0.8642  0.1926 -0.1337
 3728SOL    HW122820   0.089   2.557   5.610 -1.2385  0.1885 -0.6074
 3728SOL    HW222821   4.699   2.598   5.670  0.3298 -1.6948  1.0895
 3729SOL     OW22822   2.717   2.525   0.885 -0.2136  0.3803 -0.3510
 3729SOL    HW122823   2.785   2.459   0.898 -1.2349 -0.8193 -1.1074
 3729SOL    HW222824   2.764   2.589   0.938 -1.5737 -1.0170  2.5218
 3730SOL     OW22825   1.971   4.369   5.850 -0.5996 -0.2555  0.1160
 3730SOL    HW122826   2.033   4.380   5.922  1.1129  1.1060 -1.5750
 3730SOL    HW222827   1.976   4.274   5.835 -0.4716  0.1036 -2.0501
 3731SOL     OW22828   3.347   3.712   6.290  0.6096  0.3325  0.8550
 3731SOL    HW122829   3.263   3.756   6.305  0.7646 -0.0176  2.6554
 3731SOL    HW222830   3.398   3.791   6.270  2.3641 -0.3280  2.7794
 3732SOL     OW22831   1.552   3.662   1.544 -0.2016  0.7919  0.4388
 3732SOL    HW122832   1.645   3.668   1.524 -0.2739 -0.3504 -0.2263
 3732SOL    HW222833   1.553   3.673   1.639 -0.0564  0.3077  0.4895
 3733SOL     OW22834   2.413   3.037  17.279 -0.0483 -0.1603  0.5615
 3733SOL    HW122835   2.456   3.086  17.349  1.5786 -0.2984 -0.3502
 3733SOL    HW222836   2.423   2.945  17.302  2.4839  0.1473  0.6703
 3734SOL     OW22837   0.250   1.721   6.343 -1.0551  0.2012  0.1363
 3734SOL    HW122838   0.257   1.640   6.393 -1.9128  0.3703  0.5277
 3734SOL    HW222839   0.164   1.753   6.371 -0.6306  0.4316  1.1905
 3735SOL     OW22840   4.236   2.724   8.663  0.0315 -0.5312  0.4153
 3735SOL    HW122841   4.208   2.815   8.655  1.6444 -0.2461 -1.7874
 3735SOL    HW222842   4.212   2.690   8.577  2.0268  1.7591 -1.0244
 3736SOL     OW22843   0.108   0.758   5.911  0.1192  0.1968 -0.6738
 3736SOL    HW122844   0.058   0.803   5.843  0.0006  3.0106  1.2690
 3736SOL    HW222845   0.038   0.755   5.975  1.4911 -0.1466  0.8079
 3737SOL     OW22846   2.969   3.496   5.751 -0.0449  0.2936 -0.2814
 3737SOL    HW122847   2.874   3.504   5.742  0.0877  0.7703 -1.3208
 3737SOL    HW222848   2.988   3.539   5.834  2.5485 -1.2367 -0.0721
 3738SOL     OW22849   2.096   1.426   5.561 -0.0191 -0.0404 -0.0179
 3738SOL    HW122850   2.099   1.515   5.597 -1.2028 -0.4797  1.1873
 3738SOL    HW222851   2.176   1.426   5.509  0.7140  0.4888  1.1165
 3739SOL     OW22852   0.261   1.870   3.523 -0.2971 -0.0664 -0.4185
 3739SOL    HW122853   0.282   1.810   3.595  0.1849  2.7157  1.7222
 3739SOL    HW222854   0.211   1.940   3.565 -1.1968 -1.4655  0.8448
 3740SOL     OW22855   0.768   0.713   4.633 -0.0013  0.6195 -0.3909
 3740SOL    HW122856   0.823   0.667   4.697 -1.9098 -0.2622  0.6334
 3740SOL    HW222857   0.824   0.707   4.556 -0.1168 -0.4206 -0.3875
 3741SOL     OW22858   3.730   3.504   8.303  0.1828 -0.3374 -0.4390
 3741SOL    HW122859   3.802   3.452   8.340  0.5605 -0.8726 -1.9072
 3741SOL    HW222860   3.750   3.595   8.322  3.9253 -1.5488  1.5655
 3742SOL     OW22861   0.697   3.642   5.598  0.2455  0.1890 -0.8874
 3742SOL    HW122862   0.654   3.684   5.673  1.9751 -0.4914  0.4804
 3742SOL    HW222863   0.642   3.564   5.599  0.6707 -0.0939  0.3368
 3743SOL     OW22864   2.753   2.719   9.725  0.1865 -0.3879 -0.2006
 3743SOL    HW122865   2.686   2.742   9.661 -0.9854 -0.4967  0.9835
 3743SOL    HW222866   2.706   2.647   9.768  0.0493 -0.3270 -0.2512
 3744SOL     OW22867   2.697   4.049   8.302  0.2076 -0.4242 -0.0422
 3744SOL    HW122868   2.741   4.133   8.315 -0.5321  0.0392 -0.5628
 3744SOL    HW222869   2.603   4.067   8.304  0.0726 -1.0247 -1.0512
 3745SOL     OW22870   3.390   2.727   9.601  0.2680  0.2818 -0.4277
 3745SOL    HW122871   3.409   2.648   9.652 -0.7829  1.7376  2.2428
 3745SOL    HW222872   3.430   2.790   9.661 -1.4557 -0.9206  2.0205
 3746SOL     OW22873   2.359   3.110   4.070  0.0862  0.1768 -0.4723
 3746SOL    HW122874   2.353   3.197   4.030  0.1778  0.5897  0.4150
 3746SOL    HW222875   2.289   3.105   4.135  2.4085  1.1513  2.1279
 3747SOL     OW22876   0.348   2.013   8.039 -0.2279  0.4377  0.1774
 3747SOL    HW122877   0.279   1.947   8.037 -0.5334  0.7349  0.8589
 3747SOL    HW222878   0.302   2.096   8.033 -1.8403 -0.5978 -1.6516
 3748SOL     OW22879   2.975   0.668   3.085 -0.1651  0.6756  0.4517
 3748SOL    HW122880   2.984   0.580   3.120 -1.7673  0.1795 -0.3600
 3748SOL    HW222881   2.887   0.665   3.047 -0.3810 -0.1268  1.0290
 3749SOL     OW22882   0.086   3.424   2.755 -0.4631  0.6812 -0.5493
 3749SOL    HW122883   0.020   3.396   2.819 -0.7825 -0.0912 -1.2044
 3749SOL    HW222884   0.030   3.434   2.678  0.0792 -0.5107 -1.0909
 3750SOL     OW22885   1.387   2.907   3.451  0.4258 -0.3780  0.4070
 3750SOL    HW122886   1.429   2.942   3.373  1.5333  0.6085  1.4418
 3750SOL    HW222887   1.382   2.975   3.518  2.4183 -1.6801  1.8794
 3751SOL     OW22888   1.412   0.888   7.898 -0.9106 -0.3124  0.8195
 3751SOL    HW122889   1.505   0.902   7.878 -0.9294  0.7822  1.4799
 3751SOL    HW222890   1.378   0.945   7.829 -0.5728 -2.3390 -1.0030
 3752SOL     OW22891   0.099   3.244  11.719  0.2805 -0.1062 -0.2809
 3752SOL    HW122892   0.048   3.221  11.797  0.1964  0.3272 -0.2069
 3752SOL    HW222893   0.191   3.236  11.743  0.7983  1.8919 -1.6434
 3753SOL     OW22894   1.531   1.467   8.207  0.0123  0.1359  0.3498
 3753SOL    HW122895   1.619   1.475   8.171  0.2503 -1.2762  0.5999
 3753SOL    HW222896   1.537   1.388   8.261  0.7492 -1.1212 -1.5796
 3754SOL     OW22897   3.191   3.877   4.643  0.4964 -0.1135  0.5498
 3754SOL    HW122898   3.132   3.873   4.568  0.9571  1.7844  0.0861
 3754SOL    HW222899   3.149   3.944   4.696  1.9435 -0.0112  1.5761
 3755SOL     OW22900   0.092   0.946   6.251  0.2199  0.1965 -0.4967
 3755SOL    HW122901   0.029   0.876   6.235  0.9279 -0.6454  0.4015
 3755SOL    HW222902   0.071   1.008   6.181  0.4385  1.2576  0.3811
 3756SOL     OW22903   0.186   2.374  15.596  0.6361  0.0781 -0.0048
 3756SOL    HW122904   0.148   2.407  15.514  2.5260 -0.0070 -0.9064
 3756SOL    HW222905   0.175   2.454  15.648  2.0504  0.5242 -0.3927
 3757SOL     OW22906   2.792   1.207   7.339 -0.4732  0.9039 -0.1316
 3757SOL    HW122907   2.797   1.116   7.367  0.0981  0.8718 -0.3353
 3757SOL    HW222908   2.847   1.250   7.404  2.0865 -1.3656 -0.7991
 3758SOL     OW22909   3.507   2.078   4.694  0.2909 -0.2194  0.0510
 3758SOL    HW122910   3.473   2.089   4.783 -0.3685  1.0486 -0.3584
 3758SOL    HW222911   3.596   2.046   4.710  0.3459 -0.7550 -1.2827
 3759SOL     OW22912   1.265   3.276   4.835  0.3099  0.1367  0.4877
 3759SOL    HW122913   1.196   3.226   4.879 -1.0174  0.8175 -0.8136
 3759SOL    HW222914   1.245   3.256   4.744 -0.1838  1.0348  0.4059
 3760SOL     OW22915   0.649   2.646   3.720  0.1975 -0.0082  0.6273
 3760SOL    HW122916   0.561   2.641   3.682 -0.6960  1.3600  2.5159
 3760SOL    HW222917   0.702   2.598   3.656  0.4590  1.5668 -0.3456
 3761SOL     OW22918   3.189   1.056   3.770  0.2923 -0.1196  0.1417
 3761SOL    HW122919   3.178   1.120   3.699 -0.4841 -2.1992 -1.6363
 3761SOL    HW222920   3.255   0.997   3.735  1.7822  1.1981  0.7125
 3762SOL     OW22921   0.509   0.328  10.593  0.1306  0.1301  0.3642
 3762SOL    HW122922   0.565   0.337  10.669 -2.4577  0.2083  2.2471
 3762SOL    HW222923   0.515   0.233  10.583  1.1227  0.2261  0.0504
 3763SOL     OW22924   0.193   2.562  17.173  0.0890  0.1728 -0.1763
 3763SOL    HW122925   0.229   2.644  17.205  0.2416  0.5595 -1.3491
 3763SOL    HW222926   0.131   2.542  17.242  0.2049 -1.4379 -0.5340
 3764SOL     OW22927   3.048   0.161   5.411 -0.8420 -0.5071  0.3898
 3764SOL    HW122928   3.001   0.104   5.351  1.3783 -1.8507 -0.0691
 3764SOL    HW222929   2.986   0.166   5.484 -1.4802 -0.5804 -0.1544
 3765SOL     OW22930   3.745   3.175   1.710 -0.3388 -0.0510 -0.7554
 3765SOL    HW122931   3.754   3.179   1.615  1.4009  1.7028 -0.5088
 3765SOL    HW222932   3.653   3.200   1.722  0.4528  2.0796  0.8431
 3766SOL     OW22933   2.387   4.214   4.366  0.1398  0.5155 -0.1081
 3766SOL    HW122934   2.327   4.200   4.440 -0.0319  0.7453 -0.2064
 3766SOL    HW222935   2.462   4.163   4.397 -0.5907 -0.9868 -0.7870
 3767SOL     OW22936   3.185   2.961  13.170  0.1155 -0.3084  0.1572
 3767SOL    HW122937   3.213   3.019  13.240 -0.2362 -0.5102  0.4667
 3767SOL    HW222938   3.235   2.884  13.197  0.2548 -0.2521  0.0576
 3768SOL     OW22939   4.378   3.902  11.576  0.2427 -0.6282  0.7556
 3768SOL    HW122940   4.415   3.974  11.523 -1.6657  0.6460  1.1677
 3768SOL    HW222941   4.338   3.956  11.644 -1.5567  0.8489 -1.4481
 3769SOL     OW22942   1.160   2.908  17.047 -0.0145  0.1361  0.3592
 3769SOL    HW122943   1.071   2.931  17.020 -0.0671 -0.6424 -0.1140
 3769SOL    HW222944   1.191   2.997  17.063 -1.5111  0.6817  0.2437
 3770SOL     OW22945   4.513   3.835   8.505  0.0620 -0.1354 -0.2422
 3770SOL    HW122946   4.425   3.863   8.529  1.7878  2.9314  2.5629
 3770SOL    HW222947   4.495   3.809   8.414  1.3372  0.4105 -0.6568
 3771SOL     OW22948   1.206   2.192  15.719  0.2719  0.6119  0.3102
 3771SOL    HW122949   1.230   2.183  15.812  0.0384 -4.0059 -0.0755
 3771SOL    HW222950   1.183   2.284  15.716 -1.2073  0.2897  1.6628
 3772SOL     OW22951   4.712   1.064  17.579  0.2568  0.4267 -0.2346
 3772SOL    HW122952   0.051   1.012  17.603  0.7542  1.4082  0.2929
 3772SOL    HW222953   4.714   1.143  17.634 -1.6711 -0.1176  0.6280
 3773SOL     OW22954   1.291   0.423  16.700 -0.1973  0.0637  0.0538
 3773SOL    HW122955   1.304   0.363  16.773  0.6702  0.7862  0.4875
 3773SOL    HW222956   1.331   0.508  16.720 -0.0334 -0.1803  0.7686
 3774SOL     OW22957   1.568   1.733   7.921  0.4693  0.1349  0.2536
 3774SOL    HW122958   1.583   1.814   7.970  0.1308 -1.0763  2.3418
 3774SOL    HW222959   1.472   1.733   7.914  0.4279 -2.6817  0.9168
 3775SOL     OW22960   4.048   0.130   2.725 -0.1590 -0.1305 -0.1070
 3775SOL    HW122961   4.065   0.215   2.683  3.5298 -0.7507  0.1409
 3775SOL    HW222962   3.954   0.116   2.711 -0.2998  1.1562 -0.4526
 3776SOL     OW22963   3.531   4.160   8.470  0.3686 -0.1547  0.3829
 3776SOL    HW122964   3.462   4.208   8.515 -0.2649  0.6182 -1.4273
 3776SOL    HW222965   3.609   4.216   8.472 -0.2792  0.7215  1.5058
 3777SOL     OW22966   2.931   1.898  17.348  0.6302 -0.0657  0.7601
 3777SOL    HW122967   2.837   1.884  17.336  0.7944 -0.4341 -0.1042
 3777SOL    HW222968   2.939   1.865  17.438  1.0816  1.5915  1.3389
 3778SOL     OW22969   4.615   0.571  15.137  0.1263 -0.2806 -0.2882
 3778SOL    HW122970   4.669   0.509  15.089 -0.3504 -1.2700  0.4710
 3778SOL    HW222971   4.597   0.517  15.214 -1.1595 -2.6616 -2.2569
 3779SOL     OW22972   3.092   0.869   5.288 -0.3527  0.6581 -0.0847
 3779SOL    HW122973   3.141   0.882   5.369 -1.0852 -1.8500  0.7910
 3779SOL    HW222974   3.132   0.942   5.241  1.1680  0.2116  0.5354
 3780SOL     OW22975   3.792   3.794  16.032  0.1042 -0.2768  0.1116
 3780SOL    HW122976   3.759   3.754  15.952  1.3955 -0.2734 -0.4219
 3780SOL    HW222977   3.882   3.762  16.035  0.2848  0.4705  2.7151
 3781SOL     OW22978   1.263   0.431  15.205  0.3404 -0.7809 -1.0841
 3781SOL    HW122979   1.356   0.454  15.204  1.0006 -3.1368  2.5625
 3781SOL    HW222980   1.228   0.506  15.158 -0.8835 -0.9653 -0.4613
 3782SOL     OW22981   3.577   3.189   8.108  0.5587  0.3381 -0.0192
 3782SOL    HW122982   3.542   3.143   8.032  1.7896 -1.7845  0.7204
 3782SOL    HW222983   3.515   3.262   8.113  2.5422  2.1906 -2.0898
 3783SOL     OW22984   3.485   3.323   1.344  0.2560 -0.1031 -0.6578
 3783SOL    HW122985   3.497   3.228   1.341 -0.1334 -0.1244 -1.5461
 3783SOL    HW222986   3.550   3.356   1.282  0.5483 -1.4379 -1.0598
 3784SOL     OW22987   0.687   1.783   6.976  0.1427  0.2987  0.0576
 3784SOL    HW122988   0.712   1.696   6.946  2.3934  0.9503  0.0570
 3784SOL    HW222989   0.711   1.839   6.903  2.0329 -0.5939 -0.0084
 3785SOL     OW22990   0.580   4.524   7.804 -0.1196 -0.1925 -0.3336
 3785SOL    HW122991   0.612   4.477   7.727 -0.2040 -1.8027  0.6116
 3785SOL    HW222992   0.485   4.520   7.799 -0.0580 -1.9891 -0.2490
 3786SOL     OW22993   0.529   0.566   5.141 -0.5264  0.4386 -1.0266
 3786SOL    HW122994   0.532   0.617   5.222 -0.3673  1.5979 -1.7554
 3786SOL    HW222995   0.441   0.530   5.143 -0.1524 -0.2300  2.5505
 3787SOL     OW22996   0.317   0.664   3.946 -0.4171 -0.0566 -0.4562
 3787SOL    HW122997   0.241   0.697   3.995  0.4716 -0.8413  1.4062
 3787SOL    HW222998   0.300   0.572   3.925  0.4686 -0.0610 -1.1384
 3788SOL     OW22999   0.455   1.923   1.891 -0.5346  0.0668  0.1211
 3788SOL    HW123000   0.540   1.937   1.932 -0.1224 -1.3397 -0.2641
 3788SOL    HW223001   0.425   2.014   1.897 -1.1586 -0.0829 -0.7398
 3789SOL     OW23002   1.513   3.779   5.111  0.0734  0.4645  0.5968
 3789SOL    HW123003   1.497   3.686   5.095 -0.2509  0.7210 -0.5371
 3789SOL    HW223004   1.460   3.814   5.040 -1.1044 -1.6183  0.4396
 3790SOL     OW23005   0.958   3.079   5.147  1.0539 -0.2497  0.8957
 3790SOL    HW123006   1.052   3.097   5.141  1.0787 -0.2808  1.2077
 3790SOL    HW223007   0.953   2.983   5.153 -0.2357 -0.2332 -0.0396
 3791SOL     OW23008   2.985   4.249   9.345 -0.7328  0.3381  0.1399
 3791SOL    HW123009   2.950   4.206   9.268  1.8695 -1.0337 -0.2783
 3791SOL    HW223010   2.905   4.284   9.384 -0.4353  0.5732  0.5405
 3792SOL     OW23011   3.456   2.923   4.689  0.0580 -0.5207 -0.7113
 3792SOL    HW123012   3.418   2.850   4.640  0.0903 -0.4451 -0.8507
 3792SOL    HW223013   3.533   2.880   4.727  0.1930  0.7536  0.4639
 3793SOL     OW23014   0.600   0.172   0.764  0.3392  0.4687 -0.5153
 3793SOL    HW123015   0.588   0.079   0.746  0.5789  0.5661 -1.1883
 3793SOL    HW223016   0.667   0.200   0.701  1.4777  0.0769  0.5291
 3794SOL     OW23017   2.282   2.276  14.149 -0.3201  0.0448  0.3705
 3794SOL    HW123018   2.372   2.308  14.158 -0.6473  1.1829 -0.3996
 3794SOL    HW223019   2.232   2.343  14.195 -0.0971  1.2276 -1.1193
 3795SOL     OW23020   1.565   3.753   8.749  0.1285 -0.0476 -0.4949
 3795SOL    HW123021   1.555   3.723   8.659  0.7600  2.2573 -1.3435
 3795SOL    HW223022   1.600   3.839   8.725  0.4154 -0.1544 -0.4591
 3796SOL     OW23023   3.866   2.738   5.959  0.1700 -0.2990  0.4709
 3796SOL    HW123024   3.881   2.786   6.040 -2.2628  2.1496 -0.5077
 3796SOL    HW223025   3.779   2.768   5.931  0.6104 -0.9693 -1.6495
 3797SOL     OW23026   0.092   4.017  14.531  0.1474  0.7102  0.1747
 3797SOL    HW123027   0.111   3.931  14.569 -3.0782 -0.3346 -0.5554
 3797SOL    HW223028   0.109   3.993  14.439 -1.8119 -0.1469  0.0321
 3798SOL     OW23029   1.313   0.988   7.656  0.6810 -0.1726  0.2239
 3798SOL    HW123030   1.350   1.071   7.625  1.1096  0.0783  1.4126
 3798SOL    HW223031   1.288   0.958   7.568 -0.8440  0.9960  0.2608
 3799SOL     OW23032   2.970   2.496   0.109 -0.0280  0.2890 -0.8693
 3799SOL    HW123033   3.006   2.577   0.144  1.2843 -1.3983  1.6708
 3799SOL    HW223034   3.012   2.421   0.151 -0.7463  0.5270  0.2677
 3800SOL     OW23035   1.449   2.455   8.368  0.5144 -0.7960 -0.5113
 3800SOL    HW123036   1.359   2.480   8.387  0.9026  0.5961 -0.4821
 3800SOL    HW223037   1.502   2.482   8.443  1.4888  1.7315 -2.1119
 3801SOL     OW23038   1.119   4.248  12.655  0.2398  0.4134  0.0018
 3801SOL    HW123039   1.161   4.173  12.698 -2.1698 -0.6819  0.4889
 3801SOL    HW223040   1.200   4.271  12.611 -0.7634  0.5731 -1.7881
 3802SOL     OW23041   0.180   3.011   5.651 -0.4345  0.3373  0.3744
 3802SOL    HW123042   0.246   3.076   5.678 -1.4268  0.7033  1.8702
 3802SOL    HW223043   0.231   2.959   5.589 -1.2436  0.7574 -0.6339
 3803SOL     OW23044   2.899   1.405   8.429  0.4024 -0.4812  0.1225
 3803SOL    HW123045   2.960   1.467   8.389 -0.1459  0.2010  0.3464
 3803SOL    HW223046   2.858   1.365   8.352  1.4312  1.5968 -1.4896
 3804SOL     OW23047   4.511   4.463   6.307 -0.1933  0.6715  0.1607
 3804SOL    HW123048   4.419   4.439   6.312  0.0170 -0.3907 -0.9730
 3804SOL    HW223049   4.513   4.547   6.353 -0.6545  0.3552  0.7544
 3805SOL     OW23050   3.008   1.161   8.058  0.3602 -0.3231  0.9016
 3805SOL    HW123051   3.101   1.174   8.078  0.3636  0.1390  0.5640
 3805SOL    HW223052   2.985   1.240   8.106 -0.3509  0.7345 -1.2120
 3806SOL     OW23053   4.521   2.557   5.652 -0.4943  0.0275 -0.6136
 3806SOL    HW123054   4.491   2.648   5.660  0.5396  0.3320 -0.1711
 3806SOL    HW223055   4.440   2.506   5.666  0.3984 -1.4549 -0.8682
 3807SOL     OW23056   1.121   3.642   3.588 -0.1517  0.1808 -0.1099
 3807SOL    HW123057   1.064   3.670   3.659  1.2839  0.5996  0.8737
 3807SOL    HW223058   1.079   3.559   3.568  0.2193  0.1451 -0.7355
 3808SOL     OW23059   3.161   0.283   8.017 -0.1981 -0.1499 -0.6158
 3808SOL    HW123060   3.219   0.343   8.064 -0.1728 -1.5944  1.1861
 3808SOL    HW223061   3.080   0.292   8.067  0.1980 -1.6832  0.2740
 3809SOL     OW23062   1.416   0.881   4.624  0.1207  0.0031 -0.2347
 3809SOL    HW123063   1.399   0.959   4.570  0.7114 -0.0275 -0.4578
 3809SOL    HW223064   1.507   0.864   4.601  0.8589  1.2734  1.7606
 3810SOL     OW23065   1.972   4.237  16.603 -0.0060 -0.7712 -0.3886
 3810SOL    HW123066   1.896   4.263  16.656  0.3173 -1.3760  0.3749
 3810SOL    HW223067   1.940   4.154  16.568 -0.5649 -0.9251  0.4899
 3811SOL     OW23068   1.436   0.929   2.653 -0.1942  0.2003  0.7074
 3811SOL    HW123069   1.460   0.953   2.563  0.7616  1.1174  1.2057
 3811SOL    HW223070   1.518   0.952   2.695 -0.2776 -1.9843  2.0806
 3812SOL     OW23071   3.395   2.445   6.851 -0.4512 -0.0680 -0.4163
 3812SOL    HW123072   3.319   2.463   6.796 -0.4418 -0.5052 -0.5725
 3812SOL    HW223073   3.441   2.529   6.862 -1.0116  0.5471 -2.8568
 3813SOL     OW23074   4.320   2.119   3.066  0.1188  0.2024 -0.2390
 3813SOL    HW123075   4.274   2.147   2.987 -0.9990 -2.6054 -0.5828
 3813SOL    HW223076   4.297   2.026   3.066  1.1173 -0.0476  2.2392
 3814SOL     OW23077   0.576   3.752   6.556 -0.0328 -0.4405 -0.1953
 3814SOL    HW123078   0.546   3.723   6.470 -0.4592 -1.2388  0.2231
 3814SOL    HW223079   0.505   3.803   6.594  0.0738  0.3722 -1.0762
 3815SOL     OW23080   3.624   0.271   7.746  0.1007 -0.0279 -0.6127
 3815SOL    HW123081   3.693   0.332   7.719 -1.2713  1.1227 -1.5553
 3815SOL    HW223082   3.588   0.251   7.659 -1.6783 -1.2023  0.3827
 3816SOL     OW23083   0.951   2.516   2.670 -0.8127 -0.0283  0.2717
 3816SOL    HW123084   1.005   2.595   2.676 -2.3379  1.0424 -0.1638
 3816SOL    HW223085   0.863   2.533   2.636 -0.1702  0.0591 -1.3343
 3817SOL     OW23086   2.258   2.420  16.685 -0.3362 -0.4552  0.6222
 3817SOL    HW123087   2.278   2.502  16.641 -0.6017 -0.8861 -0.2865
 3817SOL    HW223088   2.167   2.426  16.714 -0.1768  3.1393  0.3810
 3818SOL     OW23089   4.044   0.497   7.534  0.0122 -0.3611 -1.1668
 3818SOL    HW123090   4.139   0.511   7.538 -0.2652  1.1048  0.3851
 3818SOL    HW223091   4.018   0.589   7.538  0.4890 -0.2985  0.4695
 3819SOL     OW23092   1.201   4.443  10.093  0.2833 -0.0921  0.1446
 3819SOL    HW123093   1.279   4.391  10.111 -0.4771 -1.2514  0.0907
 3819SOL    HW223094   1.226   4.470  10.005 -1.7144 -1.3975 -0.8201
 3820SOL     OW23095   2.448   3.723   9.184 -0.1799  0.2109  0.4425
 3820SOL    HW123096   2.484   3.648   9.231  0.3684 -0.3279 -0.8280
 3820SOL    HW223097   2.530   3.726   9.134 -1.1428 -0.9879 -1.1923
 3821SOL     OW23098   0.086   0.339   6.862  0.4392 -0.2821  0.3165
 3821SOL    HW123099   0.015   0.384   6.908  2.0127 -0.3467  2.7954
 3821SOL    HW223100   0.154   0.403   6.884  0.3201  0.2313 -0.7931
 3822SOL     OW23101   1.128   1.044   3.318  0.8085  0.0848 -0.2447
 3822SOL    HW123102   1.062   1.016   3.381  2.0074 -0.6779  0.6687
 3822SOL    HW223103   1.177   0.963   3.306  1.1353  0.4776 -1.5416
 3823SOL     OW23104   0.012   4.614   1.944 -0.1764  0.0170  0.6214
 3823SOL    HW123105   4.658   4.643   1.949 -0.0185  0.9339 -1.4173
 3823SOL    HW223106   0.041   4.597   2.033  1.8501 -0.5852 -0.1609
 3824SOL     OW23107   3.001   3.731   2.725 -0.7266  0.0473 -0.0534
 3824SOL    HW123108   3.085   3.697   2.757 -2.2888 -3.2793  0.5211
 3824SOL    HW223109   3.003   3.815   2.769  0.0582  0.3060 -0.5790
 3825SOL     OW23110   4.632   2.933   0.797  0.0606 -0.1414 -0.2570
 3825SOL    HW123111   4.616   2.841   0.777 -2.1397  0.2141 -0.0714
 3825SOL    HW223112   4.545   2.959   0.767 -0.8018 -0.0772  2.3165
 3826SOL     OW23113   1.308   3.900   7.734 -0.2515  0.0741 -0.1537
 3826SOL    HW123114   1.260   3.977   7.763 -1.2399 -1.0976  1.3422
 3826SOL    HW223115   1.370   3.901   7.807  1.8688 -0.7612 -1.9459
 3827SOL     OW23116   1.508   1.065   7.169  0.3981  0.0349  0.2378
 3827SOL    HW123117   1.563   0.996   7.132 -0.1597 -0.7993  0.9522
 3827SOL    HW223118   1.577   1.114   7.215 -0.4920  2.7685 -1.4031
 3828SOL     OW23119   3.373   2.439   1.781 -0.1446  0.3465 -0.3459
 3828SOL    HW123120   3.467   2.446   1.798 -0.3565  1.8004  0.1904
 3828SOL    HW223121   3.334   2.524   1.803  1.1711  0.8868 -0.1218
 3829SOL     OW23122   0.171   1.178   9.552 -0.1828 -0.7427  0.1994
 3829SOL    HW123123   0.182   1.271   9.571 -1.2664 -0.0625 -2.4395
 3829SOL    HW223124   0.210   1.131   9.626 -0.6186  0.2422  1.0592
 3830SOL     OW23125   2.366   2.771   1.685  0.2405 -0.4735 -0.1800
 3830SOL    HW123126   2.406   2.846   1.642  0.8919  0.0256  1.3105
 3830SOL    HW223127   2.295   2.820   1.727  0.5737  1.6188 -2.0730
 3831SOL     OW23128   4.252   1.383   7.887 -1.2498  0.1214  0.1514
 3831SOL    HW123129   4.336   1.367   7.845 -1.1095 -0.3501  0.6154
 3831SOL    HW223130   4.274   1.347   7.973 -1.1758  0.8674  0.4501
 3832SOL     OW23131   2.600   2.889   4.801 -0.5070 -0.5967 -0.3893
 3832SOL    HW123132   2.624   2.935   4.720  3.2853 -1.0255  0.5124
 3832SOL    HW223133   2.636   2.945   4.869 -0.2492  0.1320 -1.1241
 3833SOL     OW23134   3.510   2.341  10.752  0.3618  0.2919  0.2982
 3833SOL    HW123135   3.476   2.361  10.665 -1.1456 -0.1214  0.7973
 3833SOL    HW223136   3.464   2.258  10.768 -2.6801  1.9259 -0.0505
 3834SOL     OW23137   0.347   1.475  15.265 -0.0570 -0.3698 -0.4063
 3834SOL    HW123138   0.381   1.450  15.351 -0.3780 -1.5310 -0.6188
 3834SOL    HW223139   0.266   1.424  15.257 -0.3193  0.3327 -2.2752
 3835SOL     OW23140   3.449   4.461   3.233 -0.2127  0.2616 -0.1081
 3835SOL    HW123141   3.484   4.392   3.176 -0.3125  0.1154  0.0096
 3835SOL    HW223142   3.465   4.544   3.188  0.5413  0.1893  0.0261
 3836SOL     OW23143   2.095   3.876   2.602 -0.1580 -0.4729 -0.0066
 3836SOL    HW123144   2.168   3.814   2.598 -0.7228 -1.2271  1.5077
 3836SOL    HW223145   2.052   3.848   2.521 -0.8076 -3.3504  1.3161
 3837SOL     OW23146   1.791   0.882  11.853 -0.2411 -0.0548  0.6237
 3837SOL    HW123147   1.821   0.793  11.830 -1.4051 -0.0292 -0.9730
 3837SOL    HW223148   1.821   0.936  11.780 -0.2869 -0.2060  0.4915
 3838SOL     OW23149   2.670   1.520   3.174 -0.1571  0.1433 -0.0481
 3838SOL    HW123150   2.678   1.600   3.226 -1.7479  0.1859  0.1283
 3838SOL    HW223151   2.628   1.547   3.093  2.0669  0.7387 -1.0087
 3839SOL     OW23152   4.497   4.062   7.843 -0.3410 -0.5086 -0.5907
 3839SOL    HW123153   4.506   4.158   7.842  2.0942 -0.7043  3.4774
 3839SOL    HW223154   4.523   4.033   7.756  0.6241 -0.1984 -0.4062
 3840SOL     OW23155   1.990   4.514   4.882 -0.5832 -0.1336 -0.4000
 3840SOL    HW123156   1.945   4.539   4.801 -1.4004 -0.8937 -0.1808
 3840SOL    HW223157   2.079   4.498   4.853  0.9675  1.4131  3.4102
 3841SOL     OW23158   0.813   1.908   4.179 -0.0765  0.3090 -0.2546
 3841SOL    HW123159   0.824   1.840   4.113 -0.5188  1.4419 -1.5129
 3841SOL    HW223160   0.818   1.865   4.264  0.4179 -0.8860 -0.8868
 3842SOL     OW23161   3.482   0.767   4.100 -0.0604 -0.3202 -0.2490
 3842SOL    HW123162   3.571   0.799   4.112 -0.3824  0.1514  0.8521
 3842SOL    HW223163   3.431   0.837   4.142 -1.3683 -1.0521 -0.6001
 3843SOL     OW23164   2.495   2.550  17.550  0.6342 -0.3656 -0.2447
 3843SOL    HW123165   2.434   2.478  17.537 -1.8405  1.0609  3.3082
 3843SOL    HW223166   2.578   2.504  17.555 -0.4458 -2.2797  0.0471
 3844SOL     OW23167   2.281   3.180   9.266 -0.0246  0.1742 -0.1763
 3844SOL    HW123168   2.223   3.118   9.222 -0.3147 -0.9165  1.7110
 3844SOL    HW223169   2.363   3.131   9.264  0.2851  0.6728  0.4283
 3845SOL     OW23170   0.674   0.130   2.601  0.6798  0.4398  0.3196
 3845SOL    HW123171   0.687   0.222   2.625 -1.6288  0.8528  0.0677
 3845SOL    HW223172   0.756   0.085   2.622 -0.1176 -1.0485  0.2631
 3846SOL     OW23173   3.446   4.475  16.942  0.5648  0.1616  0.1408
 3846SOL    HW123174   3.382   4.517  17.001  3.4090  2.7070  1.4080
 3846SOL    HW223175   3.472   4.542  16.880  0.4306 -0.7024 -0.8396
 3847SOL     OW23176   4.159   3.801   5.090  0.7428 -0.5217  0.2689
 3847SOL    HW123177   4.235   3.756   5.054  1.1459 -1.1122  1.8479
 3847SOL    HW223178   4.177   3.894   5.076 -1.0346 -0.3927 -1.1980
 3848SOL     OW23179   0.062   3.399   5.068  0.7148  0.4232 -0.0815
 3848SOL    HW123180   0.106   3.467   5.018  1.4265  1.4559  1.9282
 3848SOL    HW223181   0.127   3.329   5.069 -2.5936 -2.6532 -0.0845
 3849SOL     OW23182   0.828   3.850   8.656  0.5352 -0.5265 -0.5508
 3849SOL    HW123183   0.913   3.883   8.626  0.4825  1.1107  1.1029
 3849SOL    HW223184   0.831   3.760   8.624  1.7829 -0.3338 -0.9654
 3850SOL     OW23185   0.124   0.392   6.226 -0.3163  0.4540  0.0415
 3850SOL    HW123186   0.096   0.403   6.135 -1.6826 -1.3698  0.2317
 3850SOL    HW223187   0.209   0.435   6.226 -0.3448  0.5287  1.1133
 3851SOL     OW23188   2.585   2.611   0.675  0.0991 -0.1486  0.1240
 3851SOL    HW123189   2.507   2.557   0.662 -1.3100  1.9880 -0.4976
 3851SOL    HW223190   2.647   2.579   0.739 -0.8295 -0.5644  0.8060
 3852SOL     OW23191   4.521   1.460   0.008 -0.8912 -0.1804 -1.0346
 3852SOL    HW123192   4.495   1.449   0.100  0.1641 -1.9863 -0.9622
 3852SOL    HW223193   4.456   1.520  17.720  0.5517  2.6002  0.9549
 3853SOL     OW23194   0.623   3.415   2.886 -0.1090 -0.3604  0.3031
 3853SOL    HW123195   0.567   3.395   2.811 -0.6757  1.0980  0.3263
 3853SOL    HW223196   0.560   3.391   2.954  0.0855 -1.4925  0.0801
 3854SOL     OW23197   2.019   1.609  10.434 -0.0944  0.0785 -0.8716
 3854SOL    HW123198   2.115   1.608  10.433 -0.0951 -1.0283 -0.8586
 3854SOL    HW223199   1.991   1.655  10.355 -5.1113 -1.6210 -0.0847
 3855SOL     OW23200   4.002   2.651   1.831  0.1217 -0.1711 -0.0679
 3855SOL    HW123201   3.938   2.669   1.899  2.8226  0.1546  2.3649
 3855SOL    HW223202   3.952   2.613   1.759 -2.6049  1.0773  1.1901
 3856SOL     OW23203   3.104   2.366   2.891  0.1884  0.0480  0.2011
 3856SOL    HW123204   3.189   2.408   2.880 -0.2260  1.0221  0.6658
 3856SOL    HW223205   3.039   2.436   2.886  0.1075  0.2177  3.2014
 3857SOL     OW23206   0.523   0.310   5.218  0.5663  0.2461  0.8131
 3857SOL    HW123207   0.428   0.310   5.205  0.5729 -0.4932  0.7648
 3857SOL    HW223208   0.544   0.394   5.178 -1.9717 -0.7956 -2.6757
 3858SOL     OW23209   0.076   2.138  15.024  0.1353  0.0111  0.0603
 3858SOL    HW123210   0.131   2.130  15.102 -0.7868 -0.0569  0.7100
 3858SOL    HW223211   0.139   2.170  14.960  3.1330 -0.0285  2.9775
 3859SOL     OW23212   3.057   0.704   4.114  0.3855 -0.4844  0.9014
 3859SOL    HW123213   3.091   0.752   4.189  1.4017  1.7028 -0.9273
 3859SOL    HW223214   2.986   0.758   4.080  0.2479 -0.2728  1.5286
 3860SOL     OW23215   3.430   4.259   5.891  0.1225  0.1703 -0.2095
 3860SOL    HW123216   3.430   4.301   5.977 -2.2704  0.8490 -0.5658
 3860SOL    HW223217   3.417   4.168   5.921  1.8900 -0.1398 -0.3484
 3861SOL     OW23218   1.971   0.232   8.057 -0.3905 -0.0646  0.2339
 3861SOL    HW123219   1.881   0.219   8.089 -0.0903 -0.4804  0.9215
 3861SOL    HW223220   1.968   0.325   8.038  2.5237 -0.0690 -0.2305
 3862SOL     OW23221   1.792   2.316  15.008  0.7179 -0.1755  0.5309
 3862SOL    HW123222   1.698   2.333  15.013  0.4773 -0.8683 -1.4968
 3862SOL    HW223223   1.803   2.380  14.938  0.0282  0.4792  1.0252
 3863SOL     OW23224   2.458   2.151   7.984  0.4305  0.8758 -0.2999
 3863SOL    HW123225   2.374   2.169   8.027  1.2767  0.6816  1.4196
 3863SOL    HW223226   2.443   2.063   7.948 -1.6003  0.4419  1.6171
 3864SOL     OW23227   2.166   3.466   6.525  0.0010  0.2789  0.0035
 3864SOL    HW123228   2.142   3.535   6.464 -2.4976 -1.7506 -1.3048
 3864SOL    HW223229   2.091   3.476   6.583  0.6463 -1.0824  1.0699
 3865SOL     OW23230   1.884   3.920  17.467  0.0154 -0.9210 -0.3554
 3865SOL    HW123231   1.894   3.829  17.441 -1.4525 -1.0601 -0.4679
 3865SOL    HW223232   1.926   3.960  17.391 -1.3882  0.0552 -0.6225
 3866SOL     OW23233   3.692   3.338   7.860  0.6880  0.1808  0.2630
 3866SOL    HW123234   3.714   3.362   7.770  0.7612  0.1164  0.2634
 3866SOL    HW223235   3.677   3.426   7.895  0.6867 -0.4309  1.7970
 3867SOL     OW23236   3.368   0.679   6.285 -0.3457 -0.0327  0.2217
 3867SOL    HW123237   3.426   0.717   6.351 -0.2660 -1.8304  1.1810
 3867SOL    HW223238   3.320   0.757   6.256  0.1255 -0.7860 -2.5501
 3868SOL     OW23239   1.537   3.184   0.851  1.0172  0.0169 -0.7675
 3868SOL    HW123240   1.480   3.150   0.919  1.9983  0.0241  0.0674
 3868SOL    HW223241   1.607   3.218   0.906 -0.0458 -0.1776  0.6885
 3869SOL     OW23242   2.641   3.375   5.251 -0.6187  0.0518 -0.1745
 3869SOL    HW123243   2.690   3.404   5.175 -0.8467 -0.0291 -0.3524
 3869SOL    HW223244   2.569   3.438   5.248  0.1425  0.9573  0.9926
 3870SOL     OW23245   1.814   3.959   6.334 -0.1050 -0.2468  0.1988
 3870SOL    HW123246   1.834   3.917   6.251 -2.1925 -0.6369 -0.1135
 3870SOL    HW223247   1.720   3.943   6.339 -0.1566 -0.3387 -1.0718
 3871SOL     OW23248   3.248   1.599  15.248 -0.2485  0.4476  0.2211
 3871SOL    HW123249   3.270   1.660  15.177  1.8971  0.9544  1.3136
 3871SOL    HW223250   3.155   1.601  15.225 -0.3660 -1.5992  0.4938
 3872SOL     OW23251   1.109   4.191   8.468 -0.2202  0.2448  0.0926
 3872SOL    HW123252   1.038   4.237   8.512  0.0342  0.0826  0.6724
 3872SOL    HW223253   1.112   4.229   8.380  3.4520 -0.1871  0.0456
 3873SOL     OW23254   3.532   1.037   0.967  0.2764  0.5876 -0.0633
 3873SOL    HW123255   3.507   1.129   0.961 -1.3736  0.1889  0.7589
 3873SOL    HW223256   3.485   1.006   1.044  1.8885  0.1809  0.7692
 3874SOL     OW23257   2.325   2.824  14.429 -0.1524  0.3976  0.4250
 3874SOL    HW123258   2.403   2.838  14.483  1.5629 -0.5245 -1.8108
 3874SOL    HW223259   2.359   2.775  14.353  1.3701  0.3154  1.1550
 3875SOL     OW23260   1.280   4.278  16.789 -0.5250 -0.1283  0.2393
 3875SOL    HW123261   1.357   4.276  16.733 -0.1529 -0.4158  0.7674
 3875SOL    HW223262   1.253   4.369  16.774  0.1566  0.5476  3.1349
 3876SOL     OW23263   4.235   4.424  17.170 -0.1166  0.2562 -0.7481
 3876SOL    HW123264   4.288   4.344  17.169 -0.0060  0.3416 -1.5259
 3876SOL    HW223265   4.212   4.433  17.077 -2.3495 -2.2696 -0.4695
 3877SOL     OW23266   1.048   3.568   7.264 -0.3518 -0.4023 -0.2267
 3877SOL    HW123267   1.055   3.491   7.320 -2.1875 -1.4249 -1.3960
 3877SOL    HW223268   1.139   3.594   7.276  0.1853 -3.0397  1.3817
 3878SOL     OW23269   3.769   3.673   6.290  0.4349  0.6053  0.3451
 3878SOL    HW123270   3.696   3.612   6.303  0.9667  0.5741  3.0695
 3878SOL    HW223271   3.842   3.611   6.289 -1.1670 -1.2929  1.8580
 3879SOL     OW23272   0.937   0.997   3.547 -0.2771 -0.1233  0.2186
 3879SOL    HW123273   0.936   0.925   3.610  5.9010 -0.2955  0.0865
 3879SOL    HW223274   0.862   0.959   3.501  0.8030 -1.2948 -0.5690
 3880SOL     OW23275   4.052   1.846   5.892  0.5562 -0.3541  0.2494
 3880SOL    HW123276   4.138   1.881   5.871 -0.1890  2.0247  1.1775
 3880SOL    HW223277   4.027   1.913   5.956  0.4272 -0.3133  0.1547
 3881SOL     OW23278   0.040   4.418   1.422  0.7484 -0.1642  0.5052
 3881SOL    HW123279   0.044   4.374   1.507  0.8712  0.2332  0.7058
 3881SOL    HW223280   0.031   4.510   1.446  3.2396  0.6734 -1.7391
 3882SOL     OW23281   4.366   1.060   8.408 -0.3345 -0.0064  0.2921
 3882SOL    HW123282   4.287   1.028   8.364 -1.2460  0.3724  1.6707
 3882SOL    HW223283   4.353   1.014   8.491 -0.2059 -1.1640 -0.3243
 3883SOL     OW23284   4.388   2.360   8.972 -0.9060 -0.4484  0.5989
 3883SOL    HW123285   4.424   2.286   8.923  0.1317  0.2707  0.2635
 3883SOL    HW223286   4.295   2.339   8.960 -0.2117 -4.3746  2.0813
 3884SOL     OW23287   4.445   1.617   3.867 -0.2861 -0.0554  0.1505
 3884SOL    HW123288   4.385   1.683   3.834  0.0147  0.0569 -0.1663
 3884SOL    HW223289   4.517   1.619   3.804  0.0518  0.3818  0.5512
 3885SOL     OW23290   1.757   2.577   1.464 -0.2970  0.7917 -0.2125
 3885SOL    HW123291   1.704   2.499   1.478 -0.1227  0.5491 -0.9358
 3885SOL    HW223292   1.693   2.616   1.405 -1.3923 -0.8167 -0.0635
 3886SOL     OW23293   3.275   4.445  11.470 -0.2098  0.3262  0.1619
 3886SOL    HW123294   3.278   4.410  11.559  0.3493  2.2450  0.8985
 3886SOL    HW223295   3.340   4.513  11.486  0.9046 -0.5620 -0.5873
 3887SOL     OW23296   2.670   0.870   6.771 -0.0284  0.0170 -0.0749
 3887SOL    HW123297   2.642   0.790   6.818  0.2270  0.6044  1.0826
 3887SOL    HW223298   2.595   0.885   6.713  1.4718  0.1476 -1.9599
 3888SOL     OW23299   0.166   4.106   2.566 -0.5064 -0.1195  0.0958
 3888SOL    HW123300   0.183   4.012   2.558 -1.0454 -0.1944 -0.1025
 3888SOL    HW223301   0.167   4.129   2.473 -0.7331  1.1664  0.4126
 3889SOL     OW23302   2.178   3.011   8.861 -0.3762 -0.6411 -0.3948
 3889SOL    HW123303   2.261   2.966   8.846 -0.8898 -1.2196 -1.4742
 3889SOL    HW223304   2.150   3.028   8.771 -1.2081  0.7856  0.1322
 3890SOL     OW23305   0.592   1.492   6.758  0.0064 -0.5727  0.7617
 3890SOL    HW123306   0.641   1.490   6.676 -0.3590  0.2082  0.5170
 3890SOL    HW223307   0.663   1.502   6.821  2.2335  0.0240 -1.8468
 3891SOL     OW23308   0.893   3.738  14.576 -0.0559 -0.7998  0.7993
 3891SOL    HW123309   0.965   3.793  14.607 -0.8841  0.3701  0.6451
 3891SOL    HW223310   0.831   3.805  14.547 -0.4203 -0.7861  1.6130
 3892SOL     OW23311   1.220   3.102  14.979 -0.3347  0.4146 -0.2584
 3892SOL    HW123312   1.261   3.153  14.910  1.1478  1.5022  1.4140
 3892SOL    HW223313   1.167   3.164  15.029  2.1119  1.9590  0.3909
 3893SOL     OW23314   3.558   4.357   7.328  0.0790 -0.2533  0.0168
 3893SOL    HW123315   3.474   4.313   7.324  0.2235 -0.3574 -1.7644
 3893SOL    HW223316   3.596   4.312   7.253  0.1628 -0.1359 -0.0113
 3894SOL     OW23317   3.995   4.094   4.786  0.7045  0.0116 -0.4013
 3894SOL    HW123318   4.052   4.017   4.785 -1.8693 -1.8686 -1.0816
 3894SOL    HW223319   3.936   4.056   4.722 -0.0837  0.6918 -0.0725
 3895SOL     OW23320   1.360   1.961  16.460 -0.3981 -0.8539 -0.1688
 3895SOL    HW123321   1.366   2.024  16.531 -2.1967  1.5184 -2.1235
 3895SOL    HW223322   1.394   2.010  16.385 -0.9205 -1.0365 -0.5296
 3896SOL     OW23323   2.722   4.554   7.856  0.0711 -0.1668  0.1555
 3896SOL    HW123324   2.699   4.579   7.946  2.3923 -1.4554  1.1029
 3896SOL    HW223325   2.664   4.483   7.828  0.1705  0.3144 -1.2443
 3897SOL     OW23326   1.838   2.202   1.855 -0.7241 -0.2012 -0.2989
 3897SOL    HW123327   1.896   2.132   1.881  0.3792  0.9898  0.4334
 3897SOL    HW223328   1.771   2.147   1.813 -0.9557  1.8377 -2.6449
 3898SOL     OW23329   0.675   2.954   9.373  0.2673  0.0514 -0.1621
 3898SOL    HW123330   0.739   3.001   9.426  1.2672  1.2626 -2.4343
 3898SOL    HW223331   0.661   3.011   9.297 -0.7621  1.2428  0.9356
 3899SOL     OW23332   1.822   2.836   6.232  0.0352 -0.3587  0.3438
 3899SOL    HW123333   1.871   2.773   6.179 -0.4843  0.0870 -0.6672
 3899SOL    HW223334   1.746   2.788   6.264 -0.2408  0.6672  1.2189
 3900SOL     OW23335   2.173   2.074   3.820 -0.0248  0.1518  0.4156
 3900SOL    HW123336   2.144   1.987   3.795 -1.3117 -0.7137  4.7784
 3900SOL    HW223337   2.241   2.050   3.884  0.8074  0.7472 -0.2360
 3901SOL     OW23338   1.620   2.114   3.019 -0.1272  0.1363  0.3932
 3901SOL    HW123339   1.640   2.157   3.102  0.2879  0.5283  0.0889
 3901SOL    HW223340   1.549   2.166   2.981  0.0157  1.0743  1.4139
 3902SOL     OW23341   3.993   1.688   6.259  0.5221  0.2071 -0.0963
 3902SOL    HW123342   3.899   1.679   6.270  0.8202 -0.1676  2.0540
 3902SOL    HW223343   4.016   1.770   6.304 -1.6325  1.3508 -1.0884
 3903SOL     OW23344   4.275   2.488   6.927  0.2063  0.3631  0.1823
 3903SOL    HW123345   4.327   2.448   6.997 -2.8906  0.0380  2.3424
 3903SOL    HW223346   4.236   2.563   6.974 -1.6701  1.0094 -2.4099
 3904SOL     OW23347   2.645   1.892   3.144  0.1330  0.1980 -0.1454
 3904SOL    HW123348   2.561   1.934   3.122  1.4477  3.1422  0.4374
 3904SOL    HW223349   2.705   1.966   3.151 -1.3675  1.0113  3.6857
 3905SOL     OW23350   4.285   1.026   1.065 -0.5583  0.1168 -0.0018
 3905SOL    HW123351   4.271   1.073   0.983 -1.8305 -1.1967 -0.5317
 3905SOL    HW223352   4.212   0.966   1.051 -1.2955  0.5997  1.7430
 3906SOL     OW23353   2.906   3.579   6.385 -0.2989 -0.0190  0.2558
 3906SOL    HW123354   2.979   3.517   6.383  0.0357  0.3506  0.9335
 3906SOL    HW223355   2.837   3.526   6.346 -0.5883  1.3162 -1.0343
 3907SOL     OW23356   2.381   1.086   3.278 -0.0394 -0.2694 -0.5443
 3907SOL    HW123357   2.411   1.048   3.195 -2.7778  0.3318 -1.8030
 3907SOL    HW223358   2.431   1.167   3.279 -0.1459 -0.2033 -0.5773
 3908SOL     OW23359   2.866   3.338   1.762  0.2446 -0.0200  0.1173
 3908SOL    HW123360   2.776   3.336   1.732  0.3022 -2.6243  0.0646
 3908SOL    HW223361   2.868   3.258   1.815  1.6320 -1.8646 -2.7222
 3909SOL     OW23362   4.093   4.166   3.770  0.1377 -0.0497  0.1804
 3909SOL    HW123363   4.104   4.131   3.682 -0.6392 -0.0957  0.1003
 3909SOL    HW223364   4.001   4.142   3.777  0.5016 -0.9646  1.7176
 3910SOL     OW23365   0.239   3.641  15.714  0.1702  0.3944  0.2615
 3910SOL    HW123366   0.267   3.600  15.796  0.3996  1.3736  0.6730
 3910SOL    HW223367   0.192   3.717  15.747 -1.7406 -1.3834  1.6634
 3911SOL     OW23368   2.270   3.948   7.371  0.1453  0.3565  0.1951
 3911SOL    HW123369   2.222   3.866   7.353  0.9033  0.3121 -1.6193
 3911SOL    HW223370   2.197   4.008   7.389  0.5703  0.8739  0.1772
 3912SOL     OW23371   1.910   4.078   3.948 -0.6669  0.3462 -0.2128
 3912SOL    HW123372   1.932   4.078   3.855  0.4316 -0.7096  0.0421
 3912SOL    HW223373   1.814   4.085   3.951 -0.6011  0.8682  0.5496
 3913SOL     OW23374   1.370   4.500   9.380  0.0918  0.4283  0.5782
 3913SOL    HW123375   1.362   4.519   9.286  0.9762  0.2841  0.4730
 3913SOL    HW223376   1.336   4.583   9.413  0.2547  0.7324 -0.0199
 3914SOL     OW23377   0.404   3.461   0.698  0.0809  0.0545  0.1412
 3914SOL    HW123378   0.459   3.385   0.682  2.6990  2.0262 -0.3297
 3914SOL    HW223379   0.474   3.522   0.722  0.9403 -1.0315  0.3328
 3915SOL     OW23380   0.359   1.562  16.380  1.0330  0.3520 -0.3682
 3915SOL    HW123381   0.408   1.643  16.393 -0.7141  1.4306 -0.4783
 3915SOL    HW223382   0.300   1.555  16.455  3.1396 -0.4136  1.2200
 3916SOL     OW23383   4.056   4.030   8.192  0.3485 -0.2573 -0.8017
 3916SOL    HW123384   3.999   4.034   8.116 -0.6900 -2.6128 -0.1669
 3916SOL    HW223385   4.143   4.020   8.154  1.2958  0.1105  1.2596
 3917SOL     OW23386   1.019   3.521   8.600  0.4345 -0.3481  0.4639
 3917SOL    HW123387   1.105   3.535   8.560  0.7466 -4.3103 -0.2621
 3917SOL    HW223388   0.974   3.590   8.551 -1.0242  0.2673  2.6762
 3918SOL     OW23389   4.568   2.038   5.204  0.4088 -0.1261  0.2809
 3918SOL    HW123390   4.487   2.075   5.168  0.1446 -0.6622  0.3246
 3918SOL    HW223391   4.603   2.116   5.247 -2.2827  1.5573 -0.5512
 3919SOL     OW23392   4.045   4.598  12.630  0.5269 -0.1211  0.4582
 3919SOL    HW123393   4.016   4.689  12.623  1.6813  0.0363 -2.4890
 3919SOL    HW223394   3.989   4.558  12.696  0.3280 -0.1474  0.2731
 3920SOL     OW23395   2.800   4.341  15.006 -0.2567 -0.4071 -0.6954
 3920SOL    HW123396   2.888   4.311  14.984 -0.3005 -0.1439 -1.2124
 3920SOL    HW223397   2.756   4.330  14.922  2.1152 -0.4098 -1.9263
 3921SOL     OW23398   3.042   1.435  14.205 -0.2055  0.1467 -0.3341
 3921SOL    HW123399   3.043   1.495  14.131 -0.0415  0.2310 -0.2632
 3921SOL    HW223400   3.070   1.493  14.276  0.9939  2.0469 -2.3655
 3922SOL     OW23401   0.107   0.754   3.671 -0.0494 -0.2762  0.2860
 3922SOL    HW123402   0.021   0.730   3.637 -0.5545  1.9231  0.0174
 3922SOL    HW223403   0.163   0.676   3.672 -0.9047 -0.9052  0.0106
 3923SOL     OW23404   1.183   3.562   6.444 -0.0073 -0.3134 -0.5910
 3923SOL    HW123405   1.123   3.533   6.375  0.2736  1.3750 -1.5419
 3923SOL    HW223406   1.130   3.564   6.524 -1.1793 -0.1738 -1.3765
 3924SOL     OW23407   3.894   0.537   5.322  0.2237 -0.3359 -0.0569
 3924SOL    HW123408   3.799   0.537   5.329  0.4418 -0.0755  2.8161
 3924SOL    HW223409   3.910   0.443   5.315 -0.2871 -0.5843  2.0872
 3925SOL     OW23410   1.643   2.161   4.094 -0.1066 -0.1609  0.0218
 3925SOL    HW123411   1.586   2.183   4.020 -2.4081 -1.3893  1.4536
 3925SOL    HW223412   1.580   2.146   4.164  1.4628 -2.7003  0.8897
 3926SOL     OW23413   2.593   1.883   3.902 -0.3304 -0.2159 -0.3316
 3926SOL    HW123414   2.656   1.812   3.915  0.6858  0.4795 -1.4790
 3926SOL    HW223415   2.516   1.826   3.915 -0.5780  0.1605 -0.1625
 3927SOL     OW23416   1.380   0.768   8.220 -0.1567  0.4527  0.7188
 3927SOL    HW123417   1.325   0.773   8.298 -2.8539  0.7664 -1.1713
 3927SOL    HW223418   1.365   0.674   8.206  1.0664  0.5661 -1.4530
 3928SOL     OW23419   1.752   0.489   1.306  0.1136  0.1306  0.1681
 3928SOL    HW123420   1.743   0.496   1.211  0.9009 -0.7667  0.0253
 3928SOL    HW223421   1.835   0.441   1.308 -2.3446 -4.0693  1.6345
 3929SOL     OW23422   3.464   1.391   6.878 -0.0450  0.2561  0.3410
 3929SOL    HW123423   3.414   1.355   6.952  2.5626  0.4255  2.1873
 3929SOL    HW223424   3.518   1.314   6.860 -1.5903 -0.8203  0.2146
 3930SOL     OW23425   1.313   2.095  11.160 -0.1034  0.1691  0.0792
 3930SOL    HW123426   1.343   2.117  11.248  1.6128 -1.3837 -0.1274
 3930SOL    HW223427   1.304   2.179  11.116  0.1326 -0.3596 -0.9622
 3931SOL     OW23428   0.122   1.569  10.744  0.1393  0.3278 -0.1593
 3931SOL    HW123429   0.082   1.495  10.697  0.1471  0.6842 -0.7297
 3931SOL    HW223430   0.119   1.535  10.833  1.4429 -2.0163 -1.0075
 3932SOL     OW23431   0.038   4.592   5.441 -0.3732 -0.7374 -0.2391
 3932SOL    HW123432   0.025   4.618   5.533 -2.5158  1.1855 -1.0853
 3932SOL    HW223433   4.695   4.626   5.401 -0.6458 -0.3135  0.6556
 3933SOL     OW23434   2.067   0.514   5.183  0.3034  0.1367  0.2837
 3933SOL    HW123435   2.027   0.474   5.260  0.5823 -0.1931  0.2580
 3933SOL    HW223436   2.159   0.510   5.209 -0.0533  2.7386  1.9476
 3934SOL     OW23437   3.664   0.723   2.510 -0.0307 -0.1264 -0.0053
 3934SOL    HW123438   3.725   0.794   2.532 -1.4762  1.8235 -2.1806
 3934SOL    HW223439   3.580   0.770   2.508 -0.2692 -0.5380  0.5536
 3935SOL     OW23440   0.509   1.822   5.236  0.7419 -0.6930 -0.5433
 3935SOL    HW123441   0.545   1.873   5.163  0.3177  1.8153  1.0007
 3935SOL    HW223442   0.581   1.828   5.299 -2.7764 -0.1386  3.4443
 3936SOL     OW23443   0.107   1.404   6.965  0.0299 -0.1868 -0.2408
 3936SOL    HW123444   0.164   1.360   6.901  2.3367  1.3816  0.7135
 3936SOL    HW223445   0.027   1.426   6.917 -0.0841 -0.2061 -0.0585
 3937SOL     OW23446   4.345   2.668   7.714 -0.1007  0.4855 -0.4252
 3937SOL    HW123447   4.283   2.646   7.783 -0.1787 -0.3504 -0.7577
 3937SOL    HW223448   4.433   2.653   7.748 -1.0874 -0.0649  1.8764
 3938SOL     OW23449   2.216   3.605   6.206  0.0941  0.1146  0.1911
 3938SOL    HW123450   2.202   3.697   6.225 -0.0131  0.0686  0.3344
 3938SOL    HW223451   2.133   3.588   6.161 -0.0021  0.4547  0.2457
 3939SOL     OW23452   3.528   3.648  14.435 -0.0695 -0.5029 -0.3205
 3939SOL    HW123453   3.586   3.587  14.480  2.6988  0.4872 -2.5601
 3939SOL    HW223454   3.574   3.672  14.355 -1.2991  1.3577 -0.4655
 3940SOL     OW23455   2.372   4.051   3.459 -0.1295  0.0615  0.2596
 3940SOL    HW123456   2.408   4.016   3.378 -0.7523  2.9391 -1.2561
 3940SOL    HW223457   2.434   4.118   3.490  1.1107 -1.1258  0.3782
 3941SOL     OW23458   0.277   3.032   2.069 -0.3664  0.7072  0.1360
 3941SOL    HW123459   0.214   3.058   2.003 -0.6880  0.6657  0.4250
 3941SOL    HW223460   0.363   3.062   2.039  0.3184 -0.3417  1.0280
 3942SOL     OW23461   2.848   0.122  11.402 -0.1128 -0.8137  0.0723
 3942SOL    HW123462   2.913   0.055  11.426  1.1067  0.3873  0.0792
 3942SOL    HW223463   2.772   0.098  11.456  0.6139 -2.1487  0.5033
 3943SOL     OW23464   3.865   3.687   4.588 -0.7430 -0.7218  1.0381
 3943SOL    HW123465   3.873   3.669   4.494  1.7921 -1.7113  1.4190
 3943SOL    HW223466   3.929   3.629   4.630 -0.6746 -2.7119 -1.8294
 3944SOL     OW23467   1.099   0.906  15.038 -0.6930  0.1425 -0.2884
 3944SOL    HW123468   1.179   0.956  15.050 -0.1096 -1.1617  1.1799
 3944SOL    HW223469   1.037   0.941  15.102 -1.9305 -1.7776 -0.4327
 3945SOL     OW23470   2.034   0.769  13.621  0.8737  0.1323 -0.2251
 3945SOL    HW123471   1.958   0.784  13.677  0.7167 -1.1967 -0.0851
 3945SOL    HW223472   2.068   0.855  13.597  1.1842  0.0987  0.1029
 3946SOL     OW23473   3.551   0.711   8.222 -0.2662 -0.1212  0.3466
 3946SOL    HW123474   3.561   0.802   8.248  1.1458 -0.2931  0.3940
 3946SOL    HW223475   3.626   0.705   8.163 -1.3311 -0.3011 -0.9748
 3947SOL     OW23476   0.354   1.997   2.250  0.4289 -0.4070 -0.2966
 3947SOL    HW123477   0.329   2.063   2.185 -1.3819 -0.3332  0.4574
 3947SOL    HW223478   0.407   2.047   2.313  0.5131 -0.6025 -0.2142
 3948SOL     OW23479   3.524   1.118   5.714  0.3256 -0.3365 -0.1362
 3948SOL    HW123480   3.459   1.073   5.769  0.6686  0.8642  1.2524
 3948SOL    HW223481   3.496   1.209   5.709 -0.0586 -0.3822  1.0554
 3949SOL     OW23482   1.812   1.956   6.296  0.9697  0.5869  0.1250
 3949SOL    HW123483   1.845   1.966   6.386  2.4679 -0.4883 -0.3073
 3949SOL    HW223484   1.828   2.042   6.258 -0.3117  0.6016 -0.3753
 3950SOL     OW23485   3.480   1.049   5.414  0.1194 -0.1833 -0.6965
 3950SOL    HW123486   3.562   1.006   5.393  1.6617  2.1918  0.4796
 3950SOL    HW223487   3.475   1.028   5.508  2.0576 -1.4536 -0.8860
 3951SOL     OW23488   0.080   3.217   8.030  0.1747  0.4971 -0.0562
 3951SOL    HW123489   0.158   3.164   8.046  0.5860  0.7216 -1.3308
 3951SOL    HW223490   0.036   3.210   8.115  1.6145  0.7664  0.7061
 3952SOL     OW23491   2.151   2.865   4.607 -0.8522  0.2758 -0.2001
 3952SOL    HW123492   2.219   2.840   4.544  0.0346 -0.0342  0.8683
 3952SOL    HW223493   2.078   2.863   4.546 -0.2081  0.7134 -0.9884
 3953SOL     OW23494   4.092   0.448   8.357  0.4497  0.4444 -0.3379
 3953SOL    HW123495   4.161   0.431   8.420  0.5403  2.0230 -0.0223
 3953SOL    HW223496   4.116   0.386   8.288 -0.5716 -1.0750  0.6607
 3954SOL     OW23497   0.731   1.392   4.535  0.4383 -0.0661 -0.0754
 3954SOL    HW123498   0.642   1.391   4.501  0.2314 -1.0441  0.4714
 3954SOL    HW223499   0.747   1.298   4.525  0.0850 -0.1618  0.2920
 3955SOL     OW23500   0.809   4.379  10.983  0.0417 -0.3341 -0.0371
 3955SOL    HW123501   0.755   4.350  10.909 -1.7120  1.0803  0.6807
 3955SOL    HW223502   0.812   4.296  11.031 -2.1230 -0.2782  0.1998
 3956SOL     OW23503   0.175   0.190  12.690  0.5421  0.3158  0.0724
 3956SOL    HW123504   0.141   0.101  12.696  3.4842 -1.0724 -3.5444
 3956SOL    HW223505   0.093   0.236  12.670  0.4652  0.8418  1.5759
 3957SOL     OW23506   4.505   2.983  10.584 -0.0203  0.4015 -0.1563
 3957SOL    HW123507   4.538   2.931  10.510 -0.3651 -2.1153  1.4382
 3957SOL    HW223508   4.536   3.067  10.552  0.1134 -0.3225 -1.9660
 3958SOL     OW23509   3.005   3.357   4.554 -0.5063 -0.2155  0.4564
 3958SOL    HW123510   2.969   3.288   4.498 -0.1848 -1.9480  2.3705
 3958SOL    HW223511   3.014   3.423   4.486  1.6474  0.2276  1.1821
 3959SOL     OW23512   0.353   4.122   3.595  0.1792  1.0734 -0.2184
 3959SOL    HW123513   0.279   4.095   3.649  1.2621  1.0871  1.2422
 3959SOL    HW223514   0.326   4.205   3.557 -1.8389 -0.6092 -2.5460
 3960SOL     OW23515   4.059   0.393  12.046  0.1345  0.0485  0.5694
 3960SOL    HW123516   4.045   0.314  12.099  3.3606  0.0977  1.5551
 3960SOL    HW223517   4.048   0.364  11.956  2.7311  3.4774 -0.8434
 3961SOL     OW23518   0.311   3.507  15.942  0.2743 -0.0596 -0.4890
 3961SOL    HW123519   0.287   3.564  16.015 -1.1940 -0.8755 -0.3367
 3961SOL    HW223520   0.303   3.423  15.988  0.7971  0.0510 -0.1978
 3962SOL     OW23521   3.218   1.537   0.059 -0.4749  0.2328 -0.4263
 3962SOL    HW123522   3.301   1.579   0.078 -0.7769  0.6464 -0.0286
 3962SOL    HW223523   3.167   1.597   0.003 -1.6044 -0.1656  0.1839
 3963SOL     OW23524   2.966   2.670   2.307  0.2144 -0.5139  0.0731
 3963SOL    HW123525   2.890   2.658   2.250  0.3073 -1.0079  0.0501
 3963SOL    HW223526   2.987   2.576   2.308 -0.3323 -0.6088  1.8550
 3964SOL     OW23527   4.192   0.314   6.357 -0.0498 -0.3916  0.1149
 3964SOL    HW123528   4.269   0.271   6.394 -0.7449 -0.6230  1.3103
 3964SOL    HW223529   4.145   0.315   6.440 -1.4091  0.0798 -0.6630
 3965SOL     OW23530   3.729   2.917   8.307 -0.3966 -0.1420  0.8136
 3965SOL    HW123531   3.656   2.977   8.320 -2.0721 -2.1923  0.7757
 3965SOL    HW223532   3.680   2.845   8.268  1.0559 -0.3277 -0.6911
 3966SOL     OW23533   1.099   0.188   4.169  0.0527 -0.0873  0.0533
 3966SOL    HW123534   1.187   0.156   4.189  1.4229  3.5505 -0.2331
 3966SOL    HW223535   1.091   0.167   4.076  0.4520 -0.2044  0.0479
 3967SOL     OW23536   0.917   3.941   8.950 -0.0253 -0.1902 -0.2853
 3967SOL    HW123537   0.989   3.878   8.956  0.2130  0.0786 -0.3030
 3967SOL    HW223538   0.963   4.002   8.892  0.2292  0.3367  0.4708
 3968SOL     OW23539   1.468   4.068  17.388 -0.1931  0.1161 -0.0736
 3968SOL    HW123540   1.489   4.160  17.370 -0.9063 -0.2405 -2.6613
 3968SOL    HW223541   1.541   4.046  17.446 -0.0835  2.8635  0.8517
 3969SOL     OW23542   3.769   4.514   6.380 -0.6312  0.7023 -0.5148
 3969SOL    HW123543   3.807   4.596   6.412 -1.3069  1.4965 -1.8084
 3969SOL    HW223544   3.705   4.492   6.448 -0.3179 -1.4518 -0.9060
 3970SOL     OW23545   4.435   4.289   7.038  0.5680 -0.0798  0.1739
 3970SOL    HW123546   4.364   4.346   7.069 -0.1169  0.0788 -1.7038
 3970SOL    HW223547   4.411   4.199   7.060  2.5088 -0.6174  0.0875
 3971SOL     OW23548   3.388   3.342   8.248 -0.5985  0.2140  0.1568
 3971SOL    HW123549   3.421   3.399   8.318  1.1763 -1.8365  1.0068
 3971SOL    HW223550   3.337   3.275   8.294 -2.6736  0.9853 -1.0172
 3972SOL     OW23551   4.194   3.235   4.832  0.2408 -0.1705  0.0669
 3972SOL    HW123552   4.135   3.235   4.908  1.1875  0.7510  0.8062
 3972SOL    HW223553   4.242   3.316   4.850 -1.2408 -0.1091  3.9464
 3973SOL     OW23554   3.602   0.592   7.962  0.3365 -0.3958  0.4776
 3973SOL    HW123555   3.654   0.525   7.918  1.0784  1.4170 -1.3919
 3973SOL    HW223556   3.523   0.549   7.996  0.7779 -2.3831 -0.9791
 3974SOL     OW23557   0.214   4.100   6.629 -0.2557 -0.3749 -0.3437
 3974SOL    HW123558   0.167   4.020   6.607  0.1030 -0.6659 -0.0669
 3974SOL    HW223559   0.148   4.160   6.663 -0.3595  0.0284 -1.2565
 3975SOL     OW23560   3.339   1.308   5.387  0.0255  0.3114 -0.5090
 3975SOL    HW123561   3.391   1.232   5.362 -0.0915 -0.0819  0.4218
 3975SOL    HW223562   3.399   1.352   5.448  1.6586 -2.0558 -0.4237
 3976SOL     OW23563   2.281   2.655  10.406  0.1821 -0.4109 -0.5451
 3976SOL    HW123564   2.342   2.686  10.340  1.2261 -0.4947  0.3893
 3976SOL    HW223565   2.236   2.735  10.435  0.9675 -0.0586 -0.2860
 3977SOL     OW23566   0.235   2.856   6.738 -0.3749 -0.4006 -0.5857
 3977SOL    HW123567   0.260   2.796   6.808 -1.6824 -1.6103 -1.1547
 3977SOL    HW223568   0.216   2.930   6.796  0.0775  0.1959 -1.1996
 3978SOL     OW23569   2.162   2.362   6.516  0.3866 -0.0247 -0.1348
 3978SOL    HW123570   2.092   2.381   6.454  1.4743  1.1460 -1.0069
 3978SOL    HW223571   2.139   2.276   6.552  2.8819 -0.2993  0.8316
 3979SOL     OW23572   2.818   4.174   1.214 -0.1217 -0.1526 -0.3889
 3979SOL    HW123573   2.863   4.224   1.145 -0.6749 -0.3242 -0.8732
 3979SOL    HW223574   2.852   4.218   1.292 -1.8305  1.1359 -0.3690
 3980SOL     OW23575   2.315   1.715  14.936 -0.2383  0.0344  0.0878
 3980SOL    HW123576   2.305   1.784  15.001  2.4233 -0.0462  0.5733
 3980SOL    HW223577   2.384   1.663  14.976 -0.1702 -0.2159 -0.3587
 3981SOL     OW23578   1.178   0.686   6.326  0.7413 -0.4862  0.4147
 3981SOL    HW123579   1.145   0.637   6.251 -1.2730  0.5390  0.6540
 3981SOL    HW223580   1.188   0.774   6.290 -0.5185  0.0410  1.3726
 3982SOL     OW23581   1.617   3.715   0.558  0.5708 -0.0139  0.0722
 3982SOL    HW123582   1.636   3.631   0.599 -1.3467 -0.6983 -0.4263
 3982SOL    HW223583   1.693   3.759   0.595 -0.9028  1.0418  1.8693
 3983SOL     OW23584   2.974   3.515   2.122  0.3124  0.4118  0.7064
 3983SOL    HW123585   3.026   3.576   2.175  1.2638  0.4823 -0.3268
 3983SOL    HW223586   2.960   3.445   2.186  1.2808  1.2049  1.7984
 3984SOL     OW23587   2.254   0.552  15.360  0.2986 -0.5406  0.0070
 3984SOL    HW123588   2.336   0.503  15.356 -0.1153 -0.9606 -3.3305
 3984SOL    HW223589   2.196   0.486  15.398  0.7857 -0.3689  1.0176
 3985SOL     OW23590   0.992   2.015   6.410 -0.2143  0.0406 -0.2509
 3985SOL    HW123591   0.991   1.927   6.372 -0.5736 -1.1402  2.5230
 3985SOL    HW223592   1.009   2.053   6.324 -1.1713  0.4889 -0.2438
 3986SOL     OW23593   1.118   4.420   6.115  0.1496 -0.0388  0.5954
 3986SOL    HW123594   1.123   4.496   6.173  0.7677 -1.0510  1.8612
 3986SOL    HW223595   1.139   4.458   6.029 -1.5976  1.2902  0.7354
 3987SOL     OW23596   2.423   0.458   0.661  0.3563 -0.3168  0.0002
 3987SOL    HW123597   2.517   0.448   0.646  0.3772 -0.7272  0.4128
 3987SOL    HW223598   2.398   0.485   0.573 -2.0918  0.1687  0.8427
 3988SOL     OW23599   3.279   2.811   6.699 -0.2379 -0.3354  0.9063
 3988SOL    HW123600   3.185   2.796   6.686 -0.2941  0.3861  0.4678
 3988SOL    HW223601   3.287   2.881   6.764 -0.4111  1.4030 -0.9281
 3989SOL     OW23602   3.968   3.340   1.115 -0.1231  0.1562  0.6573
 3989SOL    HW123603   3.888   3.292   1.093  0.4630  0.1501 -1.5047
 3989SOL    HW223604   3.928   3.422   1.144 -0.7957 -0.3513  1.1349
 3990SOL     OW23605   3.142   3.463   0.385  0.6184 -0.2247  0.5493
 3990SOL    HW123606   3.089   3.391   0.351  0.7463 -0.4058  0.7371
 3990SOL    HW223607   3.189   3.507   0.314  0.2737 -3.5076 -1.7502
 3991SOL     OW23608   2.242   1.522   9.319  0.1497 -0.5723  0.3383
 3991SOL    HW123609   2.263   1.580   9.391  1.2413 -0.9826  0.3466
 3991SOL    HW223610   2.208   1.593   9.264  0.4031 -0.3481  0.4715
 3992SOL     OW23611   3.433   3.432   2.324 -0.1458  0.5779  0.0753
 3992SOL    HW123612   3.356   3.404   2.373  0.1118  0.8129  0.6217
 3992SOL    HW223613   3.452   3.509   2.378  1.7690 -0.9779  1.6358
 3993SOL     OW23614   3.452   3.580   2.730  0.6365 -0.1340 -0.3455
 3993SOL    HW123615   3.496   3.534   2.801 -0.0098  0.9683  0.7624
 3993SOL    HW223616   3.397   3.648   2.770  1.5849  1.2123 -1.3252
 3994SOL     OW23617   0.365   0.239   8.298  0.3484  0.0846  0.5090
 3994SOL    HW123618   0.429   0.245   8.227  0.7649  0.0735  0.8785
 3994SOL    HW223619   0.420   0.243   8.377  1.1813 -0.3940 -0.0409
 3995SOL     OW23620   1.670   3.245   1.084  0.7526  0.3499 -0.0201
 3995SOL    HW123621   1.757   3.283   1.093  0.4277  1.5256 -1.7783
 3995SOL    HW223622   1.671   3.173   1.148 -0.2770  0.4784  0.1496
 3996SOL     OW23623   3.230   0.334   4.601 -0.1009 -0.0715 -0.0126
 3996SOL    HW123624   3.166   0.311   4.668 -0.7180  1.2835 -0.1413
 3996SOL    HW223625   3.315   0.317   4.642  0.8448  1.9771 -1.1383
 3997SOL     OW23626   0.154   1.795   4.571  0.0608 -0.6512  0.1705
 3997SOL    HW123627   0.233   1.839   4.539 -0.3101 -0.6885 -0.7736
 3997SOL    HW223628   0.124   1.876   4.613  1.6426  0.2045 -0.3361
 3998SOL     OW23629   2.354   3.028   6.330  0.3356  0.3207 -0.6368
 3998SOL    HW123630   2.332   2.938   6.353  0.0126  0.7660  0.8442
 3998SOL    HW223631   2.315   3.070   6.407  2.1594  0.8928 -0.0223
 3999SOL     OW23632   0.655   3.165   4.700 -0.1348 -0.7390  0.2217
 3999SOL    HW123633   0.724   3.216   4.658 -0.8975  1.2380  1.3121
 3999SOL    HW223634   0.592   3.154   4.629  0.0413  0.0018 -0.0538
 4000SOL     OW23635   2.935   4.554   6.416 -0.5445 -0.1903 -0.3191
 4000SOL    HW123636   2.907   4.639   6.381 -0.8247  0.1404  0.7110
 4000SOL    HW223637   2.962   4.568   6.507  0.4202  0.0510 -0.6400
 4001SOL     OW23638   0.443   0.199   3.378  0.2191  0.7569 -0.0786
 4001SOL    HW123639   0.521   0.181   3.325 -0.3190  0.3067 -0.7241
 4001SOL    HW223640   0.454   0.135   3.449  0.0589  1.4869  0.6016
 4002SOL     OW23641   1.002   0.271   5.470 -0.3423 -0.3293 -0.1810
 4002SOL    HW123642   1.036   0.294   5.383  2.3913  0.5082  1.1173
 4002SOL    HW223643   0.907   0.275   5.460 -0.2387 -0.9417 -1.5120
 4003SOL     OW23644   1.610   0.831   2.022 -0.0667  0.2349  0.5834
 4003SOL    HW123645   1.535   0.838   1.963  1.0860  1.6690 -0.7281
 4003SOL    HW223646   1.673   0.885   1.973 -0.7333 -0.8294 -1.4607
 4004SOL     OW23647   2.633   3.293   9.361 -0.6011 -0.4035  0.6343
 4004SOL    HW123648   2.695   3.221   9.356  0.7863  0.6328  3.1525
 4004SOL    HW223649   2.626   3.326   9.272 -0.4576 -1.8857  0.0710
 4005SOL     OW23650   1.880   3.137   2.670 -0.1045  0.0236 -0.3354
 4005SOL    HW123651   1.836   3.065   2.625  2.1673 -1.1341 -0.7145
 4005SOL    HW223652   1.914   3.103   2.753  1.6758 -1.1369 -1.5471
 4006SOL     OW23653   4.114   3.926   6.161 -0.6138 -0.0237  0.2547
 4006SOL    HW123654   4.113   4.015   6.126 -2.5181  0.5846  1.8878
 4006SOL    HW223655   4.145   3.943   6.250 -1.5383  2.8165  0.0494
 4007SOL     OW23656   0.132   1.213   9.071  0.2504  0.3315  0.7334
 4007SOL    HW123657   0.200   1.238   9.133  0.7179  0.3890  0.2008
 4007SOL    HW223658   0.065   1.185   9.133 -0.7499  0.7927 -0.1407
 4008SOL     OW23659   1.461   1.739   5.194  0.2574  0.1971 -0.5454
 4008SOL    HW123660   1.506   1.695   5.266 -0.2738  0.3028 -0.1460
 4008SOL    HW223661   1.379   1.689   5.193  0.7218 -0.5975  1.3946
 4009SOL     OW23662   2.502   0.790   3.359  0.1040  0.1616 -0.4821
 4009SOL    HW123663   2.590   0.774   3.394  0.8112 -0.3604 -2.5078
 4009SOL    HW223664   2.525   0.845   3.284 -0.5036 -0.5829 -1.2060
 4010SOL     OW23665   1.790   0.449   4.792 -0.7611  0.3601  0.0999
 4010SOL    HW123666   1.798   0.507   4.716  0.5570  1.6302  1.2155
 4010SOL    HW223667   1.849   0.471   4.863  2.0483  0.2079 -2.1947
 4011SOL     OW23668   2.769   2.944  11.312 -0.4355  0.7841  0.1342
 4011SOL    HW123669   2.826   2.904  11.377  0.9608  1.9773 -0.3410
 4011SOL    HW223670   2.833   2.943  11.241 -0.8050 -0.3432 -0.1761
 4012SOL     OW23671   4.708   1.450   8.596  0.2758  0.2717 -0.7604
 4012SOL    HW123672   4.632   1.445   8.654  1.3763 -0.7053  0.6000
 4012SOL    HW223673   4.679   1.510   8.527 -0.1803  1.3635  0.3781
 4013SOL     OW23674   2.133   3.894   2.019  0.4380  0.3810  0.1979
 4013SOL    HW123675   2.175   3.837   1.954  0.6223 -0.8066  1.3692
 4013SOL    HW223676   2.212   3.937   2.052  0.1504  1.4557 -0.5005
 4014SOL     OW23677   2.389   1.456   4.176  0.3355 -0.0723 -0.0486
 4014SOL    HW123678   2.463   1.422   4.125 -0.8145 -1.4059 -0.8268
 4014SOL    HW223679   2.327   1.384   4.167  0.9770 -0.5876 -0.3874
 4015SOL     OW23680   3.429   3.176  16.504  0.1344 -0.1928  0.4361
 4015SOL    HW123681   3.395   3.258  16.540  0.5963 -0.1127  0.6829
 4015SOL    HW223682   3.459   3.132  16.583 -1.6249  0.4158  1.4481
 4016SOL     OW23683   0.796   1.771   7.360  0.0147 -0.4748  0.2037
 4016SOL    HW123684   0.732   1.842   7.355  2.6265  1.6386 -2.9004
 4016SOL    HW223685   0.813   1.773   7.454 -1.7718 -2.4345  0.5667
 4017SOL     OW23686   4.294   3.603   8.949 -0.3244  0.2383 -0.1210
 4017SOL    HW123687   4.326   3.564   8.868 -0.3255  0.0568 -0.0348
 4017SOL    HW223688   4.360   3.574   9.012  0.0752 -0.6750 -0.9489
 4018SOL     OW23689   1.430   1.484   0.164  0.8220 -0.5209  0.9507
 4018SOL    HW123690   1.483   1.459   0.088 -0.2065 -1.4422  0.5447
 4018SOL    HW223691   1.345   1.490   0.119  2.1250 -3.2280 -1.8465
 4019SOL     OW23692   0.073   1.211   1.863 -0.3859  0.3400  0.2846
 4019SOL    HW123693   0.113   1.151   1.800 -0.5055 -0.7509  1.2429
 4019SOL    HW223694   0.101   1.177   1.948 -0.0821  0.1414  0.1023
 4020SOL     OW23695   0.327   4.641  15.786  0.1380  0.2526  0.3808
 4020SOL    HW123696   0.317   4.547  15.773  0.2631  0.3146 -0.1587
 4020SOL    HW223697   0.317   4.648  15.881 -0.2643 -0.7293  0.4062
 4021SOL     OW23698   0.941   0.236  16.371  0.6996 -0.1613  0.0165
 4021SOL    HW123699   1.027   0.250  16.410  1.4055 -2.5502 -0.7398
 4021SOL    HW223700   0.952   0.151  16.331 -2.6420 -1.1715  1.1710
 4022SOL     OW23701   1.644   3.208   4.575 -0.7092 -0.0971 -0.1616
 4022SOL    HW123702   1.629   3.115   4.590 -1.8973 -0.0530 -1.1158
 4022SOL    HW223703   1.559   3.239   4.545 -0.6463  3.1887  3.0445
 4023SOL     OW23704   1.140   2.045   7.711  0.0096 -0.1289 -0.8585
 4023SOL    HW123705   1.053   2.003   7.714 -0.1410  0.2546  0.2165
 4023SOL    HW223706   1.155   2.045   7.806 -0.5654 -0.9523 -0.7677
 4024SOL     OW23707   3.093   0.626  10.396 -0.3531 -0.2808 -0.3814
 4024SOL    HW123708   3.025   0.558  10.394  0.2087 -0.8476 -0.1259
 4024SOL    HW223709   3.100   0.648  10.489 -1.4797  2.9336 -1.0538
 4025SOL     OW23710   0.710   2.755   7.237  1.0952  0.3772 -0.3051
 4025SOL    HW123711   0.721   2.850   7.232  2.2992  0.2979  0.8201
 4025SOL    HW223712   0.786   2.735   7.182 -0.2670  0.5809 -2.2158
 4026SOL     OW23713   1.012   3.497   1.268  0.1812  0.1054  0.2579
 4026SOL    HW123714   1.007   3.557   1.193 -0.4321 -1.0477 -0.6325
 4026SOL    HW223715   1.042   3.417   1.223 -0.4367 -0.0881  0.1890
 4027SOL     OW23716   1.952   1.099  15.809  0.3361  0.0496  0.0078
 4027SOL    HW123717   1.923   1.108  15.899 -0.6285 -1.6092 -0.1386
 4027SOL    HW223718   1.993   1.013  15.809 -0.2897 -0.2349  1.7236
 4028SOL     OW23719   0.601   0.257  14.861 -0.5073  0.3056 -0.1133
 4028SOL    HW123720   0.625   0.337  14.909 -1.0276  0.4034 -0.0232
 4028SOL    HW223721   0.671   0.261  14.795  0.9070  2.1426  1.4955
 4029SOL     OW23722   1.923   2.981   0.862  0.2297  0.4757  0.0585
 4029SOL    HW123723   1.955   2.916   0.799  0.9788  1.0487 -0.1529
 4029SOL    HW223724   1.953   3.060   0.816  1.4169 -0.0982 -0.1664
 4030SOL     OW23725   0.249   1.738   1.925 -0.0503 -0.1848 -0.6820
 4030SOL    HW123726   0.286   1.806   1.870 -0.6237  0.4453 -0.2831
 4030SOL    HW223727   0.329   1.691   1.948 -0.1635 -0.3699 -0.6559
 4031SOL     OW23728   2.919   2.504   6.596 -0.0790  0.2453 -0.1418
 4031SOL    HW123729   2.932   2.495   6.502  1.5916  2.2128 -0.0992
 4031SOL    HW223730   2.825   2.488   6.595 -0.1174  0.5207 -0.8111
 4032SOL     OW23731   0.503   3.454   5.594 -0.1651  0.1822  0.1540
 4032SOL    HW123732   0.448   3.447   5.516  0.7693  1.7992 -0.6402
 4032SOL    HW223733   0.443   3.419   5.661  0.8450  1.2342  1.6164
 4033SOL     OW23734   2.413   1.007  13.165 -0.3964 -0.7620 -0.0450
 4033SOL    HW123735   2.391   0.919  13.134  1.2900 -2.2272  2.9087
 4033SOL    HW223736   2.506   1.010  13.186 -0.7570  1.5072  1.2085
 4034SOL     OW23737   0.178   0.213   7.935  0.3663  0.1193 -0.2235
 4034SOL    HW123738   0.096   0.196   7.983  0.9290 -1.4794  0.1714
 4034SOL    HW223739   0.141   0.253   7.856  2.0144 -2.1955 -2.1752
 4035SOL     OW23740   2.735   2.588   7.241 -0.2662  0.5842 -0.2204
 4035SOL    HW123741   2.760   2.551   7.326  0.3060  1.2969 -0.0776
 4035SOL    HW223742   2.641   2.568   7.239 -0.3283  0.7047  1.1346
 4036SOL     OW23743   1.759   2.675   4.086  0.0879 -0.0525  0.4260
 4036SOL    HW123744   1.798   2.633   4.162 -2.8721  0.8171  2.4033
 4036SOL    HW223745   1.684   2.715   4.131  0.1122  2.4854 -1.7882
 4037SOL     OW23746   0.796   4.261  11.554 -0.4920 -0.0540 -0.0184
 4037SOL    HW123747   0.816   4.168  11.565  0.3754  0.0636 -0.5384
 4037SOL    HW223748   0.739   4.255  11.477 -0.8024  1.7639  0.0747
 4038SOL     OW23749   1.529   4.244   7.308 -0.7392  0.5467  0.1128
 4038SOL    HW123750   1.480   4.241   7.226  0.1163  2.3792 -0.4917
 4038SOL    HW223751   1.529   4.339   7.323 -0.7455  0.6307 -0.4224
 4039SOL     OW23752   2.636   4.545  12.846  0.1750  0.1313 -0.0125
 4039SOL    HW123753   2.555   4.570  12.801  0.0558  1.7331  1.0686
 4039SOL    HW223754   2.680   4.480  12.792  0.0251  0.7988 -0.9473
 4040SOL     OW23755   3.494   1.035   3.273 -0.3436  0.0586  0.8453
 4040SOL    HW123756   3.567   0.991   3.230 -0.0357  0.4341  0.9864
 4040SOL    HW223757   3.468   0.972   3.340  1.0471 -0.0497  1.2785
 4041SOL     OW23758   2.720   4.452   8.124 -0.2413  0.5014  0.5888
 4041SOL    HW123759   2.745   4.513   8.193 -1.7854 -0.6264  2.1677
 4041SOL    HW223760   2.784   4.487   8.063 -0.3157 -0.7871 -0.2286
 4042SOL     OW23761   4.432   0.192   4.574  0.5395  0.4889  0.0880
 4042SOL    HW123762   4.448   0.202   4.668 -0.7621  1.6193  0.2073
 4042SOL    HW223763   4.389   0.107   4.574 -0.3241  0.9257  1.1844
 4043SOL     OW23764   1.610   1.701   0.019  0.1708  0.8182  0.7735
 4043SOL    HW123765   1.611   1.791   0.051 -0.8896  0.5247  1.6475
 4043SOL    HW223766   1.545   1.665   0.080 -0.0257  0.8210  0.5630
 4044SOL     OW23767   1.156   2.182  13.691  0.3163 -0.2394  0.0541
 4044SOL    HW123768   1.210   2.106  13.669 -0.8194 -1.7825  2.4948
 4044SOL    HW223769   1.222   2.234  13.735 -0.5817  0.9003  0.0537
 4045SOL     OW23770   4.005   2.339  14.234 -0.2896  0.3643  0.4279
 4045SOL    HW123771   3.983   2.313  14.144  1.5071  0.3089 -0.0130
 4045SOL    HW223772   4.082   2.285  14.254 -0.5435 -0.3761 -0.5820
 4046SOL     OW23773   1.456   3.990   5.281 -0.1372  0.2454  0.3946
 4046SOL    HW123774   1.477   3.912   5.229  2.1112  0.9064  0.3353
 4046SOL    HW223775   1.373   3.959   5.319 -1.0361 -1.1924 -2.7001
 4047SOL     OW23776   2.775   2.565   4.104 -0.7983 -0.2632 -0.0056
 4047SOL    HW123777   2.771   2.484   4.156  0.4520 -0.8410 -0.8257
 4047SOL    HW223778   2.845   2.613   4.147  0.7696 -2.0088 -0.6023
 4048SOL     OW23779   1.467   0.644   2.761 -0.1870 -0.3388 -0.5127
 4048SOL    HW123780   1.507   0.668   2.677  2.3723 -0.5718  0.6765
 4048SOL    HW223781   1.460   0.729   2.805 -0.2914 -0.0374 -1.1040
 4049SOL     OW23782   4.530   4.473   2.240 -0.3677 -0.4538  0.0509
 4049SOL    HW123783   4.499   4.552   2.195  0.3676 -0.3050 -0.2031
 4049SOL    HW223784   4.495   4.481   2.328  1.0149 -1.4163  0.6889
 4050SOL     OW23785   1.971   1.314   9.784  0.2684 -0.1397 -0.3226
 4050SOL    HW123786   1.953   1.408   9.785 -1.0166 -0.3614 -2.5308
 4050SOL    HW223787   1.978   1.298   9.690  0.9976 -2.7493  0.1726
 4051SOL     OW23788   1.994   2.990   1.648 -0.3250  0.7618 -0.0679
 4051SOL    HW123789   2.047   3.070   1.653 -0.7843  1.1152 -0.8624
 4051SOL    HW223790   1.903   3.019   1.657 -0.7558  0.7230 -4.4027
 4052SOL     OW23791   1.965   2.127  10.896 -0.2290  0.4224  0.3825
 4052SOL    HW123792   2.012   2.101  10.975  1.6247  0.7000 -0.6219
 4052SOL    HW223793   2.034   2.099  10.835  0.2474  0.1085  1.0689
 4053SOL     OW23794   0.822   2.960  11.052 -0.2826 -0.1229  0.1474
 4053SOL    HW123795   0.821   2.995  11.141  0.9582 -1.6649  0.7553
 4053SOL    HW223796   0.813   3.041  11.001  1.3169 -0.2893 -0.4063
 4054SOL     OW23797   2.502   4.383   5.649 -0.7647  0.0244  0.1927
 4054SOL    HW123798   2.456   4.467   5.641 -0.3968  0.1591 -0.5944
 4054SOL    HW223799   2.439   4.338   5.706 -0.0286  0.4260  1.3205
 4055SOL     OW23800   4.603   2.000   6.476  0.4101 -0.4899  0.3654
 4055SOL    HW123801   4.550   2.077   6.453 -0.1432 -1.6542 -2.3081
 4055SOL    HW223802   4.688   2.041   6.491  1.2567 -1.5250 -1.6166
 4056SOL     OW23803   3.069   0.923   5.592  0.0521  0.0690  0.0295
 4056SOL    HW123804   3.073   0.835   5.630  2.9479  1.3940  2.8398
 4056SOL    HW223805   2.983   0.941   5.631  0.5351  0.8299  0.7346
 4057SOL     OW23806   0.941   4.539   6.801  0.3380  0.6623 -0.6302
 4057SOL    HW123807   0.921   4.469   6.739 -0.2305  1.3828 -1.2699
 4057SOL    HW223808   0.966   4.604   6.735 -1.7291  0.4255 -1.6589
 4058SOL     OW23809   1.961   4.094   3.669 -0.4281  0.3439 -0.2769
 4058SOL    HW123810   1.891   4.128   3.613 -1.4999  2.4357  2.3213
 4058SOL    HW223811   2.019   4.170   3.683 -0.2104  0.4888 -1.9178
 4059SOL     OW23812   2.906   1.089   4.101 -0.3066 -0.1416  0.3495
 4059SOL    HW123813   2.985   1.106   4.050  0.3297  1.4132  1.8239
 4059SOL    HW223814   2.893   1.178   4.136 -0.6721  0.1495 -0.5363
 4060SOL     OW23815   3.547   4.472  15.932  0.3448  0.0465 -0.1870
 4060SOL    HW123816   3.529   4.542  15.869 -0.8165 -0.6217 -0.5916
 4060SOL    HW223817   3.497   4.503  16.008  1.8742 -0.3752  0.9886
 4061SOL     OW23818   3.219   1.466   7.872 -0.2777 -0.3033 -0.1555
 4061SOL    HW123819   3.230   1.491   7.964  0.3465  0.4386 -0.4311
 4061SOL    HW223820   3.296   1.415   7.851  0.9686  1.6429 -0.3208
 4062SOL     OW23821   2.792   3.437   8.350 -0.0398  0.3532 -0.0189
 4062SOL    HW123822   2.851   3.512   8.337 -0.5836  0.6409 -0.8077
 4062SOL    HW223823   2.822   3.414   8.438 -0.8717  0.8758  0.4088
 4063SOL     OW23824   1.049   4.176  16.897  0.1537 -0.1220  0.4850
 4063SOL    HW123825   0.987   4.222  16.840  2.5718  1.0778 -1.1388
 4063SOL    HW223826   1.130   4.208  16.858 -0.6907  0.9265 -0.3930
 4064SOL     OW23827   0.219   0.335   2.717  0.5503 -0.1254 -0.7562
 4064SOL    HW123828   0.158   0.272   2.755 -0.4624  1.2225 -0.1748
 4064SOL    HW223829   0.274   0.343   2.795 -3.9974  0.6897  2.3181
 4065SOL     OW23830   2.120   2.033   9.376 -0.2578 -0.2842  0.4979
 4065SOL    HW123831   2.058   2.054   9.445  0.6759  2.8737  0.4044
 4065SOL    HW223832   2.195   2.010   9.430  0.5381  0.5244 -0.2506
 4066SOL     OW23833   3.861   4.265   2.845 -0.0174  0.5202 -0.4454
 4066SOL    HW123834   3.879   4.359   2.842  0.6947  0.3716 -0.6313
 4066SOL    HW223835   3.892   4.241   2.758 -1.6496 -0.6134 -0.7254
 4067SOL     OW23836   2.860   3.928   8.113 -0.0145 -0.1353 -0.6259
 4067SOL    HW123837   2.796   3.963   8.175 -1.8262  0.6914 -2.9285
 4067SOL    HW223838   2.809   3.920   8.032  0.3600  1.0163 -0.9775
 4068SOL     OW23839   4.631   4.714   3.442  0.5704 -0.1015  0.0975
 4068SOL    HW123840   4.581   0.050   3.406  0.6019 -0.8479 -1.4806
 4068SOL    HW223841   4.711   4.731   3.393  0.6343  0.4550  0.3852
 4069SOL     OW23842   3.471   0.527  12.722  1.1252 -0.1489  0.2728
 4069SOL    HW123843   3.537   0.591  12.696  0.0781  1.1417  0.8163
 4069SOL    HW223844   3.437   0.493  12.639 -0.1020 -0.8208  1.0509
 4070SOL     OW23845   3.306   3.514   1.842 -0.3792  0.0465 -0.3690
 4070SOL    HW123846   3.212   3.533   1.849  0.0350  1.6833  0.4949
 4070SOL    HW223847   3.317   3.472   1.928 -0.0567 -1.1157 -0.9673
 4071SOL     OW23848   1.628   3.153   3.271  0.4954 -0.3226  0.5129
 4071SOL    HW123849   1.548   3.206   3.278  0.8070  0.2040  0.0582
 4071SOL    HW223850   1.684   3.203   3.331 -1.2473  1.7660  0.3991
 4072SOL     OW23851   3.160   0.725   1.834  0.0477  0.6413 -0.1564
 4072SOL    HW123852   3.120   0.780   1.766 -2.6473  1.6880  2.2732
 4072SOL    HW223853   3.111   0.769   1.903  0.7221  2.7372 -1.0348
 4073SOL     OW23854   2.700   3.070   1.639 -0.5725 -0.3100 -0.4033
 4073SOL    HW123855   2.771   3.084   1.702 -0.7059 -0.6653 -0.1770
 4073SOL    HW223856   2.626   3.087   1.697  0.6755  1.1151  0.7658
 4074SOL     OW23857   3.858   1.400   8.959  0.0912 -0.7481 -0.3199
 4074SOL    HW123858   3.793   1.435   9.020  0.1775  2.2111 -1.9746
 4074SOL    HW223859   3.823   1.317   8.924  0.8662 -1.5415  0.7900
 4075SOL     OW23860   3.638   2.191   6.272 -0.7808  0.4214 -0.4626
 4075SOL    HW123861   3.623   2.131   6.200 -1.6422  0.2956 -0.1777
 4075SOL    HW223862   3.590   2.164   6.350  1.2934  0.8649  0.9622
 4076SOL     OW23863   1.754   1.164  16.856  0.3580  0.3390 -0.4420
 4076SOL    HW123864   1.737   1.132  16.945 -2.0762  0.9740 -0.6920
 4076SOL    HW223865   1.695   1.239  16.852 -0.0835 -0.1007 -2.0559
 4077SOL     OW23866   3.057   4.027   9.059  0.6239  0.0248 -0.4336
 4077SOL    HW123867   2.972   4.034   9.103  1.3751  0.3803  0.9388
 4077SOL    HW223868   3.062   3.932   9.043 -2.1470 -0.0250 -1.0711
 4078SOL     OW23869   2.771   4.547   8.379 -0.1154  0.4826 -0.0388
 4078SOL    HW123870   2.784   4.641   8.374 -2.0937  0.7487 -0.2064
 4078SOL    HW223871   2.681   4.546   8.410 -0.2825  3.0279 -0.5068
 4079SOL     OW23872   4.495   1.998  13.629 -0.0619 -0.7242 -0.4166
 4079SOL    HW123873   4.400   1.990  13.640  0.3157 -3.3177  1.1074
 4079SOL    HW223874   4.515   2.081  13.672 -0.6954 -0.5584 -0.4358
 4080SOL     OW23875   1.170   4.281  11.022  0.0931 -0.0737  0.1560
 4080SOL    HW123876   1.137   4.200  11.060  1.2556 -0.2662  0.7500
 4080SOL    HW223877   1.208   4.254  10.939  1.9190  2.8993  0.0153
 4081SOL     OW23878   1.610   2.627   0.938  0.1724 -0.1628 -0.0514
 4081SOL    HW123879   1.565   2.696   0.987  0.8322  0.9986 -1.0809
 4081SOL    HW223880   1.563   2.638   0.855 -0.6486 -2.1354  0.1496
 4082SOL     OW23881   1.707   0.653   3.113  0.3189  0.2866  0.4595
 4082SOL    HW123882   1.801   0.665   3.129  0.5087 -0.7945  0.1421
 4082SOL    HW223883   1.724   0.615   3.028  1.4484  1.3521  0.2016
 4083SOL     OW23884   3.121   2.875   9.597  0.4538  0.5335 -0.2854
 4083SOL    HW123885   3.140   2.963   9.564  0.6634  0.2498 -0.9318
 4083SOL    HW223886   3.196   2.857   9.654 -0.1564  1.4590  0.7905
 4084SOL     OW23887   2.584   2.749  11.235  0.5454 -0.5859  0.1338
 4084SOL    HW123888   2.641   2.692  11.182  0.0529  1.1570 -2.2750
 4084SOL    HW223889   2.638   2.825  11.253 -2.5445  1.4988  0.5095
 4085SOL     OW23890   2.260   3.284   5.994 -0.9677 -0.4876  0.2278
 4085SOL    HW123891   2.197   3.325   5.935 -1.6595 -1.4335  0.3168
 4085SOL    HW223892   2.215   3.206   6.028  0.2706 -1.2477  0.1018
 4086SOL     OW23893   1.580   4.500   1.157 -0.0557  0.2619  0.3196
 4086SOL    HW123894   1.511   4.476   1.096  1.6430 -1.4393 -0.9459
 4086SOL    HW223895   1.527   4.487   1.235 -0.2700  0.2244  0.1682
 4087SOL     OW23896   2.621   2.513   3.585  0.2981 -0.6088  0.1864
 4087SOL    HW123897   2.607   2.528   3.678  0.7258 -0.2739  0.2010
 4087SOL    HW223898   2.636   2.419   3.586 -0.4670 -0.7375 -0.2856
 4088SOL     OW23899   0.109   3.759  14.603  0.9180 -0.6794 -0.8427
 4088SOL    HW123900   0.137   3.735  14.691 -0.7998 -0.8830 -0.3562
 4088SOL    HW223901   0.031   3.705  14.593 -0.5130  0.8112  2.7022
 4089SOL     OW23902   0.920   4.707   2.715  0.0482 -0.4263  0.4371
 4089SOL    HW123903   0.878   4.624   2.691 -3.2618  0.7641  2.0790
 4089SOL    HW223904   0.993   4.675   2.767 -0.3692 -0.8962  0.7344
 4090SOL     OW23905   3.456   3.106   4.900  0.2449 -0.7572 -0.1036
 4090SOL    HW123906   3.471   3.050   4.824  0.5013 -0.1083 -0.5256
 4090SOL    HW223907   3.419   3.187   4.868 -0.0665 -0.4527  1.0256
 4091SOL     OW23908   1.229   3.124   6.949 -0.0373  0.9037 -0.4909
 4091SOL    HW123909   1.153   3.171   6.985 -1.3178 -0.6437 -1.1609
 4091SOL    HW223910   1.233   3.158   6.860  0.5629 -1.0255 -1.1928
 4092SOL     OW23911   0.171   3.262  12.074  0.1583 -0.2706 -0.4372
 4092SOL    HW123912   0.098   3.271  12.135  1.1638  3.4730  0.1710
 4092SOL    HW223913   0.118   3.223  12.004 -0.6333  0.1447 -0.0769
 4093SOL     OW23914   3.715   0.037   4.028 -0.3173  0.1831 -0.3724
 4093SOL    HW123915   3.746   4.722   3.954  1.8515  0.3953  0.3793
 4093SOL    HW223916   3.802   0.059   4.063 -0.6073 -0.6043  0.8358
 4094SOL     OW23917   3.045   2.382   1.479 -0.0629  0.0923 -0.4523
 4094SOL    HW123918   2.966   2.372   1.426  0.3364  0.7312 -1.1539
 4094SOL    HW223919   3.041   2.476   1.496  3.2092 -0.0530  1.1458
 4095SOL     OW23920   0.698   1.582   1.683  0.3550 -0.4947  0.2053
 4095SOL    HW123921   0.719   1.501   1.729 -0.7725 -0.0888  1.4211
 4095SOL    HW223922   0.751   1.580   1.603  0.8731  0.6522  0.5173
 4096SOL     OW23923   4.277   2.158   5.382  0.1424  0.0655  0.4759
 4096SOL    HW123924   4.239   2.211   5.452 -3.5600 -0.0918 -1.4143
 4096SOL    HW223925   4.266   2.070   5.417  0.6169 -0.0305  0.3861
 4097SOL     OW23926   4.181   2.333   4.399  0.5085  0.6924 -0.4842
 4097SOL    HW123927   4.187   2.314   4.305 -0.0251  1.6538 -0.7153
 4097SOL    HW223928   4.111   2.398   4.411 -0.2248 -0.5515  1.9293
 4098SOL     OW23929   0.429   1.046  11.694  0.3807 -0.2197 -0.3717
 4098SOL    HW123930   0.355   1.107  11.697 -0.9548 -1.9120  1.1264
 4098SOL    HW223931   0.389   0.966  11.726  0.5671  0.4166  1.4818
 4099SOL     OW23932   1.676   4.381   2.584  0.6103 -0.2814  0.5387
 4099SOL    HW123933   1.616   4.404   2.655 -1.0563 -1.0469 -0.6392
 4099SOL    HW223934   1.759   4.424   2.606  1.3784 -1.8610  0.7513
 4100SOL     OW23935   2.346   2.699   8.717 -0.0546 -0.4906 -0.5301
 4100SOL    HW123936   2.397   2.700   8.636 -2.2500  0.1458 -1.8980
 4100SOL    HW223937   2.414   2.719   8.782  1.1293  2.3122 -2.6154
 4101SOL     OW23938   2.163   4.145   3.130  0.0190 -0.2326 -0.0968
 4101SOL    HW123939   2.100   4.193   3.078 -0.1036  1.3283  1.4783
 4101SOL    HW223940   2.149   4.179   3.219 -1.6098  1.9997 -1.2170
 4102SOL     OW23941   3.516   3.851   8.535  0.4184  0.5776 -0.2838
 4102SOL    HW123942   3.440   3.889   8.492  0.9927  0.8224 -1.0828
 4102SOL    HW223943   3.559   3.935   8.552  0.3183  0.2458  1.6457
 4103SOL     OW23944   4.466   2.111   8.881  0.2555 -0.5099 -0.4857
 4103SOL    HW123945   4.421   2.037   8.924 -2.6347  1.7103  0.3499
 4103SOL    HW223946   4.545   2.132   8.931 -0.4168  0.1365  0.3273
 4104SOL     OW23947   3.273   1.018   5.782 -0.6744 -0.3300 -0.0308
 4104SOL    HW123948   3.248   0.997   5.692 -1.8167  1.0125 -0.0333
 4104SOL    HW223949   3.217   0.952   5.823  0.6616 -1.0052  0.6970
 4105SOL     OW23950   1.308   1.713  16.526 -0.5659 -0.2921  0.2666
 4105SOL    HW123951   1.331   1.802  16.500 -1.5110 -1.2910 -4.0078
 4105SOL    HW223952   1.213   1.707  16.515 -0.4797 -2.4120  0.6399
 4106SOL     OW23953   3.791   0.428  13.251  0.3787  0.6407  0.3464
 4106SOL    HW123954   3.799   0.337  13.278  0.4053  1.1163  1.9155
 4106SOL    HW223955   3.769   0.418  13.158  1.2468 -1.1440  0.3356
 4107SOL     OW23956   3.803   1.169   8.819  0.1340  0.2602  0.1990
 4107SOL    HW123957   3.819   1.236   8.752  0.6045  0.9386  0.9920
 4107SOL    HW223958   3.711   1.149   8.801  0.1364  0.4177  0.0001
 4108SOL     OW23959   3.182   0.295   7.741  0.0820  0.1369  0.6482
 4108SOL    HW123960   3.264   0.246   7.734  1.2495  2.1852 -0.0718
 4108SOL    HW223961   3.166   0.291   7.835 -1.2108  0.4441  0.4497
 4109SOL     OW23962   1.368   1.873   9.334 -0.3178 -0.5725  0.3519
 4109SOL    HW123963   1.337   1.814   9.264 -1.0461  2.5390 -1.9440
 4109SOL    HW223964   1.410   1.807   9.390  3.4239  0.1488 -1.6068
 4110SOL     OW23965   3.984   2.231   8.614  0.1658  0.1553 -0.0600
 4110SOL    HW123966   3.924   2.266   8.549 -0.0215 -1.0542 -0.5372
 4110SOL    HW223967   4.044   2.178   8.561 -1.8966 -0.6842 -1.5184
 4111SOL     OW23968   3.195   1.651  14.304 -0.2876 -0.0913 -0.4084
 4111SOL    HW123969   3.280   1.666  14.262 -0.2219  0.8045  0.0624
 4111SOL    HW223970   3.227   1.654  14.395 -1.3907  2.2201 -0.1099
 4112SOL     OW23971   1.978   2.887  15.521 -0.0925 -0.5688 -0.4514
 4112SOL    HW123972   1.994   2.920  15.432  0.0257  1.3548  0.2735
 4112SOL    HW223973   1.885   2.870  15.507 -0.6552  0.6362  1.7725
 4113SOL     OW23974   0.058   4.736  16.685 -0.2871 -0.2229  0.0343
 4113SOL    HW123975   0.110   0.072  16.717 -1.2837  0.1175  0.8628
 4113SOL    HW223976   4.707   0.033  16.697  0.5072  2.1084 -0.8097
 4114SOL     OW23977   3.471   1.547  10.670 -0.1844  0.0458 -0.3063
 4114SOL    HW123978   3.478   1.502  10.754 -1.0318  1.7738  0.7146
 4114SOL    HW223979   3.442   1.482  10.607  1.4926 -2.0886  1.1464
 4115SOL     OW23980   0.645   3.751   9.150 -0.2558  0.0308 -0.5012
 4115SOL    HW123981   0.578   3.817   9.162 -0.1922 -0.2220  1.3298
 4115SOL    HW223982   0.666   3.771   9.059  0.1998 -2.0274 -0.8691
 4116SOL     OW23983   4.326   3.739   7.852 -0.8765  0.2024  0.2386
 4116SOL    HW123984   4.283   3.820   7.881 -1.7116  0.0070 -0.4575
 4116SOL    HW223985   4.269   3.673   7.890  0.9978 -0.8541  1.2463
 4117SOL     OW23986   4.156   4.606   5.339  0.1488 -0.1153 -0.2073
 4117SOL    HW123987   4.177   4.553   5.262  1.7335  0.9031 -0.4670
 4117SOL    HW223988   4.178   4.546   5.410  0.6790 -0.9919 -1.1180
 4118SOL     OW23989   2.141   0.570   7.812  0.1008 -0.0225 -0.1613
 4118SOL    HW123990   2.134   0.624   7.891 -1.0812 -1.1876  0.5351
 4118SOL    HW223991   2.047   0.565   7.794  0.4067  2.0193 -2.3035
 4119SOL     OW23992   1.473   0.666   1.696  0.1863  0.1179 -0.1987
 4119SOL    HW123993   1.553   0.664   1.643 -0.2803 -0.8407 -0.8595
 4119SOL    HW223994   1.457   0.572   1.702 -0.7397  0.1495 -2.2337
 4120SOL     OW23995   0.882   2.866   4.530  0.0314  0.3482 -0.6967
 4120SOL    HW123996   0.970   2.828   4.530 -0.4788 -0.8141 -0.7294
 4120SOL    HW223997   0.902   2.960   4.523 -1.2587  0.7305  0.6885
 4121SOL     OW23998   0.395   4.338   7.681  0.4711  0.4036 -0.0595
 4121SOL    HW123999   0.370   4.251   7.710 -1.8541  0.5347 -1.6385
 4121SOL    HW224000   0.483   4.305   7.662 -0.9012 -3.2346  0.0196
 4122SOL     OW24001   0.267   2.172   8.981 -0.5333 -0.0756 -0.3522
 4122SOL    HW124002   0.353   2.212   8.968  0.3643 -1.1603  2.3351
 4122SOL    HW224003   0.282   2.078   8.970  0.3144 -0.1219  1.3167
 4123SOL     OW24004   3.708   1.427   4.383  0.2573  0.3279 -0.4704
 4123SOL    HW124005   3.798   1.461   4.377  0.7458 -0.8440  0.1190
 4123SOL    HW224006   3.660   1.509   4.391  1.1643  0.7607  0.7534
 4124SOL     OW24007   1.449   0.394   1.713  0.3809  0.0401  0.0787
 4124SOL    HW124008   1.492   0.376   1.629 -0.7533 -1.6556 -0.1329
 4124SOL    HW224009   1.477   0.309   1.747 -0.2664  0.0521  0.6261
 4125SOL     OW24010   0.444   3.974   9.552  0.8389  0.3863  0.1241
 4125SOL    HW124011   0.479   4.053   9.512 -1.7123  0.1728 -2.5496
 4125SOL    HW224012   0.497   3.902   9.518  1.2473  1.4546 -1.4865
 4126SOL     OW24013   4.730   4.111  12.366  0.0363  0.6228  0.0151
 4126SOL    HW124014   0.046   4.032  12.378 -2.1943 -1.0077 -0.7627
 4126SOL    HW224015   4.695   4.117  12.455  0.2954 -0.8266  0.2237
 4127SOL     OW24016   1.164   4.590   5.497 -0.4874 -0.1081  0.5314
 4127SOL    HW124017   1.075   4.555   5.509 -0.8023  1.0735  1.5966
 4127SOL    HW224018   1.188   4.559   5.409  1.9693  3.5901 -0.1060
 4128SOL     OW24019   3.870   3.721   3.675 -0.2575  0.8422  0.2514
 4128SOL    HW124020   3.951   3.721   3.623  0.0332 -3.4850  0.6876
 4128SOL    HW224021   3.903   3.660   3.741 -0.4732 -0.1525 -0.5565
 4129SOL     OW24022   1.066   2.845   2.351 -0.1883  0.1714 -0.6454
 4129SOL    HW124023   1.059   2.941   2.347 -1.9477  0.0932  0.4233
 4129SOL    HW224024   1.080   2.842   2.446 -0.3619 -0.7265 -0.6529
 4130SOL     OW24025   4.156   0.521   5.716  0.8026 -0.3276  0.2106
 4130SOL    HW124026   4.100   0.445   5.705  2.3519 -1.3051 -0.9978
 4130SOL    HW224027   4.124   0.577   5.645 -1.1922 -1.0233  0.5863
 4131SOL     OW24028   2.670   1.371   2.244  0.3660 -0.1473 -0.0648
 4131SOL    HW124029   2.648   1.310   2.314 -4.3110  0.3575 -1.0511
 4131SOL    HW224030   2.717   1.321   2.177 -1.3848 -0.0126 -1.4014
 4132SOL     OW24031   4.093   4.219   1.175  0.1339  0.3922  0.8636
 4132SOL    HW124032   4.092   4.293   1.114 -0.1112 -1.0485 -0.8680
 4132SOL    HW224033   4.103   4.141   1.122  0.7358  0.1618  1.3125
 4133SOL     OW24034   1.743   3.676   3.868 -0.5544 -1.0635  0.7471
 4133SOL    HW124035   1.713   3.710   3.783  0.5834  0.8694  1.1103
 4133SOL    HW224036   1.835   3.658   3.846  0.3915  1.9046  2.3255
 4134SOL     OW24037   2.645   2.697  10.115  0.6939  0.1070 -0.0630
 4134SOL    HW124038   2.598   2.624  10.153  0.7555 -0.0190 -0.2301
 4134SOL    HW224039   2.636   2.673  10.022  1.3787  0.6275 -0.2718
 4135SOL     OW24040   1.008   4.532  12.683  0.5571 -0.1063 -0.2095
 4135SOL    HW124041   1.092   4.572  12.705  0.1785  0.3885  0.3403
 4135SOL    HW224042   0.966   4.598  12.628  1.5104  1.3732  0.8242
 4136SOL     OW24043   3.827   4.265   8.131 -0.5209 -0.2908 -0.1001
 4136SOL    HW124044   3.739   4.232   8.149 -2.4271  3.4201 -2.7091
 4136SOL    HW224045   3.831   4.335   8.196  1.4781 -1.5020  1.0855
 4137SOL     OW24046   0.796   4.703   7.735  0.2043  0.2663  0.1678
 4137SOL    HW124047   0.873   4.701   7.791  0.7722  0.5543 -0.6075
 4137SOL    HW224048   0.723   4.692   7.796  1.3738  2.1272  1.8877
 4138SOL     OW24049   1.718   0.343  13.821  0.3325 -0.0429 -0.2648
 4138SOL    HW124050   1.735   0.435  13.801 -0.8155  1.1114  4.0286
 4138SOL    HW224051   1.652   0.359  13.888  1.0094  2.9871 -0.3040
 4139SOL     OW24052   4.479   4.338   3.196  0.0493 -0.3494 -0.0506
 4139SOL    HW124053   4.528   4.410   3.157  0.0670  0.6063  1.7303
 4139SOL    HW224054   4.392   4.364   3.165 -0.1201  0.1360  0.8084
 4140SOL     OW24055   3.198   0.889   6.625  0.2609  0.3609 -0.0002
 4140SOL    HW124056   3.117   0.860   6.583  1.4818 -3.5176  0.3076
 4140SOL    HW224057   3.169   0.925   6.710 -0.9096 -1.6523  0.4399
 4141SOL     OW24058   0.882   1.209   6.859  0.0156 -0.2462  0.5210
 4141SOL    HW124059   0.866   1.143   6.792  0.2315  0.3055 -0.0779
 4141SOL    HW224060   0.799   1.207   6.907 -1.1562 -0.5116 -1.5062
 4142SOL     OW24061   1.756   0.594   7.526 -0.1215  0.5359 -0.0450
 4142SOL    HW124062   1.803   0.659   7.474  1.3449  0.8838  1.7287
 4142SOL    HW224063   1.672   0.634   7.548 -0.4328 -2.0238  3.4267
 4143SOL     OW24064   2.395   0.744   8.067  0.5506  0.2692  0.7789
 4143SOL    HW124065   2.455   0.745   8.142  2.4430  0.0898 -0.7357
 4143SOL    HW224066   2.383   0.652   8.044 -2.4208  0.4765  1.4780
 4144SOL     OW24067   2.016   1.833   4.684 -0.1917 -0.1513 -0.1911
 4144SOL    HW124068   1.969   1.778   4.621 -3.0337 -0.6579  2.3443
 4144SOL    HW224069   1.955   1.905   4.702  0.9003  1.4344 -2.8784
 4145SOL     OW24070   2.948   2.599  15.435  0.2307 -0.5687  0.1568
 4145SOL    HW124071   2.878   2.614  15.371  0.7532  0.0133 -0.2766
 4145SOL    HW224072   2.913   2.523  15.482  1.1684 -0.1936  1.4484
 4146SOL     OW24073   1.451   2.397   6.995  0.2106 -0.7991  0.0775
 4146SOL    HW124074   1.385   2.462   6.972 -0.5956 -0.6750  2.6950
 4146SOL    HW224075   1.473   2.404   7.088  1.9648  1.3820 -0.5207
 4147SOL     OW24076   1.716   3.245  16.771  0.2329 -0.4737  0.2927
 4147SOL    HW124077   1.740   3.172  16.714 -0.8969 -1.3038  0.9042
 4147SOL    HW224078   1.685   3.311  16.709 -2.1062 -1.4251  0.4393
 4148SOL     OW24079   2.769   1.876   8.634  0.1088  0.4662  0.1731
 4148SOL    HW124080   2.697   1.917   8.587 -0.9524 -2.5307 -0.7993
 4148SOL    HW224081   2.813   1.845   8.555 -0.7304  0.3283 -0.2417
 4149SOL     OW24082   2.125   1.539  17.641  0.2139  0.2382 -0.4189
 4149SOL    HW124083   2.055   1.589  17.682  0.8757  0.8030  0.0079
 4149SOL    HW224084   2.137   1.577  17.554  1.4233  0.7151 -0.0242
 4150SOL     OW24085   0.387   1.384   8.844  0.2209  0.1589 -0.6866
 4150SOL    HW124086   0.345   1.462   8.880 -0.2691 -0.9581  1.1311
 4150SOL    HW224087   0.316   1.360   8.785  0.2198  1.0369 -1.0494
 4151SOL     OW24088   0.119   0.954   2.523 -0.2378 -0.5931 -0.4363
 4151SOL    HW124089   0.171   1.003   2.459  0.2007  2.0490  1.9579
 4151SOL    HW224090   0.035   0.940   2.478 -0.6547 -1.1011  0.5077
 4152SOL     OW24091   1.891   3.779   8.091  0.2736  0.1337 -0.2050
 4152SOL    HW124092   1.967   3.837   8.088 -0.4611  1.1363  0.6908
 4152SOL    HW224093   1.895   3.732   8.007 -0.3135 -2.9401  1.4752
 4153SOL     OW24094   1.621   3.349   5.924  0.4288 -0.5882 -0.6812
 4153SOL    HW124095   1.532   3.373   5.948  0.0539 -0.2706 -2.3574
 4153SOL    HW224096   1.649   3.293   5.997 -2.0634 -2.7373 -1.3747
 4154SOL     OW24097   2.026   0.127   3.550  0.1104 -0.5756 -0.0228
 4154SOL    HW124098   2.113   0.109   3.513  0.5015  1.3764 -0.0544
 4154SOL    HW224099   2.043   0.212   3.591 -0.1851 -0.3474 -0.3751
 4155SOL     OW24100   1.343   2.554  12.289 -0.0210 -0.3375  0.4172
 4155SOL    HW124101   1.425   2.561  12.241  0.3834 -1.2094  0.9995
 4155SOL    HW224102   1.361   2.591  12.376 -1.1667 -0.4066  0.6891
 4156SOL     OW24103   0.624   3.756  11.501 -1.0935  1.1234 -0.1284
 4156SOL    HW124104   0.610   3.762  11.596 -0.7394  0.0623 -0.0060
 4156SOL    HW224105   0.716   3.781  11.494 -0.5423 -0.9735 -0.3191
 4157SOL     OW24106   2.798   4.182   3.232 -0.4676  0.5454  0.3182
 4157SOL    HW124107   2.885   4.184   3.272 -1.1887 -1.0588  1.9342
 4157SOL    HW224108   2.753   4.125   3.294 -0.0935 -0.8672 -0.7257
 4158SOL     OW24109   4.580   4.291   8.716 -0.1077  0.3530 -0.6830
 4158SOL    HW124110   4.535   4.309   8.634 -2.0721 -0.4408  0.2038
 4158SOL    HW224111   4.662   4.336   8.696 -0.8437  0.3052 -3.8292
 4159SOL     OW24112   2.574   2.436   0.162 -0.1234  0.5137 -0.1528
 4159SOL    HW124113   2.629   2.430   0.240 -2.2488  1.3070  1.4352
 4159SOL    HW224114   2.616   2.382   0.096  0.4103  0.2715  0.3867
 4160SOL     OW24115   2.012   1.680   6.059  0.2118  1.0159 -0.1406
 4160SOL    HW124116   1.970   1.623   6.123  0.3376  1.0825  0.0024
 4160SOL    HW224117   2.093   1.628   6.063 -0.3403  0.3129  2.4733
 4161SOL     OW24118   0.231   4.236   6.975 -0.1644  0.5520 -0.5691
 4161SOL    HW124119   0.149   4.282   6.961  0.0508 -0.0388 -3.7072
 4161SOL    HW224120   0.196   4.147   6.982 -0.4954  0.8335  1.4468
 4162SOL     OW24121   0.352   1.429   6.141  0.3558 -0.3075 -0.1091
 4162SOL    HW124122   0.362   1.429   6.046 -0.6841  1.6654 -0.2215
 4162SOL    HW224123   0.259   1.453   6.147  0.9078  1.5512  0.9452
 4163SOL     OW24124   2.069   0.984   1.884 -0.3210 -0.0492 -0.3088
 4163SOL    HW124125   1.987   0.990   1.834  0.2334  0.2111 -1.1951
 4163SOL    HW224126   2.045   0.914   1.944  2.2310 -1.8993 -1.4835
 4164SOL     OW24127   0.741   0.804   0.032 -0.1566 -0.1518  0.2943
 4164SOL    HW124128   0.766   0.890   0.066  1.3444 -0.7578  0.7264
 4164SOL    HW224129   0.685   0.825  17.706  1.1116  1.3013 -0.2500
 4165SOL     OW24130   4.616   4.437   5.205 -0.0763 -0.3653 -0.0933
 4165SOL    HW124131   4.692   4.466   5.154 -0.9664 -2.3192 -2.5465
 4165SOL    HW224132   4.593   4.350   5.173 -0.8869 -0.0832 -0.2872
 4166SOL     OW24133   1.264   0.272   8.265 -0.3201 -0.1639  0.7157
 4166SOL    HW124134   1.304   0.273   8.352  1.1116  0.0746  0.0573
 4166SOL    HW224135   1.339   0.307   8.217 -0.6877  1.5110  1.3572
 4167SOL     OW24136   1.031   0.159   5.722 -0.4403  0.5088 -0.4359
 4167SOL    HW124137   1.012   0.210   5.643  1.4926 -1.8219 -2.3862
 4167SOL    HW224138   1.111   0.114   5.695  0.1037 -0.6441  3.1407
 4168SOL     OW24139   3.226   3.336   3.628  0.0957 -0.8257  0.3568
 4168SOL    HW124140   3.170   3.312   3.554 -1.0177 -0.8010  1.1954
 4168SOL    HW224141   3.245   3.428   3.611  2.0758 -1.4948 -1.0125
 4169SOL     OW24142   1.650   2.569  13.196 -0.3478 -0.3643  0.7174
 4169SOL    HW124143   1.567   2.537  13.231  0.9286 -1.7611  2.4224
 4169SOL    HW224144   1.636   2.577  13.102  1.4380  0.1133  0.4880
 4170SOL     OW24145   4.495   2.924  14.554  0.6170 -0.3942  0.4508
 4170SOL    HW124146   4.424   2.875  14.597 -1.2091  1.6443 -0.2500
 4170SOL    HW224147   4.561   2.927  14.624  1.5230 -1.8517 -0.3428
 4171SOL     OW24148   2.568   3.349  14.125 -0.1759 -0.3088  0.0634
 4171SOL    HW124149   2.623   3.300  14.064 -0.0445  0.7097 -0.6338
 4171SOL    HW224150   2.483   3.305  14.129 -0.2576 -0.1059  0.6274
 4172SOL     OW24151   3.402   0.022   1.249  0.1089  0.0046 -0.2000
 4172SOL    HW124152   3.452   0.009   1.169  1.6638  1.8434  0.4770
 4172SOL    HW224153   3.467   0.055   1.311  0.5503 -2.4268  0.6462
 4173SOL     OW24154   0.124   0.323   8.403  0.6208  0.5900  0.4185
 4173SOL    HW124155   0.189   0.286   8.343 -1.0452 -0.3619 -0.8122
 4173SOL    HW224156   0.139   0.417   8.404  2.2376  0.3600 -2.4917
 4174SOL     OW24157   0.938   1.802   8.275 -0.2301 -0.0510  0.1155
 4174SOL    HW124158   0.844   1.820   8.280 -0.3266 -0.5853  0.1835
 4174SOL    HW224159   0.942   1.748   8.354 -2.5084 -0.3014  0.0555
 4175SOL     OW24160   0.310   3.787   5.793  0.5898 -0.2940  0.5067
 4175SOL    HW124161   0.253   3.863   5.803 -1.6191 -1.8253 -0.3532
 4175SOL    HW224162   0.263   3.721   5.845  0.4442 -1.1397 -0.6863
 4176SOL     OW24163   4.060   0.173   1.039 -0.7809  0.5811 -0.7497
 4176SOL    HW124164   4.067   0.110   1.110 -3.1424  1.3183  0.1199
 4176SOL    HW224165   4.125   0.228   1.083 -2.3001  2.5046 -0.9091
 4177SOL     OW24166   4.589   4.202  16.519 -0.0559 -0.0773 -0.3088
 4177SOL    HW124167   4.567   4.144  16.592  1.0686  1.7010  1.4381
 4177SOL    HW224168   4.582   4.291  16.553  1.5189  0.1950 -0.6693
 4178SOL     OW24169   3.952   3.726   1.399 -0.2439 -0.0404 -0.2234
 4178SOL    HW124170   3.901   3.799   1.434  0.6142  0.6132 -0.3408
 4178SOL    HW224171   3.910   3.649   1.438  0.4912  0.0658  0.7609
 4179SOL     OW24172   2.045   2.826   2.577  0.4597 -0.3456  0.3854
 4179SOL    HW124173   2.021   2.749   2.629  1.8940  1.2060  3.3325
 4179SOL    HW224174   2.082   2.892   2.636  0.7538 -0.4980  0.3738
 4180SOL     OW24175   2.688   0.751  17.012 -0.3255  1.0425  0.4338
 4180SOL    HW124176   2.595   0.754  17.035 -0.3193 -0.8026  0.6381
 4180SOL    HW224177   2.703   0.658  16.998 -1.1036  0.5768  2.8695
 4181SOL     OW24178   2.776   2.396  17.708  0.1185 -0.1892 -0.3377
 4181SOL    HW124179   2.803   2.438  17.626  0.5732  3.2294  1.5482
 4181SOL    HW224180   2.845   2.422   0.021  0.1929 -0.7475 -0.1843
 4182SOL     OW24181   0.239   1.605   7.125 -0.2478 -0.1329  0.1303
 4182SOL    HW124182   0.186   1.532   7.093 -0.7468  1.6067 -2.9567
 4182SOL    HW224183   0.251   1.569   7.213 -1.9547  1.7341  1.1295
 4183SOL     OW24184   2.354   2.887   4.438  0.2809  0.2960  0.6961
 4183SOL    HW124185   2.436   2.871   4.392  0.1328 -2.6307  1.4897
 4183SOL    HW224186   2.329   2.973   4.403 -0.8139 -0.3110 -0.0193
 4184SOL     OW24187   2.004   0.741  10.646 -0.1349  0.5678  0.0253
 4184SOL    HW124188   1.989   0.785  10.562 -1.8598  1.5663  0.8600
 4184SOL    HW224189   1.955   0.659  10.638  1.5481 -0.4508  0.2122
 4185SOL     OW24190   2.320   0.068  10.951 -0.3975  0.1939  0.0257
 4185SOL    HW124191   2.314   4.713  10.977  0.1778 -0.1661 -1.1292
 4185SOL    HW224192   2.322   0.052  10.857  1.4721 -0.3975  0.1606
 4186SOL     OW24193   1.885   4.024   3.310  0.7075  0.6020 -0.3643
 4186SOL    HW124194   1.923   4.018   3.223 -0.8817 -0.4088 -0.9929
 4186SOL    HW224195   1.920   4.105   3.347  2.3104  0.8759 -2.4899
 4187SOL     OW24196   4.222   0.025   7.464 -0.2850  0.5964  0.6070
 4187SOL    HW124197   4.261   4.686   7.423  2.3080  2.5766 -0.6242
 4187SOL    HW224198   4.136   0.012   7.425  0.0337  0.1010  0.0841
 4188SOL     OW24199   3.633   1.133   3.522 -0.0134  0.5306 -0.2848
 4188SOL    HW124200   3.714   1.139   3.472  0.7833 -0.8151  0.8387
 4188SOL    HW224201   3.618   1.041   3.500  2.5428  0.8444 -3.3006
 4189SOL     OW24202   4.024   2.761   5.270 -0.5256 -0.0107 -0.1597
 4189SOL    HW124203   3.998   2.734   5.182  0.9306 -0.5283 -0.4296
 4189SOL    HW224204   4.074   2.839   5.248  0.1046 -0.4163 -0.1475
 4190SOL     OW24205   1.541   0.199  15.375 -0.4726 -0.3198 -0.0995
 4190SOL    HW124206   1.523   0.292  15.360 -0.9922 -0.4863 -0.5206
 4190SOL    HW224207   1.595   0.191  15.296 -0.9994 -0.1527 -0.4792
 4191SOL     OW24208   0.769   2.464   0.080 -0.6823 -0.0133  0.2705
 4191SOL    HW124209   0.780   2.421  17.744 -0.0668 -1.0586  0.8814
 4191SOL    HW224210   0.861   2.454   0.105 -0.5140 -0.0512 -0.3552
 4192SOL     OW24211   2.893   3.796   3.070  0.0003  0.3358 -0.4926
 4192SOL    HW124212   2.873   3.810   3.163  1.3826  1.3870 -0.3503
 4192SOL    HW224213   2.824   3.736   3.044  0.1869 -0.0253 -0.1629
 4193SOL     OW24214   4.020   0.350  17.549  0.4275 -0.3415 -0.4381
 4193SOL    HW124215   4.024   0.360  17.454 -0.9685  1.7726 -0.2833
 4193SOL    HW224216   3.953   0.418  17.561  0.1386 -0.6011 -0.5688
 4194SOL     OW24217   4.008   1.037   7.978 -0.2934 -0.1352 -0.6748
 4194SOL    HW124218   4.103   1.043   7.980 -0.4215  1.8022 -0.8550
 4194SOL    HW224219   4.009   0.970   7.909 -0.6474  0.2852 -1.0861
 4195SOL     OW24220   4.011   0.238   1.601  0.1496 -0.6065 -0.4730
 4195SOL    HW124221   3.916   0.251   1.604 -0.2812 -4.2225  0.9827
 4195SOL    HW224222   4.039   0.292   1.675  0.6527 -0.6317 -0.6465
 4196SOL     OW24223   2.625   2.598   6.269  0.1597 -0.0107 -0.2453
 4196SOL    HW124224   2.645   2.691   6.273  0.8153 -0.2605  2.1154
 4196SOL    HW224225   2.548   2.597   6.326  2.6419 -1.1771  3.0778
 4197SOL     OW24226   2.838   1.277   9.875  0.0479  0.7237  0.4082
 4197SOL    HW124227   2.912   1.221   9.899  0.1426  0.2072 -1.1365
 4197SOL    HW224228   2.788   1.221   9.815  1.1692  0.1915 -0.0205
 4198SOL     OW24229   2.285   1.378   5.371  0.1391 -0.6976  0.0685
 4198SOL    HW124230   2.331   1.298   5.396 -1.1738 -0.9608  1.6571
 4198SOL    HW224231   2.331   1.400   5.290 -0.7288 -0.9592 -0.4928
 4199SOL     OW24232   3.116   2.228   9.831 -0.4711 -0.4071 -0.2872
 4199SOL    HW124233   3.200   2.243   9.788  0.0773 -2.7317 -0.0404
 4199SOL    HW224234   3.064   2.308   9.828  0.2621  0.1020  0.7508
 4200SOL     OW24235   2.533   2.166   2.389  0.0050  0.2032 -0.6928
 4200SOL    HW124236   2.583   2.123   2.319 -2.0463  0.1793 -2.1489
 4200SOL    HW224237   2.449   2.121   2.379 -1.3947  2.7346 -0.1140
 4201SOL     OW24238   1.365   2.969  12.674  0.3916  0.2957  0.1790
 4201SOL    HW124239   1.278   2.932  12.654 -0.1379  1.4597  0.3389
 4201SOL    HW224240   1.417   2.889  12.677 -1.6015 -1.0685 -0.8879
 4202SOL     OW24241   0.649   4.447   4.183 -0.0656 -0.1350 -0.0467
 4202SOL    HW124242   0.677   4.427   4.093  1.4905 -0.7884  0.5845
 4202SOL    HW224243   0.725   4.413   4.230  0.5537  0.4804 -0.5886
 4203SOL     OW24244   1.543   1.963  15.355 -0.0312  0.1230 -0.5361
 4203SOL    HW124245   1.539   2.031  15.288  1.9015 -0.3016 -1.0886
 4203SOL    HW224246   1.462   1.967  15.405  0.3114 -1.4145  0.1555
 4204SOL     OW24247   0.061   0.698  13.190  0.2784  0.6230 -0.1243
 4204SOL    HW124248   0.021   0.642  13.123  4.0630 -1.7798 -0.3913
 4204SOL    HW224249   0.065   0.641  13.266  0.9363  1.0282  0.1413
 4205SOL     OW24250   2.785   2.127   3.130 -0.6425  0.1590  0.2658
 4205SOL    HW124251   2.870   2.163   3.104 -0.6403 -0.3997 -0.5278
 4205SOL    HW224252   2.763   2.185   3.202  1.2366  0.6263  0.4682
 4206SOL     OW24253   1.191   2.468   2.528 -0.7534  0.3612 -0.0393
 4206SOL    HW124254   1.117   2.465   2.589 -1.0041 -0.4909 -0.3842
 4206SOL    HW224255   1.249   2.533   2.567 -0.2166  0.1537 -0.4888
 4207SOL     OW24256   4.404   3.465   8.263 -0.5846 -0.3788  0.0586
 4207SOL    HW124257   4.433   3.438   8.351  3.5463  1.0287 -0.8634
 4207SOL    HW224258   4.376   3.555   8.278  3.7236  1.4454 -2.8084
 4208SOL     OW24259   1.926   4.210   8.470 -0.1240  0.6616  0.7536
 4208SOL    HW124260   1.889   4.134   8.426  0.9028 -1.7662  4.1145
 4208SOL    HW224261   1.955   4.163   8.548  0.4414  1.0574  0.7851
 4209SOL     OW24262   0.918   4.075  14.172 -0.3398 -0.6223  0.0761
 4209SOL    HW124263   0.869   4.012  14.119 -0.5320  0.3423 -0.9022
 4209SOL    HW224264   0.980   4.012  14.209 -0.3301 -1.2423 -0.9845
 4210SOL     OW24265   3.449   1.303  10.535  0.6579 -0.1970  0.2670
 4210SOL    HW124266   3.455   1.223  10.483 -0.3780 -0.0934 -0.0085
 4210SOL    HW224267   3.359   1.301  10.566  1.0368 -2.9183  1.1245
 4211SOL     OW24268   3.973   3.471  13.031  0.5799  0.2882 -0.0258
 4211SOL    HW124269   3.909   3.529  12.990 -0.1180  0.4812  1.3562
 4211SOL    HW224270   4.014   3.530  13.094 -0.1323 -0.1671  0.8571
 4212SOL     OW24271   4.137   1.985   5.126 -0.2026 -0.8966 -0.1027
 4212SOL    HW124272   4.121   1.944   5.211 -1.9856 -0.4678 -0.2311
 4212SOL    HW224273   4.102   1.915   5.070  1.6977 -1.0412 -1.1066
 4213SOL     OW24274   3.056   4.298   0.738 -0.3886 -0.3866  0.0551
 4213SOL    HW124275   3.129   4.249   0.699  1.1740  1.8738  0.0786
 4213SOL    HW224276   2.985   4.235   0.746 -0.4511 -0.3119  0.0833
 4214SOL     OW24277   2.330   0.532   2.471  0.1425  0.4122 -0.6283
 4214SOL    HW124278   2.335   0.443   2.436  0.7088  1.0179 -2.0542
 4214SOL    HW224279   2.239   0.557   2.458  0.1746 -0.5041 -2.5356
 4215SOL     OW24280   4.705   0.493  17.648  0.2313 -0.4585  0.0389
 4215SOL    HW124281   4.666   0.450  17.724  0.8858  0.4681  0.9076
 4215SOL    HW224282   0.055   0.504  17.685 -1.0892  2.2222  2.4334
 4216SOL     OW24283   2.333   0.720   7.106  0.3658 -0.3014  0.7412
 4216SOL    HW124284   2.316   0.768   7.187  0.3301 -1.8059  1.6411
 4216SOL    HW224285   2.354   0.783   7.038  1.3527 -2.3689 -0.8789
 4217SOL     OW24286   2.119   4.328   7.134 -0.0585  0.5743 -0.1489
 4217SOL    HW124287   2.095   4.347   7.043  1.0299 -1.7392 -0.9418
 4217SOL    HW224288   2.205   4.298   7.102  0.0289  0.0327  0.5905
 4218SOL     OW24289   0.555   1.229   6.075  0.1030 -0.1853  0.3364
 4218SOL    HW124290   0.630   1.190   6.030  0.4360  0.4371  0.3549
 4218SOL    HW224291   0.551   1.316   6.035 -1.3617 -0.0795  0.7281
 4219SOL     OW24292   3.817   2.985   4.188  0.6892  0.4420  0.1340
 4219SOL    HW124293   3.822   3.003   4.094 -0.4027  1.3089  0.2405
 4219SOL    HW224294   3.876   3.052   4.224 -0.2753  1.6442 -0.5386
 4220SOL     OW24295   0.639   0.096   3.100 -0.7354 -0.3995  0.7837
 4220SOL    HW124296   0.591   0.078   3.020  1.0201  1.3102 -0.6425
 4220SOL    HW224297   0.635   0.012   3.145 -1.3906 -1.0668 -0.5397
 4221SOL     OW24298   0.292   3.714   5.530  0.6689  0.5986 -0.0993
 4221SOL    HW124299   0.302   3.805   5.503  0.4191  0.8868  0.7884
 4221SOL    HW224300   0.299   3.710   5.625 -0.0884 -1.6722 -0.1407
 4222SOL     OW24301   0.468   2.966   9.091  0.2160 -0.0837  0.0995
 4222SOL    HW124302   0.551   3.004   9.121  1.7532 -1.7954 -1.9384
 4222SOL    HW224303   0.444   2.923   9.173 -1.2570 -1.3813 -1.0038
 4223SOL     OW24304   0.632   3.022   2.417 -0.3845  0.5461 -0.3103
 4223SOL    HW124305   0.634   2.928   2.439  0.7099  1.1066  1.9934
 4223SOL    HW224306   0.555   3.028   2.361  0.0620 -0.7089 -1.0671
 4224SOL     OW24307   2.539   4.497   2.347  0.0452 -0.2387  0.1670
 4224SOL    HW124308   2.543   4.404   2.367 -0.0811 -0.0627  1.0025
 4224SOL    HW224309   2.443   4.494   2.349  0.1385 -2.0000  1.1893
 4225SOL     OW24310   1.773   4.312   4.800 -0.0825 -0.4061 -0.0822
 4225SOL    HW124311   1.812   4.391   4.761  0.9547 -1.0694 -0.3780
 4225SOL    HW224312   1.761   4.350   4.887  0.1129  0.2040 -0.3187
 4226SOL     OW24313   0.899   1.620   4.530 -0.1905  0.1535  0.0960
 4226SOL    HW124314   0.867   1.534   4.502 -0.3997  0.3188 -0.1660
 4226SOL    HW224315   0.968   1.584   4.586 -2.5799 -0.1389  2.8593
 4227SOL     OW24316   3.994   0.673   3.177 -0.1428  0.3065  0.0401
 4227SOL    HW124317   3.949   0.589   3.191  0.3345  0.0638  0.1283
 4227SOL    HW224318   4.079   0.661   3.220 -0.8477  0.2785  1.4114
 4228SOL     OW24319   2.522   2.257  17.126 -0.0988 -0.2309  0.1809
 4228SOL    HW124320   2.520   2.235  17.032 -0.5313  0.7061 -0.0264
 4228SOL    HW224321   2.427   2.266  17.138  0.3080 -0.7001  3.7156
 4229SOL     OW24322   3.949   2.124   7.368 -0.2475  0.5157  0.1297
 4229SOL    HW124323   3.867   2.076   7.374 -0.2626  1.2533  5.9262
 4229SOL    HW224324   3.975   2.115   7.277 -1.6151  0.5513 -0.2653
 4230SOL     OW24325   0.115   4.454  17.125  0.8289  0.2941  0.3248
 4230SOL    HW124326   0.207   4.428  17.120  0.9660  0.3291  2.7241
 4230SOL    HW224327   0.124   4.534  17.073  1.7757  0.1266  0.2307
 4231SOL     OW24328   3.223   2.106   7.149  0.3441 -0.4081  0.2117
 4231SOL    HW124329   3.186   2.033   7.100 -0.2715  0.7829 -1.0914
 4231SOL    HW224330   3.284   2.135   7.082 -1.0904  4.5293  1.0265
 4232SOL     OW24331   2.194   4.375   0.832 -0.1501 -0.7637 -0.1559
 4232SOL    HW124332   2.131   4.448   0.826  1.6739  0.8095 -0.1331
 4232SOL    HW224333   2.213   4.382   0.925 -2.7550  1.6189  0.2066
 4233SOL     OW24334   0.949   3.599   1.512 -0.9266  0.3918 -0.0722
 4233SOL    HW124335   1.002   3.676   1.535 -0.1878 -0.0162 -0.4440
 4233SOL    HW224336   0.993   3.580   1.430 -3.0855 -0.5111 -0.9948
 4234SOL     OW24337   1.722   0.043   7.090 -0.0282 -0.4525  0.4347
 4234SOL    HW124338   1.802   0.052   7.142  0.1763  0.3005 -0.0085
 4234SOL    HW224339   1.661   4.736   7.150 -2.4033  0.6496 -1.1751
 4235SOL     OW24340   0.193   3.983   7.067  0.5864 -0.5395 -0.1964
 4235SOL    HW124341   0.259   4.003   7.133  0.2365  2.6064 -0.8266
 4235SOL    HW224342   0.132   3.927   7.115 -0.5486  1.2793  0.4514
 4236SOL     OW24343   3.992   1.428   7.880 -0.1434  0.0538 -0.0739
 4236SOL    HW124344   4.022   1.479   7.805  0.0018 -0.9437 -0.6935
 4236SOL    HW224345   4.075   1.381   7.879 -0.5460 -0.7094  1.1808
 4237SOL     OW24346   1.495   2.097   3.402  0.5640  0.4633 -0.0448
 4237SOL    HW124347   1.591   2.101   3.411  0.5882 -1.7824  0.4779
 4237SOL    HW224348   1.485   2.019   3.348  0.8498  0.5672 -0.2497
 4238SOL     OW24349   3.787   0.665   4.688  0.9000 -0.0778 -0.2724
 4238SOL    HW124350   3.794   0.752   4.647 -0.0274 -0.7258 -1.8134
 4238SOL    HW224351   3.879   0.649   4.710  0.4943  0.5839  1.8467
 4239SOL     OW24352   4.086   3.971   2.292 -0.9274 -0.3735  0.1270
 4239SOL    HW124353   4.175   3.957   2.323 -1.1111  2.8968  2.2443
 4239SOL    HW224354   4.040   3.959   2.375 -0.9986  1.7321  0.4109
 4240SOL     OW24355   4.130   4.037   8.976 -0.4160 -0.6128 -0.7118
 4240SOL    HW124356   4.174   4.007   9.055 -1.0309  0.8133  0.1844
 4240SOL    HW224357   4.041   4.003   8.984 -1.1598  0.7534 -3.0765
 4241SOL     OW24358   2.204   3.169   5.176  0.2381  0.3352 -0.6892
 4241SOL    HW124359   2.194   3.150   5.270 -3.7668 -0.9932 -1.3797
 4241SOL    HW224360   2.292   3.134   5.163  0.7997  2.3480 -2.2666
 4242SOL     OW24361   2.262   0.691   4.241  0.0443 -0.4501  0.2334
 4242SOL    HW124362   2.325   0.667   4.173  0.8882  1.5403  0.2953
 4242SOL    HW224363   2.200   0.737   4.184  1.7852 -0.1481 -1.4362
 4243SOL     OW24364   0.248   4.546   7.760  0.4968 -0.0885  0.0984
 4243SOL    HW124365   0.223   4.601   7.685 -2.8096 -0.7162  0.7675
 4243SOL    HW224366   0.283   4.468   7.717 -0.4966  0.3013 -1.4128
 4244SOL     OW24367   3.983   2.125   4.209 -0.7682 -0.0803 -0.4779
 4244SOL    HW124368   4.042   2.050   4.213  0.7237  1.2743  2.3653
 4244SOL    HW224369   3.912   2.095   4.266  0.4215 -0.6911  0.6869
 4245SOL     OW24370   1.102   3.631   4.886 -0.3532  0.7393 -0.1419
 4245SOL    HW124371   1.106   3.544   4.927  0.1476  0.8688  0.0856
 4245SOL    HW224372   1.017   3.664   4.915 -0.0351  1.7543 -0.3600
 4246SOL     OW24373   2.347   1.532  17.132 -0.0793 -0.5732 -0.4445
 4246SOL    HW124374   2.386   1.618  17.147  1.8776 -2.2321  3.8433
 4246SOL    HW224375   2.423   1.480  17.106  1.1867  1.5599 -1.0545
 4247SOL     OW24376   0.135   2.912  16.291  0.1301  0.6181  0.1494
 4247SOL    HW124377   0.132   2.821  16.263  0.6980  0.3453  0.9615
 4247SOL    HW224378   0.186   2.893  16.370  2.1103  0.7227 -1.1109
 4248SOL     OW24379   3.350   2.466  10.002 -1.0059 -0.1605  0.0896
 4248SOL    HW124380   3.313   2.438   9.918 -0.9641 -2.2497  0.7732
 4248SOL    HW224381   3.310   2.552  10.014  0.6793  0.6489 -0.1856
 4249SOL     OW24382   2.077   2.623   3.281 -0.3006 -0.0079  0.8038
 4249SOL    HW124383   2.136   2.578   3.220 -2.2056 -0.0067 -1.0260
 4249SOL    HW224384   2.150   2.661   3.331 -1.0106 -1.1617  2.7031
 4250SOL     OW24385   3.418   3.304   4.727 -0.0531  0.3999 -0.0350
 4250SOL    HW124386   3.328   3.326   4.753 -0.5380 -1.6060  0.0174
 4250SOL    HW224387   3.407   3.323   4.633 -0.7366 -0.2343 -0.0890
 4251SOL     OW24388   0.959   3.143   0.407  0.0983 -0.1700  0.6537
 4251SOL    HW124389   0.954   3.206   0.335 -2.4496 -1.7152 -0.5115
 4251SOL    HW224390   0.948   3.188   0.491 -1.5774  0.2032  0.2416
 4252SOL     OW24391   4.717   3.360  11.336 -0.1809 -0.0864  0.0052
 4252SOL    HW124392   0.005   3.422  11.268  0.8216  0.3583  0.7920
 4252SOL    HW224393   4.649   3.312  11.288  0.2187  1.5596 -2.2160
 4253SOL     OW24394   2.820   4.528   7.506 -0.2578  0.1030  0.1974
 4253SOL    HW124395   2.739   4.550   7.551 -0.9067  0.0703 -0.9622
 4253SOL    HW224396   2.778   4.520   7.421 -0.6440 -0.0361  0.4056
 4254SOL     OW24397   4.555   2.600   4.873 -0.3956  0.5657  0.6697
 4254SOL    HW124398   4.508   2.639   4.946 -2.5307  0.3542 -0.5955
 4254SOL    HW224399   4.639   2.644   4.887 -0.6991  1.5140 -0.5494
 4255SOL     OW24400   2.491   0.817   2.195  0.1006  0.1915  0.0769
 4255SOL    HW124401   2.565   0.812   2.134 -1.0609 -0.1451 -1.2950
 4255SOL    HW224402   2.521   0.888   2.252  1.1561 -0.2614  0.0895
 4256SOL     OW24403   3.394   4.030  12.051  0.3690 -0.5475 -0.6643
 4256SOL    HW124404   3.346   3.974  11.991  0.0838  1.9143 -2.7399
 4256SOL    HW224405   3.325   4.082  12.092  0.4858 -1.9434  1.3361
 4257SOL     OW24406   2.628   2.143   0.252  0.2872  0.2607 -0.3234
 4257SOL    HW124407   2.581   2.165   0.333  0.0439 -0.8228 -0.1759
 4257SOL    HW224408   2.565   2.151   0.181  2.0295  2.3177 -1.6571
 4258SOL     OW24409   1.528   2.609   1.318 -0.1994  0.1281 -0.7806
 4258SOL    HW124410   1.500   2.649   1.236  1.1920 -0.7203 -1.6660
 4258SOL    HW224411   1.454   2.637   1.371  0.2277  0.9253 -0.6101
 4259SOL     OW24412   2.800   1.692   8.172 -0.2402 -0.3916 -0.5245
 4259SOL    HW124413   2.737   1.620   8.176  0.3061 -0.8320  0.1084
 4259SOL    HW224414   2.757   1.765   8.127 -0.4559  0.1405  0.5458
 4260SOL     OW24415   1.025   2.053   7.969  0.5269  0.0476 -0.1259
 4260SOL    HW124416   1.021   2.131   8.025 -0.7009  1.2946 -1.9742
 4260SOL    HW224417   1.040   1.982   8.032  1.9983 -0.0069 -0.5208
 4261SOL     OW24418   0.366   2.440   5.183  0.1944  0.2083  0.1955
 4261SOL    HW124419   0.336   2.363   5.135 -1.7669 -0.5389  2.5827
 4261SOL    HW224420   0.461   2.431   5.173 -0.1527 -1.2017 -1.7609
 4262SOL     OW24421   3.926   2.227   6.335 -0.2517  0.1656 -0.2255
 4262SOL    HW124422   3.834   2.201   6.345 -0.4827  1.6362  1.5428
 4262SOL    HW224423   3.915   2.317   6.366 -0.5399  0.1123 -0.1645
 4263SOL     OW24424   3.784   3.683   2.793 -0.0640 -0.3692 -0.4449
 4263SOL    HW124425   3.751   3.641   2.873  0.9869 -0.6432 -0.1609
 4263SOL    HW224426   3.794   3.775   2.817  2.1072 -0.6923 -0.1595
 4264SOL     OW24427   3.167   1.992   8.498 -0.0278 -0.4031 -0.1439
 4264SOL    HW124428   3.101   2.015   8.433 -0.0769  1.6661  0.6780
 4264SOL    HW224429   3.162   2.076   8.543  0.5652 -1.2742  1.5315
 4265SOL     OW24430   0.891   0.717  13.231  0.3012 -0.0086  0.2746
 4265SOL    HW124431   0.877   0.651  13.164  0.3860  0.2621 -0.0120
 4265SOL    HW224432   0.847   0.793  13.192 -2.1953 -1.7369 -0.3162
 4266SOL     OW24433   4.469   1.085   8.886  0.5422 -0.4349 -0.5261
 4266SOL    HW124434   4.413   1.163   8.883  1.4948  0.3009  0.8336
 4266SOL    HW224435   4.452   1.069   8.979 -1.4554 -0.4090 -0.8861
 4267SOL     OW24436   3.327   1.296  15.634  0.0406  0.6034 -0.3556
 4267SOL    HW124437   3.361   1.383  15.611 -0.5088  0.6881 -0.8697
 4267SOL    HW224438   3.405   1.247  15.656 -1.3247 -0.6620  1.6447
 4268SOL     OW24439   0.972   4.130  14.875  0.6591 -0.4042 -0.4290
 4268SOL    HW124440   1.059   4.147  14.912 -0.2034 -1.9739  2.3935
 4268SOL    HW224441   0.993   4.062  14.812 -2.1603 -0.1117 -1.6733
 4269SOL     OW24442   1.975   2.122   9.583 -0.6654  0.0186  0.1215
 4269SOL    HW124443   2.036   2.110   9.656 -2.7326  0.3901  1.9020
 4269SOL    HW224444   1.978   2.216   9.566 -0.0060  0.2802  1.6763
 4270SOL     OW24445   4.678   2.828   5.018  1.0472  0.2487  0.8093
 4270SOL    HW124446   4.585   2.820   5.038  1.0417  1.0722  1.1108
 4270SOL    HW224447   4.722   2.827   5.103  0.9773  0.9149  0.8506
 4271SOL     OW24448   2.284   3.878  15.257 -0.1319 -0.3997 -0.3727
 4271SOL    HW124449   2.199   3.862  15.299  0.6277 -2.5544  0.3115
 4271SOL    HW224450   2.338   3.921  15.322 -1.1647  1.9628 -1.0737
 4272SOL     OW24451   2.612   0.138  14.114 -0.1347  0.3511 -0.2712
 4272SOL    HW124452   2.616   0.072  14.045 -1.0466  0.7089 -0.6527
 4272SOL    HW224453   2.554   0.100  14.180  0.0545 -0.9548 -0.8411
 4273SOL     OW24454   1.702   0.091  10.835 -0.4849  0.4610  0.0688
 4273SOL    HW124455   1.619   0.066  10.875 -0.0866 -1.7277 -0.4965
 4273SOL    HW224456   1.768   0.072  10.902 -0.5680 -0.6242 -0.1666
 4274SOL     OW24457   0.452   2.043   9.235 -0.0605  0.0949  0.0973
 4274SOL    HW124458   0.479   1.972   9.294 -0.8642  0.0245  0.3800
 4274SOL    HW224459   0.363   2.007   9.231 -0.8020  1.8259  0.8976
 4275SOL     OW24460   0.983   0.269   9.316 -0.0862 -0.1337  0.1819
 4275SOL    HW124461   0.911   0.308   9.366 -1.0403  0.4634 -1.6533
 4275SOL    HW224462   1.049   0.247   9.380 -0.2651  1.7163  1.0072
 4276SOL     OW24463   0.042   3.907   2.998 -0.6191  0.2450  0.3700
 4276SOL    HW124464   4.718   3.899   2.925 -2.3422 -0.3946  1.8694
 4276SOL    HW224465   4.735   3.977   3.046 -0.5537 -0.1031  0.9380
 4277SOL     OW24466   1.896   4.681  11.647  0.6734  0.2430  1.0760
 4277SOL    HW124467   1.930   4.592  11.658  1.2869  0.0722 -2.2262
 4277SOL    HW224468   1.828   4.688  11.715  0.7122  1.3935  0.9877
 4278SOL     OW24469   2.964   0.653   6.027  0.6313  0.2542 -0.4864
 4278SOL    HW124470   2.964   0.718   6.096  1.6383 -0.7022  0.4159
 4278SOL    HW224471   2.879   0.665   5.985 -0.1012 -1.3674  0.5438
 4279SOL     OW24472   1.115   0.315   2.016 -0.3635  0.0532 -0.5126
 4279SOL    HW124473   1.158   0.353   2.093  0.0913 -0.4442 -0.5195
 4279SOL    HW224474   1.035   0.282   2.055  1.0627 -2.9236 -0.1280
 4280SOL     OW24475   1.791   1.922   9.619 -0.3229 -0.0966  0.7697
 4280SOL    HW124476   1.810   1.942   9.710  4.1964  0.4739 -0.2920
 4280SOL    HW224477   1.853   1.983   9.579  0.4403 -0.3678  1.5508
 4281SOL     OW24478   3.080   2.567   7.879 -0.1726  0.2009  0.1939
 4281SOL    HW124479   3.158   2.572   7.824  0.6479 -2.5589  1.0708
 4281SOL    HW224480   3.009   2.563   7.816 -0.3355 -0.7816  0.4405
 4282SOL     OW24481   2.871   1.332   3.228  0.1233 -0.2984 -0.0155
 4282SOL    HW124482   2.954   1.379   3.220  0.3163 -0.2075  2.4574
 4282SOL    HW224483   2.812   1.405   3.209 -0.3430 -0.2611  1.5819
 4283SOL     OW24484   0.868   1.507   4.266 -0.0689  0.2744 -0.4031
 4283SOL    HW124485   0.928   1.581   4.271 -0.1544  0.4325 -1.7828
 4283SOL    HW224486   0.792   1.544   4.311  1.7975 -0.8226  3.6751
 4284SOL     OW24487   3.146   4.123  12.159  0.1604  0.2225  0.8649
 4284SOL    HW124488   3.097   4.041  12.155 -1.8585  1.4514  0.3848
 4284SOL    HW224489   3.076   4.174  12.199  0.4636  0.6474  0.8569
 4285SOL     OW24490   4.522   4.497  17.262 -0.2082  0.3691 -0.0433
 4285SOL    HW124491   4.475   4.575  17.294 -0.5137 -0.8209  2.3817
 4285SOL    HW224492   4.584   4.486  17.334 -1.4989 -1.2096  0.8301
 4286SOL     OW24493   1.149   3.488   5.123 -0.2027 -0.0759  0.1682
 4286SOL    HW124494   1.189   3.480   5.209  0.3557  0.0716 -0.0768
 4286SOL    HW224495   1.067   3.439   5.135 -2.6074  4.3016  1.7976
 4287SOL     OW24496   1.030   0.631  15.121  0.4194  0.3173  0.5290
 4287SOL    HW124497   1.023   0.719  15.085 -2.3727  0.4138  1.3545
 4287SOL    HW224498   0.969   0.625  15.194  0.1340 -0.5939  0.2108
 4288SOL     OW24499   0.273   2.285   2.303 -0.1289  0.5029 -0.1122
 4288SOL    HW124500   0.367   2.293   2.322 -0.1322  0.3848 -0.0470
 4288SOL    HW224501   0.239   2.251   2.385 -2.5461  0.5330 -1.1117
 4289SOL     OW24502   1.525   1.769   4.455 -0.2094  0.1601 -0.3808
 4289SOL    HW124503   1.457   1.702   4.468 -0.6898 -0.1400 -4.6188
 4289SOL    HW224504   1.498   1.806   4.371 -0.1072  0.1058 -0.4374
 4290SOL     OW24505   2.790   1.979   6.414 -0.0968 -0.1102 -0.2317
 4290SOL    HW124506   2.776   2.015   6.327  0.4209  1.0229  0.1531
 4290SOL    HW224507   2.704   1.942   6.431  0.3222  0.4125  3.0249
 4291SOL     OW24508   0.629   4.672  16.813 -0.1461 -0.5249  0.2284
 4291SOL    HW124509   0.592   4.706  16.732 -1.2579 -2.6634 -0.1474
 4291SOL    HW224510   0.549   4.695  16.861 -0.8508 -1.2408 -0.6289
 4292SOL     OW24511   1.490   2.130   4.923  0.6225 -0.1059 -0.0333
 4292SOL    HW124512   1.448   2.215   4.924  1.2454  0.1771  1.4235
 4292SOL    HW224513   1.518   2.143   4.832  1.3106 -0.0711  0.1837
 4293SOL     OW24514   1.201   3.498   5.743  0.2499 -0.0236  0.2700
 4293SOL    HW124515   1.131   3.543   5.696  0.5393 -0.1773 -0.3024
 4293SOL    HW224516   1.268   3.526   5.681 -0.3682 -1.8019 -1.1926
 4294SOL     OW24517   1.806   2.739  17.491  0.5213  0.0512  0.0498
 4294SOL    HW124518   1.763   2.824  17.491 -0.1888 -0.3105 -0.4000
 4294SOL    HW224519   1.838   2.732  17.581  0.6996 -0.8820 -0.0774
 4295SOL     OW24520   4.367   1.119  15.090 -0.0376 -0.6957 -0.1109
 4295SOL    HW124521   4.431   1.093  15.023 -0.5716 -0.0208 -0.8855
 4295SOL    HW224522   4.427   1.162  15.150  0.3327 -0.5224 -0.6058
 4296SOL     OW24523   1.135   3.194   6.387  0.1055  0.0075  0.6569
 4296SOL    HW124524   1.081   3.171   6.463 -0.5284  0.2060  0.2683
 4296SOL    HW224525   1.070   3.183   6.317 -0.4974  1.2811  1.0109
 4297SOL     OW24526   0.952   0.791   4.419  0.2303  0.2545 -0.3839
 4297SOL    HW124527   0.873   0.821   4.373  1.1339  1.4618 -1.1672
 4297SOL    HW224528   0.977   0.723   4.356  0.7584  0.7720 -0.7373
 4298SOL     OW24529   2.173   3.536   6.997 -0.0009 -0.5245 -0.3899
 4298SOL    HW124530   2.192   3.595   6.924 -0.0714  1.4932  1.2301
 4298SOL    HW224531   2.200   3.454   6.955 -2.2233 -1.6931  0.4892
 4299SOL     OW24532   1.083   0.433  10.340  0.7259 -0.0347 -0.4572
 4299SOL    HW124533   0.991   0.408  10.339  0.5844  0.4453  0.4762
 4299SOL    HW224534   1.082   0.516  10.293 -0.2826 -0.9722 -2.0725
 4300SOL     OW24535   0.094   3.793   6.305 -0.0032  0.0736  0.2062
 4300SOL    HW124536   0.054   3.739   6.237  1.7069 -1.0612  0.1012
 4300SOL    HW224537   0.067   3.737   6.378  0.8816 -0.9394 -0.2405
 4301SOL     OW24538   2.295   4.295   1.820 -0.0362  0.0195 -0.5084
 4301SOL    HW124539   2.381   4.300   1.860 -0.0031 -0.5225 -0.5023
 4301SOL    HW224540   2.301   4.206   1.784  0.8854  0.1411 -0.6399
 4302SOL     OW24541   4.314   3.056   0.566  0.1112 -0.2745 -0.1056
 4302SOL    HW124542   4.360   3.136   0.591 -1.2330  0.5037 -0.1459
 4302SOL    HW224543   4.326   3.015   0.651  0.7450  0.4193  0.1440
 4303SOL     OW24544   4.679   0.992   7.714  0.0319  0.5629 -0.4405
 4303SOL    HW124545   0.018   0.936   7.725 -1.6272 -1.7663 -0.8681
 4303SOL    HW224546   4.705   1.065   7.770 -1.2503  1.4366 -0.9709
 4304SOL     OW24547   2.179   3.488  14.452  0.4505  0.1036 -0.0916
 4304SOL    HW124548   2.164   3.401  14.415  2.3877 -0.2766  0.0217
 4304SOL    HW224549   2.269   3.503  14.423  0.4139 -1.5940 -1.0590
 4305SOL     OW24550   1.782   2.005   4.656  0.2343  0.2387 -0.4796
 4305SOL    HW124551   1.701   2.039   4.619 -0.3922 -1.9440 -1.1339
 4305SOL    HW224552   1.821   2.086   4.688  0.8647 -0.4167  0.4041
 4306SOL     OW24553   4.036   1.807  11.311  0.2039  0.1404 -0.5277
 4306SOL    HW124554   3.960   1.750  11.299  1.9265 -2.8992  3.1450
 4306SOL    HW224555   4.087   1.794  11.231  0.4686 -1.5273 -0.0889
 4307SOL     OW24556   2.687   2.231  15.399 -0.3410  0.5786  0.2753
 4307SOL    HW124557   2.721   2.281  15.474 -1.7182 -0.7837  1.8197
 4307SOL    HW224558   2.738   2.274  15.331  0.0784 -0.3605  0.0016
 4308SOL     OW24559   1.661   3.151   5.700  0.7897 -0.1946  0.6733
 4308SOL    HW124560   1.712   3.211   5.645 -1.0469  0.9621  0.2219
 4308SOL    HW224561   1.649   3.197   5.783 -0.3130 -2.7529  1.9399
 4309SOL     OW24562   0.924   2.837   8.334  0.4234 -0.4660  0.0705
 4309SOL    HW124563   0.871   2.902   8.380  0.1149  0.4485 -1.5792
 4309SOL    HW224564   0.930   2.768   8.400  3.0101 -0.0554  0.2576
 4310SOL     OW24565   0.991   2.604   4.851  0.0891  0.1255  0.1728
 4310SOL    HW124566   0.991   2.591   4.757 -0.7795 -3.0362  0.6174
 4310SOL    HW224567   0.903   2.571   4.867  0.2276  0.5781  1.9347
 4311SOL     OW24568   4.628   4.220   8.193 -0.1218 -0.8768  0.2279
 4311SOL    HW124569   4.639   4.125   8.193  4.2310 -0.3890 -1.2165
 4311SOL    HW224570   4.680   4.236   8.272 -0.2549  2.3957 -0.3515
 4312SOL     OW24571   0.546   1.759   4.587 -0.3574  0.2364 -0.3048
 4312SOL    HW124572   0.519   1.690   4.648  0.7148 -1.2230 -1.4673
 4312SOL    HW224573   0.637   1.730   4.580  0.1108  1.4646  0.7153
 4313SOL     OW24574   3.779   2.304   0.688  0.2253  0.3041 -0.2286
 4313SOL    HW124575   3.777   2.210   0.706  0.4763  0.6265  1.5239
 4313SOL    HW224576   3.822   2.332   0.769  0.2948  0.8015 -0.4353
 4314SOL     OW24577   0.167   3.325   2.254  0.4791 -0.3195  0.2704
 4314SOL    HW124578   0.251   3.299   2.216 -0.3992 -3.1411  0.2367
 4314SOL    HW224579   0.165   3.257   2.322  0.8704 -0.3311  0.2733
 4315SOL     OW24580   1.145   2.544  14.514  0.1523 -0.2891 -0.0915
 4315SOL    HW124581   1.114   2.597  14.587 -2.0924 -1.8907  0.1271
 4315SOL    HW224582   1.067   2.541  14.459 -1.4064  1.7511  2.0141
 4316SOL     OW24583   4.177   4.375   7.151 -0.5468  0.1373  0.6921
 4316SOL    HW124584   4.171   4.437   7.224  0.1796  0.4774  0.4552
 4316SOL    HW224585   4.088   4.393   7.119 -0.3245 -0.4745 -0.2578
 4317SOL     OW24586   4.685   0.334   3.962  0.2792  0.1923 -0.6588
 4317SOL    HW124587   4.622   0.284   4.015 -0.1178  0.8865 -0.4801
 4317SOL    HW224588   4.650   0.423   3.962 -0.5588 -0.1192  1.6441
 4318SOL     OW24589   1.945   2.830   4.444  0.7702  0.9596  0.3866
 4318SOL    HW124590   2.003   2.789   4.380  2.2093 -1.0353  2.9508
 4318SOL    HW224591   1.868   2.773   4.436 -0.3793  2.5866 -0.2577
 4319SOL     OW24592   4.322   1.363   3.944  0.3476  0.5943  0.2305
 4319SOL    HW124593   4.334   1.389   4.036  0.0703  0.7757  0.2176
 4319SOL    HW224594   4.345   1.450   3.911 -2.5721  1.2094 -0.1843
 4320SOL     OW24595   1.077   3.649  17.542  0.2782  0.0567 -0.5284
 4320SOL    HW124596   1.089   3.555  17.528  0.7814  0.0349  0.0563
 4320SOL    HW224597   1.060   3.650  17.636 -1.5451  0.9496 -0.8742
 4321SOL     OW24598   2.414   1.486   3.685  0.3289 -0.0723  0.3848
 4321SOL    HW124599   2.481   1.500   3.617 -0.3544  0.8744 -0.0798
 4321SOL    HW224600   2.328   1.479   3.644 -0.0579 -1.5660  1.4765
 4322SOL     OW24601   1.610   4.255   6.307  0.8546 -0.7473  1.0931
 4322SOL    HW124602   1.637   4.258   6.216  1.1168 -0.3939  1.1830
 4322SOL    HW224603   1.666   4.324   6.343  0.4410  0.2078 -0.1025
 4323SOL     OW24604   4.705   0.867   5.724  0.3906  0.3877  0.8164
 4323SOL    HW124605   4.617   0.856   5.686  1.0098  3.5502 -1.5421
 4323SOL    HW224606   4.715   0.961   5.711 -1.2311  0.7315  1.9987
 4324SOL     OW24607   1.579   2.519  12.155  0.2934 -0.0351 -0.2228
 4324SOL    HW124608   1.637   2.502  12.081 -1.1463  1.4947 -1.7092
 4324SOL    HW224609   1.631   2.473  12.221 -0.8466  1.0555  1.4653
 4325SOL     OW24610   2.818   2.032   9.742  0.1654  0.2832  0.4087
 4325SOL    HW124611   2.899   1.984   9.726 -0.6535 -0.7315 -0.7155
 4325SOL    HW224612   2.784   1.983   9.816 -1.5134 -0.1579 -0.6535
 4326SOL     OW24613   0.411   0.127  15.214  0.1585  0.6611 -0.2754
 4326SOL    HW124614   0.470   0.086  15.151 -0.8514 -2.1808  0.6344
 4326SOL    HW224615   0.471   0.151  15.284  0.2586 -0.2787 -0.0397
 4327SOL     OW24616   1.191   1.770   4.578  0.3711 -0.4524 -0.6569
 4327SOL    HW124617   1.167   1.762   4.670  0.1188 -0.0649 -0.6919
 4327SOL    HW224618   1.120   1.827   4.549  0.3968 -0.6681 -1.1343
 4328SOL     OW24619   1.336   2.099   6.963 -0.0832  0.5512  0.1227
 4328SOL    HW124620   1.412   2.061   7.007 -0.3438 -2.0383 -1.6714
 4328SOL    HW224621   1.332   2.044   6.885  0.6618 -1.6783  1.6831
 4329SOL     OW24622   3.711   2.450   6.152  0.5551 -0.7109  0.0377
 4329SOL    HW124623   3.706   2.355   6.141  0.2973 -0.7257  0.2581
 4329SOL    HW224624   3.799   2.480   6.129 -0.1535  0.5312 -1.0677
 4330SOL     OW24625   0.717   2.536   8.590  0.0854 -0.2104 -0.8823
 4330SOL    HW124626   0.709   2.608   8.529 -0.1181  0.0700 -0.5262
 4330SOL    HW224627   0.704   2.576   8.676 -2.3873 -0.7806 -0.9885
 4331SOL     OW24628   3.062   2.630   7.173 -0.4660  0.2846 -0.9270
 4331SOL    HW124629   2.991   2.605   7.232 -0.3394 -0.1664 -0.9695
 4331SOL    HW224630   3.050   2.564   7.104 -0.3266 -2.5016  1.7361
 4332SOL     OW24631   2.877   1.772   4.068 -0.7746 -0.2943  0.1225
 4332SOL    HW124632   2.914   1.697   4.113 -0.0016 -1.0583 -1.8145
 4332SOL    HW224633   2.813   1.729   4.012  0.6308  0.7367 -2.2405
 4333SOL     OW24634   0.333   4.085   8.407 -0.2961 -0.0306  0.3296
 4333SOL    HW124635   0.343   4.178   8.384  1.4493 -0.3359 -0.1536
 4333SOL    HW224636   0.246   4.071   8.371  0.4383 -1.9105 -0.7141
 4334SOL     OW24637   3.808   1.774  11.536  0.2782 -0.3073 -0.0535
 4334SOL    HW124638   3.880   1.835  11.543 -0.3266  0.2858  1.0374
 4334SOL    HW224639   3.854   1.708  11.484  1.1011 -0.0458  0.3486
 4335SOL     OW24640   3.133   0.162   6.040 -0.1218 -0.0608  0.3703
 4335SOL    HW124641   3.082   0.156   6.121 -0.4023 -1.6087  0.0973
 4335SOL    HW224642   3.109   0.242   5.995  0.3388 -0.8512 -1.2785
 4336SOL     OW24643   1.430   2.305   8.913 -0.5541  0.2401  0.4146
 4336SOL    HW124644   1.470   2.382   8.871  0.0908 -0.9703 -1.1779
 4336SOL    HW224645   1.432   2.329   9.006  1.5340  1.0989  0.1498
 4337SOL     OW24646   3.586   4.131   3.367  0.4855  0.6883 -0.3512
 4337SOL    HW124647   3.658   4.106   3.424  0.3611 -0.2137 -0.5809
 4337SOL    HW224648   3.645   4.168   3.300  2.2865  0.2403  0.9896
 4338SOL     OW24649   0.399   0.085   2.213  0.2983 -0.1355 -0.2964
 4338SOL    HW124650   0.411   0.125   2.127  1.3016 -0.3090 -0.2277
 4338SOL    HW224651   0.484   0.101   2.253  0.7321 -2.4414 -0.2891
 4339SOL     OW24652   4.330   2.633  17.467  0.0907 -0.1572 -0.1682
 4339SOL    HW124653   4.398   2.591  17.520  0.2709 -0.1830 -0.4175
 4339SOL    HW224654   4.364   2.721  17.455 -1.0734 -0.0153 -2.3993
 4340SOL     OW24655   4.543   2.155   4.823  0.6923  0.4349  0.2793
 4340SOL    HW124656   4.496   2.237   4.806  1.3736  0.0815 -3.2248
 4340SOL    HW224657   4.491   2.131   4.899 -1.2660 -0.4252 -1.3652
 4341SOL     OW24658   3.032   4.188   7.356 -0.1009  0.2025 -1.0065
 4341SOL    HW124659   3.066   4.106   7.392  1.0362  1.1208  0.0333
 4341SOL    HW224660   2.945   4.163   7.327 -1.1601  1.4820  1.1399
 4342SOL     OW24661   0.407   1.539  11.044 -0.5497  0.1776 -0.5554
 4342SOL    HW124662   0.425   1.624  11.004 -0.6887  0.5217  0.1111
 4342SOL    HW224663   0.413   1.486  10.965 -0.9401 -0.9334  0.1667
 4343SOL     OW24664   3.383   2.859   4.418  0.1711  0.3022 -0.1941
 4343SOL    HW124665   3.461   2.870   4.365  0.1116 -0.9956 -0.5366
 4343SOL    HW224666   3.366   2.766   4.405  1.5122  0.1507 -0.8240
 4344SOL     OW24667   1.258   2.331   4.662  0.6716 -0.5124 -0.2029
 4344SOL    HW124668   1.280   2.238   4.666  0.1917 -0.7135 -2.2315
 4344SOL    HW224669   1.314   2.364   4.733 -0.0031  1.1245 -0.4386
 4345SOL     OW24670   1.909   2.125  16.137 -0.0995 -0.4843  0.1382
 4345SOL    HW124671   1.888   2.136  16.044 -3.2604  2.2658  1.2058
 4345SOL    HW224672   1.863   2.044  16.157 -2.3427  0.8926  0.5368
 4346SOL     OW24673   0.913   0.280   9.726 -0.0971  0.1053 -0.3919
 4346SOL    HW124674   0.850   0.216   9.758 -2.5764  1.4015 -2.6368
 4346SOL    HW224675   0.943   0.317   9.809 -2.5708  0.9739  0.1490
 4347SOL     OW24676   1.200   3.155  17.101  0.0240  0.7240 -0.1575
 4347SOL    HW124677   1.142   3.164  17.176  0.1012 -2.6409  0.2742
 4347SOL    HW224678   1.235   3.244  17.088 -1.6245  1.6296  1.6067
 4348SOL     OW24679   0.697   3.653  16.903  0.0903 -0.5060  0.3706
 4348SOL    HW124680   0.704   3.613  16.989  1.4413  0.2723  0.6322
 4348SOL    HW224681   0.664   3.737  16.935 -0.3942 -0.4498 -0.2592
 4349SOL     OW24682   2.552   2.263   5.062 -0.0615 -0.0986  0.2352
 4349SOL    HW124683   2.578   2.177   5.097  1.1755 -0.6054 -1.9257
 4349SOL    HW224684   2.479   2.236   5.005 -1.7933 -0.7497  2.7778
 4350SOL     OW24685   2.185   4.702   5.740  0.7392  0.4548 -0.4412
 4350SOL    HW124686   2.268   4.712   5.694  0.9463  0.3580 -0.0868
 4350SOL    HW224687   2.213   4.678   5.828 -2.2168 -1.5295 -0.0385
 4351SOL     OW24688   3.494   3.963   6.244 -0.5194 -0.2196 -0.2476
 4351SOL    HW124689   3.507   4.008   6.327 -0.5521  0.4599 -0.6156
 4351SOL    HW224690   3.431   4.023   6.205 -1.1856 -0.2757  0.7390
 4352SOL     OW24691   1.933   2.042  10.388  0.4245 -0.3024  0.8633
 4352SOL    HW124692   1.971   2.101  10.453  0.5884 -1.0470  1.4476
 4352SOL    HW224693   1.898   1.972  10.444  1.1106 -0.1507  1.4744
 4353SOL     OW24694   1.049   2.848   5.744 -0.0997  0.1078  0.4777
 4353SOL    HW124695   1.098   2.797   5.680 -0.1635  1.0836 -0.3472
 4353SOL    HW224696   0.965   2.867   5.702  0.5821  0.2306 -0.8168
 4354SOL     OW24697   1.161   3.121  16.819  0.1402  0.2339 -0.0041
 4354SOL    HW124698   1.223   3.166  16.762  0.5971 -0.0559  0.2653
 4354SOL    HW224699   1.201   3.141  16.904 -0.9917 -1.7082  1.0067
 4355SOL     OW24700   0.491   3.637   7.878 -0.2454  0.1555 -0.2731
 4355SOL    HW124701   0.572   3.628   7.928  0.5788 -0.7538 -1.7519
 4355SOL    HW224702   0.479   3.550   7.839  0.3028  0.8899 -2.0716
 4356SOL     OW24703   3.172   2.046   1.878  0.1075  0.2400 -0.5573
 4356SOL    HW124704   3.195   1.972   1.934 -0.2560 -0.8344 -1.8067
 4356SOL    HW224705   3.104   1.994   1.834 -1.8792  0.2638  2.4567
 4357SOL     OW24706   4.687   4.574   4.038 -0.1199 -0.0667  0.1975
 4357SOL    HW124707   0.033   4.555   4.081 -1.3334 -1.1006  2.0798
 4357SOL    HW224708   4.718   4.575   3.947 -1.1834  0.7411 -0.1397
 4358SOL     OW24709   1.683   3.276   4.098  0.2005  0.5407 -0.1863
 4358SOL    HW124710   1.651   3.347   4.043  1.4316  0.0375 -1.5458
 4358SOL    HW224711   1.677   3.192   4.051 -0.0162  0.3211  0.2406
 4359SOL     OW24712   2.596   3.239  13.777 -0.0476 -0.2004  0.5098
 4359SOL    HW124713   2.570   3.329  13.760  0.5454 -0.2715 -0.7555
 4359SOL    HW224714   2.516   3.187  13.775 -0.4679  0.5174 -1.3608
 4360SOL     OW24715   4.132   4.522   2.157  0.9317 -0.2171 -0.1653
 4360SOL    HW124716   4.066   4.466   2.199  1.9955 -1.8816 -0.7079
 4360SOL    HW224717   4.125   4.603   2.208  0.2074  0.6940 -1.6976
 4361SOL     OW24718   1.885   3.107   9.186  0.7575 -0.0597 -0.5101
 4361SOL    HW124719   1.863   3.079   9.097  0.4551  1.1921 -0.8291
 4361SOL    HW224720   1.918   3.024   9.220  0.8240  0.2050  0.0635
 4362SOL     OW24721   3.531   1.990   5.273  0.0285 -0.6470  0.2255
 4362SOL    HW124722   3.461   1.984   5.208 -0.7100  0.8321  0.9127
 4362SOL    HW224723   3.478   2.004   5.351  1.1398 -0.0314  0.8672
 4363SOL     OW24724   1.261   4.292   6.695 -0.3291  0.3780 -0.4070
 4363SOL    HW124725   1.211   4.293   6.613 -0.3310 -1.8694 -0.4312
 4363SOL    HW224726   1.278   4.382   6.724  1.7741 -0.7064  1.7435
 4364SOL     OW24727   3.013   1.059   4.460  0.1885  0.2139 -0.2298
 4364SOL    HW124728   2.974   1.146   4.473 -1.1562 -0.1872 -1.5979
 4364SOL    HW224729   3.032   1.046   4.553  1.6899  0.8727 -0.4381
 4365SOL     OW24730   3.675   2.426  14.330  0.2347 -0.3685 -0.6188
 4365SOL    HW124731   3.670   2.401  14.422  2.5208  3.5396  0.5676
 4365SOL    HW224732   3.751   2.483  14.325  0.1100 -0.1035  0.5861
 4366SOL     OW24733   3.249   1.818   3.970 -1.0237 -0.1824 -1.0253
 4366SOL    HW124734   3.209   1.744   3.924 -2.8060 -0.0303  0.2607
 4366SOL    HW224735   3.342   1.799   3.956 -0.8291 -0.1465  0.2083
 4367SOL     OW24736   1.159   1.952   5.130 -0.0447 -0.0923 -0.0609
 4367SOL    HW124737   1.079   1.903   5.146 -0.5295  0.1770 -1.6096
 4367SOL    HW224738   1.213   1.894   5.075  0.3847 -0.9918  1.3140
 4368SOL     OW24739   1.083   1.425   9.527 -0.6746  0.0095  0.2816
 4368SOL    HW124740   1.061   1.460   9.441  0.1892  1.9197  0.8220
 4368SOL    HW224741   1.096   1.506   9.577  1.3200  0.5725 -1.1297
 4369SOL     OW24742   0.238   1.263   3.360 -0.1622 -0.1593 -0.0626
 4369SOL    HW124743   0.317   1.212   3.341 -0.7245 -1.3142  0.7524
 4369SOL    HW224744   0.218   1.293   3.271 -2.7605 -0.7058  0.3618
 4370SOL     OW24745   0.330   0.864   2.018  0.5245 -0.3427  0.0565
 4370SOL    HW124746   0.276   0.791   2.050 -0.5854  0.0473 -0.9345
 4370SOL    HW224747   0.301   0.882   1.929 -0.9982  1.1848  0.8572
 4371SOL     OW24748   2.597   3.453   8.032  0.1659  0.3460  0.1422
 4371SOL    HW124749   2.537   3.453   7.958 -0.0895 -1.1152  0.3412
 4371SOL    HW224750   2.587   3.541   8.066 -0.3213  0.2659  0.2035
 4372SOL     OW24751   0.227   3.092   8.449 -0.0935  0.6673 -0.0839
 4372SOL    HW124752   0.275   3.013   8.423 -2.0585 -0.3796 -0.6120
 4372SOL    HW224753   0.160   3.061   8.511  0.0311  0.6672  0.0523
 4373SOL     OW24754   3.390   0.106   7.793 -0.3961  0.3781  0.0182
 4373SOL    HW124755   3.435   0.092   7.710  2.0094 -1.1506  1.5661
 4373SOL    HW224756   3.458   0.152   7.842 -0.5130 -1.5589  2.0220
 4374SOL     OW24757   0.514   0.942   5.161 -0.6421 -0.1113  0.4164
 4374SOL    HW124758   0.447   1.004   5.133 -2.0971 -1.2026  1.4690
 4374SOL    HW224759   0.483   0.881   5.094 -2.0823  0.4464  0.5769
 4375SOL     OW24760   0.658   2.488   5.193  0.0674  0.3949 -0.1898
 4375SOL    HW124761   0.683   2.501   5.284  1.5480 -1.2044 -0.3619
 4375SOL    HW224762   0.731   2.435   5.160 -0.9285 -1.4346  0.5625
 4376SOL     OW24763   1.551   2.983  16.898 -0.1933 -0.2030  0.4998
 4376SOL    HW124764   1.625   3.043  16.890  0.6345 -1.5301 -1.7963
 4376SOL    HW224765   1.509   3.030  16.970  1.8066 -0.3147  1.7616
 4377SOL     OW24766   2.035   0.806   4.870  0.4056  0.2911  0.2065
 4377SOL    HW124767   2.026   0.901   4.863  0.6799  0.2732 -0.3563
 4377SOL    HW224768   2.130   0.808   4.860  0.5776 -2.5063  1.1460
 4378SOL     OW24769   1.922   0.263   9.536 -0.2570 -0.2207 -0.6838
 4378SOL    HW124770   1.938   0.357   9.532 -1.0905 -0.0562 -0.3401
 4378SOL    HW224771   1.870   0.262   9.617  1.2723 -0.9029  0.2803
 4379SOL     OW24772   1.178   4.310   6.432  0.1990  0.3304  0.2049
 4379SOL    HW124773   1.190   4.319   6.338 -1.8244 -2.1677 -0.2857
 4379SOL    HW224774   1.148   4.399   6.451 -2.1620 -0.4056 -0.0532
 4380SOL     OW24775   4.135   4.717   0.742  0.1742  0.3086  0.5690
 4380SOL    HW124776   4.190   4.689   0.815  1.7308 -1.6993 -1.3967
 4380SOL    HW224777   4.169   0.068   0.726 -0.5903  0.4407 -0.3121
 4381SOL     OW24778   3.197   3.756  16.585  0.6871  0.2008 -0.0214
 4381SOL    HW124779   3.243   3.773  16.503  0.4616  0.8728 -0.0078
 4381SOL    HW224780   3.219   3.665  16.605 -0.9961 -0.2597 -0.2312
 4382SOL     OW24781   0.859   4.046   4.460 -0.2110  0.2947  1.2194
 4382SOL    HW124782   0.860   4.082   4.548 -0.8068 -1.9916  2.1569
 4382SOL    HW224783   0.765   4.046   4.446 -0.2491 -0.8161  1.5046
 4383SOL     OW24784   2.567   2.775   5.097 -0.1097 -0.8095 -0.2526
 4383SOL    HW124785   2.646   2.760   5.046  0.1224 -0.3154 -0.0367
 4383SOL    HW224786   2.601   2.752   5.184  0.1613 -0.8738 -0.3764
 4384SOL     OW24787   2.113   0.654   4.465  0.1649  0.0592 -0.8056
 4384SOL    HW124788   2.166   0.652   4.384 -0.3239 -2.2321 -1.0863
 4384SOL    HW224789   2.123   0.566   4.503 -2.4274 -0.2052 -0.7572
 4385SOL     OW24790   4.313   0.071   3.728  0.3093 -0.2124 -0.0980
 4385SOL    HW124791   4.354   0.141   3.679  1.1982 -0.3510  0.4331
 4385SOL    HW224792   4.257   0.034   3.660  0.6030  0.7173 -0.8372
 4386SOL     OW24793   3.419   0.833  11.659 -0.2742  0.1598  0.0632
 4386SOL    HW124794   3.324   0.828  11.668 -0.4451  0.6808 -1.5626
 4386SOL    HW224795   3.428   0.816  11.565  3.3747 -1.5453  0.7142
 4387SOL     OW24796   4.364   3.893  16.194 -0.3031  0.0568  0.5964
 4387SOL    HW124797   4.359   3.979  16.236  0.0555  0.3024  0.1385
 4387SOL    HW224798   4.391   3.835  16.266  2.0719  1.1929  0.6262
 4388SOL     OW24799   3.942   1.768   7.105 -0.2694 -0.1043  0.6327
 4388SOL    HW124800   3.971   1.858   7.088 -0.4557  0.0927  1.3511
 4388SOL    HW224801   3.859   1.785   7.149 -1.0199  0.3818 -0.9715
 4389SOL     OW24802   3.266   2.503   9.744 -0.3520  0.3197 -0.5488
 4389SOL    HW124803   3.172   2.523   9.738 -0.6099 -0.5812  0.4702
 4389SOL    HW224804   3.287   2.470   9.657  1.5070 -3.1036  1.1901
 4390SOL     OW24805   4.006   3.976   3.462  0.3392  0.4422 -0.0995
 4390SOL    HW124806   4.095   4.012   3.461  0.4306  0.1752 -0.9562
 4390SOL    HW224807   4.021   3.885   3.486 -1.6612 -0.0461 -0.7371
 4391SOL     OW24808   2.428   0.234   5.229  0.0290  0.0362 -0.3588
 4391SOL    HW124809   2.419   0.180   5.151  0.8006  0.7797 -0.9578
 4391SOL    HW224810   2.442   0.157   5.285  3.4728  0.6856 -0.3569
 4392SOL     OW24811   2.340   2.353  15.107 -0.4278 -0.7587  0.2619
 4392SOL    HW124812   2.322   2.409  15.183  0.9657  2.1804 -1.5658
 4392SOL    HW224813   2.351   2.268  15.151 -0.0786 -0.6621  0.3628
 4393SOL     OW24814   1.223   0.539   6.894 -0.0609  0.0701 -0.3318
 4393SOL    HW124815   1.225   0.622   6.942  0.8557 -2.2231  3.5478
 4393SOL    HW224816   1.180   0.580   6.819  1.4122  1.7117 -0.2873
 4394SOL     OW24817   1.183   2.376  12.970  0.0517  0.7680  0.6794
 4394SOL    HW124818   1.099   2.421  12.982 -1.3501 -1.2701 -1.4300
 4394SOL    HW224819   1.176   2.299  13.027 -1.4787  0.0573 -0.4604
 4395SOL     OW24820   4.052   2.709   8.447 -0.3265  0.6361  0.1218
 4395SOL    HW124821   3.982   2.732   8.508 -1.4064 -1.2896 -0.3915
 4395SOL    HW224822   4.022   2.629   8.405 -0.6653  1.0538 -0.4271
 4396SOL     OW24823   4.626   3.463   6.848 -0.0411 -0.4443  0.3533
 4396SOL    HW124824   4.557   3.437   6.908 -1.7811 -1.0455 -1.9230
 4396SOL    HW224825   4.594   3.414   6.772  0.8578 -1.3120  0.5325
 4397SOL     OW24826   4.454   1.117   4.012  0.0077  0.4430 -0.1631
 4397SOL    HW124827   4.502   1.132   4.094  0.6643  1.0348 -0.6504
 4397SOL    HW224828   4.423   1.205   3.988 -1.6911 -0.0002  0.4349
 4398SOL     OW24829   4.359   1.609   3.337  0.5232 -0.6323  0.4114
 4398SOL    HW124830   4.339   1.558   3.415  0.9249  0.5271  1.2772
 4398SOL    HW224831   4.449   1.642   3.347 -0.6432  3.0788 -1.2426
 4399SOL     OW24832   2.762   2.160  13.741 -0.5238 -0.5933 -0.3173
 4399SOL    HW124833   2.793   2.128  13.656  2.5902  1.1328  0.1797
 4399SOL    HW224834   2.671   2.162  13.710 -0.6237 -0.3809 -0.0067
 4400SOL     OW24835   0.967   1.428  14.501  0.2482  0.1283 -0.3603
 4400SOL    HW124836   1.012   1.480  14.435 -0.7875  1.4153 -0.0463
 4400SOL    HW224837   1.028   1.418  14.574 -1.0313 -1.2048  0.5434
 4401SOL     OW24838   2.746   3.969   2.894 -0.1563  0.0843  0.2288
 4401SOL    HW124839   2.837   3.979   2.923 -0.4700  2.2955  0.4146
 4401SOL    HW224840   2.728   3.877   2.918 -2.3776  0.9716  2.0330
 4402SOL     OW24841   2.689   1.399   7.708 -0.7255  0.1187  0.7106
 4402SOL    HW124842   2.767   1.356   7.673  0.0659  1.4325  0.8753
 4402SOL    HW224843   2.703   1.490   7.684  0.5472 -0.5889 -1.2670
 4403SOL     OW24844   3.491   4.431   6.697  0.3025 -0.3101  0.3789
 4403SOL    HW124845   3.586   4.420   6.699  0.3910  0.3786 -0.0154
 4403SOL    HW224846   3.491   4.514   6.744 -0.0066 -0.7973  1.2436
 4404SOL     OW24847   2.042   0.296   8.586  0.2885 -0.4570 -0.0684
 4404SOL    HW124848   2.126   0.270   8.624 -0.2053 -1.6423  0.2274
 4404SOL    HW224849   2.000   0.354   8.650 -0.6261 -1.2005  0.0110
 4405SOL     OW24850   1.656   1.953  15.807 -0.4886  0.1411  0.4638
 4405SOL    HW124851   1.590   1.892  15.773 -0.4919 -0.0582  0.8269
 4405SOL    HW224852   1.646   2.020  15.739  2.2675 -1.9340 -1.9864
 4406SOL     OW24853   2.754   3.306   5.953 -0.3725  0.2859  0.4066
 4406SOL    HW124854   2.664   3.285   5.930  0.2956  0.1299 -2.0451
 4406SOL    HW224855   2.763   3.385   5.900  1.6374  0.9184  1.6814
 4407SOL     OW24856   2.698   3.610  14.924  0.0696  0.6148  0.5505
 4407SOL    HW124857   2.649   3.575  14.850 -1.6982  1.3717  1.3762
 4407SOL    HW224858   2.739   3.532  14.961 -0.8006 -0.2778 -0.3893
 4408SOL     OW24859   0.253   2.842   9.590 -0.6040  0.2383  0.2327
 4408SOL    HW124860   0.287   2.926   9.621  2.2766 -1.3844  1.4212
 4408SOL    HW224861   0.309   2.780   9.637  1.6891  2.0812 -0.0920
 4409SOL     OW24862   0.629   4.656   3.892 -0.3193 -0.0954  0.5986
 4409SOL    HW124863   0.689   4.701   3.952  1.8024 -1.5684 -0.4166
 4409SOL    HW224864   0.691   4.632   3.823 -0.4425  0.2228  0.3791
 4410SOL     OW24865   0.787   4.391   9.493 -0.1576 -0.1172 -0.1550
 4410SOL    HW124866   0.755   4.305   9.519  0.5112 -1.1754 -2.8113
 4410SOL    HW224867   0.784   4.383   9.398 -1.3740  2.6424 -0.3756
 4411SOL     OW24868   0.612   0.316  16.636 -0.0766  0.2093 -0.0964
 4411SOL    HW124869   0.681   0.324  16.702  0.2577  0.2639 -0.4534
 4411SOL    HW224870   0.599   0.222  16.622 -0.2262  0.1140  0.6888
 4412SOL     OW24871   3.745   1.220   2.608 -0.3013 -0.1095 -0.1223
 4412SOL    HW124872   3.731   1.288   2.673  0.2052 -1.7018  1.6297
 4412SOL    HW224873   3.725   1.263   2.525 -2.1680 -0.4567  0.1663
 4413SOL     OW24874   0.166   2.175   5.768  0.4510 -0.0657  0.2612
 4413SOL    HW124875   0.108   2.101   5.750 -2.4457  2.0874  0.7639
 4413SOL    HW224876   0.191   2.196   5.678  1.1346 -1.8724  0.0421
 4414SOL     OW24877   1.009   1.768   6.068 -0.0325 -0.1584  0.3634
 4414SOL    HW124878   1.097   1.805   6.080  0.2850 -1.6320  2.5589
 4414SOL    HW224879   0.994   1.762   6.162 -1.8601  0.1955  0.0951
 4415SOL     OW24880   0.329   0.599   7.426  0.5790 -0.0972 -0.0274
 4415SOL    HW124881   0.394   0.669   7.419 -0.4781  0.7354 -1.6550
 4415SOL    HW224882   0.273   0.611   7.349 -1.5340  0.8192  1.6834
 4416SOL     OW24883   3.494   2.265  12.308  0.4711 -0.1416 -0.7394
 4416SOL    HW124884   3.399   2.254  12.308  0.3481  0.8886  0.7616
 4416SOL    HW224885   3.526   2.178  12.285  2.9317  0.7369 -0.6007
 4417SOL     OW24886   1.929   4.331   8.835  0.1411 -0.2028  0.1996
 4417SOL    HW124887   1.960   4.278   8.909 -0.1020 -0.7879 -0.1105
 4417SOL    HW224888   2.012   4.366   8.804 -0.1328  0.7188  0.5348
 4418SOL     OW24889   4.250   2.023  13.848  0.7915 -0.5119  0.0293
 4418SOL    HW124890   4.320   2.039  13.910 -2.5761  0.4158  3.5745
 4418SOL    HW224891   4.234   2.115  13.827 -2.2243 -1.5567 -2.3603
 4419SOL     OW24892   4.452   2.619  17.219  0.1400  0.1539  0.3543
 4419SOL    HW124893   4.473   2.527  17.234 -1.2114  0.0586  1.7100
 4419SOL    HW224894   4.384   2.624  17.286 -0.3956  0.8791 -0.2297
 4420SOL     OW24895   3.845   0.483   3.291 -0.8504  0.0581 -0.4227
 4420SOL    HW124896   3.814   0.425   3.360  1.0596 -2.6972 -1.8712
 4420SOL    HW224897   3.762   0.530   3.278  0.1749  2.0243  0.0950
 4421SOL     OW24898   2.302   1.814   4.776 -0.7065 -0.0506  0.5870
 4421SOL    HW124899   2.308   1.907   4.797  1.1542 -0.1238  0.4053
 4421SOL    HW224900   2.213   1.798   4.745 -0.4432  0.9086 -0.6662
 4422SOL     OW24901   4.074   1.576  17.476  0.6286 -0.5921  0.0034
 4422SOL    HW124902   4.066   1.617  17.562  1.2621  3.3059 -1.7747
 4422SOL    HW224903   4.141   1.636  17.444 -0.3963 -0.0606 -1.1557
 4423SOL     OW24904   3.454   3.861  11.041  0.1534  0.2155 -0.7761
 4423SOL    HW124905   3.505   3.814  10.974  0.4510  1.0787 -1.1484
 4423SOL    HW224906   3.405   3.924  10.988 -0.5402 -0.6139 -1.1215
 4424SOL     OW24907   2.531   2.607   4.353  0.6377  0.5588 -0.2658
 4424SOL    HW124908   2.504   2.516   4.341  0.9333  0.5946 -1.1892
 4424SOL    HW224909   2.556   2.608   4.446 -2.0148 -0.9947  0.4728
 4425SOL     OW24910   1.585   3.462   2.849 -0.1698 -0.2858 -0.3139
 4425SOL    HW124911   1.506   3.507   2.877  1.1450  2.4885 -1.0535
 4425SOL    HW224912   1.619   3.512   2.775 -0.4587  0.8331  0.3181
 4426SOL     OW24913   2.779   2.380   1.466  0.3775  0.2767  0.1270
 4426SOL    HW124914   2.732   2.447   1.517 -0.1981  1.0787 -1.4678
 4426SOL    HW224915   2.778   2.304   1.524 -2.5763 -0.9165 -1.4983
 4427SOL     OW24916   1.854   4.336   7.155 -0.2898  0.0057 -0.0137
 4427SOL    HW124917   1.817   4.396   7.219 -1.3738  0.9127 -1.5078
 4427SOL    HW224918   1.946   4.339   7.181 -0.2683 -0.1863 -0.0623
 4428SOL     OW24919   0.789   0.342   1.976 -0.1966  0.4064  0.4338
 4428SOL    HW124920   0.785   0.251   1.948 -1.7723  0.8217 -0.7325
 4428SOL    HW224921   0.838   0.388   1.908 -1.1557  1.2873  0.3388
 4429SOL     OW24922   0.201   3.284  11.468  0.0412  0.4040 -0.0134
 4429SOL    HW124923   0.115   3.307  11.435  0.8746  2.7209 -0.5959
 4429SOL    HW224924   0.176   3.256  11.556 -3.6625  2.1850 -0.5058
 4430SOL     OW24925   3.224   4.292   5.573 -0.2315  0.1416 -0.6269
 4430SOL    HW124926   3.198   4.357   5.638  1.4651  0.3480 -0.1605
 4430SOL    HW224927   3.312   4.323   5.551  0.3093 -2.4900 -2.2305
 4431SOL     OW24928   2.523   0.016   6.343  0.5706 -0.2015 -0.7250
 4431SOL    HW124929   2.522   0.065   6.426 -2.3899  0.9953 -1.4436
 4431SOL    HW224930   2.452   0.054   6.290  1.7453  4.0202  0.7012
 4432SOL     OW24931   1.245   1.182   2.308 -0.2861  0.4388 -0.1330
 4432SOL    HW124932   1.232   1.087   2.304  0.7008  0.2961 -0.0398
 4432SOL    HW224933   1.167   1.208   2.358  0.0019 -0.8002  0.9754
 4433SOL     OW24934   2.690   0.691  10.032  0.3969  0.0824 -0.2011
 4433SOL    HW124935   2.668   0.784  10.039 -1.0231 -0.1715 -1.1886
 4433SOL    HW224936   2.696   0.670  10.126 -0.6062 -0.8338 -0.3284
 4434SOL     OW24937   1.083   2.324   9.268  0.0769 -0.1123  0.2186
 4434SOL    HW124938   1.150   2.370   9.216  0.2880 -1.3992 -0.6611
 4434SOL    HW224939   1.117   2.236   9.286  0.8328  0.1779  0.2411
 4435SOL     OW24940   1.818   2.161   6.721  0.5928 -0.6375 -0.5171
 4435SOL    HW124941   1.745   2.214   6.752  1.7105 -0.0962  1.1834
 4435SOL    HW224942   1.888   2.183   6.782  1.0382 -0.8820 -0.9389
 4436SOL     OW24943   1.406   1.404   3.804 -0.4317  0.0190  0.7069
 4436SOL    HW124944   1.325   1.452   3.791  0.1189  0.8346  0.3200
 4436SOL    HW224945   1.471   1.474   3.812 -0.9042  0.7662 -2.1453
 4437SOL     OW24946   2.070   2.150   3.087  0.0595 -0.0167 -0.3374
 4437SOL    HW124947   2.132   2.135   3.016  0.4837 -0.9398  0.2292
 4437SOL    HW224948   2.126   2.117   3.157 -1.1299 -1.9713 -0.3084
 4438SOL     OW24949   3.532   4.711  10.708 -0.5352 -0.1690  0.0315
 4438SOL    HW124950   3.604   4.681  10.652 -1.7154 -1.1994 -0.9356
 4438SOL    HW224951   3.476   4.634  10.700  0.4423 -0.7174 -1.4703
 4439SOL     OW24952   3.332   3.512   4.473  0.2593  0.8225  0.1497
 4439SOL    HW124953   3.409   3.556   4.509  0.5425  0.0535  0.4725
 4439SOL    HW224954   3.266   3.581   4.465  0.9963  1.3566 -1.2393
 4440SOL     OW24955   3.310   2.708   0.234 -0.4339 -0.7734  0.5789
 4440SOL    HW124956   3.259   2.733   0.311 -1.0634 -2.3239  0.6763
 4440SOL    HW224957   3.240   2.721   0.171 -1.1102 -1.7618  1.1241
 4441SOL     OW24958   1.941   0.097  10.688  0.3773  0.6336  0.0163
 4441SOL    HW124959   1.848   0.096  10.713  1.3607 -0.8675  3.5084
 4441SOL    HW224960   1.925   0.079  10.595  0.2562 -0.7286  0.3078
 4442SOL     OW24961   2.224   0.087  10.681  0.3948 -0.1174 -0.1175
 4442SOL    HW124962   2.173   0.021  10.727  0.6324 -0.1235  0.1336
 4442SOL    HW224963   2.196   0.084  10.589 -3.9009  1.4191  1.1057
 4443SOL     OW24964   0.603   1.559   5.647 -0.2816  0.1770 -0.2306
 4443SOL    HW124965   0.625   1.475   5.608  0.8667  0.0268  0.7441
 4443SOL    HW224966   0.509   1.571   5.636 -1.2435 -5.8482  1.8445
 4444SOL     OW24967   4.239   3.693   1.461  0.1995 -0.0842  0.6644
 4444SOL    HW124968   4.218   3.664   1.550 -2.2510 -0.6193 -0.1136
 4444SOL    HW224969   4.152   3.698   1.424  1.0674  1.7592 -1.1050
 4445SOL     OW24970   2.046   3.900   0.600  0.2524 -0.6397  0.3342
 4445SOL    HW124971   2.109   3.848   0.649  0.5268 -1.2688 -0.6795
 4445SOL    HW224972   2.083   3.988   0.606 -0.9133  0.0671 -2.6401
 4446SOL     OW24973   0.778   0.755   2.944 -0.1185 -0.1055  0.2957
 4446SOL    HW124974   0.752   0.708   2.865  0.9883 -1.5170  0.7664
 4446SOL    HW224975   0.813   0.680   2.991 -3.9727 -0.5894  2.3140
 4447SOL     OW24976   2.047   3.652  13.924  0.0877 -0.1450 -0.4849
 4447SOL    HW124977   2.123   3.595  13.912 -0.7200 -1.5918  1.3659
 4447SOL    HW224978   2.093   3.736  13.926 -1.8405  0.8609  1.3345
 4448SOL     OW24979   0.781   4.665  17.040 -0.2215 -0.3216  0.2328
 4448SOL    HW124980   0.742   4.648  16.955  0.9764 -0.0777 -0.3566
 4448SOL    HW224981   0.713   4.634  17.101  0.7932 -0.9501  1.0584
 4449SOL     OW24982   4.717   0.113  17.049  0.2640  0.1093 -0.3117
 4449SOL    HW124983   4.640   0.142  16.999  1.7589  1.8353 -1.6017
 4449SOL    HW224984   4.693   0.146  17.136 -1.1987 -0.3446 -0.5467
 4450SOL     OW24985   2.550   4.592   6.027 -0.0410 -0.4003 -0.3023
 4450SOL    HW124986   2.610   4.627   6.093 -2.0766  1.7338  0.4577
 4450SOL    HW224987   2.607   4.593   5.951  0.8119 -0.1581  0.3421
 4451SOL     OW24988   3.220   2.344   4.160 -0.0254 -0.5733  0.0141
 4451SOL    HW124989   3.224   2.424   4.107 -0.5249 -0.2719  0.4390
 4451SOL    HW224990   3.253   2.366   4.247 -0.6345 -0.7649  0.2915
 4452SOL     OW24991   1.185   0.056   8.816  0.0977 -0.8962  0.3995
 4452SOL    HW124992   1.280   0.043   8.819  0.1410 -1.4308 -2.8455
 4452SOL    HW224993   1.172   0.106   8.896  0.6641  1.0372 -0.7090
 4453SOL     OW24994   2.791   3.078   4.882 -0.0240 -0.2402  0.2079
 4453SOL    HW124995   2.758   3.163   4.851  0.1522 -0.2453  0.0040
 4453SOL    HW224996   2.856   3.073   4.812 -1.3982 -3.0338 -0.8723
 4454SOL     OW24997   1.700   1.160   3.077  0.2869  0.9692 -0.2870
 4454SOL    HW124998   1.724   1.074   3.110  1.9829  1.4850 -0.1565
 4454SOL    HW224999   1.783   1.205   3.095 -0.6650  2.3160  0.6918
 4455SOL     OW25000   2.042   4.470   6.506 -0.5034  0.2702 -0.6207
 4455SOL    HW125001   1.982   4.409   6.549  0.5838 -1.4697 -1.5921
 4455SOL    HW225002   1.997   4.547   6.541 -0.3170  0.1486 -0.1125
 4456SOL     OW25003   2.740   1.936   4.242 -0.4664 -0.0225  0.2563
 4456SOL    HW125004   2.752   1.862   4.301 -3.4920  0.5831  1.6369
 4456SOL    HW225005   2.787   1.898   4.168  2.4593  0.4139  1.8861
 4457SOL     OW25006   2.175   3.904  11.050  0.0023 -0.0144 -0.0819
 4457SOL    HW125007   2.211   3.828  11.004  1.9586  1.4080 -0.9154
 4457SOL    HW225008   2.256   3.948  11.076  0.3596  0.6276 -2.2320
 4458SOL     OW25009   1.787   1.415   0.657 -0.3247 -0.0104 -0.0129
 4458SOL    HW125010   1.836   1.373   0.729  0.5687 -0.6638 -1.0029
 4458SOL    HW225011   1.706   1.363   0.660 -0.6395  0.4557 -0.5268
 4459SOL     OW25012   1.719   2.513   9.533  0.0810  0.0129 -0.5903
 4459SOL    HW125013   1.796   2.456   9.538  0.2980  0.3658  0.1593
 4459SOL    HW225014   1.662   2.473   9.598  0.1502 -0.6802 -0.9576
 4460SOL     OW25015   0.035   0.505   6.489  0.0570 -0.1168  0.0176
 4460SOL    HW125016   0.079   0.461   6.416  1.4581  0.6784  0.3783
 4460SOL    HW225017   0.008   0.425   6.534  1.0932  0.4351  1.6281
 4461SOL     OW25018   4.711   1.840   9.081  0.3205 -0.3363  0.0906
 4461SOL    HW125019   4.637   1.848   9.142  0.0495  2.1261 -0.5651
 4461SOL    HW225020   4.714   1.932   9.055 -0.0485 -0.2099  0.4881
 4462SOL     OW25021   1.046   0.987  16.745 -0.6867  0.1263  0.1826
 4462SOL    HW125022   1.058   0.962  16.653 -2.3228  2.1690 -0.5857
 4462SOL    HW225023   0.986   1.060  16.733  0.1147  0.5616 -1.1615
 4463SOL     OW25024   0.946   1.830   5.274 -0.1506 -0.1909  0.3035
 4463SOL    HW125025   0.984   1.881   5.346  0.7170  0.7499 -0.8394
 4463SOL    HW225026   0.857   1.862   5.293  0.5361  1.4449  0.7322
 4464SOL     OW25027   3.549   1.241   3.078  0.0835  0.1529 -0.0535
 4464SOL    HW125028   3.520   1.184   3.149  3.0570 -0.4916  0.6430
 4464SOL    HW225029   3.486   1.313   3.080  0.2016  0.2708 -0.6206
 4465SOL     OW25030   4.502   2.109  11.793  0.8960  0.4164  0.4971
 4465SOL    HW125031   4.477   2.070  11.877 -0.9989 -1.0544 -0.7831
 4465SOL    HW225032   4.562   2.180  11.818  1.3381  0.0481  0.4869
 4466SOL     OW25033   1.525   2.698   2.939  0.0759 -0.2995 -0.2090
 4466SOL    HW125034   1.526   2.778   2.886  0.1648  0.6697  1.2486
 4466SOL    HW225035   1.568   2.732   3.018 -0.0252  0.8855 -0.6535
 4467SOL     OW25036   1.373   1.926   1.896 -0.3461  0.2256 -0.2528
 4467SOL    HW125037   1.456   1.896   1.933 -1.1755 -1.5620  0.1848
 4467SOL    HW225038   1.352   1.991   1.962 -1.4728  0.8613 -1.2465
 4468SOL     OW25039   1.294   3.184   5.629  0.3754  0.0480  0.1680
 4468SOL    HW125040   1.351   3.111   5.654 -0.2437 -0.4555  0.0968
 4468SOL    HW225041   1.357   3.239   5.581 -1.1724  1.1669 -0.5612
 4469SOL     OW25042   2.358   4.259  15.270  0.1092 -0.7386  0.0632
 4469SOL    HW125043   2.441   4.302  15.251 -0.8014  0.2239 -1.7002
 4469SOL    HW225044   2.327   4.339  15.312  1.5356 -1.3724  2.3087
 4470SOL     OW25045   3.206   2.211   4.974  0.1694  0.2807  0.0857
 4470SOL    HW125046   3.228   2.277   4.908  1.4674 -0.3949 -0.1410
 4470SOL    HW225047   3.132   2.246   5.024  0.1929  1.5041 -0.7276
 4471SOL     OW25048   0.647   1.268   4.037  0.2635 -0.7782 -0.3134
 4471SOL    HW125049   0.603   1.186   4.056 -0.9735  0.2718  1.3312
 4471SOL    HW225050   0.704   1.287   4.111  0.9275 -0.0647 -0.9980
 4472SOL     OW25051   1.907   2.733   5.613  0.1574  0.2887  0.0359
 4472SOL    HW125052   1.983   2.747   5.556  0.1830  0.2758  0.0666
 4472SOL    HW225053   1.853   2.809   5.592  0.4694  0.4884 -0.0393
 4473SOL     OW25054   3.742   4.216  10.504  0.9574  0.1206  0.0394
 4473SOL    HW125055   3.708   4.226  10.415  0.2564 -2.7527 -0.0056
 4473SOL    HW225056   3.823   4.267  10.505 -0.4815  2.3917  0.1646
 4474SOL     OW25057   2.914   4.331  15.647 -0.1076 -0.4686  0.4787
 4474SOL    HW125058   2.923   4.288  15.562 -2.9397  0.9849 -0.5443
 4474SOL    HW225059   2.828   4.304  15.678  0.3147 -2.7469 -0.3126
 4475SOL     OW25060   0.466   2.619  17.709 -0.4500 -0.2030 -0.2325
 4475SOL    HW125061   0.375   2.598  17.731 -0.4338 -0.5783 -0.5272
 4475SOL    HW225062   0.503   2.616   0.049 -2.4789 -1.2332  0.5998
 4476SOL     OW25063   4.174   0.310   1.809 -0.2494  0.2965  0.4183
 4476SOL    HW125064   4.240   0.365   1.850  1.5955 -0.4621 -1.4999
 4476SOL    HW225065   4.100   0.329   1.866 -0.4607  1.5629 -0.2843
 4477SOL     OW25066   2.679   2.847   3.749 -0.3348  0.2685  0.4317
 4477SOL    HW125067   2.747   2.899   3.706 -0.8526 -0.2580 -1.0104
 4477SOL    HW225068   2.657   2.901   3.825 -1.9111 -1.6429  1.3388
 4478SOL     OW25069   3.672   0.648   9.473  0.0736  0.4819 -0.5945
 4478SOL    HW125070   3.667   0.615   9.383 -0.1125  1.0064 -0.7764
 4478SOL    HW225071   3.757   0.693   9.472 -1.0911  2.6737  0.1528
 4479SOL     OW25072   4.710   3.089   8.287  0.7533 -1.1170  0.0093
 4479SOL    HW125073   4.734   2.997   8.280  1.5382 -1.0309  1.4981
 4479SOL    HW225074   0.050   3.141   8.306 -0.8404  0.9532  0.8629
 4480SOL     OW25075   2.876   1.608   6.457 -0.2469 -0.3873  0.0907
 4480SOL    HW125076   2.843   1.644   6.374  0.3768 -0.0467 -0.0106
 4480SOL    HW225077   2.805   1.612   6.520  0.5257 -0.8855  0.9927
 4481SOL     OW25078   0.773   4.565   3.677 -0.2004  0.0129  0.1722
 4481SOL    HW125079   0.775   4.477   3.714  2.7081 -0.1753 -0.4904
 4481SOL    HW225080   0.732   4.556   3.590 -2.3138  0.0890  1.1559
 4482SOL     OW25081   2.575   3.078  16.056  0.1545  0.2684  0.0486
 4482SOL    HW125082   2.640   3.009  16.069  0.3618  0.1266 -1.7957
 4482SOL    HW225083   2.612   3.142  15.995 -1.0564 -1.0561 -2.0324
 4483SOL     OW25084   0.347   3.770   8.812 -0.9052  0.7030 -0.0182
 4483SOL    HW125085   0.369   3.820   8.734 -1.5377 -1.3356 -1.4936
 4483SOL    HW225086   0.432   3.746   8.849 -1.0387 -1.4019 -1.0367
 4484SOL     OW25087   2.190   2.294  16.351  0.0333 -0.2047 -0.1170
 4484SOL    HW125088   2.125   2.317  16.285 -0.1905  1.7744  0.8170
 4484SOL    HW225089   2.160   2.327  16.435 -0.5057  0.9074 -0.7508
 4485SOL     OW25090   1.271   4.433   8.736 -0.8027  0.0275 -0.0323
 4485SOL    HW125091   1.184   4.464   8.760 -1.5566 -2.0504 -0.0428
 4485SOL    HW225092   1.292   4.376   8.810 -0.0859  0.9735  0.5035
 4486SOL     OW25093   4.530   1.824   1.809 -0.1942  0.0666  0.4909
 4486SOL    HW125094   4.593   1.753   1.820 -0.8077 -0.4084  0.9559
 4486SOL    HW225095   4.547   1.857   1.721  1.3983 -1.2270  0.3174
 4487SOL     OW25096   4.267   0.206   9.562 -0.2750  0.4536  0.0403
 4487SOL    HW125097   4.311   0.146   9.502 -0.5186  2.0891 -1.7544
 4487SOL    HW225098   4.181   0.165   9.557 -0.2505  0.8172 -3.0587
 4488SOL     OW25099   3.885   0.754  15.844  0.4702  0.3132 -0.1448
 4488SOL    HW125100   3.926   0.668  15.849 -0.1973 -0.1333 -2.5206
 4488SOL    HW225101   3.926   0.775  15.760  1.4368 -0.7293  0.0660
 4489SOL     OW25102   4.393   4.094   7.403  0.3039  0.2666  0.2962
 4489SOL    HW125103   4.360   4.166   7.458  0.9075 -0.4250  1.5684
 4489SOL    HW225104   4.357   4.015   7.442  0.4124  0.3478  0.5613
 4490SOL     OW25105   3.754   0.447  16.272  0.0699  0.0121 -0.2147
 4490SOL    HW125106   3.763   0.531  16.227  1.0217 -0.1062 -0.2501
 4490SOL    HW225107   3.816   0.391  16.225 -1.0153 -0.7771 -0.7007
 4491SOL     OW25108   2.073   2.140   8.623 -0.1792 -0.3476  0.0158
 4491SOL    HW125109   2.107   2.135   8.712  2.1175 -1.3527 -0.9334
 4491SOL    HW225110   2.142   2.201   8.598 -1.1724  1.2264  1.0725
 4492SOL     OW25111   3.876   3.879   5.754  0.3563  0.5823 -0.0315
 4492SOL    HW125112   3.865   3.969   5.786  4.7341  0.8736  0.6691
 4492SOL    HW225113   3.932   3.845   5.824 -0.7584 -1.8543 -0.3218
 4493SOL     OW25114   2.644   2.304  16.411  0.0288  0.0435 -0.6975
 4493SOL    HW125115   2.653   2.212  16.435 -1.5057  0.2352  0.6721
 4493SOL    HW225116   2.550   2.310  16.393  0.2321  1.5768 -1.2501
 4494SOL     OW25117   3.145   3.948  10.117  0.0779 -0.3839 -0.0018
 4494SOL    HW125118   3.063   3.997  10.120 -0.3845 -1.0505 -1.7759
 4494SOL    HW225119   3.150   3.953  10.021 -0.1113  1.1141  0.0742
 4495SOL     OW25120   0.338   3.895   6.327  0.6268 -0.3043 -0.3801
 4495SOL    HW125121   0.390   3.816   6.311  0.0486 -0.8791  0.6037
 4495SOL    HW225122   0.246   3.871   6.319  0.7145 -0.4670 -0.9339
 4496SOL     OW25123   3.180   3.695  16.066 -1.0679  0.2217  1.0316
 4496SOL    HW125124   3.152   3.665  16.152  1.3069 -0.7917  1.4721
 4496SOL    HW225125   3.160   3.788  16.068  2.1934  0.9395  0.7104
 4497SOL     OW25126   3.559   2.377   9.637  0.4367 -0.1697 -0.0034
 4497SOL    HW125127   3.617   2.404   9.709 -0.2929 -1.7272  1.1579
 4497SOL    HW225128   3.614   2.361   9.560  1.5276  0.5941  0.6063
 4498SOL     OW25129   1.072   1.692   9.676 -0.1944  0.0232 -0.2158
 4498SOL    HW125130   1.068   1.778   9.634 -0.6238  0.3650  0.5211
 4498SOL    HW225131   1.160   1.683   9.713  0.0272  0.4663 -0.6320
 4499SOL     OW25132   1.440   1.868   4.221 -0.4201  0.5085 -0.6771
 4499SOL    HW125133   1.449   1.963   4.227  1.3175  0.3860 -1.3797
 4499SOL    HW225134   1.349   1.877   4.191 -0.5530  1.8567  0.1588
 4500SOL     OW25135   0.543   3.823   5.407 -0.2560 -0.5154  0.0137
 4500SOL    HW125136   0.475   3.887   5.428 -1.6713 -1.5680 -1.3557
 4500SOL    HW225137   0.573   3.811   5.498  1.8739  2.5869 -0.2922
 4501SOL     OW25138   2.953   2.180  10.502 -0.4284  0.2143 -0.0268
 4501SOL    HW125139   2.973   2.105  10.446 -0.1533  1.0735 -1.0794
 4501SOL    HW225140   3.028   2.236  10.479 -0.3333  0.3562  0.6243
 4502SOL     OW25141   2.010   1.293   6.082 -0.2030  0.0959 -0.2697
 4502SOL    HW125142   1.976   1.252   6.161 -0.3099  2.2813  0.8212
 4502SOL    HW225143   1.933   1.274   6.028  0.7924 -1.2932 -1.1873
 4503SOL     OW25144   1.611   3.625   9.804  0.1857 -0.0801 -0.7056
 4503SOL    HW125145   1.564   3.585   9.878 -1.0433  0.5285 -1.1431
 4503SOL    HW225146   1.613   3.562   9.732  0.5777 -2.8945  1.7682
 4504SOL     OW25147   3.569   0.563   3.492 -0.2805 -0.2194 -0.0299
 4504SOL    HW125148   3.551   0.617   3.415  1.4865 -1.4951 -1.3418
 4504SOL    HW225149   3.551   0.472   3.467 -0.0055 -0.9437  2.4512
 4505SOL     OW25150   0.661   1.354  12.867 -0.0635  0.5021  0.8191
 4505SOL    HW125151   0.635   1.438  12.829  0.4830  0.6592  0.7868
 4505SOL    HW225152   0.754   1.363  12.846 -0.2453  0.9454  0.1593
 4506SOL     OW25153   2.704   2.177   4.075  0.2469  0.8579 -0.5821
 4506SOL    HW125154   2.720   2.097   4.125 -1.4865  0.6416 -0.3809
 4506SOL    HW225155   2.737   2.238   4.141 -2.9105 -0.8499  2.5928
 4507SOL     OW25156   4.020   3.583   7.855  0.0857 -0.5470  0.4350
 4507SOL    HW125157   3.988   3.619   7.938  0.3983  0.8810 -0.0786
 4507SOL    HW225158   4.007   3.493   7.887  1.4518 -1.0509 -0.4223
 4508SOL     OW25159   2.540   1.398  11.883 -0.1276  0.1856  0.4858
 4508SOL    HW125160   2.553   1.403  11.789 -0.8437 -0.5523  0.3527
 4508SOL    HW225161   2.591   1.320  11.903  2.4069  1.9931  1.0032
 4509SOL     OW25162   4.146   3.121   2.196 -0.1397 -0.0681  0.1205
 4509SOL    HW125163   4.172   3.093   2.283  1.6591  1.2331  0.0199
 4509SOL    HW225164   4.190   3.057   2.139 -0.4312 -0.1286 -0.0379
 4510SOL     OW25165   1.153   3.870   6.229  0.1529  0.0007 -0.3268
 4510SOL    HW125166   1.083   3.905   6.174  1.5234  0.6574 -1.6614
 4510SOL    HW225167   1.200   3.820   6.162 -2.9636 -0.5131 -2.1198
 4511SOL     OW25168   2.591   2.050   9.596  0.1033 -0.4636  0.2819
 4511SOL    HW125169   2.613   2.006   9.513 -0.1336 -0.8731  0.4347
 4511SOL    HW225170   2.676   2.052   9.638 -0.5088 -0.7068  1.5360
 4512SOL     OW25171   0.596   4.051   3.409  0.0760  0.2217  0.0449
 4512SOL    HW125172   0.638   3.965   3.414 -0.3152  0.2636  4.0887
 4512SOL    HW225173   0.513   4.026   3.448 -0.1137  2.0671  0.8396
 4513SOL     OW25174   0.886   4.080   6.299  0.0902 -0.5793  0.0710
 4513SOL    HW125175   0.793   4.068   6.318 -0.0546  1.2838  0.5980
 4513SOL    HW225176   0.896   4.054   6.207 -0.2102 -0.0395 -0.1152
 4514SOL     OW25177   3.043   1.359   9.407  0.4883 -0.1584 -0.6485
 4514SOL    HW125178   2.950   1.349   9.425  0.6924 -1.2626 -0.1656
 4514SOL    HW225179   3.073   1.328   9.493 -0.3392 -2.9244 -1.3428
 4515SOL     OW25180   0.991   2.219   8.216 -0.0658  0.0376 -0.0671
 4515SOL    HW125181   1.010   2.304   8.256 -2.9093  1.2283 -1.2033
 4515SOL    HW225182   0.977   2.164   8.292 -0.7113  1.2919  0.7313
 4516SOL     OW25183   2.373   3.633  17.590  0.3737 -0.4994  0.0489
 4516SOL    HW125184   2.392   3.625  17.684  0.7837 -1.4676 -0.1133
 4516SOL    HW225185   2.306   3.566  17.575  1.1657 -0.9660 -1.3307
 4517SOL     OW25186   3.060   3.963   2.962 -0.5990  0.3775  0.1802
 4517SOL    HW125187   3.005   3.901   3.009 -2.7467  0.4417 -2.2208
 4517SOL    HW225188   3.128   3.979   3.027  0.7623 -3.1472 -0.3888
 4518SOL     OW25189   0.524   1.266   1.664  0.0242  0.4976 -0.3467
 4518SOL    HW125190   0.454   1.330   1.677  3.0479  3.6929  0.0736
 4518SOL    HW225191   0.515   1.263   1.568  1.2617  2.0995 -0.5028
 4519SOL     OW25192   1.532   2.565   8.885  0.0978 -0.2026  0.2178
 4519SOL    HW125193   1.620   2.527   8.883  0.6857  1.0911  1.2518
 4519SOL    HW225194   1.535   2.645   8.937 -0.6533 -0.4143  0.5808
 4520SOL     OW25195   2.910   0.988   2.614 -0.1861  0.0953 -0.4261
 4520SOL    HW125196   2.889   1.048   2.686 -1.0871  0.5907 -1.1004
 4520SOL    HW225197   2.893   0.902   2.651  1.6446 -0.1286 -0.1093
 4521SOL     OW25198   4.057   4.189   2.652  0.4892  0.5391  0.0950
 4521SOL    HW125199   4.105   4.178   2.733  1.0910  3.0216  0.0693
 4521SOL    HW225200   4.115   4.239   2.594  0.7467  0.7681  0.5568
 4522SOL     OW25201   3.270   3.093   9.495  0.0345 -0.0582  0.6957
 4522SOL    HW125202   3.227   3.144   9.564  0.7862  2.1107 -0.4630
 4522SOL    HW225203   3.331   3.154   9.455 -1.5749  0.7723 -0.5145
 4523SOL     OW25204   0.625   3.796   4.052 -0.0882  0.5393  0.3253
 4523SOL    HW125205   0.530   3.790   4.060 -0.0128  1.2822  1.8667
 4523SOL    HW225206   0.651   3.727   4.113 -0.4837  1.6700  1.7769
 4524SOL     OW25207   4.512   1.021  13.014  0.6767  0.1802  0.1818
 4524SOL    HW125208   4.590   1.036  12.960 -0.9217 -0.3943 -2.2503
 4524SOL    HW225209   4.449   1.079  12.972  0.8248 -0.0693 -0.3874
 4525SOL     OW25210   2.048   1.051   5.135 -0.1087 -0.0810 -0.0001
 4525SOL    HW125211   1.958   1.025   5.118  0.0971  0.6202 -2.0696
 4525SOL    HW225212   2.079   1.087   5.052  0.3868 -0.7535 -0.1123
 4526SOL     OW25213   3.070   3.148  14.684  0.2001 -0.1266  0.0472
 4526SOL    HW125214   3.098   3.227  14.639 -1.6910 -0.0188 -0.9715
 4526SOL    HW225215   3.130   3.081  14.651  0.9520  0.8952 -0.6424
 4527SOL     OW25216   4.457   0.799   8.099 -0.2619 -0.0925 -0.4464
 4527SOL    HW125217   4.543   0.841   8.106 -0.7982  0.7973  0.6869
 4527SOL    HW225218   4.454   0.773   8.191  0.9715 -0.5305 -0.5356
 4528SOL     OW25219   3.216   3.195   4.264 -0.2867 -0.6709  0.1651
 4528SOL    HW125220   3.166   3.229   4.190 -1.9218 -1.9888  0.6689
 4528SOL    HW225221   3.294   3.250   4.260 -0.0456 -0.7822  3.1617
 4529SOL     OW25222   2.828   2.583   7.778  0.1626  0.1248  0.0304
 4529SOL    HW125223   2.839   2.675   7.805  1.5787  0.2289 -0.9042
 4529SOL    HW225224   2.811   2.543   7.863 -1.2823  1.3905  0.3566
 4530SOL     OW25225   2.047   2.586   7.308 -0.4814 -0.1095  0.0141
 4530SOL    HW125226   1.990   2.641   7.361  0.9826  0.2673  1.1919
 4530SOL    HW225227   2.132   2.615   7.340 -0.6037  0.1187  0.1327
 4531SOL     OW25228   0.602   1.964   9.016 -0.6257 -0.3275 -0.3681
 4531SOL    HW125229   0.537   2.000   9.077  0.1441 -0.5932  0.6049
 4531SOL    HW225230   0.649   1.908   9.078 -1.2567  0.6960  1.0358
 4532SOL     OW25231   1.864   3.629  17.405  0.0461 -0.3374  0.0393
 4532SOL    HW125232   1.881   3.693  17.335 -0.7253  0.4930  0.6070
 4532SOL    HW225233   1.769   3.616  17.397  0.3427 -1.3419 -2.0468
 4533SOL     OW25234   4.192   4.245  11.744  0.7561 -0.3965 -0.0052
 4533SOL    HW125235   4.185   4.280  11.833  0.4204 -0.6601  0.0698
 4533SOL    HW225236   4.191   4.153  11.770  0.2304 -0.2839  0.3691
 4534SOL     OW25237   4.631   3.397   9.228 -0.0005 -0.5411 -0.4767
 4534SOL    HW125238   4.699   3.330   9.235 -0.3018 -0.7603  0.3623
 4534SOL    HW225239   4.573   3.358   9.293  1.2598 -0.3101  0.7902
 4535SOL     OW25240   3.654   3.456  16.779 -0.9278  0.1719  0.4701
 4535SOL    HW125241   3.708   3.530  16.751 -0.0185 -1.3229 -1.6625
 4535SOL    HW225242   3.715   3.383  16.789  0.8308  1.4458 -0.8188
 4536SOL     OW25243   3.901   3.926  16.804 -0.1715 -0.4484 -0.2735
 4536SOL    HW125244   3.990   3.896  16.786 -0.4929 -0.7118 -1.4157
 4536SOL    HW225245   3.904   4.018  16.779  1.4341 -0.3081  0.4004
 4537SOL     OW25246   4.127   1.172   6.023 -0.3068 -0.3914  0.4146
 4537SOL    HW125247   4.041   1.207   6.046 -0.6250 -2.3548  2.1931
 4537SOL    HW225248   4.128   1.095   6.080 -1.0962 -0.5502  0.2126
 4538SOL     OW25249   1.617   2.287  16.445 -0.4055  0.1132  0.3533
 4538SOL    HW125250   1.670   2.297  16.366 -2.9257  2.0416 -1.0739
 4538SOL    HW225251   1.534   2.279  16.399  0.0373  1.4777 -0.6723
 4539SOL     OW25252   2.850   2.981  14.645  0.5008 -0.5451  0.1252
 4539SOL    HW125253   2.902   2.905  14.672  1.6093  0.5404  1.0372
 4539SOL    HW225254   2.899   3.062  14.663  3.1869 -2.4551  1.4464
 4540SOL     OW25255   0.173   2.143   4.113 -0.2436 -0.8120  0.3591
 4540SOL    HW125256   0.093   2.174   4.154  0.0790 -0.4430  0.7015
 4540SOL    HW225257   0.241   2.148   4.180 -0.3968  1.0990  0.3712
 4541SOL     OW25258   1.501   0.060   5.104 -0.1388  0.1936 -0.2236
 4541SOL    HW125259   1.578   0.038   5.053  1.2570 -0.8153  2.3263
 4541SOL    HW225260   1.443   0.066   5.028 -1.3624  0.6827  0.7487
 4542SOL     OW25261   2.893   4.148   2.356  0.1502  0.4235 -0.0605
 4542SOL    HW125262   2.895   4.222   2.295  1.7903 -0.6678 -1.3182
 4542SOL    HW225263   2.920   4.191   2.438 -0.3458 -0.2453  0.4570
 4543SOL     OW25264   2.068   3.761   4.581  0.1259 -0.4804 -0.4966
 4543SOL    HW125265   2.119   3.762   4.500  0.7293 -1.8392 -0.1158
 4543SOL    HW225266   1.985   3.801   4.555 -0.6532 -1.1132  1.0195
 4544SOL     OW25267   3.985   4.514  10.227 -0.0655 -0.1594 -0.1586
 4544SOL    HW125268   3.978   4.434  10.175 -0.3389 -0.7529  0.7852
 4544SOL    HW225269   3.897   4.521  10.265 -0.1224  0.9990 -0.4879
 4545SOL     OW25270   1.154   0.599   5.396  0.4840 -0.3015 -0.0617
 4545SOL    HW125271   1.063   0.614   5.419  0.1428 -1.5315 -0.6092
 4545SOL    HW225272   1.185   0.554   5.475  2.9247  0.8721 -0.3398
 4546SOL     OW25273   2.352   1.523   6.221 -0.5395 -0.2992  0.1603
 4546SOL    HW125274   2.308   1.525   6.136 -1.9194  0.4693  0.8865
 4546SOL    HW225275   2.432   1.572   6.201  0.3136 -2.0505 -0.6853
 4547SOL     OW25276   1.590   0.599  16.381 -0.2130  0.1024  0.7651
 4547SOL    HW125277   1.555   0.570  16.465  0.0058  2.4907  1.6906
 4547SOL    HW225278   1.522   0.646  16.332 -0.9794  0.8532  2.5390
 4548SOL     OW25279   3.709   3.633   1.772  0.0869 -0.2744 -0.1067
 4548SOL    HW125280   3.681   3.695   1.704  0.5344 -0.4399 -0.4432
 4548SOL    HW225281   3.620   3.626   1.807  0.2276 -0.1176  0.2713
 4549SOL     OW25282   4.283   2.289  12.216  0.2265  0.5308  0.3805
 4549SOL    HW125283   4.370   2.250  12.225  0.8238  2.5615  3.6953
 4549SOL    HW225284   4.306   2.354  12.150 -1.2996  0.1216 -0.5636
 4550SOL     OW25285   2.358   4.685   2.563 -0.7248  0.3824  0.1352
 4550SOL    HW125286   2.337   4.593   2.548  0.9386 -0.2403  1.6098
 4550SOL    HW225287   2.312   4.726   2.489 -0.2602  1.6163  0.5400
 4551SOL     OW25288   3.130   0.043   8.617 -0.2171  0.0554 -0.0829
 4551SOL    HW125289   3.055   4.727   8.643 -1.5099  1.0749 -1.7971
 4551SOL    HW225290   3.114   0.130   8.652 -0.8945  1.0166 -2.8004
 4552SOL     OW25291   0.494   4.589  14.719 -0.2262  0.6122  0.2169
 4552SOL    HW125292   0.464   4.641  14.645  0.9994  1.3626  0.2377
 4552SOL    HW225293   0.580   4.633  14.722 -0.3189  0.8628 -0.7271
 4553SOL     OW25294   0.304   4.599   5.815 -0.1365 -0.3371  0.2893
 4553SOL    HW125295   0.398   4.607   5.806 -0.2821  1.0779  0.1007
 4553SOL    HW225296   0.301   4.565   5.904 -0.9828 -2.7556 -0.6444
 4554SOL     OW25297   1.396   1.619   2.405  0.4177  0.1666 -0.1517
 4554SOL    HW125298   1.386   1.575   2.489  0.6089 -0.3223 -0.3888
 4554SOL    HW225299   1.486   1.603   2.378  0.0600 -1.5798 -0.3117
 4555SOL     OW25300   0.323   2.955  16.502 -0.0450 -0.0545 -0.6936
 4555SOL    HW125301   0.372   2.873  16.516  1.7285  1.1111 -0.0693
 4555SOL    HW225302   0.381   2.991  16.435 -1.5105  3.1702 -0.2081
 4556SOL     OW25303   0.500   1.527   1.242  0.1921 -0.5380  0.2622
 4556SOL    HW125304   0.530   1.618   1.250 -2.0396  0.2967 -1.0046
 4556SOL    HW225305   0.425   1.540   1.185 -2.6210 -2.9499  3.4528
 4557SOL     OW25306   2.845   0.088   1.900 -0.1430  0.4628  0.1400
 4557SOL    HW125307   2.771   0.091   1.961 -1.0880 -2.4051 -0.8474
 4557SOL    HW225308   2.869   0.180   1.906  1.8867 -0.0390 -0.6084
 4558SOL     OW25309   3.395   2.486   8.866 -0.8905  0.0110  0.1342
 4558SOL    HW125310   3.384   2.538   8.945  1.5062 -0.6372  0.9130
 4558SOL    HW225311   3.305   2.489   8.835 -1.1992  0.9433  1.1428
 4559SOL     OW25312   2.538   2.797  15.941  0.6914 -0.3412  0.0526
 4559SOL    HW125313   2.489   2.879  15.954 -0.3604 -1.1901  1.3929
 4559SOL    HW225314   2.587   2.841  15.871  0.4818 -0.9907 -0.5005
 4560SOL     OW25315   1.483   4.581  12.108 -0.4569 -0.2549 -0.3266
 4560SOL    HW125316   1.434   4.500  12.123 -0.1827 -0.7739 -2.2335
 4560SOL    HW225317   1.534   4.554  12.031 -0.2364  1.9211 -0.9380
 4561SOL     OW25318   3.603   2.890   3.663  0.7921  0.2411 -0.7209
 4561SOL    HW125319   3.524   2.930   3.626  1.4127  1.9748 -0.1961
 4561SOL    HW225320   3.579   2.876   3.754  3.5525  0.4551  0.0353
 4562SOL     OW25321   2.816   1.820  15.167 -0.1595  0.3662 -0.4975
 4562SOL    HW125322   2.770   1.843  15.248  0.4768 -0.4013  0.0847
 4562SOL    HW225323   2.760   1.876  15.114 -1.6620  0.8729  1.6078
 4563SOL     OW25324   4.299   2.849   6.302  0.0911 -0.1843  0.0987
 4563SOL    HW125325   4.367   2.888   6.248 -1.3424  2.3399  0.0791
 4563SOL    HW225326   4.350   2.791   6.359 -0.0258  0.9640  1.3617
 4564SOL     OW25327   3.637   0.030   1.716 -0.2616 -0.6918  0.2601
 4564SOL    HW125328   3.668   4.705   1.649 -0.1430 -0.5783  0.2092
 4564SOL    HW225329   3.582   4.714   1.773  0.8491  0.6569  2.5872
 4565SOL     OW25330   2.401   3.752   8.433  0.4975  0.6110 -0.4069
 4565SOL    HW125331   2.350   3.741   8.514 -0.1854  0.4675 -0.8606
 4565SOL    HW225332   2.397   3.666   8.391  0.7832  1.3345 -1.8881
 4566SOL     OW25333   2.362   2.766   6.864 -0.1635 -0.5352  0.1993
 4566SOL    HW125334   2.388   2.717   6.942 -0.7730 -2.7985 -1.0123
 4566SOL    HW225335   2.311   2.835   6.906 -0.0854 -0.0573 -0.4948
 4567SOL     OW25336   2.146   0.273  11.058  0.1367 -0.6253 -0.0962
 4567SOL    HW125337   2.198   0.193  11.045  0.5094 -0.4050  0.0414
 4567SOL    HW225338   2.120   0.286  10.967  0.1713  0.2134  0.0157
 4568SOL     OW25339   1.964   1.739   2.983 -0.2836 -0.2255  0.5549
 4568SOL    HW125340   2.028   1.671   3.003  0.2797 -0.0529 -0.6360
 4568SOL    HW225341   1.941   1.777   3.068  1.3242 -0.3354  1.0398
 4569SOL     OW25342   3.042   2.566  13.928  0.0658 -0.0953  0.4896
 4569SOL    HW125343   3.063   2.474  13.916  1.8012  0.5618 -1.4313
 4569SOL    HW225344   2.947   2.574  13.917  0.2133 -1.2798 -1.5902
 4570SOL     OW25345   3.775   2.790   6.803 -1.0248  0.0041  0.3498
 4570SOL    HW125346   3.778   2.884   6.786 -0.5010 -0.5533 -2.6306
 4570SOL    HW225347   3.833   2.778   6.879  2.1207  0.1283 -2.0029
 4571SOL     OW25348   4.504   2.667   1.593  0.7366  0.0136 -0.5342
 4571SOL    HW125349   4.455   2.656   1.675  1.8141  0.5953  0.1948
 4571SOL    HW225350   4.445   2.630   1.528  0.0652  2.1119 -1.1048
 4572SOL     OW25351   0.247   1.120   7.155  0.0743  0.4416  0.2161
 4572SOL    HW125352   0.298   1.122   7.073 -1.6205  0.3571 -0.8394
 4572SOL    HW225353   0.320   1.133   7.216  0.0048  0.6261  0.2603
 4573SOL     OW25354   3.960   2.291  11.597  0.1851 -0.3210  0.2179
 4573SOL    HW125355   4.033   2.299  11.658  1.9462 -0.7456 -1.8164
 4573SOL    HW225356   3.909   2.372  11.606  0.3831 -0.2242  0.4511
 4574SOL     OW25357   2.494   0.678   8.356 -0.1195 -0.0049  0.8828
 4574SOL    HW125358   2.590   0.670   8.363  0.0806  1.1500 -0.6084
 4574SOL    HW225359   2.463   0.601   8.403 -3.3904  1.5126  1.1384
 4575SOL     OW25360   2.917   2.813  15.700  0.1380  0.1859 -0.2628
 4575SOL    HW125361   2.988   2.770  15.748 -0.9766 -1.6537 -0.2816
 4575SOL    HW225362   2.914   2.765  15.617  0.2288  0.2681 -0.3144
 4576SOL     OW25363   4.472   3.469  14.322 -0.0356 -0.2986  0.9111
 4576SOL    HW125364   4.409   3.397  14.320  0.8352 -1.0228 -0.1857
 4576SOL    HW225365   4.441   3.528  14.254 -1.0973 -0.6478  1.0886
 4577SOL     OW25366   1.086   0.080   8.096  0.0759  0.1895 -0.1241
 4577SOL    HW125367   1.151   0.111   8.159 -1.0145 -3.1004  2.5994
 4577SOL    HW225368   1.024   0.062   8.167  0.3557 -0.2610  0.0062
 4578SOL     OW25369   3.150   3.475  16.574  0.2668  0.1885 -0.1525
 4578SOL    HW125370   3.220   3.445  16.631 -0.9975 -0.3795  1.1165
 4578SOL    HW225371   3.117   3.387  16.555  3.6943 -1.0802 -0.2119
 4579SOL     OW25372   2.874   1.321  11.781  0.0252  0.4164  0.4706
 4579SOL    HW125373   2.845   1.337  11.691  2.6442  0.4095 -0.3725
 4579SOL    HW225374   2.805   1.267  11.822  1.2902 -0.4376  1.4800
 4580SOL     OW25375   1.511   1.504   8.982 -0.1182 -0.6673 -0.0341
 4580SOL    HW125376   1.601   1.473   8.976 -0.3742 -0.7622 -3.4105
 4580SOL    HW225377   1.527   1.593   8.950 -2.5730  0.5375  2.1295
 4581SOL     OW25378   3.069   0.322   2.224 -0.3080  0.1595  0.2233
 4581SOL    HW125379   3.133   0.393   2.226  0.4885 -0.5665  0.5456
 4581SOL    HW225380   3.130   0.251   2.246  0.6535  1.1429  0.7380
 4582SOL     OW25381   3.063   3.323  14.905 -0.5332  0.3128 -0.0054
 4582SOL    HW125382   3.078   3.258  14.837 -2.1546 -0.1869  0.1051
 4582SOL    HW225383   3.044   3.393  14.843 -1.7719  0.3268  0.3848
 4583SOL     OW25384   4.505   1.519  12.705 -0.0950 -0.6666 -0.3348
 4583SOL    HW125385   4.487   1.426  12.719  0.2320 -0.5322  0.9693
 4583SOL    HW225386   4.595   1.534  12.733 -0.6444 -0.8723  1.5275
 4584SOL     OW25387   3.353   2.401   1.512 -0.3754  0.3898  0.1111
 4584SOL    HW125388   3.389   2.420   1.599  2.4789  0.9511 -1.1709
 4584SOL    HW225389   3.261   2.381   1.526 -0.9668  3.3357  0.2955
 4585SOL     OW25390   3.342   0.516   3.198 -0.2030  0.0724 -0.1161
 4585SOL    HW125391   3.343   0.582   3.267 -2.4723 -0.8871  0.8412
 4585SOL    HW225392   3.427   0.472   3.205 -0.7910 -0.9266  0.8155
 4586SOL     OW25393   4.310   0.391   6.847  0.1882 -0.6905 -0.0909
 4586SOL    HW125394   4.271   0.468   6.806 -0.2176 -0.4483  0.7586
 4586SOL    HW225395   4.234   0.334   6.862 -0.0126 -0.4258 -0.1125
 4587SOL     OW25396   1.873   1.728   1.632 -0.6212  0.2117  0.1563
 4587SOL    HW125397   1.890   1.718   1.538  3.2114 -0.9985  0.9502
 4587SOL    HW225398   1.949   1.676   1.661  0.2580  0.4023 -1.8367
 4588SOL     OW25399   3.629   3.975  13.370  0.2807  0.3994 -0.3127
 4588SOL    HW125400   3.685   4.026  13.429  1.0118 -1.4340  0.5616
 4588SOL    HW225401   3.543   3.990  13.409  1.1507  1.9841  0.9906
 4589SOL     OW25402   0.395   2.767   3.358  0.0198  0.3027  0.5126
 4589SOL    HW125403   0.402   2.746   3.451 -2.2135 -0.9464  0.4048
 4589SOL    HW225404   0.388   2.680   3.318 -0.6792  0.5214  0.1730
 4590SOL     OW25405   0.978   3.640   5.630 -0.1504 -0.0799 -0.2080
 4590SOL    HW125406   0.885   3.621   5.642 -0.2178 -0.2397 -1.0031
 4590SOL    HW225407   0.986   3.635   5.535  1.9858  1.8135 -0.1295
 4591SOL     OW25408   1.891   0.504   3.527 -0.3830 -0.4941  0.3856
 4591SOL    HW125409   1.877   0.416   3.494  0.4582 -1.3005  2.1891
 4591SOL    HW225410   1.804   0.538   3.507 -0.0316 -0.6926 -1.5215
 4592SOL     OW25411   0.354   1.905  13.538  0.6327 -0.5017 -0.3074
 4592SOL    HW125412   0.364   1.933  13.629 -0.4623 -0.4569 -0.1946
 4592SOL    HW225413   0.259   1.910  13.526  0.2884 -0.9315  2.1666
 4593SOL     OW25414   1.166   2.706  15.569 -0.0868 -0.1558 -0.5082
 4593SOL    HW125415   1.251   2.744  15.548 -0.8684  0.0278 -3.2659
 4593SOL    HW225416   1.181   2.628  15.516  0.7637 -0.6868  0.5084
 4594SOL     OW25417   3.181   0.883   8.367 -0.1877  0.3792  0.1417
 4594SOL    HW125418   3.089   0.910   8.358 -0.2898  0.3439  1.0787
 4594SOL    HW225419   3.189   0.862   8.460 -2.9842 -0.9280  0.1012
 4595SOL     OW25420   3.040   3.834   3.750 -0.0488  0.5412  0.3508
 4595SOL    HW125421   3.073   3.794   3.830 -0.6931 -0.1507  0.2663
 4595SOL    HW225422   3.106   3.903   3.739  0.4662 -0.2477 -1.5061
 4596SOL     OW25423   0.801   1.220   6.569  0.0481  0.7262  0.1205
 4596SOL    HW125424   0.755   1.303   6.578 -0.1308  0.7826 -1.3533
 4596SOL    HW225425   0.783   1.203   6.476  0.7481  1.2905 -0.1203
 4597SOL     OW25426   1.028   3.875   5.808 -0.0645 -0.0492  1.0071
 4597SOL    HW125427   1.025   3.785   5.776  0.9638 -0.0594  0.9561
 4597SOL    HW225428   1.023   3.917   5.722 -0.8315 -0.6838  0.7345
 4598SOL     OW25429   0.940   3.246   5.369  0.5743 -0.5414 -0.1230
 4598SOL    HW125430   0.936   3.232   5.275 -0.3007  2.3470 -0.5376
 4598SOL    HW225431   0.984   3.168   5.401  0.8088 -0.4678 -0.2599
 4599SOL     OW25432   0.949   2.466   2.942  0.2663 -0.0139  0.0550
 4599SOL    HW125433   0.922   2.380   2.973 -0.6612 -0.3946 -1.8016
 4599SOL    HW225434   0.958   2.453   2.848 -2.7159  0.5203 -0.3048
 4600SOL     OW25435   0.328   3.156   0.643  0.3908 -0.3037 -0.5263
 4600SOL    HW125436   0.382   3.111   0.708 -2.1122 -1.2631  0.9036
 4600SOL    HW225437   0.261   3.204   0.692 -0.2590 -1.5915 -0.1280
 4601SOL     OW25438   3.531   3.795   0.012  0.2329  0.8555  0.0002
 4601SOL    HW125439   3.445   3.764  17.733 -0.3726  1.2528  1.4835
 4601SOL    HW225440   3.586   3.748  17.697 -0.5919 -2.1650  1.4878
 4602SOL     OW25441   3.628   4.074   9.440 -0.5783 -0.4654 -0.0073
 4602SOL    HW125442   3.578   4.052   9.362  0.6408  0.5301 -1.0591
 4602SOL    HW225443   3.561   4.111   9.498  0.3095  1.6006 -0.3003
 4603SOL     OW25444   1.234   3.454   2.181  0.0200  0.5454  0.1684
 4603SOL    HW125445   1.215   3.543   2.207  0.1425  0.2895  1.1332
 4603SOL    HW225446   1.204   3.463   2.090  1.6184  2.0399 -0.2148
 4604SOL     OW25447   3.907   0.118   8.390 -0.3734  0.6775 -0.2193
 4604SOL    HW125448   3.947   0.066   8.460  0.3870  1.7702  0.1516
 4604SOL    HW225449   3.873   0.059   8.322  0.8142 -0.1021 -0.1412
 4605SOL     OW25450   0.452   1.781   4.056  0.2185  0.4935 -0.0961
 4605SOL    HW125451   0.460   1.839   4.132 -0.8470 -1.6422  1.6394
 4605SOL    HW225452   0.499   1.703   4.084 -0.9072 -0.5337 -1.0099
 4606SOL     OW25453   2.101   3.058   5.901  0.0414  0.0074 -0.2480
 4606SOL    HW125454   2.101   3.145   5.861 -0.3330 -0.1313 -0.5473
 4606SOL    HW225455   2.007   3.039   5.903 -0.5069  2.4933 -1.5112
 4607SOL     OW25456   3.332   3.087   5.197 -0.1168  0.0905 -0.0621
 4607SOL    HW125457   3.298   3.067   5.110 -0.0263  1.7662 -0.4799
 4607SOL    HW225458   3.306   3.178   5.211 -0.7291 -0.0611 -0.2292
 4608SOL     OW25459   2.070   4.473  16.464  0.0572  0.2619 -0.7677
 4608SOL    HW125460   2.038   4.391  16.500 -2.2503  2.4303  2.0687
 4608SOL    HW225461   1.988   4.501  16.424 -0.1315 -2.9182 -2.6277
 4609SOL     OW25462   4.020   0.586   5.957 -0.4825 -0.2617  0.6236
 4609SOL    HW125463   4.031   0.527   6.032  0.8408  0.8757  1.3325
 4609SOL    HW225464   4.077   0.547   5.890  1.5459 -0.4980  2.4920
 4610SOL     OW25465   3.389   1.712   9.403  0.3306 -0.5700 -0.6048
 4610SOL    HW125466   3.355   1.633   9.444 -0.4050  1.8843  3.4116
 4610SOL    HW225467   3.331   1.779   9.439  2.2640  0.5336  0.4417
 4611SOL     OW25468   1.005   1.204   7.834 -0.7031  0.3733 -0.1377
 4611SOL    HW125469   1.032   1.112   7.835  0.2694  0.6544  0.1551
 4611SOL    HW225470   1.051   1.243   7.760  1.8444  0.5077  1.4948
 4612SOL     OW25471   4.516   3.434  16.848  0.1054 -0.2611  0.4472
 4612SOL    HW125472   4.608   3.460  16.841  0.4016 -0.8517  2.2041
 4612SOL    HW225473   4.520   3.357  16.905 -0.8145 -0.3544  0.3912
 4613SOL     OW25474   1.073   4.578   1.815  0.8964 -0.2000  0.1589
 4613SOL    HW125475   1.092   4.670   1.829 -1.4829  0.4386 -0.7113
 4613SOL    HW225476   0.977   4.573   1.817  0.9324 -0.0042  1.9313
 4614SOL     OW25477   1.145   2.905   3.716 -0.4121 -0.0909 -0.4429
 4614SOL    HW125478   1.178   2.916   3.805  0.3107  1.8102 -0.9617
 4614SOL    HW225479   1.160   2.994   3.685 -1.6467 -0.0085 -0.8356
 4615SOL     OW25480   0.627   4.481   5.606 -0.0924 -0.0257  0.2211
 4615SOL    HW125481   0.638   4.396   5.648 -0.5575 -1.5408 -2.7429
 4615SOL    HW225482   0.633   4.536   5.684 -1.5749  1.2017 -0.5324
 4616SOL     OW25483   1.687   3.697   3.221  0.7976  0.1551 -0.2499
 4616SOL    HW125484   1.729   3.739   3.296  0.2175 -1.3891  0.9264
 4616SOL    HW225485   1.598   3.733   3.218  1.2845  1.3280 -0.6761
 4617SOL     OW25486   3.467   3.251   0.743  0.2044 -0.9203 -0.0934
 4617SOL    HW125487   3.476   3.165   0.702 -0.9326  0.5436 -3.4348
 4617SOL    HW225488   3.387   3.285   0.703  0.4723  1.0956  1.1245
 4618SOL     OW25489   4.012   2.902  15.323  0.4573  0.2683  0.0328
 4618SOL    HW125490   4.095   2.856  15.312  0.9499  0.7696  1.6962
 4618SOL    HW225491   3.970   2.857  15.250 -0.0798  0.9567 -0.0767
 4619SOL     OW25492   0.460   0.200   6.951  0.0282  0.5578 -0.1576
 4619SOL    HW125493   0.416   0.260   6.891 -0.2641  1.2092  0.7140
 4619SOL    HW225494   0.538   0.174   6.901  1.4515  2.1841  1.2207
 4620SOL     OW25495   4.640   3.172   5.628  0.0837 -0.3221  0.0412
 4620SOL    HW125496   4.617   3.151   5.718  0.4181 -0.8339  0.0074
 4620SOL    HW225497   4.601   3.100   5.578 -1.7686  1.5597 -1.2431
 4621SOL     OW25498   3.052   3.212  11.811 -0.7178 -0.0998  0.0216
 4621SOL    HW125499   3.057   3.125  11.771  0.2515 -0.2114  0.3793
 4621SOL    HW225500   2.978   3.192  11.868 -1.1179  0.4388 -0.3031
 4622SOL     OW25501   4.172   3.180   7.400 -0.1184 -0.2297  0.1943
 4622SOL    HW125502   4.110   3.116   7.435  2.4697 -2.9832 -0.2573
 4622SOL    HW225503   4.237   3.200   7.467  1.3226  2.9022 -2.1583
 4623SOL     OW25504   1.765   3.000   0.004  0.5443  0.4912  0.4727
 4623SOL    HW125505   1.787   2.912   0.034 -1.1184 -0.4060 -0.9526
 4623SOL    HW225506   1.852   3.031  17.725  0.2381  1.8653  1.0553
 4624SOL     OW25507   3.848   3.144   2.607  0.0686  0.2210  0.3519
 4624SOL    HW125508   3.771   3.127   2.661  0.1899 -0.5343  0.2931
 4624SOL    HW225509   3.797   3.192   2.542  1.2290 -0.6769 -1.2243
 4625SOL     OW25510   4.516   1.331   2.413  0.1621  0.7506  0.1990
 4625SOL    HW125511   4.608   1.356   2.409 -0.1015  1.2114 -3.3393
 4625SOL    HW225512   4.479   1.417   2.394  1.3929  1.2038 -0.1567
 4626SOL     OW25513   1.938   3.853  14.843 -0.5555  0.1397 -0.9455
 4626SOL    HW125514   2.004   3.897  14.897  0.9699 -1.5342 -1.4616
 4626SOL    HW225515   1.867   3.860  14.907 -1.0764  2.6788 -1.7907
 4627SOL     OW25516   0.737   4.237  14.928 -0.6405 -0.3003 -0.4692
 4627SOL    HW125517   0.818   4.193  14.903  0.2858 -0.3782  2.6613
 4627SOL    HW225518   0.746   4.219  15.022  1.5289 -0.6805 -0.7668
 4628SOL     OW25519   1.509   1.775  15.618  0.4030 -0.0928  0.3920
 4628SOL    HW125520   1.480   1.861  15.586  0.5576 -0.1936 -0.0253
 4628SOL    HW225521   1.502   1.716  15.543 -1.6570 -0.2714  0.7358
 4629SOL     OW25522   2.215   3.235  15.477 -0.3671  0.3604  0.0492
 4629SOL    HW125523   2.276   3.166  15.503  0.4139  1.9559  2.4971
 4629SOL    HW225524   2.276   3.298  15.439 -0.4878 -0.4757 -1.5234
 4630SOL     OW25525   1.157   2.034  14.075  0.3826 -0.8432  0.3734
 4630SOL    HW125526   1.173   1.961  14.016 -0.1007 -2.4920  2.3087
 4630SOL    HW225527   1.099   2.095  14.029  1.6505 -0.5714 -0.8937
 4631SOL     OW25528   3.299   0.851  12.622  0.1676  0.0941 -0.7876
 4631SOL    HW125529   3.262   0.929  12.581 -1.7616 -1.4390 -1.9621
 4631SOL    HW225530   3.232   0.785  12.607  0.2874  0.1096 -1.3778
 4632SOL     OW25531   0.661   1.312  14.299 -0.1771  0.0909  0.1754
 4632SOL    HW125532   0.722   1.363  14.245  0.7645 -1.5544 -0.3173
 4632SOL    HW225533   0.579   1.307  14.250  1.0288  0.8778 -1.9187
 4633SOL     OW25534   2.495   3.039  12.769 -0.0145 -0.0419 -0.1839
 4633SOL    HW125535   2.551   2.998  12.835  0.7258  0.6141 -0.3934
 4633SOL    HW225536   2.497   3.130  12.800  0.2100 -0.0477 -0.1795
 4634SOL     OW25537   2.597   4.210   3.461 -0.1260  0.2524 -0.0731
 4634SOL    HW125538   2.629   4.233   3.548 -0.9730  0.4681  0.1768
 4634SOL    HW225539   2.605   4.296   3.420 -0.0079 -0.3550 -1.3189
 4635SOL     OW25540   4.491   1.724  11.123  0.3779 -0.1495 -0.1400
 4635SOL    HW125541   4.507   1.723  11.218  0.5764  0.7502 -0.1636
 4635SOL    HW225542   4.395   1.722  11.128  0.2942  1.2274 -1.3398
 4636SOL     OW25543   1.561   2.922   2.764 -0.3166  0.1813  0.6990
 4636SOL    HW125544   1.554   3.006   2.809  3.5402 -0.2409  2.0895
 4636SOL    HW225545   1.600   2.948   2.681  0.6074 -2.6012  0.2586
 4637SOL     OW25546   2.938   4.192   4.991  0.1162  0.0993 -0.3972
 4637SOL    HW125547   3.020   4.162   5.030 -0.0595 -0.5954 -0.5685
 4637SOL    HW225548   2.890   4.197   5.074  2.0954 -3.2409  0.9430
 4638SOL     OW25549   3.814   0.046  14.229 -0.5421  0.4289  0.1055
 4638SOL    HW125550   3.904   0.021  14.208 -0.7915  0.1546 -0.6333
 4638SOL    HW225551   3.794   4.715  14.293  0.6425 -0.3462 -0.3441
 4639SOL     OW25552   3.231   2.691  14.707  0.2087  0.1410  0.2053
 4639SOL    HW125553   3.286   2.636  14.650  1.6189  0.6283  1.1003
 4639SOL    HW225554   3.308   2.730  14.748 -1.1103  3.1971 -0.1964
 4640SOL     OW25555   4.310   1.543   6.229 -0.0857 -0.0585  0.1269
 4640SOL    HW125556   4.349   1.627   6.254 -1.2645  0.0096  1.7570
 4640SOL    HW225557   4.240   1.570   6.170  0.7611  2.0856  0.0923
 4641SOL     OW25558   0.576   4.653   6.369  0.1595 -0.3718  0.5801
 4641SOL    HW125559   0.539   4.675   6.284 -1.2174  1.2014  1.5755
 4641SOL    HW225560   0.497   4.640   6.422  0.1125 -0.9390  0.3712
 4642SOL     OW25561   2.678   2.946   9.384  0.3055  0.3527  0.3866
 4642SOL    HW125562   2.719   2.860   9.374  2.2809  1.2887  0.3763
 4642SOL    HW225563   2.749   3.002   9.416 -0.1952  2.1504 -1.6686
 4643SOL     OW25564   0.662   4.139   2.232 -0.0068  0.0311 -0.0044
 4643SOL    HW125565   0.724   4.145   2.304 -0.3230 -0.1226  0.2805
 4643SOL    HW225566   0.704   4.071   2.178  1.8299 -1.1826  2.9565
 4644SOL     OW25567   1.423   3.792   7.501  0.0011  0.9166 -0.0658
 4644SOL    HW125568   1.362   3.807   7.573  1.7026 -0.3710  1.6588
 4644SOL    HW225569   1.405   3.867   7.444  0.9893  1.5935  0.5159
 4645SOL     OW25570   2.417   3.517   4.641 -0.1204  0.2498 -0.4318
 4645SOL    HW125571   2.323   3.532   4.642  0.0179  0.9449  2.7898
 4645SOL    HW225572   2.420   3.429   4.679 -0.8769  0.9270  1.2308
 4646SOL     OW25573   4.697   1.585   8.994  0.4797 -0.5748  0.7477
 4646SOL    HW125574   4.709   1.671   9.035 -2.5936  0.5732 -0.8344
 4646SOL    HW225575   0.028   1.573   8.929 -0.4181 -0.8993 -0.1270
 4647SOL     OW25576   0.742   2.358   2.317  0.4342  0.1316 -0.0904
 4647SOL    HW125577   0.823   2.400   2.345 -0.5367  0.9610  1.4665
 4647SOL    HW225578   0.775   2.271   2.341  2.3306  1.0536  0.6733
 4648SOL     OW25579   2.669   0.079   2.367 -0.0488  0.3829  0.1877
 4648SOL    HW125580   2.723   0.120   2.434  0.1742  2.1356 -1.0518
 4648SOL    HW225581   2.622   0.019   2.424  1.7747 -1.3002 -0.0914
 4649SOL     OW25582   1.474   4.297   5.934  0.3304 -0.1526 -0.1840
 4649SOL    HW125583   1.518   4.376   5.963 -1.1937  1.2744 -1.7800
 4649SOL    HW225584   1.540   4.241   5.976  0.0718 -2.3169 -2.6440
 4650SOL     OW25585   0.350   3.129   3.945  0.4323  0.6769  0.3193
 4650SOL    HW125586   0.308   3.044   3.935 -1.0872  1.2646  1.6395
 4650SOL    HW225587   0.335   3.174   3.862 -1.5703  0.7378  0.7007
 4651SOL     OW25588   3.440   1.646   6.098 -0.4565  0.4458  0.4014
 4651SOL    HW125589   3.401   1.657   6.011  0.6887 -1.9464 -0.4216
 4651SOL    HW225590   3.369   1.673   6.155 -0.6315  1.4854 -0.3218
 4652SOL     OW25591   2.426   3.993   2.536 -0.2774 -0.0443  0.1347
 4652SOL    HW125592   2.513   4.000   2.575 -1.2314 -1.4848  2.5601
 4652SOL    HW225593   2.378   3.945   2.603 -2.9416  1.2745 -0.8180
 4653SOL     OW25594   3.024   3.476  11.659  0.2472 -0.2405 -0.1547
 4653SOL    HW125595   3.018   3.414  11.732  2.2336 -1.1589 -0.7569
 4653SOL    HW225596   2.966   3.439  11.592  0.6258  2.1076 -1.7504
 4654SOL     OW25597   4.574   2.185   3.617  0.4186  0.5012  0.0745
 4654SOL    HW125598   4.489   2.228   3.608  0.2744  0.4039  0.9105
 4654SOL    HW225599   4.566   2.145   3.704 -3.0133 -0.1879 -0.5534
 4655SOL     OW25600   0.247   3.917   3.351  0.2949  0.1383 -0.0805
 4655SOL    HW125601   0.285   3.928   3.263  0.2127  1.0124 -0.0091
 4655SOL    HW225602   0.200   4.000   3.361 -0.2530 -0.2191  0.3057
 4656SOL     OW25603   3.713   0.069   8.763 -0.2672 -0.1603 -0.1448
 4656SOL    HW125604   3.762   0.151   8.769  1.6903 -1.4782  2.1861
 4656SOL    HW225605   3.709   0.048   8.857  0.1469 -0.4778 -0.1972
 4657SOL     OW25606   0.256   0.290   5.208  0.2841 -0.2678 -0.0590
 4657SOL    HW125607   0.182   0.314   5.153  0.8530  1.0868 -0.2232
 4657SOL    HW225608   0.218   0.226   5.268  0.1596 -0.6231 -0.5109
 4658SOL     OW25609   3.861   3.143   7.015  0.5321  0.2243 -0.2537
 4658SOL    HW125610   3.862   3.177   7.104  0.1431 -2.9267  0.9404
 4658SOL    HW225611   3.920   3.207   6.973  0.7338  1.1877  1.4841
 4659SOL     OW25612   2.471   3.596   5.321 -0.2170  0.3270 -0.2801
 4659SOL    HW125613   2.438   3.643   5.244 -1.1259  0.3075  0.1006
 4659SOL    HW225614   2.531   3.661   5.360  1.3240 -0.4900 -1.2889
 4660SOL     OW25615   2.182   0.051   2.731  0.0121  0.2678 -0.4665
 4660SOL    HW125616   2.236   4.736   2.673 -1.7867 -0.2788 -1.6679
 4660SOL    HW225617   2.180   4.734   2.810  1.4823 -1.2776 -1.5091
 4661SOL     OW25618   2.771   3.728   4.225 -0.0940  0.1769 -0.5506
 4661SOL    HW125619   2.695   3.780   4.199 -0.4662  0.0689  0.3481
 4661SOL    HW225620   2.834   3.742   4.153 -0.6006 -0.3823 -1.1052
 4662SOL     OW25621   2.124   2.514   8.647 -0.5154 -0.1796 -0.4008
 4662SOL    HW125622   2.183   2.588   8.660 -1.5712  0.9893 -2.2111
 4662SOL    HW225623   2.191   2.447   8.657 -3.0576 -2.5787  0.6652
 4663SOL     OW25624   3.973   3.077   5.215 -0.4425  0.2500 -0.1526
 4663SOL    HW125625   3.879   3.067   5.201  0.0006 -0.2827 -2.6398
 4663SOL    HW225626   3.978   3.067   5.310 -1.9459  1.0830  0.0121
 4664SOL     OW25627   0.527   0.617  15.349 -0.5194 -0.1888  0.4947
 4664SOL    HW125628   0.513   0.538  15.401 -0.1156  0.1153  1.0705
 4664SOL    HW225629   0.474   0.601  15.271 -2.6753 -0.6222  2.0466
 4665SOL     OW25630   4.620   0.464  17.029  0.3064 -0.0688  0.1161
 4665SOL    HW125631   4.617   0.387  16.972  1.9182  0.1679 -0.2811
 4665SOL    HW225632   4.548   0.454  17.091  0.3577  1.1326  0.3706
 4666SOL     OW25633   4.421   4.505  12.636  0.3000  0.9193 -0.9424
 4666SOL    HW125634   4.461   4.450  12.568  1.2035 -0.5646  0.7937
 4666SOL    HW225635   4.329   4.506  12.611  0.6605  2.3827 -2.1938
 4667SOL     OW25636   1.905   3.181   8.497 -0.1289  0.3176  0.1153
 4667SOL    HW125637   1.908   3.157   8.405 -2.8122  0.0850  0.0810
 4667SOL    HW225638   1.815   3.149   8.503  0.3021 -0.9961 -0.3931
 4668SOL     OW25639   3.501   2.404   5.716  0.0664 -0.0868  0.4064
 4668SOL    HW125640   3.458   2.371   5.794 -1.5895 -1.2149 -0.9896
 4668SOL    HW225641   3.448   2.481   5.696  1.8501  0.8895 -0.5868
 4669SOL     OW25642   1.139   2.860   0.591  0.0862 -0.1439 -0.3812
 4669SOL    HW125643   1.214   2.902   0.634  0.5198 -1.3851  0.0645
 4669SOL    HW225644   1.095   2.936   0.554  1.9854  0.1925 -1.9443
 4670SOL     OW25645   2.296   0.456   3.654 -0.2485  0.3606  0.1788
 4670SOL    HW125646   2.208   0.439   3.689 -0.5997  1.1232 -0.3446
 4670SOL    HW225647   2.307   0.378   3.600 -0.5290 -1.7963  3.2060
 4671SOL     OW25648   1.900   4.381   5.324  0.2379 -0.0011  0.6775
 4671SOL    HW125649   1.961   4.357   5.254 -1.8733 -0.2853 -1.0600
 4671SOL    HW225650   1.820   4.352   5.282  0.0283  0.9137  0.4484
 4672SOL     OW25651   0.314   4.672   5.090  0.2792  0.2399  0.7468
 4672SOL    HW125652   0.278   4.733   5.154 -2.4439 -0.6829  0.1096
 4672SOL    HW225653   0.389   4.637   5.138  0.4952 -0.9948 -0.4887
 4673SOL     OW25654   0.860   0.094   8.878 -0.4627 -0.3291  0.1255
 4673SOL    HW125655   0.944   0.081   8.835  1.1256  4.5892  1.7113
 4673SOL    HW225656   0.879   0.151   8.953 -0.2048 -0.2650  0.0114
 4674SOL     OW25657   3.321   1.482   8.161  0.8814 -0.3371  0.0629
 4674SOL    HW125658   3.408   1.511   8.188  0.6950 -0.6164  0.9547
 4674SOL    HW225659   3.322   1.392   8.193 -1.4973 -0.8648 -1.3490
 4675SOL     OW25660   1.226   0.513   4.873 -0.8985 -0.0535  0.0338
 4675SOL    HW125661   1.239   0.480   4.962  2.4938 -1.1408 -0.8573
 4675SOL    HW225662   1.300   0.573   4.872 -1.7001  0.9254  0.7288
 4676SOL     OW25663   3.847   0.055  16.930 -0.1335  0.2591 -0.6395
 4676SOL    HW125664   3.753   0.054  16.948 -0.2993  2.3099 -1.4652
 4676SOL    HW225665   3.850   4.729  16.858  1.4117 -0.4162  0.0085
 4677SOL     OW25666   4.099   4.370   4.795 -0.1562  0.0650 -0.2499
 4677SOL    HW125667   4.171   4.345   4.736 -1.2481  0.8599 -1.9358
 4677SOL    HW225668   4.045   4.292   4.779  0.5022 -0.1487 -1.4236
 4678SOL     OW25669   1.814   3.982  10.081  0.1873  0.0559  0.2376
 4678SOL    HW125670   1.893   4.001  10.030 -0.1432 -1.6811 -0.9180
 4678SOL    HW225671   1.802   3.895  10.044  0.2999  1.0495 -2.1868
 4679SOL     OW25672   0.666   2.124   1.907 -0.3023  0.4772 -0.5386
 4679SOL    HW125673   0.745   2.084   1.943 -1.0520 -0.7973 -0.2911
 4679SOL    HW225674   0.653   2.209   1.949 -3.9630 -0.8243  0.9727
 4680SOL     OW25675   0.323   3.850   2.976 -0.2568 -0.0703  0.3516
 4680SOL    HW125676   0.232   3.872   2.999 -0.1493  2.4444 -1.6389
 4680SOL    HW225677   0.344   3.932   2.931 -2.5324  0.2142 -0.1809
 4681SOL     OW25678   0.919   2.562   3.202 -0.2263 -0.4330 -0.0208
 4681SOL    HW125679   0.923   2.487   3.261  1.4875  0.2098  0.7059
 4681SOL    HW225680   0.937   2.526   3.115  0.4294 -1.0223  0.3589
 4682SOL     OW25681   2.780   4.591   2.282  0.0706 -0.2772  0.6767
 4682SOL    HW125682   2.758   4.682   2.304 -3.0957 -0.5284 -1.5168
 4682SOL    HW225683   2.692   4.555   2.295 -0.5821  1.3583  0.8389
 4683SOL     OW25684   2.570   0.508   8.770  0.6122  0.0291 -0.6382
 4683SOL    HW125685   2.536   0.465   8.848  0.2989 -0.9796 -1.3289
 4683SOL    HW225686   2.639   0.555   8.817  0.0923 -0.4172  0.5867
 4684SOL     OW25687   2.562   1.557   8.171  0.1552  0.0379  0.0140
 4684SOL    HW125688   2.553   1.500   8.094  0.1172  1.2921 -0.9128
 4684SOL    HW225689   2.475   1.596   8.179  0.0269  0.0555 -1.4197
 4685SOL     OW25690   2.731   4.102  12.831 -0.0839 -0.2050 -0.5386
 4685SOL    HW125691   2.739   4.177  12.772  1.8467 -1.6611 -2.1303
 4685SOL    HW225692   2.822   4.087  12.858 -0.5590 -2.4897 -0.2038
 4686SOL     OW25693   1.811   3.696   9.980  0.1670 -0.4742  0.2970
 4686SOL    HW125694   1.820   3.636  10.054 -2.4593 -0.8275  0.3370
 4686SOL    HW225695   1.718   3.693   9.956 -0.0085  0.1928  0.8993
 4687SOL     OW25696   0.617   4.168   5.028 -0.3567  0.4870  0.1226
 4687SOL    HW125697   0.591   4.199   5.115 -1.0146 -2.0055  0.8245
 4687SOL    HW225698   0.591   4.077   5.044  1.1798  0.5153  2.7128
 4688SOL     OW25699   1.734   1.565   8.043 -0.4669  0.1472 -0.0883
 4688SOL    HW125700   1.814   1.617   8.037 -0.1530 -0.4104 -0.6949
 4688SOL    HW225701   1.683   1.623   7.986  0.0083  0.2001 -0.4544
 4689SOL     OW25702   2.447   3.761  13.808  0.5181 -0.5021  0.1906
 4689SOL    HW125703   2.361   3.732  13.838  1.4415 -1.7133  1.6520
 4689SOL    HW225704   2.444   3.855  13.822 -2.2243 -0.2171 -2.3643
 4690SOL     OW25705   3.042   4.084  12.791  0.2404 -0.4296  0.0686
 4690SOL    HW125706   3.022   3.997  12.756 -0.2029 -0.6238  0.7872
 4690SOL    HW225707   3.124   4.065  12.836 -0.0725 -0.2502  0.7091
 4691SOL     OW25708   4.359   3.654   7.402 -0.0608 -0.0751  0.3440
 4691SOL    HW125709   4.398   3.577   7.443  1.3950  0.5178  0.0762
 4691SOL    HW225710   4.430   3.676   7.342 -1.2969  0.1390 -1.0464
 4692SOL     OW25711   3.215   1.321   8.838  0.1090  0.6142  0.3327
 4692SOL    HW125712   3.275   1.314   8.912  0.4139 -0.4613 -0.0162
 4692SOL    HW225713   3.181   1.411   8.847 -1.5249 -0.0959  1.2208
 4693SOL     OW25714   2.103   1.345  14.272  0.7446 -0.3683  0.1154
 4693SOL    HW125715   2.146   1.357  14.356  1.1898  1.7834 -0.3955
 4693SOL    HW225716   2.067   1.257  14.274 -0.8133  0.3017  1.6272
 4694SOL     OW25717   4.355   3.116   6.927 -0.4460 -0.2600  0.2953
 4694SOL    HW125718   4.279   3.133   6.872  1.8148 -0.2233 -2.8019
 4694SOL    HW225719   4.389   3.040   6.881 -1.2176 -0.7460  0.5358
 4695SOL     OW25720   1.981   3.028   2.881 -0.1685  0.1962 -0.0164
 4695SOL    HW125721   1.969   2.961   2.949  2.3954  2.4598  2.6409
 4695SOL    HW225722   2.012   3.094   2.943  0.9750  1.5496 -2.0592
 4696SOL     OW25723   2.428   1.260   1.916 -0.0740 -0.1139 -0.2771
 4696SOL    HW125724   2.399   1.185   1.968  1.9746 -0.0361  0.9771
 4696SOL    HW225725   2.424   1.331   1.981  0.9601 -1.4471  1.2482
 4697SOL     OW25726   2.091   3.445   0.067 -0.2137  0.4799  0.1581
 4697SOL    HW125727   2.096   3.496  17.734  0.8987  0.0930 -0.0116
 4697SOL    HW225728   2.173   3.456   0.114 -0.9582  1.7126  1.1676
 4698SOL     OW25729   3.564   4.494   9.423  0.3833 -0.3371 -0.1158
 4698SOL    HW125730   3.581   4.429   9.491 -0.1177 -1.4435 -1.0527
 4698SOL    HW225731   3.611   4.450   9.352 -0.1781 -0.3766 -0.4607
 4699SOL     OW25732   2.965   2.204   0.125  0.2161 -0.4569 -0.2784
 4699SOL    HW125733   2.939   2.139   0.189  0.7930 -1.2367 -0.8437
 4699SOL    HW225734   2.886   2.225   0.076 -0.0314 -0.4898  0.1069
 4700SOL     OW25735   0.332   0.321   5.515  0.1839  0.5456  0.0112
 4700SOL    HW125736   0.380   0.238   5.524 -1.7094 -0.6348 -0.6907
 4700SOL    HW225737   0.271   0.302   5.444  0.1279 -0.0644  0.2199
 4701SOL     OW25738   1.125   0.290   2.976  0.2956  0.3294  0.0220
 4701SOL    HW125739   1.209   0.298   2.931  0.2542  1.6675  0.1991
 4701SOL    HW225740   1.073   0.262   2.901 -1.7459  1.4644  1.0324
 4702SOL     OW25741   0.453   2.669   6.489 -0.0156 -0.0370 -0.0992
 4702SOL    HW125742   0.504   2.746   6.516  0.2885 -1.2754  2.8223
 4702SOL    HW225743   0.461   2.685   6.395  1.3679 -0.7785 -0.1012
 4703SOL     OW25744   3.198   1.363   9.692  0.3280 -0.4591  0.3850
 4703SOL    HW125745   3.195   1.279   9.647  0.3644 -0.4025  0.2778
 4703SOL    HW225746   3.164   1.340   9.779 -0.2368  1.2406  0.6208
 4704SOL     OW25747   3.082   3.952   2.384 -0.7092 -0.5003 -0.1498
 4704SOL    HW125748   3.149   4.015   2.410 -1.8726  0.7690 -0.2522
 4704SOL    HW225749   3.022   4.010   2.339  0.0403  1.0951  0.9088
 4705SOL     OW25750   2.660   4.365  14.766  0.2688  0.0663  0.1730
 4705SOL    HW125751   2.735   4.337  14.713 -0.5746 -1.8297 -0.0061
 4705SOL    HW225752   2.590   4.305  14.740 -0.1903  1.6313 -2.2124
 4706SOL     OW25753   4.096   3.582   4.726 -0.0299 -0.0173  0.3040
 4706SOL    HW125754   4.088   3.546   4.638  1.2033  0.6804 -0.0896
 4706SOL    HW225755   4.157   3.526   4.774 -2.8039 -1.1982  2.4636
 4707SOL     OW25756   2.773   2.523  17.478  0.1954  0.7391 -0.8908
 4707SOL    HW125757   2.801   2.614  17.474  0.7736  0.6404  1.1653
 4707SOL    HW225758   2.739   2.489  17.395 -3.8892  0.3924  0.9140
 4708SOL     OW25759   2.175   0.737   8.960  0.4277 -0.2684  0.1565
 4708SOL    HW125760   2.169   0.677   8.886 -0.1988  0.8826 -0.7153
 4708SOL    HW225761   2.192   0.822   8.920 -1.5258 -1.2933 -2.8265
 4709SOL     OW25762   0.143   1.281  13.741 -0.4146  0.3191 -0.2941
 4709SOL    HW125763   0.077   1.215  13.719  2.4770 -2.7591  0.3567
 4709SOL    HW225764   0.201   1.259  13.668  1.1713  1.4694  0.6225
 4710SOL     OW25765   1.294   3.366   2.713 -0.0760  0.5541 -0.0575
 4710SOL    HW125766   1.222   3.427   2.696 -0.4632  0.4210  1.1046
 4710SOL    HW225767   1.245   3.297   2.759 -0.2399  1.1625  0.6750
 4711SOL     OW25768   1.924   0.869  10.423  0.0293  0.7782 -0.1147
 4711SOL    HW125769   1.982   0.944  10.414  1.6661 -0.3307  1.1505
 4711SOL    HW225770   1.865   0.876  10.348  0.8573 -1.8624 -1.0414
 4712SOL     OW25771   3.270   1.807  15.947  0.6590 -0.5137  0.5445
 4712SOL    HW125772   3.232   1.792  16.034 -1.8287 -2.1743 -0.8306
 4712SOL    HW225773   3.258   1.724  15.902  1.0225  0.1445 -0.7629
 4713SOL     OW25774   4.220   0.820   6.592 -0.1741 -0.2952 -0.0406
 4713SOL    HW125775   4.222   0.877   6.669 -0.0541  0.3026 -0.4919
 4713SOL    HW225776   4.222   0.880   6.517  0.0465  0.4930  0.5980
 4714SOL     OW25777   1.273   2.482  15.441  0.0771 -0.0731  0.5351
 4714SOL    HW125778   1.363   2.459  15.416 -0.8346 -1.1891 -1.6430
 4714SOL    HW225779   1.212   2.438  15.383  0.3444  0.2011  0.0486
 4715SOL     OW25780   2.615   0.592   6.877  0.1363 -0.5300  0.5950
 4715SOL    HW125781   2.682   0.593   6.945 -0.2069 -0.0467  0.9352
 4715SOL    HW225782   2.661   0.545   6.808 -0.2648  1.0477 -0.7470
 4716SOL     OW25783   1.849   2.859   8.115  0.0309 -0.1622  0.1394
 4716SOL    HW125784   1.866   2.876   8.022 -0.7458 -1.6741 -0.2763
 4716SOL    HW225785   1.771   2.805   8.109 -0.6433  0.8055  0.3230
 4717SOL     OW25786   0.541   0.467  10.888  0.3265  0.0626  0.6567
 4717SOL    HW125787   0.563   0.552  10.925 -0.1450  0.3526  0.2601
 4717SOL    HW225788   0.517   0.414  10.964 -2.5929 -0.7400 -0.8464
 4718SOL     OW25789   2.206   0.369   6.013  0.7802  0.3824  0.3727
 4718SOL    HW125790   2.182   0.459   5.989 -1.6819 -1.1216 -2.8039
 4718SOL    HW225791   2.151   0.314   5.957  0.6512  1.4737 -0.5807
 4719SOL     OW25792   3.918   2.898   6.162  0.1419 -0.2199 -0.0752
 4719SOL    HW125793   3.940   2.980   6.119  1.9726  0.3831  2.0164
 4719SOL    HW225794   3.899   2.939   6.247  3.3251 -1.3649  1.1868
 4720SOL     OW25795   4.687   2.954   4.660  0.5244 -0.1392 -0.4045
 4720SOL    HW125796   4.630   3.020   4.699 -1.1256 -0.5122 -2.2346
 4720SOL    HW225797   4.636   2.874   4.672 -1.3499  1.1000 -0.0200
 4721SOL     OW25798   3.050   2.341  11.662  0.2626  0.2922  0.5495
 4721SOL    HW125799   3.136   2.299  11.666  0.3625  0.6359  2.2372
 4721SOL    HW225800   3.045   2.368  11.754 -0.9495  1.7455  0.0614
 4722SOL     OW25801   2.054   4.086   7.425  0.2308  0.0698  0.5504
 4722SOL    HW125802   2.077   4.164   7.474  0.0878 -0.4224  1.3992
 4722SOL    HW225803   2.024   4.019   7.487 -2.0680 -0.4664 -1.1287
 4723SOL     OW25804   2.112   4.617  16.075  0.4964 -0.0641 -0.2460
 4723SOL    HW125805   2.064   4.543  16.037  0.5777  0.3245 -1.1115
 4723SOL    HW225806   2.044   4.667  16.119  2.4102 -0.0985  2.7420
 4724SOL     OW25807   2.467   2.221   5.775 -0.4079  0.0270 -0.0641
 4724SOL    HW125808   2.502   2.133   5.789  2.1107  0.9491 -0.6150
 4724SOL    HW225809   2.380   2.190   5.749 -0.3373 -1.2623  1.2123
 4725SOL     OW25810   1.831   2.991   2.249  0.4902 -0.0150 -0.2498
 4725SOL    HW125811   1.830   3.084   2.227 -1.4238  0.6069  2.5388
 4725SOL    HW225812   1.865   2.947   2.171  2.4257  0.8162  0.1158
 4726SOL     OW25813   2.485   4.710   7.298 -0.4919  0.1260 -0.2151
 4726SOL    HW125814   2.474   0.048   7.241 -1.1610 -1.1305 -1.7522
 4726SOL    HW225815   2.453   0.008   7.381  0.2014  1.3959 -0.4914
 4727SOL     OW25816   0.830   0.084   9.931  0.2165  0.1075 -0.1453
 4727SOL    HW125817   0.745   0.075   9.974  0.2053  0.0400 -0.1822
 4727SOL    HW225818   0.812   0.028   9.855 -2.1984 -0.0175  0.5097
 4728SOL     OW25819   3.489   4.347   1.625  0.1712 -0.1271 -0.4302
 4728SOL    HW125820   3.556   4.362   1.691 -1.1460 -1.4375  1.2133
 4728SOL    HW225821   3.453   4.265   1.660 -1.0378  0.4365 -0.3319
 4729SOL     OW25822   4.490   2.541  11.035  0.2929  0.2838 -0.1311
 4729SOL    HW125823   4.558   2.582  11.088  1.0521  0.5157 -1.2920
 4729SOL    HW225824   4.520   2.450  11.036  1.4898  0.6821  0.0300
 4730SOL     OW25825   3.228   4.711  13.586  0.0211  0.0627  0.1274
 4730SOL    HW125826   3.166   4.646  13.620 -0.9375  0.6044 -0.5996
 4730SOL    HW225827   3.296   4.721  13.652 -2.5315 -0.0208  2.7499
 4731SOL     OW25828   3.757   1.488   5.663  0.1390 -0.0673 -0.1232
 4731SOL    HW125829   3.748   1.520   5.753 -0.2175  0.2587 -0.2774
 4731SOL    HW225830   3.846   1.524   5.658 -0.0309  0.3693 -0.0081
 4732SOL     OW25831   2.060   4.548   0.482 -0.8864 -0.1293 -0.3314
 4732SOL    HW125832   1.991   4.557   0.416 -0.3784  0.0721 -0.8322
 4732SOL    HW225833   2.066   4.454   0.499 -0.8671  0.1581  1.2717
 4733SOL     OW25834   3.804   0.396   9.081  0.1343 -0.2163 -0.1982
 4733SOL    HW125835   3.821   0.485   9.051 -2.1873  1.2730  2.9924
 4733SOL    HW225836   3.889   0.366   9.113 -0.3624 -0.2201  1.0909
 4734SOL     OW25837   2.837   0.383  10.787  0.0388 -0.5870  0.5179
 4734SOL    HW125838   2.812   0.320  10.720 -1.2141  1.0012 -0.4924
 4734SOL    HW225839   2.804   0.336  10.864  0.5184 -0.7012  0.6572
 4735SOL     OW25840   1.148   3.405   4.265  0.3550 -0.1697 -0.2705
 4735SOL    HW125841   1.238   3.409   4.233  0.1736  1.0100 -0.6072
 4735SOL    HW225842   1.098   3.430   4.187 -1.4555 -0.3674  0.8189
 4736SOL     OW25843   0.518   2.662   9.113 -0.1329  0.1107 -1.0068
 4736SOL    HW125844   0.529   2.682   9.206 -2.8757 -2.4857 -0.1286
 4736SOL    HW225845   0.593   2.711   9.080 -1.4407  1.3378 -2.1200
 4737SOL     OW25846   2.533   0.830   9.318 -0.4794 -0.3551 -0.3664
 4737SOL    HW125847   2.599   0.858   9.254  0.1229  0.1372  0.4701
 4737SOL    HW225848   2.549   0.737   9.305 -0.6802 -0.5712  0.9612
 4738SOL     OW25849   0.985   0.947   4.036  0.3256 -0.5007 -0.3748
 4738SOL    HW125850   1.024   1.033   4.020 -3.3204  1.5071  1.4203
 4738SOL    HW225851   0.896   0.970   4.065  0.8763 -2.1857  2.6070
 4739SOL     OW25852   3.957   0.057   9.219  0.3679  0.1656  0.2063
 4739SOL    HW125853   3.893   0.009   9.272  2.2165 -0.7388  1.6290
 4739SOL    HW225854   3.952   0.141   9.265  0.3250  0.5966 -0.5954
 4740SOL     OW25855   2.063   2.643  14.452 -0.0501  0.2010 -0.0096
 4740SOL    HW125856   1.990   2.664  14.511  2.0793  1.5280  2.1416
 4740SOL    HW225857   2.070   2.718  14.392 -0.6843 -0.9335 -1.4938
 4741SOL     OW25858   2.102   4.593   6.867 -0.1385  0.0559 -0.6865
 4741SOL    HW125859   2.158   4.614   6.941 -0.4902 -0.9876 -0.1127
 4741SOL    HW225860   2.103   4.497   6.864 -1.6630 -0.0070  0.3855
 4742SOL     OW25861   1.813   3.307  17.002 -0.3032 -0.1399 -0.2793
 4742SOL    HW125862   1.773   3.274  16.921 -0.6026 -0.9652  0.2171
 4742SOL    HW225863   1.897   3.332  16.963  1.6609 -3.1809  2.0478
 4743SOL     OW25864   3.492   0.250  11.652 -0.2187  0.3244  0.4228
 4743SOL    HW125865   3.514   0.340  11.678  2.3992 -0.1597 -0.0685
 4743SOL    HW225866   3.449   0.217  11.730  0.8684  0.1740  0.9635
 4744SOL     OW25867   1.624   4.033   1.535 -0.2007 -0.5973 -0.1432
 4744SOL    HW125868   1.611   4.119   1.576  0.8884 -1.5714  2.2841
 4744SOL    HW225869   1.591   4.043   1.446 -1.1450  0.9160  0.3754
 4745SOL     OW25870   3.070   3.222  15.152 -0.3129  0.5374  0.1739
 4745SOL    HW125871   3.075   3.256  15.063  0.3818  3.7208  1.4023
 4745SOL    HW225872   3.064   3.306  15.199 -2.1211  0.1881  0.5697
 4746SOL     OW25873   3.330   2.699   7.277 -0.2453  0.1056  0.1109
 4746SOL    HW125874   3.327   2.745   7.361 -2.1306  2.0681 -1.0267
 4746SOL    HW225875   3.242   2.661   7.271  0.0721 -0.1197 -2.8263
 4747SOL     OW25876   4.447   0.827   4.012 -0.0696  0.4081 -0.5295
 4747SOL    HW125877   4.481   0.854   4.098  1.8519 -0.6904 -0.9481
 4747SOL    HW225878   4.456   0.916   3.976 -4.5546  0.2599 -1.9233
 4748SOL     OW25879   4.267   0.112   7.180 -0.0724 -0.1135  0.8972
 4748SOL    HW125880   4.301   0.200   7.160  1.6505 -0.5060  2.1180
 4748SOL    HW225881   4.275   0.116   7.275 -3.5420  2.8213  1.1166
 4749SOL     OW25882   0.073   0.987   6.852  0.0000 -0.3655  0.2074
 4749SOL    HW125883   0.058   0.893   6.858 -0.9401 -0.1334  1.5109
 4749SOL    HW225884   0.150   0.981   6.795 -0.6290 -0.4557 -0.6316
 4750SOL     OW25885   3.289   1.137  11.870 -0.1144 -0.2239  0.5751
 4750SOL    HW125886   3.238   1.193  11.928 -0.5864 -0.1329  0.0669
 4750SOL    HW225887   3.259   1.163  11.783 -1.6623 -2.0672  0.5714
 4751SOL     OW25888   0.734   0.637   3.841  0.0499 -0.2851  0.4529
 4751SOL    HW125889   0.664   0.572   3.840  0.5403 -0.7897 -2.1656
 4751SOL    HW225890   0.753   0.641   3.935  0.3941 -2.0249  0.4460
 4752SOL     OW25891   0.699   2.316   7.407 -0.0199 -0.1641  0.1844
 4752SOL    HW125892   0.782   2.326   7.360 -1.7148  0.8383 -2.6057
 4752SOL    HW225893   0.668   2.407   7.414  0.1751 -0.1210  0.4596
 4753SOL     OW25894   4.150   0.823   6.073 -0.1329  0.2388 -0.3136
 4753SOL    HW125895   4.144   0.768   5.995 -0.1928 -1.7537  1.1027
 4753SOL    HW225896   4.057   0.824   6.094  0.0349  1.8323  0.4036
 4754SOL     OW25897   2.088   1.995   7.348  0.2709  0.6618 -0.0821
 4754SOL    HW125898   2.159   1.978   7.286 -0.1209  2.0139 -0.9007
 4754SOL    HW225899   2.131   1.980   7.433  1.2558 -0.2401 -0.7350
 4755SOL     OW25900   2.394   2.399   3.348 -0.1000 -0.0045  0.1341
 4755SOL    HW125901   2.349   2.420   3.266 -0.2251 -2.4026 -0.4073
 4755SOL    HW225902   2.390   2.481   3.398  0.9314 -1.5574  2.7525
 4756SOL     OW25903   4.262   0.925   2.442 -0.4402 -0.2677  0.6102
 4756SOL    HW125904   4.193   0.924   2.508  0.5408  1.5958  1.6703
 4756SOL    HW225905   4.301   1.006   2.475  2.3840 -0.7348 -1.5697
 4757SOL     OW25906   2.327   4.243   7.856 -0.6499 -0.3286  0.3273
 4757SOL    HW125907   2.322   4.219   7.948  1.2920  0.4374  0.6257
 4757SOL    HW225908   2.415   4.223   7.824  0.4601  0.1288  3.0894
 4758SOL     OW25909   2.064   4.717   2.997 -0.0840  0.9689  0.5167
 4758SOL    HW125910   2.009   4.641   2.980  1.2537  0.3818 -1.2065
 4758SOL    HW225911   2.151   4.678   2.988 -1.0250 -1.1050  0.4378
 4759SOL     OW25912   2.988   4.424   4.377 -0.7162  0.7513  0.0466
 4759SOL    HW125913   2.902   4.381   4.375 -1.0814  1.5202 -1.4214
 4759SOL    HW225914   3.009   4.421   4.470 -1.8805 -0.0596  0.2875
 4760SOL     OW25915   2.244   1.455   7.529  0.4608  0.3245 -0.1246
 4760SOL    HW125916   2.253   1.417   7.616 -0.4918 -0.4030 -0.3380
 4760SOL    HW225917   2.205   1.381   7.482  0.3787 -0.6301  1.4498
 4761SOL     OW25918   3.713   0.228   9.511 -0.1054  0.8295 -0.0167
 4761SOL    HW125919   3.728   0.154   9.452 -0.5215 -0.0411  0.9734
 4761SOL    HW225920   3.801   0.265   9.502  0.2448  0.0794  0.4123
 4762SOL     OW25921   0.508   4.633   4.489 -0.5687  0.0740  0.1534
 4762SOL    HW125922   0.546   4.640   4.401  0.9219 -1.3893  0.7033
 4762SOL    HW225923   0.515   4.538   4.498  0.0783  0.1847  0.7348
 4763SOL     OW25924   2.896   4.195   7.666 -0.5246 -0.2350 -0.2740
 4763SOL    HW125925   2.960   4.261   7.693 -0.3623  0.2399 -1.7955
 4763SOL    HW225926   2.855   4.225   7.584 -2.1390 -2.4207 -0.2431
 4764SOL     OW25927   2.101   0.943   5.396 -0.2081 -0.1966 -0.0510
 4764SOL    HW125928   2.062   0.979   5.316  1.2242  1.7188  0.1265
 4764SOL    HW225929   2.190   0.916   5.376 -1.0188 -3.2681  0.4658
 4765SOL     OW25930   0.563   4.732   8.123  0.2035  0.1329 -0.4502
 4765SOL    HW125931   0.515   0.007   8.041 -1.5756  0.9933  0.7070
 4765SOL    HW225932   0.604   0.081   8.129 -0.8855  0.5742  0.7179
 4766SOL     OW25933   1.562   4.002   1.254 -1.0796  0.0478  0.0940
 4766SOL    HW125934   1.474   4.012   1.290 -0.8883  0.7062  0.3728
 4766SOL    HW225935   1.554   4.035   1.164  1.1211 -2.8214 -1.1634
 4767SOL     OW25936   2.099   0.310  10.789  0.4034  0.5239 -0.4197
 4767SOL    HW125937   2.150   0.237  10.753  0.5159 -0.1908  1.1933
 4767SOL    HW225938   2.032   0.319  10.722  0.0658 -0.1519 -0.1681
 4768SOL     OW25939   3.360   2.893   2.342  0.2325 -0.0503 -0.2419
 4768SOL    HW125940   3.436   2.843   2.312  1.3313  2.3654 -1.4682
 4768SOL    HW225941   3.403   2.971   2.378 -2.2859  1.5810 -0.7462
 4769SOL     OW25942   4.281   1.919  15.378  0.2503 -0.0836  0.2030
 4769SOL    HW125943   4.216   1.897  15.445  0.4675 -0.2938  0.3443
 4769SOL    HW225944   4.273   1.855  15.308 -3.4622 -0.0345  0.5854
 4770SOL     OW25945   0.809   0.961   8.668  0.3224 -0.2364 -0.1487
 4770SOL    HW125946   0.746   1.023   8.705 -0.0051 -0.4100 -0.4119
 4770SOL    HW225947   0.805   0.993   8.578 -0.3073  2.2673  0.7779
 4771SOL     OW25948   2.471   0.516  14.248 -0.6472  0.0057 -0.7662
 4771SOL    HW125949   2.535   0.583  14.273  0.1109  0.0795 -2.8915
 4771SOL    HW225950   2.531   0.442  14.246 -1.0597 -0.2457 -4.4738
 4772SOL     OW25951   1.094   0.270   0.318  0.0342 -0.3198  1.0639
 4772SOL    HW125952   1.098   0.185   0.275  0.8197  1.0954 -1.7060
 4772SOL    HW225953   1.040   0.251   0.394 -0.3835 -1.1864  0.5459
 4773SOL     OW25954   3.445   3.323   8.972  0.0075 -0.2446  0.1230
 4773SOL    HW125955   3.513   3.391   8.976 -0.2007 -0.0078 -0.3749
 4773SOL    HW225956   3.380   3.368   8.919  0.9301 -0.7307 -1.4395
 4774SOL     OW25957   1.787   1.671   4.561 -0.3585  0.2169 -0.2206
 4774SOL    HW125958   1.730   1.594   4.568 -0.8113  0.6805  1.2987
 4774SOL    HW225959   1.743   1.718   4.491 -1.8827 -1.0766 -0.1217
 4775SOL     OW25960   4.178   1.749   0.238  0.7074 -0.2121  0.9480
 4775SOL    HW125961   4.106   1.714   0.290 -0.4490  1.1520  0.2442
 4775SOL    HW225962   4.233   1.797   0.299  1.0807  1.0186 -0.3479
 4776SOL     OW25963   2.108   2.268  11.102 -0.4187 -0.7268 -0.6433
 4776SOL    HW125964   2.148   2.311  11.026  0.7547 -0.0472  0.3595
 4776SOL    HW225965   2.038   2.330  11.123  1.8557  1.6424 -0.0611
 4777SOL     OW25966   1.182   2.766   0.093 -0.2842 -0.2441 -0.4928
 4777SOL    HW125967   1.145   2.751   0.006  0.8125 -2.4664 -0.5766
 4777SOL    HW225968   1.171   2.861   0.101 -0.0047 -0.0630 -2.3066
 4778SOL     OW25969   1.213   3.510   9.116  0.3024 -0.1847  0.7634
 4778SOL    HW125970   1.260   3.542   9.193  2.8185  0.7009 -1.1158
 4778SOL    HW225971   1.172   3.433   9.155 -1.0158 -0.5861 -1.3802
 4779SOL     OW25972   0.571   3.446   4.079  0.7779  0.3059  0.2584
 4779SOL    HW125973   0.486   3.487   4.068  1.3150  1.8111  1.6115
 4779SOL    HW225974   0.548   3.364   4.122  1.0839 -1.3466 -2.7023
 4780SOL     OW25975   0.244   0.756   3.395 -0.1727 -0.6983  0.0947
 4780SOL    HW125976   0.257   0.835   3.449  1.9646  0.6340 -2.3723
 4780SOL    HW225977   0.333   0.724   3.387  0.5200  0.5365  2.8701
 4781SOL     OW25978   4.411   1.914   0.067  0.0733  0.1787  1.6241
 4781SOL    HW125979   4.498   1.889   0.097 -0.7992 -2.2282  2.1471
 4781SOL    HW225980   4.395   1.830   0.025  0.8301  1.2265 -0.7718
 4782SOL     OW25981   3.544   4.206  15.201  0.3387  0.2873  0.4460
 4782SOL    HW125982   3.540   4.141  15.272  1.4265 -1.2740 -0.9163
 4782SOL    HW225983   3.505   4.278  15.250 -3.1046 -0.8364 -0.6962
 4783SOL     OW25984   3.267   0.663   9.421  0.2704 -0.0715  0.8272
 4783SOL    HW125985   3.327   0.644   9.349  1.0431  1.1350  1.1422
 4783SOL    HW225986   3.313   0.628   9.498 -0.0593 -2.2323  0.0345
 4784SOL     OW25987   4.723   2.118   8.972  0.0306  0.4228 -0.2317
 4784SOL    HW125988   0.067   2.095   8.926  0.0579  1.3133 -0.6305
 4784SOL    HW225989   0.010   2.208   8.993  0.1764 -0.2718  2.5029
 4785SOL     OW25990   0.824   0.327  16.811 -0.2295  0.1352  0.0363
 4785SOL    HW125991   0.896   0.387  16.828  0.0118 -0.0821 -0.2252
 4785SOL    HW225992   0.814   0.286  16.897  0.3179 -0.9114 -0.4093
 4786SOL     OW25993   1.867   2.157   7.152 -0.1743  0.9082 -0.3518
 4786SOL    HW125994   1.910   2.219   7.212 -0.8080  1.8531 -0.8614
 4786SOL    HW225995   1.937   2.157   7.088  0.4856 -0.4153  0.3744
 4787SOL     OW25996   0.067   2.999   8.656 -0.0848  0.2321  0.2954
 4787SOL    HW125997   0.084   2.922   8.710 -0.6347  0.7980  1.2786
 4787SOL    HW225998   4.716   2.979   8.625  0.2485  1.7770 -1.6729
 4788SOL     OW25999   3.937   2.604  13.729 -0.6604  0.2609  0.3824
 4788SOL    HW126000   3.949   2.517  13.690 -0.8854  1.2584 -1.9624
 4788SOL    HW226001   3.939   2.655  13.647  1.1415 -0.3715  0.0397
 4789SOL     OW26002   3.093   2.058   8.101 -0.4147 -0.1669 -0.5615
 4789SOL    HW126003   3.134   1.998   8.039  2.0340  1.7770 -0.8171
 4789SOL    HW226004   3.156   2.129   8.108 -0.4902 -0.1887  0.2556
 4790SOL     OW26005   0.941   2.328   7.242 -0.4222 -0.0647 -0.4995
 4790SOL    HW126006   0.995   2.368   7.174 -0.6737  0.3300 -0.4702
 4790SOL    HW226007   0.953   2.239   7.209 -0.8157  0.4223 -1.9440
 4791SOL     OW26008   1.816   0.980   3.793  0.2227 -0.1365  0.2671
 4791SOL    HW126009   1.858   0.985   3.879 -1.0931 -0.1707  0.9012
 4791SOL    HW226010   1.726   1.009   3.809  0.4838  0.6127  0.3731
 4792SOL     OW26011   2.611   3.136  15.358  0.2668  0.3285 -0.4194
 4792SOL    HW126012   2.676   3.074  15.327 -0.6016  0.5853 -2.7614
 4792SOL    HW226013   2.592   3.185  15.277 -2.2737  1.3134  0.7574
 4793SOL     OW26014   0.422   0.539  13.912 -0.5717  0.0539 -0.3642
 4793SOL    HW126015   0.498   0.494  13.876 -0.1260  0.1903  0.4074
 4793SOL    HW226016   0.350   0.522  13.852 -0.4408 -0.3420 -0.4138
 4794SOL     OW26017   1.117   2.008   3.651  0.2081 -0.2496 -0.4943
 4794SOL    HW126018   1.159   1.923   3.641 -0.3793 -0.1846 -3.2900
 4794SOL    HW226019   1.152   2.061   3.580  1.2450  1.6784  1.4539
 4795SOL     OW26020   1.635   3.440   9.561 -0.2330  0.3713 -0.7573
 4795SOL    HW126021   1.712   3.383   9.562  0.4406  1.2881 -0.5771
 4795SOL    HW226022   1.558   3.383   9.566  1.1314 -1.3234  0.8187
 4796SOL     OW26023   2.758   0.360   2.870  0.0627  0.1913  0.2644
 4796SOL    HW126024   2.670   0.347   2.834 -0.2815 -1.1498  1.5712
 4796SOL    HW226025   2.759   0.455   2.878 -1.2234  0.2478 -0.2528
 4797SOL     OW26026   2.517   4.224   2.357 -0.0576 -0.4616  0.2256
 4797SOL    HW126027   2.600   4.180   2.337 -1.1601 -1.6324 -1.8678
 4797SOL    HW226028   2.481   4.157   2.415 -1.5283 -0.7283 -0.9993
 4798SOL     OW26029   1.057   3.164   6.072  0.2379 -0.1634  0.1257
 4798SOL    HW126030   1.096   3.183   5.987  0.1832 -0.6259 -0.0039
 4798SOL    HW226031   0.998   3.238   6.080 -0.5487 -0.7824  0.1091
 4799SOL     OW26032   3.875   3.703   2.531  0.0242 -0.2254 -0.2068
 4799SOL    HW126033   3.843   3.678   2.618  1.3851  1.0537  0.6730
 4799SOL    HW226034   3.869   3.799   2.536 -2.5129 -0.3645 -0.3076
 4800SOL     OW26035   3.637   0.291   8.204 -0.7370  0.4886 -0.2563
 4800SOL    HW126036   3.622   0.249   8.119 -1.5620  2.8372 -1.2670
 4800SOL    HW226037   3.733   0.291   8.202 -0.7503  0.6274 -1.3024
 4801SOL     OW26038   3.827   4.544   1.272  0.0456 -0.2762  0.1384
 4801SOL    HW126039   3.908   4.585   1.243 -0.1111 -0.7312 -0.9262
 4801SOL    HW226040   3.826   4.463   1.220 -3.1964  0.1980 -0.5547
 4802SOL     OW26041   1.632   2.599   7.481 -0.2460 -0.5918  0.3131
 4802SOL    HW126042   1.632   2.576   7.574 -1.2556 -0.2563  0.3913
 4802SOL    HW226043   1.559   2.660   7.485  0.2101 -0.2493  3.6425
 4803SOL     OW26044   2.488   2.340   0.911  0.1616  0.6191 -0.1303
 4803SOL    HW126045   2.564   2.393   0.936  2.4876 -0.4139 -5.0236
 4803SOL    HW226046   2.498   2.272   0.977  1.8786 -2.0315 -3.1309
 4804SOL     OW26047   1.374   2.048   6.326  0.6385 -0.2799  0.4484
 4804SOL    HW126048   1.381   1.953   6.323  1.0613 -0.2264 -0.2049
 4804SOL    HW226049   1.417   2.068   6.410 -0.7870  1.8792  0.6779
 4805SOL     OW26050   3.305   1.970  15.343  0.5629  0.3304  0.5636
 4805SOL    HW126051   3.343   1.966  15.255  1.1064 -2.6416  0.9316
 4805SOL    HW226052   3.214   1.957  15.318  0.6760 -1.8612  1.3068
 4806SOL     OW26053   3.390   2.709   2.695  0.0895  0.1502 -0.9463
 4806SOL    HW126054   3.386   2.777   2.763 -2.1872 -0.4857 -0.4460
 4806SOL    HW226055   3.465   2.738   2.642  0.7884 -1.7365 -0.9780
 4807SOL     OW26056   4.505   3.750   1.504 -0.4987  0.5074  0.0168
 4807SOL    HW126057   4.508   3.750   1.600  1.0665 -0.4191 -0.0204
 4807SOL    HW226058   4.410   3.752   1.496 -0.4924 -0.3658 -0.3028
 4808SOL     OW26059   0.704   2.187   2.920 -0.2510  0.1016  0.2378
 4808SOL    HW126060   0.625   2.240   2.933  1.3102  1.5179  3.9278
 4808SOL    HW226061   0.772   2.209   2.983 -0.4321 -0.9594  0.8158
 4809SOL     OW26062   0.298   4.491   6.065  0.0989 -0.1998  0.4148
 4809SOL    HW126063   0.215   4.446   6.080  0.0083 -1.0193 -2.4741
 4809SOL    HW226064   0.352   4.420   6.098  0.3651  0.7358  2.0072
 4810SOL     OW26065   4.192   4.090   5.624  0.3381  0.4893  0.1106
 4810SOL    HW126066   4.192   3.995   5.610  1.3961  0.6132 -0.6803
 4810SOL    HW226067   4.141   4.079   5.705 -1.7893 -0.5556 -1.3757
 4811SOL     OW26068   4.329   1.355   1.240  0.2345 -0.2627 -0.3293
 4811SOL    HW126069   4.302   1.294   1.309 -0.1897  0.4094  0.0987
 4811SOL    HW226070   4.311   1.307   1.159  0.4216 -0.1273 -0.4513
 4812SOL     OW26071   2.194   3.989  16.331 -0.5461 -0.8367 -0.7638
 4812SOL    HW126072   2.107   4.030  16.329  0.4449  1.3459  0.6348
 4812SOL    HW226073   2.249   4.063  16.356 -0.6989 -0.8844 -0.2859
 4813SOL     OW26074   0.001   0.266  17.391 -0.1107 -0.1428  0.0014
 4813SOL    HW126075   0.056   0.194  17.423 -0.2820  0.7126  2.2063
 4813SOL    HW226076   4.695   0.303  17.468  1.1178 -1.1035  1.1611
 4814SOL     OW26077   2.404   0.141   6.857 -0.1885 -0.3233  0.1385
 4814SOL    HW126078   2.463   0.206   6.895 -1.9551  0.0871  2.1757
 4814SOL    HW226079   2.342   0.203   6.819  0.1293  0.0833  0.2827
 4815SOL     OW26080   0.243   1.889  15.161  0.0665  0.7447 -0.3491
 4815SOL    HW126081   0.158   1.861  15.196  0.3204  0.5692  0.1429
 4815SOL    HW226082   0.245   1.981  15.187 -1.8943  0.7623 -0.2705
 4816SOL     OW26083   4.288   0.826   1.832 -0.0977  0.2580  0.1788
 4816SOL    HW126084   4.282   0.875   1.913  3.1628  0.1983  0.4358
 4816SOL    HW226085   4.364   0.772   1.854 -1.3805 -2.1387 -1.2666
 4817SOL     OW26086   3.288   0.748   6.931  0.5084 -0.0768 -0.1212
 4817SOL    HW126087   3.320   0.808   6.863  1.9667 -0.1927  0.4476
 4817SOL    HW226088   3.293   0.661   6.891  0.4473 -0.6672  1.1557
 4818SOL     OW26089   4.233   3.218  16.088  0.4477 -0.2669 -0.4749
 4818SOL    HW126090   4.190   3.161  16.024 -1.1739  0.0184  0.3341
 4818SOL    HW226091   4.231   3.303  16.045 -0.2428  0.2595  0.5855
 4819SOL     OW26092   4.400   2.057   6.819 -0.3728 -0.2081  0.6162
 4819SOL    HW126093   4.446   2.118   6.876 -1.2135  0.4862  0.5540
 4819SOL    HW226094   4.313   2.098   6.817 -1.0169 -1.5372  1.4087
 4820SOL     OW26095   1.162   0.020   6.882  0.1818  0.7151 -0.3492
 4820SOL    HW126096   1.101   0.093   6.869  1.8494  2.2848  0.6346
 4820SOL    HW226097   1.124   4.717   6.959 -0.4682  1.0584 -0.4888
 4821SOL     OW26098   3.736   0.590  15.103 -0.4506  0.6474 -0.1740
 4821SOL    HW126099   3.761   0.661  15.044 -2.0667  1.1539 -0.2347
 4821SOL    HW226100   3.703   0.644  15.175 -0.0287 -0.4438  0.8409
 4822SOL     OW26101   0.727   0.542   9.122  0.1822  0.1988 -0.0648
 4822SOL    HW126102   0.691   0.598   9.053 -2.0657 -0.6857  0.3882
 4822SOL    HW226103   0.763   0.603   9.187  1.1476  0.1658 -0.5762
 4823SOL     OW26104   4.353   0.598   3.005  0.1793 -0.3761  0.2432
 4823SOL    HW126105   4.376   0.689   2.986  0.9153 -0.6236 -0.0645
 4823SOL    HW226106   4.316   0.596   3.093 -1.8180  1.6394 -0.5528
 4824SOL     OW26107   1.498   4.495   8.577 -0.4989 -0.0513  0.0982
 4824SOL    HW126108   1.551   4.431   8.623  1.1431  0.3882 -1.1598
 4824SOL    HW226109   1.415   4.480   8.623 -0.3119  1.7254  1.0345
 4825SOL     OW26110   4.082   3.885   9.341  0.3771 -0.3379 -0.1463
 4825SOL    HW126111   4.072   3.871   9.435 -0.0782  0.2883 -0.0996
 4825SOL    HW226112   4.010   3.945   9.323  0.7520 -0.4564 -2.0842
 4826SOL     OW26113   0.475   4.357  14.555  0.3212 -0.3439  0.3889
 4826SOL    HW126114   0.493   4.418  14.626 -0.5057 -2.5636  2.4930
 4826SOL    HW226115   0.380   4.361  14.560  0.4446  0.0222  2.1485
 4827SOL     OW26116   3.635   1.481   2.788 -0.0731 -0.3183  0.2402
 4827SOL    HW126117   3.545   1.474   2.758  0.5673  0.7187 -1.9477
 4827SOL    HW226118   3.664   1.520   2.705  1.5260  1.0386  1.4376
 4828SOL     OW26119   0.817   2.630   5.870  0.4195 -0.3855 -0.0289
 4828SOL    HW126120   0.846   2.544   5.842 -0.3525 -0.5963 -0.1699
 4828SOL    HW226121   0.830   2.688   5.794  0.8152  0.8125  0.9447
 4829SOL     OW26122   0.385   1.279   9.270  0.0542  0.2739 -0.6291
 4829SOL    HW126123   0.312   1.295   9.330  1.6415 -0.7345  1.5798
 4829SOL    HW226124   0.433   1.224   9.332  2.4746  0.6920 -2.1452
 4830SOL     OW26125   0.457   3.218   6.557  0.1115 -0.2361 -0.0187
 4830SOL    HW126126   0.534   3.229   6.501  0.9355  2.3182  1.6162
 4830SOL    HW226127   0.398   3.165   6.502  0.9071  0.2535 -1.3432
 4831SOL     OW26128   4.398   2.506   6.125 -0.1365 -0.1811 -0.1820
 4831SOL    HW126129   4.355   2.552   6.197  0.5451 -0.8358  0.6413
 4831SOL    HW226130   4.362   2.417   6.120 -0.2804 -0.2818  2.8046
 4832SOL     OW26131   3.095   3.252   5.699 -0.1549 -0.1199  0.0161
 4832SOL    HW126132   3.042   3.331   5.709 -0.7015 -0.2288 -1.9107
 4832SOL    HW226133   3.056   3.214   5.620 -0.0801 -0.9158  0.3570
 4833SOL     OW26134   0.654   2.681  17.531 -0.3518  0.3072 -0.2661
 4833SOL    HW126135   0.576   2.670  17.586 -1.5957 -1.8220 -2.5116
 4833SOL    HW226136   0.716   2.702  17.601 -0.1705 -1.2088  0.0265
 4834SOL     OW26137   1.068   0.092   9.078 -0.0679 -0.0169 -0.1164
 4834SOL    HW126138   1.073   0.005   9.118  0.3783 -0.0328 -0.2086
 4834SOL    HW226139   1.108   0.134   9.154 -0.4706  0.5824 -0.2342
 4835SOL     OW26140   0.551   1.370   9.956  0.1674  0.3012  0.4003
 4835SOL    HW126141   0.523   1.435  10.021  2.6027  0.5441  1.2130
 4835SOL    HW226142   0.616   1.314   9.999  1.2684  0.0188 -1.6766
 4836SOL     OW26143   1.045   0.479  16.834  0.4439  0.3056  0.6221
 4836SOL    HW126144   1.124   0.432  16.862 -0.8233 -2.4579 -0.3880
 4836SOL    HW226145   1.077   0.523  16.755 -0.8323  2.2174  1.1844
 4837SOL     OW26146   2.889   4.722   3.277 -0.8255 -0.3819 -0.4015
 4837SOL    HW126147   2.973   0.020   3.249 -1.4006  1.5264  0.3248
 4837SOL    HW226148   2.882   4.637   3.233 -1.6596 -0.2919 -0.4328
 4838SOL     OW26149   4.485   1.240  12.727  0.5272 -0.0454 -0.7764
 4838SOL    HW126150   4.462   1.149  12.709 -2.1835  0.4891 -0.0418
 4838SOL    HW226151   4.558   1.220  12.786  0.8379  0.3243 -1.0373
 4839SOL     OW26152   1.440   3.045   1.697 -0.3136 -0.7953 -0.1287
 4839SOL    HW126153   1.381   2.984   1.651 -0.2306  0.3035 -1.6906
 4839SOL    HW226154   1.447   2.999   1.781  0.4139 -0.8962 -0.2463
 4840SOL     OW26155   4.283   2.373  15.481 -0.4722 -0.2379  0.2775
 4840SOL    HW126156   4.343   2.309  15.521  2.3162  1.1648 -1.6488
 4840SOL    HW226157   4.219   2.310  15.448 -0.0271 -1.5700  1.9379
 4841SOL     OW26158   2.469   4.720   9.056 -0.1940 -0.1104 -0.2166
 4841SOL    HW126159   2.488   0.029   9.137 -0.9988 -0.2062  0.0228
 4841SOL    HW226160   2.419   4.646   9.091  0.6284 -0.5852 -0.0302
 4842SOL     OW26161   1.051   1.127  14.028  0.2154  0.3950  0.0929
 4842SOL    HW126162   0.971   1.079  14.004  1.1759 -0.0029 -2.3076
 4842SOL    HW226163   1.043   1.201  13.967  0.3277 -0.5037 -1.0214
 4843SOL     OW26164   2.610   1.697   6.909  0.1286 -0.2156 -0.1583
 4843SOL    HW126165   2.662   1.619   6.887 -2.8755 -1.9171 -1.1355
 4843SOL    HW226166   2.525   1.673   6.874 -0.6304 -1.3149  2.3713
 4844SOL     OW26167   1.368   0.200   2.314  0.0830 -0.7304  0.1116
 4844SOL    HW126168   1.370   0.132   2.247  2.0956 -0.7722  0.2348
 4844SOL    HW226169   1.322   0.269   2.266 -0.5792 -0.9178  0.4716
 4845SOL     OW26170   0.077   1.428   2.301 -0.1217  0.0372  0.0343
 4845SOL    HW126171   0.054   1.453   2.212 -0.1717 -1.4821 -0.3821
 4845SOL    HW226172   0.085   1.333   2.289 -1.3567 -0.2529  1.4399
 4846SOL     OW26173   4.458   4.095   5.704 -0.0010  0.4735  0.3056
 4846SOL    HW126174   4.420   4.052   5.780  1.0681 -0.9629  0.0130
 4846SOL    HW226175   4.386   4.091   5.640  0.7255  1.6009 -0.5936
 4847SOL     OW26176   0.896   4.103   7.902 -0.0824 -0.3797 -0.4893
 4847SOL    HW126177   0.822   4.059   7.943 -0.9356  0.9362 -0.6291
 4847SOL    HW226178   0.892   4.190   7.941 -0.4969 -0.6596  0.1016
 4848SOL     OW26179   3.650   3.354   9.697 -0.1888 -0.0458  0.2287
 4848SOL    HW126180   3.742   3.336   9.678 -0.4834  0.1149 -1.3595
 4848SOL    HW226181   3.611   3.297   9.631  1.4253  1.4657 -2.0177
 4849SOL     OW26182   3.369   2.501  11.529  0.5660 -0.7119 -0.2334
 4849SOL    HW126183   3.415   2.536  11.453 -0.2870 -0.8925 -0.8421
 4849SOL    HW226184   3.439   2.447  11.564  1.0250  0.8491  1.1761
 4850SOL     OW26185   3.042   0.301   3.938 -0.1030 -0.0409  0.3238
 4850SOL    HW126186   3.045   0.334   3.848 -1.6158  0.7752  0.5714
 4850SOL    HW226187   2.981   0.366   3.972  1.6922  1.1484  1.2869
 4851SOL     OW26188   3.683   3.012   5.509 -0.1383  1.3320  0.2453
 4851SOL    HW126189   3.667   2.956   5.433  0.8217  0.0022  1.0081
 4851SOL    HW226190   3.772   3.045   5.495  0.6362 -0.7741  0.2279
 4852SOL     OW26191   3.330   3.745  10.805 -0.6059  0.1664 -0.3196
 4852SOL    HW126192   3.346   3.837  10.782  1.7112 -0.8458 -2.6254
 4852SOL    HW226193   3.235   3.749  10.818 -0.6226  0.7090 -0.5910
 4853SOL     OW26194   3.440   4.655   5.678  0.2561 -0.6692  0.3426
 4853SOL    HW126195   3.381   4.728   5.700 -0.2318 -0.6992 -0.8726
 4853SOL    HW226196   3.521   4.677   5.724  2.4322 -1.4469 -3.1828
 4854SOL     OW26197   3.494   3.271   9.274 -0.5050  0.1126 -0.1501
 4854SOL    HW126198   3.483   3.310   9.188  3.1376  1.4625 -0.0159
 4854SOL    HW226199   3.550   3.196   9.253 -1.2100 -0.1073 -1.2234
 4855SOL     OW26200   3.741   3.799  10.180  0.2724  0.0690 -0.0103
 4855SOL    HW126201   3.726   3.734  10.249  0.7916  1.1253  1.0997
 4855SOL    HW226202   3.710   3.753  10.102 -0.0970 -0.5256  0.4875
 4856SOL     OW26203   3.269   3.173   1.599  0.2772 -0.0473 -1.1384
 4856SOL    HW126204   3.324   3.138   1.528 -1.1989 -3.4023 -0.6270
 4856SOL    HW226205   3.208   3.227   1.549  1.1674  1.3359 -0.7334
 4857SOL     OW26206   0.873   4.246   4.959  0.7395 -0.0511  0.0290
 4857SOL    HW126207   0.783   4.228   4.984  1.7236 -2.3594  1.9380
 4857SOL    HW226208   0.915   4.269   5.042  1.4876 -0.2481 -0.2928
 4858SOL     OW26209   1.233   4.141   5.960  0.8351  0.1300  0.0174
 4858SOL    HW126210   1.312   4.195   5.968  1.3469 -0.5164 -0.6447
 4858SOL    HW226211   1.197   4.164   6.045  1.2398 -0.8132  0.4366
 4859SOL     OW26212   4.553   2.687   0.378  0.4961  0.1148  0.0956
 4859SOL    HW126213   4.481   2.747   0.361 -1.1849 -1.9434  0.0660
 4859SOL    HW226214   4.520   2.609   0.334 -1.9580 -0.5856  3.2202
 4860SOL     OW26215   4.536   0.607   9.697 -0.1151  0.0014  0.1883
 4860SOL    HW126216   4.468   0.540   9.686 -0.4342  0.4484 -0.5131
 4860SOL    HW226217   4.597   0.573   9.762  0.2576  0.9763  0.3470
 4861SOL     OW26218   4.160   1.197   1.436  0.2627 -0.3345  0.8263
 4861SOL    HW126219   4.082   1.144   1.421 -0.0286  0.4839 -0.5526
 4861SOL    HW226220   4.139   1.243   1.518 -2.1114 -0.6296  0.3652
 4862SOL     OW26221   1.746   4.731  14.426 -0.2729  0.3376 -1.0226
 4862SOL    HW126222   1.698   4.673  14.484  1.9455  0.6585  1.1228
 4862SOL    HW226223   1.685   0.049  14.376 -1.9875  1.8774  2.7828
 4863SOL     OW26224   3.703   1.077   2.879  0.3190  0.1044 -0.0430
 4863SOL    HW126225   3.685   1.144   2.945  0.6266  0.7209 -0.5746
 4863SOL    HW226226   3.619   1.077   2.831  1.2048 -0.5334 -1.6061
 4864SOL     OW26227   1.826   4.140  15.770  0.7510  0.4740  0.2724
 4864SOL    HW126228   1.776   4.063  15.745  3.1916 -0.6228 -1.3134
 4864SOL    HW226229   1.766   4.179  15.834 -2.2869 -1.9042 -1.1897
 4865SOL     OW26230   2.656   3.044   2.059 -0.1168  0.2938  0.2941
 4865SOL    HW126231   2.727   3.023   2.120 -0.5961  0.0074  0.7458
 4865SOL    HW226232   2.694   3.001   1.983 -1.2147 -0.2570  0.0605
 4866SOL     OW26233   0.702   4.263   5.748 -0.3911 -0.2416 -0.0709
 4866SOL    HW126234   0.792   4.287   5.770  0.2822 -1.4552 -1.4778
 4866SOL    HW226235   0.677   4.250   5.840 -0.2141  0.1153  0.0262
 4867SOL     OW26236   3.466   0.368   6.594  0.2563  0.1299 -0.0172
 4867SOL    HW126237   3.462   0.294   6.533  1.2291 -0.4792  0.6431
 4867SOL    HW226238   3.524   0.428   6.548 -0.4117  0.6860 -0.1164
 4868SOL     OW26239   3.149   3.732   8.750  0.3075 -0.1628  0.1737
 4868SOL    HW126240   3.056   3.742   8.730  0.7293 -1.0566 -2.1705
 4868SOL    HW226241   3.170   3.670   8.680 -3.1991 -2.1035  0.8235
 4869SOL     OW26242   3.932   1.702   7.818  0.2943  0.2087 -0.4241
 4869SOL    HW126243   3.988   1.672   7.889 -0.4661 -0.3941 -0.0696
 4869SOL    HW226244   3.970   1.649   7.748 -0.7707  1.7663 -2.1762
 4870SOL     OW26245   1.158   3.143   0.883  0.1110 -0.1549 -0.1175
 4870SOL    HW126246   1.217   3.106   0.817  1.1105 -0.3818  0.8969
 4870SOL    HW226247   1.089   3.076   0.889 -0.3464  0.3638  0.4076
 4871SOL     OW26248   2.675   3.039  10.836  0.3883 -0.5069  0.4411
 4871SOL    HW126249   2.626   3.007  10.912 -1.4315  1.4768  0.0967
 4871SOL    HW226250   2.630   3.123  10.832  1.0072 -0.1031  1.7433
 4872SOL     OW26251   2.487   3.826   8.062  0.1521  0.3036 -0.2429
 4872SOL    HW126252   2.521   3.779   8.138 -2.8628 -2.3887 -0.5824
 4872SOL    HW226253   2.562   3.828   8.003  1.1412 -0.5788  0.9637
 4873SOL     OW26254   2.893   3.396   3.220 -0.6658 -0.2562 -0.4529
 4873SOL    HW126255   2.885   3.382   3.126  0.1750 -3.7783  0.0007
 4873SOL    HW226256   2.812   3.358   3.254 -1.6917  1.8568 -0.5403
 4874SOL     OW26257   2.506   1.101   7.951  0.3337 -0.2008  0.4547
 4874SOL    HW126258   2.502   1.192   7.922  3.6334 -0.9281 -2.2134
 4874SOL    HW226259   2.577   1.078   7.891 -0.5145 -5.1476  1.3424
 4875SOL     OW26260   1.147   3.177   4.599 -0.0705  0.2350 -1.0133
 4875SOL    HW126261   1.055   3.184   4.624  0.0697 -0.4661 -0.3161
 4875SOL    HW226262   1.153   3.190   4.504 -0.7582  1.6367 -0.8580
 4876SOL     OW26263   3.615   3.113   2.741 -0.3537  0.3853 -0.2226
 4876SOL    HW126264   3.613   3.205   2.769 -0.8885 -0.1313  1.4412
 4876SOL    HW226265   3.522   3.095   2.757  0.2265 -0.2574  2.2907
 4877SOL     OW26266   1.100   0.620   3.012 -0.4299 -0.1562 -0.5778
 4877SOL    HW126267   1.106   0.713   2.993  0.4064 -0.2816 -0.9249
 4877SOL    HW226268   1.194   0.603   3.023  0.0180  1.8680 -1.2174
 4878SOL     OW26269   1.894   3.077   4.774 -0.2526 -0.4041  0.0492
 4878SOL    HW126270   1.962   3.048   4.836 -0.1324 -0.4421 -0.1007
 4878SOL    HW226271   1.873   3.164   4.808 -0.1479 -0.0299 -0.8568
 4879SOL     OW26272   1.430   1.023   3.136  0.0495  0.0779 -0.2526
 4879SOL    HW126273   1.483   1.092   3.177  1.2667  0.4065 -2.3398
 4879SOL    HW226274   1.444   0.959   3.205 -0.2361 -0.5938 -0.8135
 4880SOL     OW26275   2.005   1.283   7.975  0.0625  0.1175  0.0681
 4880SOL    HW126276   2.047   1.344   8.036  1.4817 -0.1632 -0.6370
 4880SOL    HW226277   1.912   1.308   7.973 -0.4032 -1.5144  1.2761
 4881SOL     OW26278   3.165   2.867   8.869  0.1721 -0.2722 -0.3998
 4881SOL    HW126279   3.246   2.819   8.851  1.1580  1.6874 -1.0860
 4881SOL    HW226280   3.205   2.951   8.890 -0.4325 -0.1646  0.2972
 4882SOL     OW26281   0.483   4.402   8.515  0.0561  0.3842 -0.1488
 4882SOL    HW126282   0.543   4.374   8.445  1.0074  2.1482 -0.0436
 4882SOL    HW226283   0.496   4.496   8.502  2.8954 -0.1480 -1.2014
 4883SOL     OW26284   4.665   2.501   6.347  0.1930  0.1332 -0.5007
 4883SOL    HW126285   0.001   2.450   6.380 -0.9383 -2.2652 -1.7038
 4883SOL    HW226286   4.673   2.485   6.253  0.1920  0.0098 -0.4790
 4884SOL     OW26287   2.995   2.212  15.829 -0.0410  0.3454  0.1315
 4884SOL    HW126288   2.967   2.152  15.898  0.0563  0.9399  0.6985
 4884SOL    HW226289   3.081   2.175  15.808  0.9811  1.8530  1.6424
 4885SOL     OW26290   3.909   3.652   2.156 -0.4513 -0.2380 -0.4378
 4885SOL    HW126291   3.833   3.594   2.164 -0.0619 -0.7165 -0.2731
 4885SOL    HW226292   3.870   3.721   2.211  1.0964  0.4437 -0.2012
 4886SOL     OW26293   1.884   0.145   0.661 -0.3217 -0.2409  0.6813
 4886SOL    HW126294   1.952   0.081   0.682  0.9263  1.5475  2.0441
 4886SOL    HW226295   1.810   0.087   0.643  0.6012 -0.9254 -0.8739
 4887SOL     OW26296   4.013   4.373  12.238  0.0683 -0.6391 -0.2296
 4887SOL    HW126297   4.030   4.319  12.160 -1.5994  0.8580 -1.6218
 4887SOL    HW226298   4.026   4.310  12.309  2.1165 -0.3112 -0.3116
 4888SOL     OW26299   2.213   1.646   1.933  0.5306 -0.6826 -0.3295
 4888SOL    HW126300   2.290   1.628   1.987 -1.1145 -2.1258  1.5772
 4888SOL    HW226301   2.143   1.653   1.997  0.9967  2.4485 -0.1739
 4889SOL     OW26302   3.919   0.008   0.561 -0.2632 -0.0014 -0.4924
 4889SOL    HW126303   3.963   0.024   0.645  0.6920  1.4072 -1.2676
 4889SOL    HW226304   3.958   0.085   0.520 -2.3769  0.7833 -1.0122
 4890SOL     OW26305   0.040   2.964   3.549 -0.0046 -0.1081  0.1919
 4890SOL    HW126306   4.731   2.942   3.629 -1.5684 -0.8078 -0.9048
 4890SOL    HW226307   4.717   2.929   3.483  1.5510 -0.6577 -0.9414
 4891SOL     OW26308   0.056   4.440   8.610  0.3871 -0.5452 -0.3822
 4891SOL    HW126309   0.099   4.470   8.530  0.8455  0.6193  0.3018
 4891SOL    HW226310   0.097   4.505   8.667 -0.4312  0.4672 -0.9476
 4892SOL     OW26311   1.406   3.446  17.715 -0.0348  0.0430 -0.2021
 4892SOL    HW126312   1.502   3.449  17.725 -0.0166  0.5769 -0.5051
 4892SOL    HW226313   1.398   3.398  17.632 -1.3805  1.8108 -1.1070
 4893SOL     OW26314   1.166   4.300   3.259 -0.6038 -0.5516  0.6753
 4893SOL    HW126315   1.080   4.321   3.297  0.8437  3.1519  1.9475
 4893SOL    HW226316   1.202   4.252   3.333  2.7000 -0.4563 -0.8880
 4894SOL     OW26317   4.339   0.048  10.288 -0.8856  0.4546 -0.1871
 4894SOL    HW126318   4.385   4.715  10.334  2.0292  2.2674 -0.2874
 4894SOL    HW226319   4.248   0.019  10.285  0.0993 -2.5237 -1.5500
 4895SOL     OW26320   1.039   2.709   6.118 -0.3026 -0.2277  0.1842
 4895SOL    HW126321   0.958   2.744   6.081  0.8918 -0.0671 -2.3015
 4895SOL    HW226322   1.078   2.683   6.034 -0.2689 -0.0719  0.1520
 4896SOL     OW26323   1.345   1.064   9.128 -0.3150  0.3686  0.4674
 4896SOL    HW126324   1.366   0.973   9.148 -1.1263  0.2003  0.5727
 4896SOL    HW226325   1.309   1.097   9.210  0.9534  2.4391  0.1810
 4897SOL     OW26326   4.056   2.888   4.885  0.7524  0.4318 -0.3608
 4897SOL    HW126327   3.987   2.954   4.894  1.8964  1.5115  0.5028
 4897SOL    HW226328   4.027   2.821   4.948  0.7371  1.9262  1.2082
 4898SOL     OW26329   1.785   0.655   0.287  0.7189 -0.1265  0.1093
 4898SOL    HW126330   1.829   0.739   0.297 -0.6013  0.2973  2.5019
 4898SOL    HW226331   1.864   0.602   0.275 -0.0521 -1.2571  0.0181
 4899SOL     OW26332   0.912   3.663  14.844 -0.5484 -0.4133 -0.0855
 4899SOL    HW126333   0.831   3.713  14.849 -0.2959  0.1745 -1.9987
 4899SOL    HW226334   0.916   3.663  14.749 -0.4604 -1.5699 -0.0920
 4900SOL     OW26335   1.439   2.186   2.698  0.5196  0.0553 -0.0018
 4900SOL    HW126336   1.509   2.135   2.657 -1.9759 -2.5029 -0.9937
 4900SOL    HW226337   1.362   2.146   2.659  1.9255 -3.8895  1.2374
 4901SOL     OW26338   4.208   3.229   0.976 -0.4361 -0.4462  0.1383
 4901SOL    HW126339   4.202   3.295   0.907 -0.8518 -1.6832 -1.0227
 4901SOL    HW226340   4.132   3.258   1.027  0.6433  0.9083  0.9656
 4902SOL     OW26341   1.219   3.930   3.367  0.1746 -0.0788 -0.3879
 4902SOL    HW126342   1.311   3.918   3.389  0.4300 -0.8896 -1.8520
 4902SOL    HW226343   1.193   3.842   3.340  0.2465 -0.2258  0.0347
 4903SOL     OW26344   1.841   1.576   0.292  0.1075  0.0294  0.0622
 4903SOL    HW126345   1.879   1.603   0.376 -0.7520  1.4539 -0.0182
 4903SOL    HW226346   1.861   1.482   0.291  2.6753  0.5754  0.4712
 4904SOL     OW26347   4.461   0.820   2.297 -0.2345  0.8039 -0.4414
 4904SOL    HW126348   4.392   0.866   2.344 -0.1485  0.4979 -0.0146
 4904SOL    HW226349   4.448   0.731   2.330 -0.9488  0.9208 -0.3927
 4905SOL     OW26350   0.419   3.044   8.704  0.1990  0.1811  0.2079
 4905SOL    HW126351   0.375   3.040   8.619  2.4017 -0.8622 -0.8953
 4905SOL    HW226352   0.391   3.128   8.739 -0.6535 -0.1352  0.2730
 4906SOL     OW26353   4.657   3.096  17.125  0.0216 -0.1169 -0.1008
 4906SOL    HW126354   4.707   3.120  17.047  0.3740 -0.3818  0.0427
 4906SOL    HW226355   4.620   3.012  17.097  0.2309 -0.5216  0.8202
 4907SOL     OW26356   2.371   1.060   7.474 -0.1420 -0.4543  0.3416
 4907SOL    HW126357   2.310   1.011   7.530 -1.2249  1.5173  0.9046
 4907SOL    HW226358   2.408   1.125   7.535  0.4660 -0.2268 -0.2680
 4908SOL     OW26359   3.251   0.661   2.489 -0.3734  0.1255  0.0184
 4908SOL    HW126360   3.176   0.707   2.451  0.4038 -0.3287 -2.0022
 4908SOL    HW226361   3.258   0.589   2.427 -2.4988 -0.2988  0.2794
 4909SOL     OW26362   1.767   0.844  13.679  0.2123  1.0320 -0.2923
 4909SOL    HW126363   1.762   0.849  13.584  0.7934 -1.0597 -0.4268
 4909SOL    HW226364   1.714   0.918  13.711 -0.8548 -0.1046  0.5777
 4910SOL     OW26365   0.091   0.371   5.938  0.1443 -0.3745  0.5668
 4910SOL    HW126366   0.091   0.302   5.872  1.2075 -0.1532  0.3310
 4910SOL    HW226367   0.141   0.428   5.880  0.5349 -0.5785  0.6985
 4911SOL     OW26368   0.158   4.652   4.562 -0.3299 -0.1011 -0.4737
 4911SOL    HW126369   0.219   4.670   4.634  0.2580 -0.6274 -0.8519
 4911SOL    HW226370   0.174   4.562   4.536  0.8390  0.4328 -1.5332
 4912SOL     OW26371   4.702   2.372  16.570 -0.7080 -0.0932  0.2757
 4912SOL    HW126372   4.675   2.298  16.622 -0.5872 -1.0236 -0.9768
 4912SOL    HW226373   4.734   2.326  16.492  2.7949 -0.0429  1.6587
 4913SOL     OW26374   2.006   4.017   9.140 -0.0611  0.0815 -0.1835
 4913SOL    HW126375   2.071   3.982   9.201 -1.1170 -1.4055  0.0992
 4913SOL    HW226376   1.944   4.070   9.190 -0.3791 -1.9723  1.6431
 4914SOL     OW26377   0.313   3.370   4.701 -0.2154 -0.0226 -0.5054
 4914SOL    HW126378   0.341   3.279   4.694  2.8578  1.0640 -1.9816
 4914SOL    HW226379   0.244   3.370   4.634  1.8785  0.3351 -2.6670
 4915SOL     OW26380   2.805   3.369   2.525  0.0998 -0.3355  0.3468
 4915SOL    HW126381   2.813   3.439   2.590 -0.8154  3.3287 -3.4652
 4915SOL    HW226382   2.859   3.299   2.562  1.1556  1.7351  2.7066
 4916SOL     OW26383   0.371   2.110   7.107 -0.6140 -0.1731 -0.1300
 4916SOL    HW126384   0.460   2.074   7.113 -1.1473 -1.3908  0.4706
 4916SOL    HW226385   0.354   2.100   7.013 -0.3113 -0.2609 -0.1776
 4917SOL     OW26386   4.123   4.036   2.043 -0.3662  0.0205  0.3206
 4917SOL    HW126387   4.183   3.968   2.013 -3.0027 -3.3566  2.6398
 4917SOL    HW226388   4.138   4.036   2.138  0.9039  1.0819  0.1236
 4918SOL     OW26389   0.547   3.512   4.612 -0.4721  0.0148  0.2627
 4918SOL    HW126390   0.471   3.454   4.616  0.4226 -1.2822 -1.7102
 4918SOL    HW226391   0.538   3.541   4.703 -0.5184  2.4731 -0.5336
 4919SOL     OW26392   2.410   0.801   7.395 -0.3965 -0.1083  0.3448
 4919SOL    HW126393   2.438   0.884   7.435  0.2995  0.3148 -1.0121
 4919SOL    HW226394   2.384   0.748   7.470  0.4140  0.1990  0.8339
 4920SOL     OW26395   0.537   0.823   2.367  0.2118 -0.3684 -0.1310
 4920SOL    HW126396   0.510   0.903   2.322 -0.1541 -0.5238 -0.1875
 4920SOL    HW226397   0.450   0.785   2.381 -0.5545  1.6705  0.6401
 4921SOL     OW26398   0.727   4.495   2.623  0.0743  0.4116 -0.4386
 4921SOL    HW126399   0.727   4.409   2.664  2.4776 -0.4957 -2.3416
 4921SOL    HW226400   0.639   4.529   2.641  1.0977  2.5103  0.5830
 4922SOL     OW26401   2.505   2.620  15.493 -0.0765 -0.6703  0.4212
 4922SOL    HW126402   2.493   2.710  15.524 -0.5271 -1.0120  1.2160
 4922SOL    HW226403   2.569   2.640  15.424  1.0752  1.3439  2.0783
 4923SOL     OW26404   1.745   2.415   1.714  0.4339 -0.5887 -0.1807
 4923SOL    HW126405   1.700   2.369   1.643  1.6172 -1.5199 -0.3327
 4923SOL    HW226406   1.786   2.341   1.760  1.2041 -0.1043 -0.0748
 4924SOL     OW26407   1.334   2.981   1.368 -1.0641 -0.5413  0.6110
 4924SOL    HW126408   1.307   2.889   1.360 -0.1523 -0.8777  1.4261
 4924SOL    HW226409   1.253   3.026   1.344 -0.9239  0.8603  2.7777
 4925SOL     OW26410   4.237   1.361   2.743  0.6464 -0.2976 -0.1153
 4925SOL    HW126411   4.239   1.422   2.817 -3.2725  0.3473 -0.5421
 4925SOL    HW226412   4.142   1.346   2.746  0.6312 -0.4732 -1.8769
 4926SOL     OW26413   1.012   1.734   7.709  0.3249 -0.3192 -0.3005
 4926SOL    HW126414   0.939   1.769   7.658  0.1373 -1.1061 -0.5729
 4926SOL    HW226415   0.959   1.674   7.761  0.7706  1.7058  2.4960
 4927SOL     OW26416   0.527   0.776   4.104  0.0180  0.1551  0.9229
 4927SOL    HW126417   0.498   0.734   4.185  0.7437 -0.5047  0.8312
 4927SOL    HW226418   0.451   0.747   4.053 -0.8031 -0.4670  2.4635
 4928SOL     OW26419   3.797   0.957  13.592  0.0031  0.0184  0.1624
 4928SOL    HW126420   3.717   0.966  13.540 -0.7419  0.3389  1.3625
 4928SOL    HW226421   3.862   0.939  13.524 -0.8418 -0.4442 -0.5144
 4929SOL     OW26422   3.647   0.684   7.605  0.1070  0.4769 -0.8793
 4929SOL    HW126423   3.618   0.741   7.676 -0.5675 -0.0102 -0.7566
 4929SOL    HW226424   3.608   0.728   7.530 -1.1556 -1.2062 -1.2370
 4930SOL     OW26425   1.588   1.395   5.098  0.3493 -0.2928  0.1852
 4930SOL    HW126426   1.503   1.403   5.142  0.2860  1.1131 -0.2070
 4930SOL    HW226427   1.643   1.343   5.156  0.0638 -0.3587  0.3979
 4931SOL     OW26428   4.107   1.139   7.495 -0.0123 -0.1195 -0.1226
 4931SOL    HW126429   4.200   1.158   7.484 -0.2560  1.3787  0.3917
 4931SOL    HW226430   4.063   1.222   7.475 -0.8013 -1.2025 -2.8296
 4932SOL     OW26431   3.253   1.160   6.436  0.4583  0.1555 -0.2607
 4932SOL    HW126432   3.305   1.161   6.517 -0.0803 -0.0895  0.0929
 4932SOL    HW226433   3.168   1.152   6.479  0.3258 -0.6107 -0.6747
 4933SOL     OW26434   1.678   2.587   6.310 -0.0490  0.3984 -0.6488
 4933SOL    HW126435   1.588   2.555   6.321 -0.1439  1.3841  1.4544
 4933SOL    HW226436   1.735   2.510   6.308 -0.2216  0.2377  0.5243
 4934SOL     OW26437   0.309   2.256   1.091 -0.0352  0.3049  0.4312
 4934SOL    HW126438   0.378   2.322   1.102  1.0785 -0.8423  0.2433
 4934SOL    HW226439   0.246   2.294   1.152 -1.6286  2.2102 -2.3624
 4935SOL     OW26440   0.000   0.280  13.062 -0.0606 -0.8059 -0.1282
 4935SOL    HW126441   4.716   0.367  13.029  0.5040 -1.4188 -2.0894
 4935SOL    HW226442   4.661   0.225  13.048 -0.6556  0.4883 -2.0429
 4936SOL     OW26443   0.463   4.084   7.754 -0.3636 -0.1556  0.2095
 4936SOL    HW126444   0.541   4.036   7.726  0.5610 -0.9310  4.0419
 4936SOL    HW226445   0.405   4.010   7.768 -0.6788  0.1702  0.6312
 4937SOL     OW26446   2.167   1.184   2.832 -0.6400  0.0273 -0.5689
 4937SOL    HW126447   2.175   1.279   2.836  2.5701 -0.2844  0.2866
 4937SOL    HW226448   2.252   1.155   2.797 -0.0566  2.3489 -1.0543
 4938SOL     OW26449   1.759   3.041   3.955  0.6958  0.4457  0.6839
 4938SOL    HW126450   1.850   3.065   3.940  0.2069  1.4323 -0.7245
 4938SOL    HW226451   1.736   2.992   3.876  2.5258 -0.2258  0.5838
 4939SOL     OW26452   1.909   0.967  11.585  0.5655 -0.3074  0.1531
 4939SOL    HW126453   1.990   0.978  11.635  1.0716  1.7715 -1.1198
 4939SOL    HW226454   1.952   0.972  11.499  1.6723  2.4894  0.8859
 4940SOL     OW26455   3.481   1.240   7.454 -0.0226 -0.2213 -0.4115
 4940SOL    HW126456   3.486   1.176   7.526  0.7097  0.0639 -0.2086
 4940SOL    HW226457   3.555   1.220   7.397  0.2094 -1.1277  0.1942
 4941SOL     OW26458   1.128   1.659   4.304  0.1765  0.3161  0.7639
 4941SOL    HW126459   1.175   1.693   4.380 -0.5938  2.9892  0.0249
 4941SOL    HW226460   1.128   1.736   4.247 -0.3534 -0.9067 -0.8953
 4942SOL     OW26461   2.868   2.970   2.202  0.6158 -0.1046 -0.1828
 4942SOL    HW126462   2.924   2.953   2.127 -1.6470  0.8643 -2.0658
 4942SOL    HW226463   2.916   2.919   2.268  1.3346 -0.5334 -1.0405
 4943SOL     OW26464   0.423   3.922   9.180  0.9664 -0.3439 -0.0641
 4943SOL    HW126465   0.395   3.940   9.090 -0.0938  0.9337  0.5154
 4943SOL    HW226466   0.342   3.888   9.218  0.7235  2.1212  1.5770
 4944SOL     OW26467   0.301   3.673   4.367  0.0965  0.1991  0.2153
 4944SOL    HW126468   0.277   3.650   4.457 -1.8599  1.6461  0.0676
 4944SOL    HW226469   0.275   3.765   4.362  1.4760  0.5717  0.0306
 4945SOL     OW26470   0.016   3.222   7.756 -0.0719  0.2905 -0.2897
 4945SOL    HW126471   0.055   3.239   7.841  1.6292  1.1067 -1.2264
 4945SOL    HW226472   0.096   3.189   7.716  1.5630 -0.2088  3.4456
 4946SOL     OW26473   4.100   2.999   8.935 -0.1260 -0.6320 -0.5137
 4946SOL    HW126474   4.128   3.083   8.970 -0.8911  0.0890 -1.6250
 4946SOL    HW226475   4.185   2.955   8.940  0.8973  1.1971 -1.5990
 4947SOL     OW26476   0.250   3.214   5.073  0.0451 -0.2508  0.1497
 4947SOL    HW126477   0.345   3.200   5.065  0.0368 -0.4907  0.5079
 4947SOL    HW226478   0.214   3.155   5.006  3.6840 -2.4171  0.0998
 4948SOL     OW26479   1.632   0.369   9.132  0.7408 -0.1921 -0.6699
 4948SOL    HW126480   1.542   0.389   9.108  1.2503  2.3952 -0.4437
 4948SOL    HW226481   1.641   0.444   9.190 -0.5140 -0.7969  0.3115
 4949SOL     OW26482   2.807   1.598   7.906 -0.8673 -0.0405 -0.4055
 4949SOL    HW126483   2.798   1.654   7.983  4.1301  0.9452 -0.5095
 4949SOL    HW226484   2.725   1.605   7.858 -0.6669 -2.3336 -1.0596
 4950SOL     OW26485   4.513   1.799   6.788  0.3673 -0.9707 -0.3268
 4950SOL    HW126486   4.548   1.759   6.867 -0.5291  0.1039  0.6182
 4950SOL    HW226487   4.504   1.891   6.812  0.3592 -1.3817  1.2584
 4951SOL     OW26488   2.688   3.559   5.823 -1.0508  0.2355  0.0300
 4951SOL    HW126489   2.595   3.553   5.843 -0.9887  0.6008  0.4142
 4951SOL    HW226490   2.697   3.653   5.838 -0.6280  0.4869 -1.7890
 4952SOL     OW26491   1.501   3.575   8.506 -0.2405  0.0180  0.0281
 4952SOL    HW126492   1.409   3.565   8.482  0.1817 -0.3219 -1.4637
 4952SOL    HW226493   1.521   3.631   8.431 -0.1966  2.0536  1.5818
 4953SOL     OW26494   2.478   1.262   7.612  0.2667 -0.1408 -0.2578
 4953SOL    HW126495   2.512   1.271   7.523  1.0473  2.2703  0.2696
 4953SOL    HW226496   2.556   1.287   7.662 -1.4941 -0.1051  2.4687
 4954SOL     OW26497   3.441   1.363   5.704 -0.0621  0.3529 -0.4832
 4954SOL    HW126498   3.443   1.442   5.650  1.8383  1.7320  1.6228
 4954SOL    HW226499   3.422   1.398   5.791  1.1479  0.4010 -0.2360
 4955SOL     OW26500   0.398   2.797   8.483 -0.1616  0.0995  0.1616
 4955SOL    HW126501   0.391   2.763   8.572 -2.4277  0.8288  0.2586
 4955SOL    HW226502   0.493   2.799   8.470 -0.0039 -0.6215  1.2749
 4956SOL     OW26503   3.459   2.012   5.561  0.0679  0.1578  0.6216
 4956SOL    HW126504   3.547   1.986   5.588  0.8508  1.2537 -0.8422
 4956SOL    HW226505   3.401   1.997   5.636 -1.5610  0.2174 -0.6344
 4957SOL     OW26506   3.480   1.109  12.138 -0.4289  0.1502 -0.4112
 4957SOL    HW126507   3.459   1.077  12.051 -0.4226  1.3137 -0.8411
 4957SOL    HW226508   3.484   1.205  12.129 -0.3318  0.3277  1.4241
 4958SOL     OW26509   0.282   1.212  10.996 -0.3825 -0.3302  0.0675
 4958SOL    HW126510   0.367   1.232  10.957 -0.3467  1.3260  0.9551
 4958SOL    HW226511   0.269   1.120  10.976  1.1606 -0.3190 -0.9429
 4959SOL     OW26512   2.432   1.667   3.897  0.0627  0.0108 -0.2364
 4959SOL    HW126513   2.350   1.645   3.942 -0.2473  1.4939 -0.0628
 4959SOL    HW226514   2.432   1.601   3.828  1.7481  1.8224 -1.9791
 4960SOL     OW26515   1.826   1.754   5.410 -0.2305 -0.0264  0.0588
 4960SOL    HW126516   1.770   1.691   5.366 -2.4791  2.4786 -0.7072
 4960SOL    HW226517   1.778   1.830   5.442 -0.1417 -0.1183  0.4051
 4961SOL     OW26518   2.101   1.086   8.182  0.5657 -0.4288  0.7473
 4961SOL    HW126519   2.108   1.075   8.087  0.3077  2.6560  0.3871
 4961SOL    HW226520   2.084   1.180   8.191  1.6933 -0.2339  0.8203
 4962SOL     OW26521   4.077   4.468   3.854 -0.3035 -0.0906 -0.1609
 4962SOL    HW126522   4.104   4.402   3.918  3.8020  1.8076  0.1193
 4962SOL    HW226523   4.099   4.429   3.770 -1.1534  0.6940 -0.7436
 4963SOL     OW26524   2.554   2.270   9.880 -0.1675 -1.1029 -0.5570
 4963SOL    HW126525   2.479   2.233   9.833  1.2908 -1.2222 -2.7569
 4963SOL    HW226526   2.594   2.189   9.912  1.2644 -1.3409 -2.9811
 4964SOL     OW26527   1.391   4.408   0.969 -0.1143  0.0573  0.1592
 4964SOL    HW126528   1.356   4.319   0.971  0.4484 -0.1897 -1.2893
 4964SOL    HW226529   1.312   4.452   1.002 -0.7799 -1.7290  0.9208
 4965SOL     OW26530   3.273   1.730   5.268  0.0813  0.5228  0.1403
 4965SOL    HW126531   3.179   1.714   5.277  0.3947 -1.0159  0.7471
 4965SOL    HW226532   3.272   1.773   5.183 -1.4067  0.9647  0.3881
 4966SOL     OW26533   3.241   0.686   5.137 -0.3095  0.1120 -0.0777
 4966SOL    HW126534   3.229   0.721   5.049  0.5103  1.6030  0.4101
 4966SOL    HW226535   3.179   0.742   5.184 -1.1939 -0.5121 -0.5002
 4967SOL     OW26536   4.361   0.187   7.966  0.2391  0.2821 -0.1598
 4967SOL    HW126537   4.273   0.156   7.988  1.3422 -1.5543  1.6575
 4967SOL    HW226538   4.416   0.108   7.967 -0.6287 -0.3260 -0.6278
 4968SOL     OW26539   2.089   3.601   2.971  0.0417 -0.2781  0.2013
 4968SOL    HW126540   1.996   3.597   2.996 -0.5736  0.1726 -1.9947
 4968SOL    HW226541   2.110   3.670   3.034 -0.2244 -0.0072 -0.0041
 4969SOL     OW26542   2.399   3.352   3.169  0.1207 -0.3741  0.1788
 4969SOL    HW126543   2.405   3.345   3.264  2.4765 -0.5635  0.0277
 4969SOL    HW226544   2.307   3.333   3.154  0.7139 -2.2128 -1.1068
 4970SOL     OW26545   3.744   4.260   2.553 -0.0494  0.1997 -0.0255
 4970SOL    HW126546   3.705   4.324   2.613 -1.0058  0.8235 -1.3081
 4970SOL    HW226547   3.799   4.315   2.497  0.4679  0.3845  0.6627
 4971SOL     OW26548   0.402   0.780   8.535  0.9919 -0.2684 -0.4238
 4971SOL    HW126549   0.486   0.737   8.520  1.1576 -0.3124  0.6307
 4971SOL    HW226550   0.439   0.853   8.583 -0.2007 -1.5230  2.4324
 4972SOL     OW26551   2.076   1.865   8.521  0.0329 -0.2492 -0.1724
 4972SOL    HW126552   2.013   1.810   8.567 -0.9766  0.1656 -1.0426
 4972SOL    HW226553   2.070   1.949   8.567 -0.8552  0.7424 -2.0854
 4973SOL     OW26554   4.636   0.166   9.077  0.2880 -0.0588 -0.6785
 4973SOL    HW126555   4.571   0.116   9.029  1.1900 -0.5508 -1.3899
 4973SOL    HW226556   4.606   0.254   9.056 -1.9577 -0.6366  0.0465
 4974SOL     OW26557   1.739   2.041  14.975 -0.1222 -0.1028  0.4714
 4974SOL    HW126558   1.740   2.134  14.999 -0.0711  0.5792 -2.2113
 4974SOL    HW226559   1.669   2.038  14.911  2.2350  0.5304 -2.1294
 4975SOL     OW26560   4.193   0.043   7.740  0.0482 -0.0760  0.2862
 4975SOL    HW126561   4.193   4.688   7.763 -0.2596  0.1719  1.2976
 4975SOL    HW226562   4.230   0.043   7.652 -2.7764 -0.5825 -0.9258
 4976SOL     OW26563   3.195   0.518  12.727  0.3623  0.3989  0.1563
 4976SOL    HW126564   3.171   0.489  12.815  1.6515 -1.9343 -0.2502
 4976SOL    HW226565   3.289   0.522  12.744  0.5260  0.8467 -0.8501
 4977SOL     OW26566   1.956   1.349  16.804 -0.1356  0.6168 -0.1807
 4977SOL    HW126567   1.993   1.388  16.883 -0.7269  1.9416 -0.5646
 4977SOL    HW226568   1.887   1.290  16.833 -1.0167  2.1536  0.8246
 4978SOL     OW26569   0.783   2.171   3.293 -0.0386  0.7212 -0.2353
 4978SOL    HW126570   0.855   2.207   3.346 -0.4797  1.5836 -0.2174
 4978SOL    HW226571   0.746   2.113   3.359 -1.8588  1.3326 -0.7355
 4979SOL     OW26572   2.262   0.058   6.226 -0.0606 -0.1909 -0.6653
 4979SOL    HW126573   2.202   0.110   6.279  2.9643  1.5327  1.1058
 4979SOL    HW226574   2.211   4.718   6.202 -2.3123  1.6213 -1.6240
 4980SOL     OW26575   1.483   1.554  11.320 -0.8592 -0.1957  0.4889
 4980SOL    HW126576   1.437   1.628  11.361 -0.8328  0.5738 -0.8626
 4980SOL    HW226577   1.426   1.478  11.331 -1.2569  0.2004  1.1884
 4981SOL     OW26578   0.381   3.502   6.505  0.0754 -0.8590 -0.0783
 4981SOL    HW126579   0.386   3.530   6.597 -1.4790 -2.5321  0.5234
 4981SOL    HW226580   0.404   3.410   6.522  0.6391 -0.8414 -0.7885
 4982SOL     OW26581   2.263   0.658   3.416  0.1165 -0.0123 -0.0171
 4982SOL    HW126582   2.262   0.613   3.501  2.7766 -0.3193 -0.1492
 4982SOL    HW226583   2.347   0.703   3.404 -0.0576  0.1532 -0.5922
 4983SOL     OW26584   3.039   1.067   3.270  0.3127  0.8426  0.0439
 4983SOL    HW126585   3.086   1.149   3.260 -0.3040  1.4384  1.9649
 4983SOL    HW226586   3.007   1.047   3.182  0.3278 -1.2854  0.5254
 4984SOL     OW26587   0.678   3.787   6.813 -0.2429 -0.3145  0.2783
 4984SOL    HW126588   0.649   3.780   6.721 -0.4010 -1.1056  0.3867
 4984SOL    HW226589   0.769   3.803   6.790 -1.2421  1.7511 -2.2892
 4985SOL     OW26590   2.359   4.668  17.466  0.7922 -0.1808  0.3078
 4985SOL    HW126591   2.295   4.683  17.536 -0.2044 -0.5214 -0.5419
 4985SOL    HW226592   2.442   4.709  17.492  0.0830  0.9016  0.8397
 4986SOL     OW26593   1.267   3.424  17.238 -0.0915 -0.3941  0.1892
 4986SOL    HW126594   1.174   3.447  17.232 -0.2758 -0.4935  2.5738
 4986SOL    HW226595   1.303   3.477  17.166 -0.4762  0.9500  0.9729
 4987SOL     OW26596   0.673   4.370  10.744 -0.4101 -0.4997  0.5094
 4987SOL    HW126597   0.680   4.279  10.713 -1.2366  0.0948 -1.4370
 4987SOL    HW226598   0.623   4.397  10.667  2.6541  2.7298 -0.3344
 4988SOL     OW26599   3.533   2.767   8.527  0.4399  0.0279 -0.1881
 4988SOL    HW126600   3.628   2.772   8.540  0.1783  1.2269  1.2542
 4988SOL    HW226601   3.518   2.837   8.464 -0.2248 -1.0850 -1.2762
 4989SOL     OW26602   3.066   2.297   0.509 -0.5127  0.6563 -0.4337
 4989SOL    HW126603   3.054   2.348   0.589 -0.0981  0.1766 -0.0605
 4989SOL    HW226604   3.160   2.312   0.505 -0.3175 -0.3641  0.2387
 4990SOL     OW26605   3.220   1.000  17.576  0.0982  0.0033  0.7088
 4990SOL    HW126606   3.267   1.075  17.541 -0.8225  1.3394  2.3873
 4990SOL    HW226607   3.133   1.015  17.539  0.7918  2.3474  0.0830
 4991SOL     OW26608   1.726   1.182  14.417 -0.1394 -0.6292 -0.4028
 4991SOL    HW126609   1.807   1.145  14.381  1.3329  0.1031  2.1538
 4991SOL    HW226610   1.750   1.270  14.447 -0.2503 -1.5765  2.4335
 4992SOL     OW26611   1.163   3.194  11.002 -0.1210  0.3203 -0.4609
 4992SOL    HW126612   1.075   3.232  11.003  0.8160  2.4300  2.0925
 4992SOL    HW226613   1.159   3.156  11.090  0.3792 -0.6694 -0.8692
 4993SOL     OW26614   3.333   3.824   3.260  0.1751  0.2972 -0.0427
 4993SOL    HW126615   3.320   3.881   3.184 -0.7414  2.0908  1.4653
 4993SOL    HW226616   3.309   3.742   3.217 -0.2090  0.7668 -0.7083
 4994SOL     OW26617   2.927   0.451   7.727  0.3435  0.7464  0.0529
 4994SOL    HW126618   2.962   0.522   7.781  1.1189  2.7041 -2.9861
 4994SOL    HW226619   3.002   0.394   7.713  0.2855  1.2433 -2.2184
 4995SOL     OW26620   1.068   3.033   5.471  0.0604  0.2809  0.5962
 4995SOL    HW126621   1.138   3.089   5.505  0.1693  0.8707 -0.5907
 4995SOL    HW226622   1.116   2.952   5.457 -0.2563 -0.2289  2.5067
 4996SOL     OW26623   1.129   0.828  16.969  0.1157  0.0557 -0.3653
 4996SOL    HW126624   1.074   0.750  16.960 -0.5103  0.4105  0.3583
 4996SOL    HW226625   1.092   0.887  16.903  0.1685  0.5509  0.0461
 4997SOL     OW26626   2.157   0.513   2.990 -0.4652 -0.2047 -0.3015
 4997SOL    HW126627   2.176   0.435   2.937 -2.4583 -0.6518 -0.3488
 4997SOL    HW226628   2.098   0.479   3.057 -0.5185 -1.6700 -1.0868
 4998SOL     OW26629   0.729   2.501   3.496 -0.8301 -0.0817  0.4002
 4998SOL    HW126630   0.647   2.460   3.468 -0.3186 -1.5262  0.9824
 4998SOL    HW226631   0.767   2.424   3.540 -2.3218 -0.3857  1.1567
 4999SOL     OW26632   2.980   1.167   6.500  0.3478 -0.1135 -0.2581
 4999SOL    HW126633   2.959   1.092   6.556 -4.7213  0.3945 -1.4508
 4999SOL    HW226634   2.904   1.162   6.442 -0.9545 -0.0102  1.4169
 5000SOL     OW26635   0.541   2.486   5.629  0.1800 -0.5289 -0.3853
 5000SOL    HW126636   0.601   2.432   5.577 -1.4715 -0.4837 -2.3236
 5000SOL    HW226637   0.519   2.434   5.706 -0.3074 -0.6585 -0.6145
 5001SOL     OW26638   1.320   2.765   1.742  0.1828 -0.0619  0.3364
 5001SOL    HW126639   1.393   2.731   1.793  1.1071  2.1575  0.5329
 5001SOL    HW226640   1.250   2.734   1.798 -1.7047  0.8429 -1.5046
 5002SOL     OW26641   0.029   1.842   0.587  0.1135  0.6060 -0.0807
 5002SOL    HW126642   0.095   1.788   0.632 -1.9056 -2.2008 -0.4730
 5002SOL    HW226643   0.022   1.786   0.510 -0.1451  1.7907 -0.9099
 5003SOL     OW26644   0.769   4.231   1.783  0.0322 -0.3467 -0.6507
 5003SOL    HW126645   0.679   4.257   1.804  0.1922  2.3436 -3.3432
 5003SOL    HW226646   0.763   4.178   1.703  1.6256 -1.1221 -0.2597
 5004SOL     OW26647   1.009   2.683   8.577 -0.1395 -0.4699  0.5264
 5004SOL    HW126648   0.945   2.648   8.638 -1.1038 -0.8734 -0.7142
 5004SOL    HW226649   1.062   2.743   8.630 -0.1485  1.3119 -1.4629
 5005SOL     OW26650   3.224   4.624  14.953  0.5848  0.0052 -0.1118
 5005SOL    HW126651   3.170   4.680  14.898  2.0258  0.1317 -1.3823
 5005SOL    HW226652   3.163   4.569  15.002 -0.0754  1.3875  0.6212
 5006SOL     OW26653   4.396   2.837   2.678 -0.5749  0.6919 -0.1102
 5006SOL    HW126654   4.396   2.874   2.590  1.7987  3.1345  0.9263
 5006SOL    HW226655   4.425   2.746   2.666 -0.2195  0.6517  1.0490
 5007SOL     OW26656   0.418   2.654   7.159  0.4300  0.2500 -0.5557
 5007SOL    HW126657   0.420   2.582   7.222  0.3315 -1.3096 -2.3322
 5007SOL    HW226658   0.503   2.696   7.152  0.5921 -0.2142 -1.3310
 5008SOL     OW26659   2.121   0.415  11.580 -0.9178  0.2491 -0.1999
 5008SOL    HW126660   2.082   0.327  11.584  2.5218 -1.2186  0.8285
 5008SOL    HW226661   2.122   0.442  11.488  1.5392  1.3247  0.1531
 5009SOL     OW26662   4.603   3.889   2.760 -0.2617 -0.5428  0.0014
 5009SOL    HW126663   4.614   3.866   2.668  0.9878  2.2665 -0.5387
 5009SOL    HW226664   4.598   3.984   2.747 -1.5411 -0.4705  1.0807
 5010SOL     OW26665   0.604   4.510  10.277  0.3679 -0.4011 -0.2480
 5010SOL    HW126666   0.697   4.487  10.286  0.5411  0.1752 -0.5468
 5010SOL    HW226667   0.555   4.432  10.303  0.1590  0.5092  2.1313
 5011SOL     OW26668   2.299   1.882   6.639 -0.2687 -0.4379 -0.7162
 5011SOL    HW126669   2.266   1.844   6.557  0.3483  1.3445 -1.7750
 5011SOL    HW226670   2.385   1.840   6.645 -0.4615 -1.0549 -2.2176
 5012SOL     OW26671   3.876   2.711  14.836  0.2798  0.6952  0.5604
 5012SOL    HW126672   3.783   2.692  14.851  0.0825  1.4834  0.3586
 5012SOL    HW226673   3.880   2.729  14.742 -0.2907  1.7449  0.7285
 5013SOL     OW26674   3.789   0.407   1.753  0.1863  0.0295 -0.6792
 5013SOL    HW126675   3.780   0.341   1.684  0.1001  1.9821 -2.5294
 5013SOL    HW226676   3.695   0.417   1.766  0.6926  2.1795  1.3414
 5014SOL     OW26677   2.211   3.123   2.564  0.4947  0.3947 -0.0019
 5014SOL    HW126678   2.208   3.109   2.470  0.1366  2.3296 -0.2788
 5014SOL    HW226679   2.143   3.190   2.568  0.6368  0.4728  1.0409
 5015SOL     OW26680   3.838   1.617  15.989  0.4416 -0.6045 -0.4224
 5015SOL    HW126681   3.820   1.711  15.990  1.6502 -0.3986  1.6149
 5015SOL    HW226682   3.760   1.583  15.944  0.6226  1.3471 -2.2195
 5016SOL     OW26683   3.809   0.670   1.825  0.4214 -0.2589  0.6393
 5016SOL    HW126684   3.894   0.713   1.814  1.1952 -1.1933  2.8319
 5016SOL    HW226685   3.841   0.588   1.788 -0.2941 -0.5476  0.6577
 5017SOL     OW26686   3.001   4.409   3.512  0.1081  0.6419 -0.2646
 5017SOL    HW126687   3.075   4.459   3.478  0.9287 -1.0975 -1.0415
 5017SOL    HW226688   3.025   4.320   3.485  1.1646  0.9021 -0.2043
 5018SOL     OW26689   3.152   4.676   2.323 -0.0308 -0.0929 -0.0653
 5018SOL    HW126690   3.217   4.690   2.393  1.3655  1.7196 -1.7000
 5018SOL    HW226691   3.081   4.635   2.371 -0.4941  1.0294  0.2123
 5019SOL     OW26692   0.208   0.692   4.507 -0.2977 -0.1772 -0.3689
 5019SOL    HW126693   0.117   0.696   4.536 -0.0118  1.2201  0.3058
 5019SOL    HW226694   0.241   0.628   4.570  0.6021 -0.5305 -1.2029
 5020SOL     OW26695   2.461   3.312   0.766 -0.4500  0.0905 -0.1364
 5020SOL    HW126696   2.372   3.346   0.752  0.0861  0.8218 -1.8787
 5020SOL    HW226697   2.440   3.220   0.778 -1.0675  0.2450 -0.0153
 5021SOL     OW26698   2.355   1.967   2.071 -0.2533  0.4044  0.1339
 5021SOL    HW126699   2.440   2.008   2.088  0.2819 -0.2345 -0.9575
 5021SOL    HW226700   2.352   1.979   1.976  0.6410  0.0887  0.0633
 5022SOL     OW26701   4.465   0.927   7.022 -0.0288  0.0423 -0.2016
 5022SOL    HW126702   4.546   0.957   7.063  0.9191 -1.4139 -1.0341
 5022SOL    HW226703   4.425   1.008   6.990 -2.5908 -1.6161 -1.1883
 5023SOL     OW26704   3.411   3.008   6.830  0.3559  0.1242 -0.3281
 5023SOL    HW126705   3.467   3.021   6.754 -1.0063 -0.0787 -1.3574
 5023SOL    HW226706   3.465   3.026   6.907 -1.7593  2.5501  0.5873
 5024SOL     OW26707   4.273   1.982   5.984 -0.1450 -0.1954 -0.2419
 5024SOL    HW126708   4.345   2.043   6.000 -1.5673  0.9802  1.6627
 5024SOL    HW226709   4.238   2.030   5.909 -0.6292  1.4132  1.0238
 5025SOL     OW26710   0.819   1.340  10.543 -0.4233  0.2657  0.1732
 5025SOL    HW126711   0.883   1.277  10.576 -0.3906 -0.0795 -0.5568
 5025SOL    HW226712   0.865   1.420  10.568  2.0565 -1.6954  1.9196
 5026SOL     OW26713   0.576   0.119   4.601  0.1150  0.1201  0.4193
 5026SOL    HW126714   0.577   0.032   4.560 -0.5382  1.0824 -1.6383
 5026SOL    HW226715   0.579   0.177   4.525  0.2165  0.0334  0.3576
 5027SOL     OW26716   3.463   0.722  14.824  0.4152 -0.2899 -0.5514
 5027SOL    HW126717   3.403   0.685  14.889  0.2255  0.9590 -0.0098
 5027SOL    HW226718   3.488   0.647  14.771 -0.1418 -0.2380 -0.8877
 5028SOL     OW26719   3.366   3.125  15.255  0.0919  0.3357  0.0828
 5028SOL    HW126720   3.272   3.116  15.238  0.4812  0.0128 -1.9431
 5028SOL    HW226721   3.373   3.053  15.317  2.0474  1.4735  1.1849
 5029SOL     OW26722   0.534   0.277  15.722  0.1920 -0.0611 -0.2284
 5029SOL    HW126723   0.485   0.343  15.770 -1.1575 -0.3154 -1.2546
 5029SOL    HW226724   0.462   0.228  15.682 -1.0503  0.6362  1.2056
 5030SOL     OW26725   2.951   0.243   3.032  0.1581 -0.1772 -0.1897
 5030SOL    HW126726   3.002   0.317   3.064 -2.7442  1.2580  1.0336
 5030SOL    HW226727   2.873   0.290   3.001  0.6666 -0.3537 -1.7237
 5031SOL     OW26728   0.075   1.049   1.646 -0.1066  0.3812 -0.4935
 5031SOL    HW126729   0.070   1.143   1.629  0.6031  0.9748  2.7451
 5031SOL    HW226730   0.023   1.018   1.571  0.6270 -0.5468 -0.6237
 5032SOL     OW26731   1.621   0.302  13.029 -0.2361 -0.7883 -0.2083
 5032SOL    HW126732   1.599   0.210  13.045  0.5215 -0.6271  1.7885
 5032SOL    HW226733   1.667   0.288  12.946 -1.1440  0.6455 -0.9490
 5033SOL     OW26734   2.362   2.249   8.394 -0.2548  0.0706 -0.1290
 5033SOL    HW126735   2.407   2.314   8.448  0.9839 -0.1289 -0.9284
 5033SOL    HW226736   2.387   2.164   8.431  1.9413  0.6701 -0.2071
 5034SOL     OW26737   4.200   2.213  14.562  0.3055  0.2173  0.0771
 5034SOL    HW126738   4.238   2.247  14.481  1.9495 -0.9643  0.3380
 5034SOL    HW226739   4.270   2.223  14.627  1.4608  1.4512 -1.3358
 5035SOL     OW26740   4.023   4.317   2.282 -0.5281  0.6930 -0.1730
 5035SOL    HW126741   4.086   4.312   2.353 -1.6216  0.4838  0.7902
 5035SOL    HW226742   3.949   4.328   2.342 -0.0982 -0.9483  0.6529
 5036SOL     OW26743   0.523   4.252   3.783 -0.7881 -0.0082  0.0135
 5036SOL    HW126744   0.573   4.181   3.821  0.0524  0.6251  0.0911
 5036SOL    HW226745   0.458   4.206   3.730 -0.8302  0.3278 -0.2320
 5037SOL     OW26746   1.851   2.971   8.950  0.3816 -0.1477  0.8413
 5037SOL    HW126747   1.840   3.007   8.863  0.0365  0.3312  1.0873
 5037SOL    HW226748   1.897   2.893   8.919  2.4127  1.9419 -1.4087
 5038SOL     OW26749   2.899   0.528   5.413  0.3086 -0.0848 -0.1171
 5038SOL    HW126750   2.819   0.480   5.391 -0.6968  0.7690  1.6137
 5038SOL    HW226751   2.958   0.495   5.345  1.1249 -1.2008  1.1288
 5039SOL     OW26752   4.022   2.312   5.991  0.7972  0.2056 -0.3656
 5039SOL    HW126753   3.950   2.328   5.930 -0.4663  0.2679  1.1391
 5039SOL    HW226754   3.999   2.373   6.061  1.0460  2.5035 -2.2913
 5040SOL     OW26755   3.540   1.623   5.050  0.1952  0.7152 -0.2931
 5040SOL    HW126756   3.464   1.565   5.056  0.0316  0.5786 -3.7635
 5040SOL    HW226757   3.509   1.712   5.066  1.3213  0.7654  1.5267
 5041SOL     OW26758   2.000   4.472   8.381 -0.2499 -0.5782 -0.4969
 5041SOL    HW126759   1.976   4.389   8.424 -1.2759  0.2961  0.6128
 5041SOL    HW226760   1.964   4.541   8.437 -1.5889 -1.5951 -0.0947
 5042SOL     OW26761   0.048   2.300   7.091  0.1477  0.1833 -0.2556
 5042SOL    HW126762   0.128   2.297   7.144  0.8356  1.6388 -1.2311
 5042SOL    HW226763   4.735   2.363   7.141  0.9252 -0.3423  1.2017
 5043SOL     OW26764   3.759   3.372   4.940  0.0267  0.6057 -0.4286
 5043SOL    HW126765   3.751   3.335   4.852 -2.2800  1.8601 -0.7554
 5043SOL    HW226766   3.850   3.355   4.961 -0.6173 -1.3537  0.7955
 5044SOL     OW26767   2.839   3.699   5.185  0.5907 -0.1422 -0.3928
 5044SOL    HW126768   2.923   3.675   5.147  0.0220 -0.1947 -1.6056
 5044SOL    HW226769   2.778   3.634   5.151  1.0431 -1.2023  0.8316
 5045SOL     OW26770   0.040   2.924  16.018  0.1233 -0.2815  0.2383
 5045SOL    HW126771   4.710   2.911  16.084  0.0781 -0.6342  0.1222
 5045SOL    HW226772   0.121   2.945  16.066  1.0523 -2.2422 -0.4971
 5046SOL     OW26773   0.351   1.065   8.350  0.1631 -0.5263  0.5648
 5046SOL    HW126774   0.390   1.082   8.435 -0.6064 -4.1544  1.6144
 5046SOL    HW226775   0.260   1.055   8.379  0.4469 -1.4225  1.1157
 5047SOL     OW26776   3.477   1.918   2.924 -0.9114  0.4176 -0.2371
 5047SOL    HW126777   3.469   1.988   2.860 -0.5798  0.4250 -0.2737
 5047SOL    HW226778   3.569   1.939   2.944 -1.1795  1.7202 -0.3779
 5048SOL     OW26779   1.492   1.428   5.453  0.5119  0.5746  0.2343
 5048SOL    HW126780   1.440   1.471   5.521 -1.8791 -0.9318 -0.6476
 5048SOL    HW226781   1.429   1.399   5.388 -0.8222  0.9266  1.3869
 5049SOL     OW26782   4.135   0.917   2.183 -0.4467 -0.1666 -0.1654
 5049SOL    HW126783   4.132   0.927   2.278  0.2114  0.9633 -0.2625
 5049SOL    HW226784   4.219   0.960   2.166  0.9092 -2.4517  0.6910
 5050SOL     OW26785   0.171   0.285   0.000  0.1394  0.0379 -0.1903
 5050SOL    HW126786   0.091   0.234   0.014  0.8626 -0.4862  2.0312
 5050SOL    HW226787   0.227   0.216  17.713 -0.0834 -1.5156  2.4491
 5051SOL     OW26788   1.251   0.470   7.347 -0.4246  0.1277  0.1228
 5051SOL    HW126789   1.275   0.482   7.439  2.3880  1.0374 -0.7158
 5051SOL    HW226790   1.156   0.463   7.351 -0.3876 -0.1774  0.4303
 5052SOL     OW26791   0.350   4.097  16.181 -0.8992 -0.2785  0.3773
 5052SOL    HW126792   0.286   4.147  16.231 -0.4824  0.6217  0.0114
 5052SOL    HW226793   0.426   4.150  16.204  0.3395 -0.7159 -2.6173
 5053SOL     OW26794   4.003   4.372   7.403  0.5023 -0.1302  0.2977
 5053SOL    HW126795   3.921   4.352   7.447  0.9724 -0.2381  1.1192
 5053SOL    HW226796   4.011   4.290   7.355  2.1921 -1.0264  2.1151
 5054SOL     OW26797   0.673   1.986   6.031 -0.0287 -0.3144 -0.4748
 5054SOL    HW126798   0.687   1.963   6.123 -0.7501  3.3853  0.5442
 5054SOL    HW226799   0.717   1.912   5.989  0.4429 -0.7680  0.8115
 5055SOL     OW26800   0.653   1.207   5.711 -0.2134  0.6121 -0.1151
 5055SOL    HW126801   0.679   1.178   5.624  1.3353  2.9869 -0.4362
 5055SOL    HW226802   0.739   1.228   5.747 -0.8972  0.2783  1.7056
 5056SOL     OW26803   3.137   0.405   5.224  0.2331 -0.2517  0.0098
 5056SOL    HW126804   3.171   0.494   5.219 -1.9132  0.4762 -1.6001
 5056SOL    HW226805   3.185   0.381   5.304  1.1887 -0.8121 -0.7251
 5057SOL     OW26806   4.176   3.668   5.883 -0.5699 -0.1292 -0.1971
 5057SOL    HW126807   4.203   3.640   5.970  0.6804  0.5771 -0.3701
 5057SOL    HW226808   4.087   3.696   5.905 -0.6084 -0.6562  0.3321
 5058SOL     OW26809   4.034   1.308   3.976  0.3959  0.5737  0.5842
 5058SOL    HW126810   4.120   1.293   3.936 -0.3381 -2.4426  0.1811
 5058SOL    HW226811   4.041   1.266   4.061  0.8587  1.4259  0.9694
 5059SOL     OW26812   1.266   1.235   9.351  0.1092  0.3777  0.0706
 5059SOL    HW126813   1.218   1.278   9.422  0.8108  1.2972 -0.0063
 5059SOL    HW226814   1.195   1.254   9.288  1.0081  1.9749 -0.4669
 5060SOL     OW26815   3.488   3.567   7.370  0.8362  0.6793 -0.0349
 5060SOL    HW126816   3.434   3.646   7.358 -0.7552 -0.2862  0.8076
 5060SOL    HW226817   3.557   3.590   7.432  0.6381 -1.8786  1.1334
 5061SOL     OW26818   0.270   1.709   0.722  0.4195 -0.0429 -0.0236
 5061SOL    HW126819   0.296   1.751   0.803  0.1735  1.6555 -0.8312
 5061SOL    HW226820   0.326   1.631   0.721  0.8819  0.2908 -0.6353
 5062SOL     OW26821   3.246   0.235  17.221 -0.4884 -0.4414  0.0151
 5062SOL    HW126822   3.239   0.168  17.288  2.4529 -0.1811  0.5834
 5062SOL    HW226823   3.210   0.182  17.149  2.4897 -0.5498 -1.4230
 5063SOL     OW26824   0.246   2.178   3.487 -0.1112  0.3702 -0.1340
 5063SOL    HW126825   0.301   2.168   3.564 -0.0927 -1.5726 -0.4065
 5063SOL    HW226826   0.278   2.105   3.433 -3.1844  0.1830 -1.7460
 5064SOL     OW26827   1.148   1.121   8.387  0.1000 -0.6317 -0.2069
 5064SOL    HW126828   1.224   1.138   8.443  0.0039  1.9889 -0.9034
 5064SOL    HW226829   1.191   1.074   8.316 -2.0920  0.1505 -2.0458
 5065SOL     OW26830   0.559   3.162   2.015  0.0218  0.2998  0.7910
 5065SOL    HW126831   0.589   3.072   2.016 -0.0590  0.2982  3.0669
 5065SOL    HW226832   0.586   3.196   1.929  1.1593 -0.9905  0.6416
 5066SOL     OW26833   0.614   3.520  10.202  0.6326  0.1772 -0.4495
 5066SOL    HW126834   0.697   3.550  10.239  1.2524 -0.5517 -1.2809
 5066SOL    HW226835   0.623   3.525  10.107  0.4815  2.3182 -0.3524
 5067SOL     OW26836   1.785   1.821   7.556  0.4351 -0.1629 -0.2351
 5067SOL    HW126837   1.866   1.773   7.537  1.5113  1.7205 -0.5086
 5067SOL    HW226838   1.782   1.877   7.478  1.3433  0.9610  0.5382
 5068SOL     OW26839   3.402   0.311   8.350 -0.4095  0.5125 -0.0401
 5068SOL    HW126840   3.492   0.304   8.319  0.0015  1.0306  1.0562
 5068SOL    HW226841   3.369   0.221   8.337  0.3935 -0.3656  3.8704
 5069SOL     OW26842   2.457   3.469   1.851 -0.0148  0.0486  0.0378
 5069SOL    HW126843   2.478   3.529   1.922  0.5337 -2.1259  1.7085
 5069SOL    HW226844   2.451   3.525   1.773 -0.0780  1.6483  1.1942
 5070SOL     OW26845   2.490   2.689   7.630  0.0587  0.3802 -0.3975
 5070SOL    HW126846   2.550   2.752   7.591  2.3756 -1.2910  0.5159
 5070SOL    HW226847   2.502   2.614   7.571  0.7570 -1.0991  1.6105
 5071SOL     OW26848   3.052   2.852   7.327 -0.2000  0.2017 -0.5624
 5071SOL    HW126849   3.055   2.780   7.264 -2.4805  0.1172 -0.5669
 5071SOL    HW226850   2.985   2.831   7.392 -0.2563 -2.1735 -1.4102
 5072SOL     OW26851   4.148   2.074   8.456 -0.5571  0.2068 -0.1487
 5072SOL    HW126852   4.197   1.995   8.482 -0.5095  0.0446 -0.7251
 5072SOL    HW226853   4.220   2.124   8.417 -0.6929 -0.0183 -0.6876
 5073SOL     OW26854   1.102   4.545   2.845  0.2231  0.0063 -0.2323
 5073SOL    HW126855   1.146   4.461   2.839  1.3074  0.6766 -1.5833
 5073SOL    HW226856   1.054   4.526   2.926  1.6609  2.1659  1.1409
 5074SOL     OW26857   3.446   0.018   4.535  0.4740  0.1289  0.3181
 5074SOL    HW126858   3.468   0.052   4.447  0.4522 -0.7226 -0.0144
 5074SOL    HW226859   3.505   4.680   4.533  1.2075  0.6835  0.8465
 5075SOL     OW26860   3.356   1.560   6.491  0.1275 -0.0936  0.3479
 5075SOL    HW126861   3.408   1.489   6.453  0.2971  0.5837 -0.7099
 5075SOL    HW226862   3.271   1.521   6.511 -1.0613  2.4866  0.2947
 5076SOL     OW26863   1.202   4.201   1.629 -0.4833 -0.2977  0.0550
 5076SOL    HW126864   1.283   4.223   1.677  0.5857 -1.9683 -0.9745
 5076SOL    HW226865   1.128   4.229   1.682  0.3640  0.8901  0.6132
 5077SOL     OW26866   3.354   4.376   2.122  0.6551 -0.1558 -0.0089
 5077SOL    HW126867   3.433   4.426   2.105 -0.0062  0.1811 -2.0577
 5077SOL    HW226868   3.292   4.439   2.085  1.2421 -0.1958 -1.0518
 5078SOL     OW26869   4.245   2.392   4.989 -0.0648  0.3626  0.1946
 5078SOL    HW126870   4.156   2.419   4.964 -0.8704  0.4850  3.1809
 5078SOL    HW226871   4.243   2.412   5.083 -1.3598  0.6979  0.1020
 5079SOL     OW26872   1.607   4.138  11.035  0.9460 -0.0815  0.0893
 5079SOL    HW126873   1.639   4.198  11.103  1.1726  0.8635 -0.8529
 5079SOL    HW226874   1.675   4.071  11.030 -1.3511 -2.5726  2.9137
 5080SOL     OW26875   2.207   2.274   0.196 -0.6614 -0.5525  0.1979
 5080SOL    HW126876   2.146   2.222   0.248 -0.1552 -0.6570  0.6893
 5080SOL    HW226877   2.274   2.213   0.165 -0.2159 -1.1160  2.3340
 5081SOL     OW26878   1.884   0.448   6.120  0.4790 -0.2439 -0.4041
 5081SOL    HW126879   1.937   0.527   6.116 -0.9065  0.6754 -0.7468
 5081SOL    HW226880   1.900   0.408   6.206 -1.8772 -0.1041  0.1263
 5082SOL     OW26881   1.484   0.605   5.656  0.2793 -0.0807 -0.1706
 5082SOL    HW126882   1.511   0.645   5.738 -0.2755  1.0793 -0.5559
 5082SOL    HW226883   1.541   0.529   5.667  1.7420  1.5389  3.3345
 5083SOL     OW26884   3.682   2.477   2.580  0.5410  0.4014 -0.2621
 5083SOL    HW126885   3.628   2.500   2.505  0.4736 -2.9150 -1.2259
 5083SOL    HW226886   3.767   2.454   2.542  0.2784 -2.1203  0.6605
 5084SOL     OW26887   3.528   1.738   4.503 -0.2072 -0.5434 -0.3720
 5084SOL    HW126888   3.517   1.693   4.586 -3.0782 -0.8356 -0.9101
 5084SOL    HW226889   3.623   1.744   4.496 -0.3413  2.6126  0.3136
 5085SOL     OW26890   2.179   3.815   6.541  0.3973  0.1837  0.1959
 5085SOL    HW126891   2.275   3.811   6.536  0.4289  2.9482 -1.0142
 5085SOL    HW226892   2.160   3.908   6.529  1.0306  0.1008 -1.4769
 5086SOL     OW26893   1.646   3.979   7.299 -0.1855 -0.4114  0.2674
 5086SOL    HW126894   1.710   3.986   7.228 -1.0571  0.8001 -0.3908
 5086SOL    HW226895   1.615   4.069   7.303  1.5778  0.2186 -0.0652
 5087SOL     OW26896   1.767   0.592  13.815  0.2473 -0.4108  0.1440
 5087SOL    HW126897   1.749   0.675  13.771  0.9846 -1.2915 -1.8430
 5087SOL    HW226898   1.748   0.612  13.907  0.4172  1.7755 -0.2897
 5088SOL     OW26899   4.041   0.650   4.767 -0.6014  0.3437 -0.3922
 5088SOL    HW126900   4.012   0.620   4.853 -0.6398 -2.4752 -1.3849
 5088SOL    HW226901   4.134   0.664   4.783 -0.1334  0.4876 -3.3138
 5089SOL     OW26902   4.572   2.212   4.160  0.0437 -0.0568  0.8732
 5089SOL    HW126903   4.516   2.235   4.234 -1.5247 -0.0538 -0.3008
 5089SOL    HW226904   4.571   2.117   4.174  0.5387 -0.2658 -0.4972
 5090SOL     OW26905   0.665   4.403  16.743  0.1391  0.1778 -0.5128
 5090SOL    HW126906   0.643   4.493  16.769 -1.5549 -0.0774 -1.0800
 5090SOL    HW226907   0.753   4.394  16.779 -1.3504  1.2304  3.4124
 5091SOL     OW26908   0.982   2.237   4.566  0.2352 -0.1241  0.2413
 5091SOL    HW126909   1.066   2.259   4.607  0.0870  0.7609  0.0673
 5091SOL    HW226910   0.965   2.317   4.517  0.4669 -2.2808 -3.3227
 5092SOL     OW26911   1.924   1.495  11.809  0.5555 -0.4964 -0.1644
 5092SOL    HW126912   1.960   1.523  11.893 -1.1366  0.3547  0.2903
 5092SOL    HW226913   1.990   1.432  11.782  2.0138  0.2755  1.5879
 5093SOL     OW26914   2.944   1.490  16.688 -0.0539  0.0038 -0.5159
 5093SOL    HW126915   2.921   1.531  16.771 -1.5426 -0.2799 -0.7862
 5093SOL    HW226916   2.882   1.535  16.631 -0.0952 -0.6098 -0.9532
 5094SOL     OW26917   2.371   1.928   3.031  0.3917 -0.1664 -0.5201
 5094SOL    HW126918   2.302   1.987   3.061 -0.5992 -2.9618  2.6792
 5094SOL    HW226919   2.364   1.939   2.936  0.7313 -1.4144 -0.6906
 5095SOL     OW26920   2.741   0.204  10.586 -0.3190 -0.2957  0.2727
 5095SOL    HW126921   2.646   0.197  10.578 -0.4251 -0.6648  1.7774
 5095SOL    HW226922   2.759   0.122  10.540 -1.1308  0.3119 -1.1390
 5096SOL     OW26923   1.279   2.341   7.883 -0.1167 -0.2551 -0.3983
 5096SOL    HW126924   1.249   2.347   7.973  2.0445 -0.2174  0.3254
 5096SOL    HW226925   1.340   2.267   7.884  1.3711  0.9703  1.8400
 5097SOL     OW26926   2.203   0.638   5.930 -0.2005  0.0832  0.2135
 5097SOL    HW126927   2.121   0.686   5.939 -0.9556 -1.1824  0.1406
 5097SOL    HW226928   2.205   0.601   5.842 -1.7692  0.9441 -0.1648
 5098SOL     OW26929   4.489   0.053   3.924  0.1697 -0.9227  0.4700
 5098SOL    HW126930   4.572   0.024   3.886  1.7883  2.0607  1.7367
 5098SOL    HW226931   4.431   0.045   3.849  1.2948 -0.6508 -0.4391
 5099SOL     OW26932   2.950   0.104   5.744  0.1002  0.2650  0.0091
 5099SOL    HW126933   2.967   0.102   5.838 -0.2909  1.6574  0.1139
 5099SOL    HW226934   3.038   0.086   5.711 -1.3992 -0.8299 -3.4340
 5100SOL     OW26935   3.425   1.309   3.985 -0.0542  0.4256 -0.6526
 5100SOL    HW126936   3.426   1.402   4.008 -0.4234  0.2943 -0.1161
 5100SOL    HW226937   3.469   1.316   3.900  0.6518 -0.9138 -0.3870
 5101SOL     OW26938   4.618   3.489   8.866  0.2183 -0.6178 -0.5014
 5101SOL    HW126939   4.636   3.492   8.772  2.1868  4.2031  0.0461
 5101SOL    HW226940   4.679   3.556   8.896 -0.1733  0.2305 -1.6115
 5102SOL     OW26941   3.730   1.082   1.956  0.4076  0.0092 -0.3698
 5102SOL    HW126942   3.640   1.059   1.979  0.1356  0.1331 -1.3416
 5102SOL    HW226943   3.749   1.015   1.891 -1.0317 -1.7634  1.0420
 5103SOL     OW26944   2.971   3.844   1.761  0.0489  0.3547  0.1910
 5103SOL    HW126945   2.998   3.753   1.773 -0.4591 -0.0437 -1.6053
 5103SOL    HW226946   2.943   3.837   1.670 -1.1834  0.4401  0.5747
 5104SOL     OW26947   0.248   0.032   6.205 -0.6428  0.0978  0.0326
 5104SOL    HW126948   0.271   4.685   6.169 -0.0226  0.2508  0.0602
 5104SOL    HW226949   0.323   0.080   6.169  1.2356 -2.0620  1.0198
 5105SOL     OW26950   2.324   2.475  15.343 -0.1056  0.2250  0.1675
 5105SOL    HW126951   2.399   2.529  15.368 -0.5397  0.8267  0.1637
 5105SOL    HW226952   2.253   2.501  15.402  0.2520 -0.5159  0.9208
 5106SOL     OW26953   0.367   4.428   4.701 -0.3781  0.0066  0.2763
 5106SOL    HW126954   0.440   4.392   4.752 -0.7565 -2.1155 -0.6913
 5106SOL    HW226955   0.296   4.373   4.734 -0.1493  0.0945  0.9041
 5107SOL     OW26956   1.066   1.129   5.292  0.6894 -0.0044 -0.8219
 5107SOL    HW126957   1.152   1.087   5.286 -0.2301 -1.6883 -2.1654
 5107SOL    HW226958   1.011   1.050   5.294 -0.0326  0.5448  0.9813
 5108SOL     OW26959   4.125   1.390   0.325  0.4121 -0.2659  0.1761
 5108SOL    HW126960   4.094   1.476   0.353  0.0638 -0.7101  1.1527
 5108SOL    HW226961   4.099   1.333   0.398  1.1940 -0.3419  0.3995
 5109SOL     OW26962   2.342   2.209   9.269 -0.3001 -0.0228 -0.1367
 5109SOL    HW126963   2.288   2.232   9.345 -0.4416 -0.2766 -0.1599
 5109SOL    HW226964   2.311   2.121   9.248  2.0641 -0.7209 -0.7285
 5110SOL     OW26965   4.042   0.092   5.468 -0.0875  0.1891  0.4280
 5110SOL    HW126966   4.074   0.018   5.416  2.7071  0.7329  1.3306
 5110SOL    HW226967   4.111   0.092   5.534  3.0596 -1.6622 -2.8381
 5111SOL     OW26968   4.502   3.142   2.280 -0.4532 -0.4284 -0.9347
 5111SOL    HW126969   4.544   3.227   2.291 -0.0694 -0.8187  0.5717
 5111SOL    HW226970   4.496   3.141   2.184  3.1188 -1.6339 -1.1398
 5112SOL     OW26971   3.299   1.703   5.830  0.2908 -0.1491 -0.1282
 5112SOL    HW126972   3.335   1.695   5.742  0.7830 -0.3082  0.0856
 5112SOL    HW226973   3.279   1.797   5.831 -0.1679 -0.2475 -0.5749
 5113SOL     OW26974   0.329   0.099   2.586  0.2944  0.0790  0.2039
 5113SOL    HW126975   0.366   0.179   2.549 -1.2866  1.4393  1.5236
 5113SOL    HW226976   0.273   0.144   2.650  1.2169 -2.7119  2.9568
 5114SOL     OW26977   2.797   4.630   4.749 -0.4153  0.0565 -0.5716
 5114SOL    HW126978   2.785   4.536   4.736 -1.1216  0.0303  0.2867
 5114SOL    HW226979   2.789   4.661   4.658 -0.3391 -0.5196 -0.7723
 5115SOL     OW26980   4.689   2.848   7.642  0.5025 -0.6452 -0.5792
 5115SOL    HW126981   0.006   2.878   7.715  1.3606 -0.7251 -1.1867
 5115SOL    HW226982   4.717   2.757   7.645 -0.3630 -0.8585  1.2553
 5116SOL     OW26983   3.291   2.376   4.777 -0.8770  0.3066  1.0253
 5116SOL    HW126984   3.372   2.365   4.727 -3.3482  2.6409 -3.3810
 5116SOL    HW226985   3.226   2.363   4.709 -0.6448 -1.0049  1.0383
 5117SOL     OW26986   0.055   1.355   0.577  0.0828 -0.0990 -0.1683
 5117SOL    HW126987   0.114   1.368   0.651 -1.7370 -1.2828  1.4605
 5117SOL    HW226988   4.717   1.314   0.618  0.5526  0.3390  1.1482
 5118SOL     OW26989   3.926   2.132   8.293  0.2617 -0.0229  0.0047
 5118SOL    HW126990   3.849   2.163   8.341  0.6539  2.2082 -0.8239
 5118SOL    HW226991   3.990   2.106   8.359 -1.5385  1.9236  2.5188
 5119SOL     OW26992   0.849   1.421   3.111  0.4253  0.1719 -0.0492
 5119SOL    HW126993   0.930   1.372   3.125  0.7516  0.3542 -1.3213
 5119SOL    HW226994   0.798   1.375   3.044  0.2925  0.5377 -0.1974
 5120SOL     OW26995   0.509   3.097  10.599 -0.1040 -0.4513 -0.0448
 5120SOL    HW126996   0.531   3.035  10.530 -1.4278  1.1747 -1.9347
 5120SOL    HW226997   0.423   3.060  10.618 -0.9189  1.8745  0.9124
 5121SOL     OW26998   0.396   1.513   4.162  0.0235  0.2918  0.2811
 5121SOL    HW126999   0.384   1.445   4.096  1.6841 -0.1967  0.4709
 5121SOL    HW227000   0.320   1.570   4.149 -0.2668 -0.0222  0.6073
 5122SOL     OW27001   1.577   3.399   1.407  0.1733 -0.3281  0.0484
 5122SOL    HW127002   1.603   3.481   1.450 -0.8377 -0.5217  1.0375
 5122SOL    HW227003   1.591   3.427   1.317  0.4530 -0.5564  0.0207
 5123SOL     OW27004   0.662   2.349   2.654  0.3907 -0.0819 -0.0335
 5123SOL    HW127005   0.684   2.428   2.604 -1.5830 -0.8953 -2.1644
 5123SOL    HW227006   0.639   2.370   2.745  0.8773 -0.1005  0.0975
 5124SOL     OW27007   0.149   1.123   4.642 -0.4970 -0.2350 -0.1293
 5124SOL    HW127008   0.215   1.054   4.650  0.3127  0.5043 -0.3288
 5124SOL    HW227009   0.072   1.083   4.681 -0.6196 -0.4085 -0.5459
 5125SOL     OW27010   3.875   2.660  17.512 -0.0189 -0.4352 -0.2801
 5125SOL    HW127011   3.783   2.684  17.519 -0.4553 -3.0053  2.7724
 5125SOL    HW227012   3.880   2.604  17.590  0.4826 -0.2444 -0.1765
 5126SOL     OW27013   2.087   0.208   5.845  0.2098  0.3411  0.0455
 5126SOL    HW127014   2.137   0.258   5.781 -1.1679 -1.3728 -2.3832
 5126SOL    HW227015   2.075   0.119   5.812  1.6599  0.1585  0.0489
 5127SOL     OW27016   2.471   0.370  17.654  0.4740  0.3756  0.3344
 5127SOL    HW127017   2.513   0.400  17.734 -0.1761 -1.3767  1.3485
 5127SOL    HW227018   2.490   0.447  17.600  0.5404 -1.3345 -2.1114
 5128SOL     OW27019   4.649   2.396   4.350 -0.2213 -0.6183 -0.3029
 5128SOL    HW127020   4.676   2.311   4.386 -1.9388 -0.8494  0.4390
 5128SOL    HW227021   4.710   2.455   4.394 -2.0950  0.8374  0.2880
 5129SOL     OW27022   3.683   2.465  11.561 -0.0820  0.0806  0.3427
 5129SOL    HW127023   3.727   2.524  11.500 -0.6959  0.1661 -0.0144
 5129SOL    HW227024   3.702   2.380  11.523 -1.4656 -0.4439  0.8373
 5130SOL     OW27025   0.816   3.388   4.710 -0.2448  0.2820 -0.1429
 5130SOL    HW127026   0.858   3.404   4.625  0.6103  0.0950  0.2415
 5130SOL    HW227027   0.732   3.427   4.687 -0.4794 -0.4433 -0.5151
 5131SOL     OW27028   3.182   3.363   2.439 -0.3230  0.4660 -0.7270
 5131SOL    HW127029   3.120   3.350   2.367 -1.1718 -0.7813  0.2288
 5131SOL    HW227030   3.128   3.427   2.484 -1.2765  0.5446 -1.9758
 5132SOL     OW27031   0.575   4.081   8.268 -0.2691  0.1159 -0.5926
 5132SOL    HW127032   0.624   4.160   8.289 -0.7803  0.6001 -1.2418
 5132SOL    HW227033   0.509   4.086   8.338  0.3115  0.7497 -0.0990
 5133SOL     OW27034   3.569   1.587   3.705  0.0798  0.8134 -0.0351
 5133SOL    HW127035   3.579   1.507   3.757 -0.3606  1.2513  0.7119
 5133SOL    HW227036   3.660   1.610   3.684 -0.0330 -0.1844 -1.6391
 5134SOL     OW27037   0.050   0.359   9.196 -0.1393 -0.2366 -0.1750
 5134SOL    HW127038   4.731   0.283   9.184  0.1041 -0.1577 -1.7354
 5134SOL    HW227039   0.032   0.414   9.120 -3.2234 -0.7734  0.1377
 5135SOL     OW27040   2.823   3.522   2.738  0.0005  0.1818 -0.1357
 5135SOL    HW127041   2.744   3.574   2.722 -0.2358 -0.1588 -0.0608
 5135SOL    HW227042   2.875   3.591   2.780  1.4910 -1.1452  0.1833
 5136SOL     OW27043   2.424   1.039   6.573  0.4203  0.4455  0.4759
 5136SOL    HW127044   2.448   1.037   6.480 -0.7455  0.6989  0.1615
 5136SOL    HW227045   2.332   1.013   6.578  0.7797 -0.7786  0.5689
 5137SOL     OW27046   2.958   1.256   5.726 -0.1033 -0.1189 -0.0882
 5137SOL    HW127047   2.882   1.206   5.757 -0.2087  1.3262  1.9973
 5137SOL    HW227048   3.014   1.239   5.802 -0.3802  2.8387  0.7522
 5138SOL     OW27049   4.178   2.184   6.277  0.0131  0.3504  0.1915
 5138SOL    HW127050   4.096   2.220   6.311 -0.0486  0.3458  0.0466
 5138SOL    HW227051   4.166   2.092   6.302  0.1486  0.3095  0.1058
 5139SOL     OW27052   4.138   1.548   7.667 -0.8067 -0.4070 -0.0749
 5139SOL    HW127053   4.216   1.525   7.717 -0.6853 -1.1149 -0.5954
 5139SOL    HW227054   4.150   1.495   7.588  1.8252 -1.2697  0.8851
 5140SOL     OW27055   3.319   2.108  12.836 -0.1787 -0.6107  0.3795
 5140SOL    HW127056   3.350   2.088  12.747  0.2027 -2.7202  1.0083
 5140SOL    HW227057   3.396   2.164  12.850 -0.2740 -0.2732 -0.4192
 5141SOL     OW27058   3.019   2.001  11.851 -0.0021 -0.4470  0.0757
 5141SOL    HW127059   3.026   1.909  11.876 -1.8631 -0.7404 -0.4567
 5141SOL    HW227060   2.957   1.990  11.778 -0.6790  2.0033  0.3018
 5142SOL     OW27061   1.748   0.871   6.152  0.1849  0.3856  0.2875
 5142SOL    HW127062   1.803   0.907   6.222  1.0731  0.3179 -0.3811
 5142SOL    HW227063   1.691   0.811   6.200  0.0020  0.7486  0.5259
 5143SOL     OW27064   3.989   3.201  13.008 -0.3799 -0.0281 -0.1529
 5143SOL    HW127065   3.979   3.295  13.019  1.7601  0.3273 -1.1056
 5143SOL    HW227066   3.998   3.180  13.101  0.4020 -1.4161 -0.5285
 5144SOL     OW27067   4.716   0.045  14.782  0.3872  0.0020 -0.7560
 5144SOL    HW127068   4.706   0.075  14.872 -1.3013 -0.2193 -0.8720
 5144SOL    HW227069   4.642   4.722  14.770  0.5982 -0.3348 -0.3153
 5145SOL     OW27070   3.187   2.688   9.986 -0.0245  0.2003 -0.2777
 5145SOL    HW127071   3.105   2.724  10.020 -1.0585 -0.4386 -2.1167
 5145SOL    HW227072   3.163   2.663   9.897 -0.5341 -0.4879  0.0556
 5146SOL     OW27073   0.287   4.677   4.796  0.3673  0.2076  0.2416
 5146SOL    HW127074   0.287   4.676   4.892  1.3066 -0.0310  0.2394
 5146SOL    HW227075   0.318   4.589   4.773  0.8615 -0.1952  2.4274
 5147SOL     OW27076   2.562   3.738   7.693  0.0039 -0.0903  0.3626
 5147SOL    HW127077   2.613   3.672   7.645 -0.6183  0.2199 -0.7301
 5147SOL    HW227078   2.476   3.699   7.683 -0.2201  0.2054  1.2048
 5148SOL     OW27079   3.464   3.722   7.625 -0.0231  0.4736 -0.1762
 5148SOL    HW127080   3.488   3.809   7.593 -1.4396  0.9691  0.1058
 5148SOL    HW227081   3.518   3.700   7.701  0.1815  0.7846 -0.2328
 5149SOL     OW27082   0.757   2.440  12.769  1.0031  0.6189  0.2777
 5149SOL    HW127083   0.820   2.394  12.714  1.5726 -0.1119  1.5541
 5149SOL    HW227084   0.732   2.508  12.705 -0.6460 -0.3182 -0.0639
 5150SOL     OW27085   0.855   0.923   7.039  0.1839  0.0808 -0.2814
 5150SOL    HW127086   0.782   0.985   7.036 -2.3426 -2.8979 -0.5113
 5150SOL    HW227087   0.870   0.904   6.946 -0.1253 -0.7859 -0.1577
 5151SOL     OW27088   4.243   3.006  10.502 -0.0542  0.2788 -0.4465
 5151SOL    HW127089   4.222   2.932  10.559  0.2142  1.7188  1.5080
 5151SOL    HW227090   4.339   3.003  10.504 -0.0632  0.3906  0.0816
 5152SOL     OW27091   0.311   3.525   6.767 -0.4234 -0.1665  0.7064
 5152SOL    HW127092   0.271   3.612   6.767 -1.2685 -0.5682 -1.9586
 5152SOL    HW227093   0.252   3.479   6.826 -1.8286  0.9292  0.1574
 5153SOL     OW27094   0.151   2.518   3.653 -0.0757  0.2502  0.2883
 5153SOL    HW127095   0.092   2.577   3.606 -0.2104 -0.0343  0.0994
 5153SOL    HW227096   0.099   2.457   3.706  0.2654 -0.9808 -0.8079
 5154SOL     OW27097   3.801   3.319   3.215  0.6310 -0.1324 -0.2062
 5154SOL    HW127098   3.829   3.326   3.124  4.9343  1.1496  1.2176
 5154SOL    HW227099   3.794   3.224   3.222  0.6739 -0.1150  0.0937
 5155SOL     OW27100   2.381   0.707  12.858 -0.4111  0.1958  0.1802
 5155SOL    HW127101   2.307   0.646  12.850 -1.8941  2.3703 -2.8920
 5155SOL    HW227102   2.391   0.722  12.764 -1.1195  0.7600  0.1980
 5156SOL     OW27103   3.658   1.482   9.162 -0.3759  0.1490  0.1653
 5156SOL    HW127104   3.641   1.408   9.220 -0.9227  2.4647  2.9224
 5156SOL    HW227105   3.570   1.512   9.143 -0.8246  0.5113  2.9346
 5157SOL     OW27106   0.577   4.664   9.333  0.0072 -0.4201 -0.0648
 5157SOL    HW127107   0.518   4.612   9.280 -1.8082 -0.7157  2.2221
 5157SOL    HW227108   0.605   4.727   9.267 -2.0799  2.0421  1.3967
 5158SOL     OW27109   2.684   0.842  16.632 -0.4320 -0.6378  0.1542
 5158SOL    HW127110   2.649   0.753  16.625 -0.2221 -0.8433  1.5836
 5158SOL    HW227111   2.736   0.851  16.552  0.8756 -0.1473  1.0577
 5159SOL     OW27112   3.583   1.595   8.146 -0.4322  0.0749 -0.1633
 5159SOL    HW127113   3.618   1.659   8.084 -0.6188  2.2919  2.0394
 5159SOL    HW227114   3.642   1.622   8.216  0.1091 -2.8783  0.5541
 5160SOL     OW27115   3.130   2.897   4.209  0.2486  0.2343 -0.1011
 5160SOL    HW127116   3.174   2.917   4.292  0.3739  0.5752 -0.2505
 5160SOL    HW227117   3.115   2.987   4.182 -1.8139  0.0734  0.5376
 5161SOL     OW27118   2.340   0.229   7.153 -0.0214  0.5004 -0.0307
 5161SOL    HW127119   2.411   0.279   7.112 -0.1610  0.7550  0.0352
 5161SOL    HW227120   2.271   0.292   7.176 -1.3858 -0.8883 -0.3864
 5162SOL     OW27121   3.695   4.151   6.494 -0.1991  0.1947 -0.4415
 5162SOL    HW127122   3.692   4.146   6.590  0.1464 -1.2830 -0.4965
 5162SOL    HW227123   3.790   4.146   6.485 -0.3468  1.7882 -2.7967
 5163SOL     OW27124   3.973   1.426   3.420 -0.8112 -0.5479 -0.3399
 5163SOL    HW127125   3.981   1.440   3.325  1.4964 -1.6368 -0.3158
 5163SOL    HW227126   3.909   1.489   3.452  0.6563 -0.2765  2.0062
 5164SOL     OW27127   4.029   3.794  12.028  0.6127  0.4781  0.3599
 5164SOL    HW127128   3.986   3.786  12.113  3.3202 -0.7630  1.6252
 5164SOL    HW227129   4.104   3.735  12.033  0.5445  0.2780 -1.2193
 5165SOL     OW27130   4.413   1.820   5.658  0.3579  0.0064  0.3439
 5165SOL    HW127131   4.319   1.804   5.663 -0.0153  2.2452  0.8018
 5165SOL    HW227132   4.445   1.771   5.734  1.3163 -0.9168 -0.6611
 5166SOL     OW27133   0.358   0.464   2.245 -0.3481 -0.1004  0.1168
 5166SOL    HW127134   0.363   0.413   2.326 -0.2809  0.9218  0.7606
 5166SOL    HW227135   0.447   0.442   2.217 -0.0184  0.9728  0.2925
 5167SOL     OW27136   4.627   3.400   6.207  0.0194  0.1508 -0.2949
 5167SOL    HW127137   4.597   3.458   6.277  1.7723 -1.3785  1.6832
 5167SOL    HW227138   4.566   3.328   6.222 -1.7546  1.0551 -3.0314
 5168SOL     OW27139   0.367   1.660   6.858  0.1882 -0.8500  0.2197
 5168SOL    HW127140   0.415   1.592   6.811  1.9021  1.9998 -2.0785
 5168SOL    HW227141   0.320   1.614   6.928 -1.2925 -0.7098 -0.6665
 5169SOL     OW27142   0.020   1.700   9.899  0.5238  0.1578 -0.2054
 5169SOL    HW127143   4.685   1.638   9.907  0.2836  0.3406 -1.0836
 5169SOL    HW227144   0.095   1.643   9.879  1.2110  0.6884  0.8089
 5170SOL     OW27145   1.691   1.985   0.003  0.4552  0.1031 -0.2756
 5170SOL    HW127146   1.640   2.029   0.071 -2.6882 -0.2924 -2.3786
 5170SOL    HW227147   1.768   1.967   0.057 -0.6760 -1.0178  0.9507
 5171SOL     OW27148   1.684   3.960   5.500 -0.3219 -0.3678  0.0335
 5171SOL    HW127149   1.596   3.982   5.530 -0.5009  0.3036 -0.9792
 5171SOL    HW227150   1.677   3.865   5.494 -1.7489 -0.2691  0.1574
 5172SOL     OW27151   3.202   1.888   2.727  0.2201 -0.2268  0.3868
 5172SOL    HW127152   3.158   1.936   2.657  0.7266 -0.7976 -0.3101
 5172SOL    HW227153   3.238   1.962   2.776  0.2227 -0.1376  0.2472
 5173SOL     OW27154   3.353   1.670   5.539  0.2331  0.5217 -0.0431
 5173SOL    HW127155   3.310   1.584   5.530  2.9145 -0.9694  1.6333
 5173SOL    HW227156   3.343   1.709   5.452 -2.1762 -0.9328 -0.4230
 5174SOL     OW27157   0.556   2.538   8.176  0.1840 -0.0955  0.4778
 5174SOL    HW127158   0.606   2.466   8.139  1.5173  0.9089  0.3352
 5174SOL    HW227159   0.481   2.481   8.196  0.1340 -0.3473 -0.4376
 5175SOL     OW27160   3.379   0.119  11.900  0.0944 -0.6742 -0.0529
 5175SOL    HW127161   3.428   0.089  11.976 -0.5816 -0.2632  0.5369
 5175SOL    HW227162   3.355   0.036  11.857  1.6848 -1.3882  0.4350
 5176SOL     OW27163   0.800   1.525   2.698 -0.1104  0.1997  0.5875
 5176SOL    HW127164   0.819   1.433   2.712 -0.0185 -0.0586 -1.1874
 5176SOL    HW227165   0.799   1.523   2.602 -0.9358  0.4897  0.5855
 5177SOL     OW27166   3.548   1.491   1.338  0.4010  0.6675  0.4648
 5177SOL    HW127167   3.577   1.406   1.304  0.8353  0.1555  2.1382
 5177SOL    HW227168   3.454   1.495   1.318  0.2123 -1.0723  1.0303
 5178SOL     OW27169   2.733   4.349  10.439  0.1636  0.5593 -0.6455
 5178SOL    HW127170   2.768   4.381  10.522 -0.0470 -1.8064  0.3470
 5178SOL    HW227171   2.768   4.260  10.443 -0.8983  0.0416 -2.9062
 5179SOL     OW27172   0.552   0.772   9.476 -0.1245  0.1822  0.5099
 5179SOL    HW127173   0.583   0.699   9.530 -1.1752 -0.6333  0.0114
 5179SOL    HW227174   0.614   0.762   9.404  0.5353 -1.5863  1.3356
 5180SOL     OW27175   3.146   2.024  11.546  0.3819 -0.3610  0.0786
 5180SOL    HW127176   3.067   1.993  11.589 -0.6282 -0.5680 -1.9684
 5180SOL    HW227177   3.109   2.085  11.483 -0.8814 -0.9974  0.2127
 5181SOL     OW27178   1.367   2.296  16.348 -0.3030  0.4623  0.3883
 5181SOL    HW127179   1.347   2.379  16.305 -3.7021 -1.2744 -1.3273
 5181SOL    HW227180   1.307   2.301  16.422  1.6057  0.3768  1.9582
 5182SOL     OW27181   2.404   1.768   9.427 -0.3421  0.0259  0.3378
 5182SOL    HW127182   2.481   1.711   9.429  0.3065  0.8194 -3.8661
 5182SOL    HW227183   2.421   1.827   9.354 -1.8977  0.9971  0.7459
 5183SOL     OW27184   3.877   0.599   6.269  0.0525 -0.6369  0.1214
 5183SOL    HW127185   3.924   0.526   6.230  0.9889  0.2366 -0.3806
 5183SOL    HW227186   3.819   0.624   6.197  1.4313  1.1345 -0.3637
 5184SOL     OW27187   2.764   1.367   5.350 -0.2030  0.0681  0.4142
 5184SOL    HW127188   2.787   1.413   5.269  0.2860 -1.5319 -0.3586
 5184SOL    HW227189   2.841   1.311   5.350 -0.8302 -0.8135 -1.9136
 5185SOL     OW27190   0.679   0.481   5.776 -0.7015  0.4466 -0.3819
 5185SOL    HW127191   0.606   0.483   5.715 -1.9124 -1.8105  0.9662
 5185SOL    HW227192   0.719   0.567   5.760 -0.4476 -0.1015 -2.6953
 5186SOL     OW27193   0.782   2.063  15.447 -0.1534 -0.3646 -0.3854
 5186SOL    HW127194   0.722   2.136  15.466 -0.1904 -0.5901  0.3892
 5186SOL    HW227195   0.860   2.104  15.484 -0.4667  0.3194 -0.4715
 5187SOL     OW27196   3.248   2.634   3.087 -0.3262  0.0487  0.7774
 5187SOL    HW127197   3.281   2.722   3.071 -1.6369  1.1225  3.9953
 5187SOL    HW227198   3.161   2.652   3.050  0.9916 -0.6066 -2.6291
 5188SOL     OW27199   4.065   4.570   8.240 -0.0902 -0.2299  0.0605
 5188SOL    HW127200   4.032   4.551   8.327 -1.9692 -0.6575 -0.7429
 5188SOL    HW227201   4.157   4.592   8.256 -0.0714 -0.5091  0.3367
 5189SOL     OW27202   1.099   1.933   9.550  0.1306  0.0095  0.7405
 5189SOL    HW127203   1.128   1.951   9.461  0.4543 -3.8799  0.0879
 5189SOL    HW227204   1.093   2.016   9.597 -1.0741  0.8634 -0.9233
 5190SOL     OW27205   0.879   3.276   2.889  0.1758  0.4462 -0.2076
 5190SOL    HW127206   0.858   3.286   2.796  0.8727  4.1935  0.0567
 5190SOL    HW227207   0.800   3.324   2.914 -1.3220 -0.7966 -2.6118
 5191SOL     OW27208   1.558   2.415   8.114  0.0558  0.3852 -0.0729
 5191SOL    HW127209   1.614   2.338   8.125  2.1834  1.9905  0.4266
 5191SOL    HW227210   1.506   2.412   8.194 -1.3022 -1.2516 -1.0269
 5192SOL     OW27211   2.906   3.731   8.622 -0.6075 -0.4917  0.3845
 5192SOL    HW127212   2.841   3.772   8.566  1.4147  0.1631 -1.5184
 5192SOL    HW227213   2.851   3.669   8.669 -2.2689  0.7977  0.1274
 5193SOL     OW27214   2.849   1.653   7.584 -0.2937 -0.6955  0.6788
 5193SOL    HW127215   2.844   1.742   7.619 -0.3428  0.1906 -1.5677
 5193SOL    HW227216   2.932   1.653   7.536 -0.4629 -0.3865  0.3836
 5194SOL     OW27217   2.235   1.159   6.097 -0.2108 -0.3864 -0.1547
 5194SOL    HW127218   2.154   1.201   6.069  0.4891  0.7785 -0.4556
 5194SOL    HW227219   2.274   1.228   6.151 -4.4679  2.0853 -0.2583
 5195SOL     OW27220   1.063   0.554   5.765 -0.1090 -0.2008 -0.2902
 5195SOL    HW127221   1.019   0.563   5.681 -2.3368  0.3227  0.9267
 5195SOL    HW227222   1.073   0.647   5.787  0.0307 -0.0986 -0.7919
 5196SOL     OW27223   0.590   0.254   8.154 -0.5687 -0.4572 -0.5352
 5196SOL    HW127224   0.606   0.280   8.063  1.3810 -2.6503 -0.8351
 5196SOL    HW227225   0.672   0.285   8.193 -0.4036  0.0596 -1.2945
 5197SOL     OW27226   4.192   3.754   2.975 -0.5588 -0.4535  0.1105
 5197SOL    HW127227   4.247   3.770   3.052  1.2220  1.2997 -1.5224
 5197SOL    HW227228   4.119   3.700   3.008  0.0552  0.1777  2.5431
 5198SOL     OW27229   4.517   0.660   7.486 -0.6398 -0.0596  0.6315
 5198SOL    HW127230   4.434   0.642   7.530  0.4210 -1.8001  1.9544
 5198SOL    HW227231   4.572   0.598   7.534  1.1140  0.3741 -0.8412
 5199SOL     OW27232   1.196   2.037   2.689  0.3782  0.2566 -0.4240
 5199SOL    HW127233   1.212   1.972   2.621 -1.1894  1.6295 -2.1112
 5199SOL    HW227234   1.105   2.059   2.668  0.9446  2.2989 -0.6920
 5200SOL     OW27235   3.678   2.378   4.929 -1.0184 -0.4995 -0.4628
 5200SOL    HW127236   3.662   2.320   5.003 -0.9103 -0.7056 -0.6011
 5200SOL    HW227237   3.618   2.340   4.864 -1.6721  2.4040 -1.5496
 5201SOL     OW27238   2.446   3.871   6.506 -0.2925 -0.2288 -0.0595
 5201SOL    HW127239   2.487   3.790   6.473  0.6353  0.0766  0.3457
 5201SOL    HW227240   2.507   3.895   6.575 -0.6559 -0.7868  0.4621
 5202SOL     OW27241   2.412   3.726   4.481 -0.1550 -0.4985 -0.0334
 5202SOL    HW127242   2.376   3.701   4.395  0.3585  0.0314 -0.4019
 5202SOL    HW227243   2.412   3.645   4.531  3.0173  0.0809  0.8686
 5203SOL     OW27244   2.276   0.947   4.606  0.1201  0.7763  0.3284
 5203SOL    HW127245   2.308   0.896   4.681  0.6023  0.9660  0.2546
 5203SOL    HW227246   2.237   1.018   4.657 -0.1158  1.8037 -1.3127
 5204SOL     OW27247   1.960   0.204  13.902  0.1104  0.3612  0.8536
 5204SOL    HW127248   2.010   0.247  13.972  1.8719  0.7629 -0.6620
 5204SOL    HW227249   1.904   0.274  13.871 -0.8115 -0.2593  1.1326
 5205SOL     OW27250   2.428   2.653   7.133 -0.1960 -0.8327 -0.0866
 5205SOL    HW127251   2.373   2.630   7.209 -0.3577 -2.7982 -0.7920
 5205SOL    HW227252   2.465   2.737   7.159 -0.0220 -0.3751 -1.7941
 5206SOL     OW27253   2.098   3.996   4.103  0.6881  0.0593 -0.0897
 5206SOL    HW127254   2.017   4.030   4.065 -0.3691  0.6164  2.6448
 5206SOL    HW227255   2.105   3.920   4.046 -0.2774 -2.3976  3.0623
 5207SOL     OW27256   1.984   3.317   1.040 -0.6111 -0.3954  0.2836
 5207SOL    HW127257   1.953   3.339   1.128  1.3578  0.5353  0.7383
 5207SOL    HW227258   1.979   3.222   1.045 -2.4730 -0.1708  2.5688
 5208SOL     OW27259   0.218   1.337   4.443 -0.1271  0.0306  0.5883
 5208SOL    HW127260   0.179   1.305   4.525  0.1376 -1.5042  0.1062
 5208SOL    HW227261   0.173   1.421   4.433 -0.3963 -0.0477  1.1440
 5209SOL     OW27262   2.288   2.775   2.369  0.1715  0.2388 -0.1072
 5209SOL    HW127263   2.325   2.691   2.397 -0.9318 -0.4424 -0.7222
 5209SOL    HW227264   2.218   2.789   2.434 -1.3014  1.0924 -1.8998
 5210SOL     OW27265   3.175   4.063   1.274  0.5828 -0.0747 -0.6318
 5210SOL    HW127266   3.243   3.998   1.293 -0.7885 -1.2366  0.2502
 5210SOL    HW227267   3.098   4.013   1.247  1.0831 -1.3556  0.2913
 5211SOL     OW27268   1.563   4.404   2.050  0.1595 -0.2265  0.9213
 5211SOL    HW127269   1.642   4.375   2.095  0.5906 -2.5969 -1.3576
 5211SOL    HW227270   1.492   4.379   2.110  0.9694 -0.2185  1.8852
 5212SOL     OW27271   0.857   1.135   8.434 -0.0287 -0.2681  0.4556
 5212SOL    HW127272   0.951   1.127   8.423 -0.1589 -1.3003  0.1329
 5212SOL    HW227273   0.854   1.219   8.481  0.7402 -0.1528  0.2817
 5213SOL     OW27274   2.329   1.234   8.460  0.0138 -0.1399  0.0700
 5213SOL    HW127275   2.273   1.307   8.437  0.1409 -0.0106  0.1685
 5213SOL    HW227276   2.345   1.197   8.374  1.7042  0.6414  0.0429
 5214SOL     OW27277   0.194   1.271   8.663  0.1609 -0.4130  0.5272
 5214SOL    HW127278   0.126   1.212   8.695 -0.7453 -0.0403 -0.7140
 5214SOL    HW227279   0.144   1.338   8.618 -0.2042 -0.0757  1.4246
 5215SOL     OW27280   4.212   1.719   6.764 -0.6080  0.4106  0.1073
 5215SOL    HW127281   4.256   1.647   6.720 -0.6560 -0.1406  0.9606
 5215SOL    HW227282   4.277   1.789   6.751  0.8852 -0.9461  0.2650
 5216SOL     OW27283   1.722   3.601   0.892  0.1295  0.2999  0.1461
 5216SOL    HW127284   1.733   3.525   0.951 -0.3519  2.6088  3.2138
 5216SOL    HW227285   1.746   3.553   0.813 -1.2924 -0.1493 -0.0168
 5217SOL     OW27286   1.279   2.858   3.161  0.0480 -0.1386  0.5020
 5217SOL    HW127287   1.364   2.820   3.138 -0.5317 -1.8135  1.1156
 5217SOL    HW227288   1.280   2.933   3.102 -2.7382  0.8592  1.7330
 5218SOL     OW27289   3.605   3.979  12.243  0.3350 -0.4440 -0.3156
 5218SOL    HW127290   3.655   4.055  12.274  0.9507 -1.0548  0.1791
 5218SOL    HW227291   3.540   4.027  12.191  1.2897 -1.5277 -2.5157
 5219SOL     OW27292   0.432   2.736   4.861  0.1260 -0.5282  0.1508
 5219SOL    HW127293   0.419   2.697   4.775 -0.4127  2.1911 -1.0107
 5219SOL    HW227294   0.504   2.792   4.832  0.0148 -1.2170 -1.4742
 5220SOL     OW27295   1.606   3.202   2.440  0.1516  0.6506 -0.1095
 5220SOL    HW127296   1.670   3.192   2.369 -1.2454  0.2200 -1.3089
 5220SOL    HW227297   1.645   3.143   2.505  0.4395 -1.0340 -1.8003
 5221SOL     OW27298   1.006   0.043   3.049 -0.1806 -0.1476  0.5016
 5221SOL    HW127299   0.935   0.088   3.004  0.3070  2.3537  2.2938
 5221SOL    HW227300   1.080   0.103   3.046  0.0856 -0.4972 -0.0258
 5222SOL     OW27301   0.917   1.238  16.690 -0.0546 -0.1195 -0.3128
 5222SOL    HW127302   0.865   1.218  16.611 -0.7132  0.9121 -0.1415
 5222SOL    HW227303   0.889   1.328  16.709 -1.0713 -0.4567 -0.1947
 5223SOL     OW27304   1.937   4.687   9.440 -0.8254  0.4186  0.0141
 5223SOL    HW127305   1.875   4.705   9.369 -0.4857  3.8632  0.5632
 5223SOL    HW227306   1.933   0.032   9.488  0.9106  0.5950 -0.1435
 5224SOL     OW27307   4.262   1.452   7.161 -0.1901 -0.6043 -0.4324
 5224SOL    HW127308   4.316   1.389   7.112  0.9164  0.3165 -0.4120
 5224SOL    HW227309   4.188   1.480   7.109  0.1470 -0.6986 -0.9656
 5225SOL     OW27310   4.347   4.309   0.254  0.1576  0.4151  0.9055
 5225SOL    HW127311   4.268   4.315   0.308 -0.6893  0.3282 -0.3273
 5225SOL    HW227312   4.392   4.387   0.288 -0.3651  1.1138 -0.0055
 5226SOL     OW27313   2.494   1.268   5.651  0.0708 -0.0951  0.3292
 5226SOL    HW127314   2.403   1.258   5.679 -0.8059  2.1370 -1.7159
 5226SOL    HW227315   2.484   1.242   5.560  2.6019  3.6583 -1.0337
 5227SOL     OW27316   1.328   2.999   8.716  0.0350 -0.5971  0.1252
 5227SOL    HW127317   1.330   3.094   8.723  0.9657 -0.5047 -1.2613
 5227SOL    HW227318   1.284   2.965   8.793  0.9717 -0.9380  0.5087
 5228SOL     OW27319   1.220   2.752  10.109  0.5714 -0.1584 -0.2171
 5228SOL    HW127320   1.311   2.780  10.105  0.6115 -0.1947  0.4284
 5228SOL    HW227321   1.225   2.704  10.192  2.0719 -0.2417 -0.3605
 5229SOL     OW27322   4.197   3.151   3.522  0.3985  0.0921  0.5439
 5229SOL    HW127323   4.281   3.120   3.556  1.6936  1.6435 -1.1890
 5229SOL    HW227324   4.170   3.093   3.451  0.2659  2.4731 -1.3545
 5230SOL     OW27325   0.236   0.439   4.203  0.8038 -0.4026  0.1378
 5230SOL    HW127326   0.151   0.481   4.214  0.4197 -0.9190 -0.9133
 5230SOL    HW227327   0.268   0.436   4.293 -0.0779  2.1908  0.5394
 5231SOL     OW27328   2.117   3.151  14.779  0.2696 -0.5945 -0.1240
 5231SOL    HW127329   2.117   3.102  14.697  0.3887 -1.1798  0.2295
 5231SOL    HW227330   2.190   3.212  14.775  1.1260 -1.5995  0.2490
 5232SOL     OW27331   0.202   0.433   4.721  0.0654  0.1666 -0.2866
 5232SOL    HW127332   0.290   0.433   4.757 -0.2832 -0.8950  0.5312
 5232SOL    HW227333   0.204   0.339   4.707  1.2421  0.2947 -0.9644
 5233SOL     OW27334   0.030   1.145   9.317 -0.3455  0.1755  0.7071
 5233SOL    HW127335   0.092   1.110   9.381 -1.8336 -3.1338  0.3271
 5233SOL    HW227336   4.727   1.214   9.370  0.2639 -0.3388  1.8515
 5234SOL     OW27337   3.315   3.872  11.838 -0.2072 -0.4171 -0.0749
 5234SOL    HW127338   3.280   3.787  11.814 -1.2201 -0.0954  0.2403
 5234SOL    HW227339   3.404   3.858  11.806 -0.0954  0.4973 -0.1768
 5235SOL     OW27340   2.211   2.246   0.527 -0.3507 -0.0400  0.0320
 5235SOL    HW127341   2.126   2.236   0.486 -0.1669  1.4830 -0.7142
 5235SOL    HW227342   2.209   2.197   0.610  1.4927 -1.1843 -0.6119
 5236SOL     OW27343   0.165   0.342   0.653 -0.4142  0.0940 -0.3191
 5236SOL    HW127344   0.140   0.253   0.625 -2.7891  0.2273  1.4281
 5236SOL    HW227345   0.121   0.363   0.735  0.8780  1.8228 -0.0777
 5237SOL     OW27346   2.929   0.372   6.178 -0.3167 -0.0372  0.3543
 5237SOL    HW127347   2.988   0.444   6.199 -2.2896  1.1562  1.7165
 5237SOL    HW227348   2.874   0.373   6.256  0.4196 -2.8278  0.9168
 5238SOL     OW27349   3.413   4.712   5.153 -0.2721 -0.0276  0.2936
 5238SOL    HW127350   3.507   4.695   5.150 -0.5316 -1.1166 -1.5201
 5238SOL    HW227351   3.403   4.703   5.059 -2.0815  0.8309  0.3917
 5239SOL     OW27352   1.189   1.330   6.314 -0.0649  0.0079  0.0221
 5239SOL    HW127353   1.137   1.317   6.393  1.0821 -1.7572  0.4717
 5239SOL    HW227354   1.277   1.310   6.343 -0.7964 -0.6891  1.7463
 5240SOL     OW27355   2.148   3.893   6.218  0.2937  0.2779  0.7452
 5240SOL    HW127356   2.234   3.934   6.214 -0.3329  1.6010  1.0394
 5240SOL    HW227357   2.093   3.965   6.248 -2.0406 -0.5049 -1.5719
 5241SOL     OW27358   3.383   3.507   9.464  0.2068 -0.4428 -0.5692
 5241SOL    HW127359   3.377   3.445   9.392  2.3669 -0.3224 -0.8283
 5241SOL    HW227360   3.355   3.577   9.405 -2.4240  0.6255  1.9277
 5242SOL     OW27361   4.659   0.739   6.268  0.2144 -0.0757 -0.6281
 5242SOL    HW127362   4.670   0.669   6.203  0.2407  2.1811 -3.0527
 5242SOL    HW227363   4.564   0.733   6.282  0.6531 -2.9301  1.1439
 5243SOL     OW27364   4.066   1.720   3.329  0.4303  0.2794 -0.0872
 5243SOL    HW127365   4.039   1.650   3.270 -1.5302  1.0618 -0.1097
 5243SOL    HW227366   4.151   1.682   3.354 -0.0091 -0.1550  0.7494
 5244SOL     OW27367   4.137   2.139   5.773  0.1477 -0.4217  0.3664
 5244SOL    HW127368   4.046   2.113   5.766  0.5187 -2.0676  1.7946
 5244SOL    HW227369   4.152   2.190   5.693  2.1275 -0.9850  0.3721
 5245SOL     OW27370   4.684   1.150   3.582  0.2320 -0.0904  0.0868
 5245SOL    HW127371   4.623   1.197   3.526  0.9578 -0.3113 -0.8846
 5245SOL    HW227372   4.632   1.071   3.593  1.2045 -0.5917  1.1267
 5246SOL     OW27373   4.277   0.392   2.724 -0.2487  0.0846 -0.2853
 5246SOL    HW127374   4.308   0.343   2.648 -3.2735 -0.4658 -1.1601
 5246SOL    HW227375   4.276   0.484   2.698  1.0386  0.6254  1.5750
 5247SOL     OW27376   0.699   1.626  17.461  0.1735  0.0067  0.4637
 5247SOL    HW127377   0.710   1.534  17.485 -0.0260 -0.4755 -1.2629
 5247SOL    HW227378   0.738   1.668  17.537  0.3311  0.0918  0.3364
 5248SOL     OW27379   3.629   3.976   1.303 -1.2264 -0.2232  0.0547
 5248SOL    HW127380   3.703   3.924   1.333 -1.7282 -0.6377  0.5738
 5248SOL    HW227381   3.621   4.058   1.351 -1.4151  0.3963 -1.0357
 5249SOL     OW27382   3.860   2.738   2.795 -0.0052 -0.1226  0.0318
 5249SOL    HW127383   3.786   2.691   2.834 -0.0488  0.6600  0.9030
 5249SOL    HW227384   3.887   2.805   2.859 -1.5531  1.0059 -0.4972
 5250SOL     OW27385   0.501   4.307   1.809  0.0626  0.5007 -0.4878
 5250SOL    HW127386   0.425   4.280   1.757  1.0627 -0.4722 -1.4270
 5250SOL    HW227387   0.493   4.245   1.882 -2.4513 -0.7396 -1.8016
 5251SOL     OW27388   0.860   1.800   1.739 -1.0045  0.6788 -0.2317
 5251SOL    HW127389   0.878   1.756   1.822 -0.6002 -0.9945 -1.2161
 5251SOL    HW227390   0.771   1.766   1.728 -0.5686 -0.8268  0.8981
 5252SOL     OW27391   4.252   4.731   2.572 -0.4785 -0.5188  0.1458
 5252SOL    HW127392   4.229   0.060   2.507  0.2314 -1.9761 -1.5564
 5252SOL    HW227393   4.172   4.732   2.626  0.1524  1.3965  1.0498
 5253SOL     OW27394   0.983   2.263   3.449  0.1219  0.1701  0.2887
 5253SOL    HW127395   0.966   2.270   3.543 -0.8410 -0.2627  0.1499
 5253SOL    HW227396   1.078   2.248   3.452  0.2378  1.2256  2.3243
 5254SOL     OW27397   4.128   0.645  12.093 -0.3876  0.2582  0.5479
 5254SOL    HW127398   4.102   0.553  12.106  0.4089 -0.1098 -0.4143
 5254SOL    HW227399   4.053   0.662  12.035  1.4060  1.6546 -1.3586
 5255SOL     OW27400   1.605   2.232   4.687  0.1106 -0.3516  0.3805
 5255SOL    HW127401   1.686   2.282   4.697  0.5654 -1.3338  1.5626
 5255SOL    HW227402   1.560   2.298   4.634  0.8299 -0.1766 -0.0155
 5256SOL     OW27403   4.003   4.448   0.665 -0.0225  0.4613  0.4094
 5256SOL    HW127404   3.949   4.459   0.743  1.2615 -0.0635  1.3759
 5256SOL    HW227405   4.062   4.524   0.660  0.4358  0.0511 -0.4179
 5257SOL     OW27406   3.267   3.045   3.331 -0.0578  0.4030  0.1235
 5257SOL    HW127407   3.309   3.124   3.297 -0.3797  0.8276  0.7145
 5257SOL    HW227408   3.182   3.060   3.290  0.2728 -0.1905 -0.7873
 5258SOL     OW27409   3.514   2.669   3.909  0.0607  0.4751  0.5053
 5258SOL    HW127410   3.595   2.696   3.953  0.9866  1.0605 -1.5421
 5258SOL    HW227411   3.463   2.750   3.912 -2.3506 -1.0228 -0.2495
 5259SOL     OW27412   1.437   3.012  17.157  0.6501 -0.5458 -0.0602
 5259SOL    HW127413   1.490   3.090  17.170 -2.3970  1.1306  2.4569
 5259SOL    HW227414   1.351   3.051  17.173  0.6632 -0.3009 -0.6166
 5260SOL     OW27415   2.376   4.026   8.371 -0.1272  0.3159  0.1588
 5260SOL    HW127416   2.355   4.054   8.461  1.5635  2.4279 -0.1091
 5260SOL    HW227417   2.359   3.932   8.381 -0.2681  0.5878  2.5335
 5261SOL     OW27418   2.138   2.573  17.523  0.4913 -0.0858  0.0801
 5261SOL    HW127419   2.134   2.534  17.611  1.8214  1.2937  0.7621
 5261SOL    HW227420   2.071   2.521  17.480 -1.1531  1.7450  0.4154
 5262SOL     OW27421   0.474   4.630   5.419  0.0640 -0.2207 -0.2916
 5262SOL    HW127422   0.502   4.606   5.330 -1.5009 -1.3309 -0.4856
 5262SOL    HW227423   0.519   4.564   5.470 -1.1879  0.5634  1.8038
 5263SOL     OW27424   2.802   4.453  17.431  0.1352  0.4104  0.1381
 5263SOL    HW127425   2.789   4.462  17.526 -0.5560  2.2767 -0.1376
 5263SOL    HW227426   2.817   4.360  17.414 -0.4549  0.0712  1.3790
 5264SOL     OW27427   4.288   1.842   3.723 -0.2677  0.0295 -0.3747
 5264SOL    HW127428   4.232   1.889   3.784  0.5082  0.0477  0.3090
 5264SOL    HW227429   4.221   1.832   3.655  1.0480 -0.1406 -1.6458
 5265SOL     OW27430   3.285   1.797   4.696 -0.1360  0.8180 -0.2841
 5265SOL    HW127431   3.353   1.734   4.716  0.8700  1.7268 -0.8363
 5265SOL    HW227432   3.268   1.837   4.782  0.9466 -0.2881  0.4526
 5266SOL     OW27433   3.870   2.794   8.649  0.3926 -0.1897 -0.0084
 5266SOL    HW127434   3.943   2.853   8.661  0.4757  0.3847 -3.2023
 5266SOL    HW227435   3.890   2.738   8.724 -1.6915 -0.6093  0.2618
 5267SOL     OW27436   4.251   2.618   7.296  0.0714 -0.6780  0.6815
 5267SOL    HW127437   4.200   2.667   7.361 -1.4329 -0.4354 -0.6943
 5267SOL    HW227438   4.201   2.539   7.278  0.7718 -0.3532 -2.7090
 5268SOL     OW27439   3.358   2.080  10.688  0.4474  0.3937  0.1323
 5268SOL    HW127440   3.414   2.003  10.680  1.7545  1.4449 -0.7692
 5268SOL    HW227441   3.340   2.093  10.595 -1.6803 -0.2892  0.4442
 5269SOL     OW27442   3.977   4.608   4.826  0.0283  0.1232  0.0579
 5269SOL    HW127443   3.994   4.514   4.828  0.1486  0.1434 -0.0244
 5269SOL    HW227444   4.064   4.636   4.797 -0.1633 -2.0945 -2.5881
 5270SOL     OW27445   3.671   0.660  13.339  0.0160 -0.2960 -0.1572
 5270SOL    HW127446   3.623   0.663  13.256  2.2684 -0.8271 -1.4979
 5270SOL    HW227447   3.726   0.582  13.323 -1.2511 -1.5660  1.7788
 5271SOL     OW27448   3.926   0.464  15.890  0.1877  0.0544  0.3540
 5271SOL    HW127449   3.937   0.489  15.982  0.4417 -1.7301  0.8164
 5271SOL    HW227450   3.936   0.369  15.897 -2.9492 -0.1152  2.2728
 5272SOL     OW27451   1.661   0.212  16.641 -0.0410 -0.0153 -0.5772
 5272SOL    HW127452   1.654   0.233  16.734 -2.4316  2.2343 -1.2651
 5272SOL    HW227453   1.745   0.250  16.614  1.1997 -2.1485  0.2934
 5273SOL     OW27454   3.836   1.681   3.724 -0.1790  0.5362  0.2691
 5273SOL    HW127455   3.854   1.774   3.738 -1.7943  0.7116  1.1608
 5273SOL    HW227456   3.868   1.632   3.799  0.8722  0.3781 -0.2737
 5274SOL     OW27457   1.945   4.364  16.138 -0.1737 -0.3573 -0.2835
 5274SOL    HW127458   1.912   4.422  16.207 -0.6228 -1.1186  0.1316
 5274SOL    HW227459   1.910   4.407  16.060  3.1916 -0.9873 -2.1443
 5275SOL     OW27460   3.024   2.784   6.633  0.3737  0.1984  0.0192
 5275SOL    HW127461   2.973   2.807   6.711  0.5995  1.2157 -0.1369
 5275SOL    HW227462   2.969   2.708   6.614  1.8167 -0.9199  0.3438
 5276SOL     OW27463   2.809   1.893   2.292 -0.3304  0.0872 -0.1309
 5276SOL    HW127464   2.840   1.882   2.203  2.2386 -1.2841  0.9307
 5276SOL    HW227465   2.727   1.845   2.282  0.7990 -1.8892  0.2936
 5277SOL     OW27466   0.265   3.765   7.323  0.3738  0.3309 -0.0938
 5277SOL    HW127467   0.200   3.830   7.348  0.1933  0.4195 -0.8076
 5277SOL    HW227468   0.295   3.720   7.402 -1.5903 -1.0406 -0.1426
 5278SOL     OW27469   0.697   3.956  12.919 -0.3678  0.6443 -0.6641
 5278SOL    HW127470   0.606   3.956  12.887 -0.5354 -3.1103 -0.2008
 5278SOL    HW227471   0.695   3.888  12.986  0.1309  1.5775  0.3004
 5279SOL     OW27472   1.214   0.176  10.250  0.2831  0.1482  0.1714
 5279SOL    HW127473   1.149   0.245  10.265  1.1489  0.7977  0.8795
 5279SOL    HW227474   1.156   0.118  10.200  0.2466  1.4679 -1.3282
 5280SOL     OW27475   4.094   4.611   1.218 -0.3517  0.3506  0.1894
 5280SOL    HW127476   4.141   4.553   1.278 -2.5514 -1.4959  0.1056
 5280SOL    HW227477   4.079   4.679   1.283  3.0237  1.0755  0.2460
 5281SOL     OW27478   2.828   0.886   5.708  0.2952  0.5691 -0.2023
 5281SOL    HW127479   2.754   0.893   5.648  1.2567 -2.0782 -1.6949
 5281SOL    HW227480   2.800   0.964   5.756 -0.6168 -0.1233  0.4005
 5282SOL     OW27481   1.888   1.550   3.976 -0.7024 -0.2799  0.2176
 5282SOL    HW127482   1.802   1.527   4.011 -0.6545 -3.6933 -1.9736
 5282SOL    HW227483   1.873   1.627   3.920 -1.0385 -0.3228  0.2472
 5283SOL     OW27484   4.523   1.286   3.399 -0.4265 -0.2750  0.1152
 5283SOL    HW127485   4.537   1.229   3.323 -0.2176  0.4316 -0.3829
 5283SOL    HW227486   4.435   1.323   3.385 -0.5105 -0.6134 -0.2448
 5284SOL     OW27487   4.012   2.963   8.171  0.3037  0.0788 -0.1826
 5284SOL    HW127488   3.944   2.922   8.224 -2.8084  0.6396 -3.6961
 5284SOL    HW227489   3.946   3.017   8.128 -1.1593 -0.5315  1.2667
 5285SOL     OW27490   4.447   2.942  10.280 -0.4015  0.6302  0.4432
 5285SOL    HW127491   4.438   2.914  10.189  1.6286 -2.2902  1.1311
 5285SOL    HW227492   4.479   3.031  10.267 -0.4967  0.7323  0.9173
 5286SOL     OW27493   3.120   1.699   4.182  0.1976 -0.1824 -0.5081
 5286SOL    HW127494   3.155   1.742   4.260 -2.1269  2.1688 -0.8031
 5286SOL    HW227495   3.139   1.760   4.110 -3.5752 -1.0802 -2.2465
 5287SOL     OW27496   0.453   0.735   5.379  0.5232  0.1676 -0.2996
 5287SOL    HW127497   0.492   0.791   5.447 -0.0692 -1.0765  1.0727
 5287SOL    HW227498   0.397   0.796   5.330  0.2358  0.9856  1.0404
 5288SOL     OW27499   4.534   2.319   8.164 -0.0065 -0.2858  0.2919
 5288SOL    HW127500   4.623   2.353   8.167  0.0106 -0.2126 -0.9121
 5288SOL    HW227501   4.541   2.240   8.217 -0.0747  0.5486  1.5445
 5289SOL     OW27502   2.826   4.013  17.184  0.2657  0.3132 -0.2991
 5289SOL    HW127503   2.892   4.031  17.117 -0.7063  3.4486 -0.4086
 5289SOL    HW227504   2.752   3.989  17.130 -1.7391  1.5217  1.9054
 5290SOL     OW27505   2.892   3.964   5.153 -0.4923  0.2570 -0.1752
 5290SOL    HW127506   2.889   3.871   5.172 -0.1812  0.5236  1.1394
 5290SOL    HW227507   2.912   4.001   5.239  2.7397  0.7452 -1.1396
 5291SOL     OW27508   4.072   3.438   4.493  0.2993  0.5030  0.3881
 5291SOL    HW127509   3.982   3.414   4.470 -0.8547  3.1663  2.1775
 5291SOL    HW227510   4.114   3.352   4.503 -0.9830  0.0225  1.6993
 5292SOL     OW27511   0.916   0.061  10.435 -0.2677 -0.5506  0.0037
 5292SOL    HW127512   0.972   4.724  10.413 -0.0373 -0.7388  1.1970
 5292SOL    HW227513   0.913   0.063  10.531  1.1740 -0.5136  0.0586
 5293SOL     OW27514   0.468   2.336   5.901 -0.1185  0.5427  0.4821
 5293SOL    HW127515   0.484   2.405   5.965 -1.6080  1.6353 -0.3154
 5293SOL    HW227516   0.556   2.300   5.898 -1.3875 -2.3936 -1.4880
 5294SOL     OW27517   0.156   1.401  13.444  0.1215 -0.9254  0.1149
 5294SOL    HW127518   0.071   1.359  13.436 -0.8169  1.1853 -1.1497
 5294SOL    HW227519   0.194   1.387  13.357  0.2559 -0.0953  0.0308
 5295SOL     OW27520   2.456   0.904   6.326 -0.1115  0.6092 -0.1912
 5295SOL    HW127521   2.422   0.820   6.357  1.1325  0.2594  0.2511
 5295SOL    HW227522   2.451   0.889   6.231 -1.2599 -1.6724  0.2197
 5296SOL     OW27523   1.011   3.983   2.920 -0.2826 -0.7460 -0.1313
 5296SOL    HW127524   1.010   4.077   2.941 -2.6148 -0.9466  0.7109
 5296SOL    HW227525   1.099   3.957   2.949  1.5575  4.1694 -1.3643
 5297SOL     OW27526   0.415   2.489  16.379  0.0504 -0.2557 -0.0600
 5297SOL    HW127527   0.402   2.400  16.347 -1.2661 -0.3047  0.6145
 5297SOL    HW227528   0.492   2.476  16.435 -3.1576 -2.4425  3.8396
 5298SOL     OW27529   3.003   0.242   8.434 -0.1490 -0.1989 -0.6631
 5298SOL    HW127530   3.047   0.171   8.388 -0.2590 -0.6952  0.0003
 5298SOL    HW227531   2.914   0.207   8.431  0.5336 -2.0794  1.8905
 5299SOL     OW27532   2.848   0.975   8.330  0.4799  0.3375  0.3882
 5299SOL    HW127533   2.794   0.917   8.383 -1.8995  0.2246 -2.1664
 5299SOL    HW227534   2.815   0.964   8.241 -1.0497  1.8422  0.7703
 5300SOL     OW27535   1.350   3.382   4.097  0.4578 -0.0459  0.1394
 5300SOL    HW127536   1.309   3.372   4.011 -0.8881 -0.8204  0.8695
 5300SOL    HW227537   1.429   3.432   4.078  0.3986 -0.7632 -1.9564
 5301SOL     OW27538   3.422   3.909   2.486  0.3484 -0.4401 -0.1462
 5301SOL    HW127539   3.459   3.919   2.398  0.9675 -1.8340 -0.0521
 5301SOL    HW227540   3.384   3.821   2.489  0.1061 -0.3249  0.2372
 5302SOL     OW27541   0.401   3.521  16.342  0.2447  0.4979  0.0562
 5302SOL    HW127542   0.332   3.504  16.277 -0.0769  0.6241  0.3633
 5302SOL    HW227543   0.415   3.615  16.338 -0.2093  0.5490 -0.3508
 5303SOL     OW27544   0.642   2.048   7.071 -0.4749  0.3025  0.2283
 5303SOL    HW127545   0.689   2.078   6.993  0.3220  0.9937  0.9646
 5303SOL    HW227546   0.656   1.954   7.060  2.9351  0.8275 -0.1334
 5304SOL     OW27547   2.431   1.881   9.170  0.2817  0.3028  0.3252
 5304SOL    HW127548   2.499   1.921   9.117 -1.3406  1.8362 -0.6124
 5304SOL    HW227549   2.438   1.792   9.135  0.0716 -0.6865  2.7837
 5305SOL     OW27550   1.801   0.039   1.936  0.1415  0.5851  0.7208
 5305SOL    HW127551   1.718   0.014   1.978 -1.5646 -0.6530 -3.3103
 5305SOL    HW227552   1.857   4.728   1.996  2.3984  2.1165 -0.1445
 5306SOL     OW27553   2.111   4.607  10.817 -0.0613 -0.4871 -0.4217
 5306SOL    HW127554   2.101   4.555  10.737  0.9562  0.4962 -1.2007
 5306SOL    HW227555   2.022   4.638  10.833  0.3803  0.7810 -0.4127
 5307SOL     OW27556   0.543   2.160   8.696  0.1588  0.0664  0.3190
 5307SOL    HW127557   0.613   2.200   8.747  0.1232  0.2115  0.2521
 5307SOL    HW227558   0.554   2.194   8.607  0.9014 -0.4790  0.1972
 5308SOL     OW27559   2.518   2.738   5.837  0.1216  0.2000 -0.1836
 5308SOL    HW127560   2.581   2.699   5.776 -1.2137 -0.3230 -1.2062
 5308SOL    HW227561   2.521   2.662   5.894 -1.6290  1.1675  1.1758
 5309SOL     OW27562   1.207   2.390   0.585 -0.0716  0.2763 -0.5121
 5309SOL    HW127563   1.137   2.363   0.644  1.0507  0.8842  1.1204
 5309SOL    HW227564   1.161   2.451   0.528 -3.9258 -1.5328  0.6675
 5310SOL     OW27565   0.457   3.254   3.054 -0.3982  0.0528 -0.4920
 5310SOL    HW127566   0.534   3.197   3.054 -0.3202  0.1592 -1.7728
 5310SOL    HW227567   0.417   3.232   3.138  0.2084  1.2955  0.1207
 5311SOL     OW27568   0.512   1.582   8.191  0.2522 -0.0339  0.1756
 5311SOL    HW127569   0.607   1.571   8.203  0.4479  1.4907  0.0020
 5311SOL    HW227570   0.479   1.499   8.227  0.7205 -0.2437  0.1322
 5312SOL     OW27571   2.594   1.359   8.901  0.5804 -0.0845  0.5321
 5312SOL    HW127572   2.549   1.401   8.827 -0.5951 -2.6679 -0.2377
 5312SOL    HW227573   2.680   1.359   8.859  0.0849  1.8308 -0.5022
 5313SOL     OW27574   1.719   2.777   9.172  0.6395  0.4448 -0.1945
 5313SOL    HW127575   1.774   2.815   9.103  0.2759  0.7898 -0.2946
 5313SOL    HW227576   1.733   2.682   9.175  0.4844  0.4194 -0.2455
 5314SOL     OW27577   1.898   4.497  15.890 -0.1491  0.7366 -0.1854
 5314SOL    HW127578   1.828   4.544  15.847 -1.8584 -1.0893  0.6015
 5314SOL    HW227579   1.958   4.487  15.816 -0.9139  2.0062 -0.9635
 5315SOL     OW27580   2.980   2.844   2.692 -0.6003 -0.6562  0.5312
 5315SOL    HW127581   2.997   2.925   2.741 -0.2450 -0.1500 -0.4431
 5315SOL    HW227582   3.017   2.873   2.609 -0.3433  0.7257  1.1115
 5316SOL     OW27583   0.948   2.530   4.571  0.3227  0.6341  0.6828
 5316SOL    HW127584   0.929   2.595   4.504  0.5150  0.2520  0.2586
 5316SOL    HW227585   0.870   2.542   4.626 -0.0352  0.5407  0.2035
 5317SOL     OW27586   1.535   4.566   7.798  0.0147  0.3131 -0.4752
 5317SOL    HW127587   1.581   4.482   7.793 -1.4663 -0.6234  1.7080
 5317SOL    HW227588   1.590   4.620   7.855 -0.0506  1.6313 -1.6645
 5318SOL     OW27589   1.454   1.651   5.706  0.3931  0.4971  0.1230
 5318SOL    HW127590   1.495   1.718   5.651 -0.4515 -0.8417 -2.1343
 5318SOL    HW227591   1.523   1.631   5.769  0.3750  1.4790  0.4494
 5319SOL     OW27592   1.470   2.956   0.343  0.1339 -0.1937  0.2421
 5319SOL    HW127593   1.431   2.910   0.417  0.2431  0.5761  0.7746
 5319SOL    HW227594   1.525   2.887   0.305  1.0499  0.9705 -0.5124
 5320SOL     OW27595   3.904   4.622   4.482 -0.3136  0.4917  0.4039
 5320SOL    HW127596   3.932   4.673   4.559  1.9676 -2.3035  1.4103
 5320SOL    HW227597   3.981   4.638   4.428  0.8245 -0.6569  1.6915
 5321SOL     OW27598   4.607   3.763   7.480 -0.2788  0.3160  0.2238
 5321SOL    HW127599   4.606   3.843   7.534  1.1176  0.1572  0.4814
 5321SOL    HW227600   4.601   3.703   7.554 -0.0349 -0.6805 -0.5652
 5322SOL     OW27601   3.640   4.594   7.658 -0.3656 -0.2631  0.2824
 5322SOL    HW127602   3.629   4.562   7.748 -2.8629  0.4190  0.2114
 5322SOL    HW227603   3.709   4.658   7.677 -1.2235  0.3557  1.3610
 5323SOL     OW27604   2.731   0.853   1.655 -0.0324 -0.0680 -0.3050
 5323SOL    HW127605   2.775   0.868   1.572 -3.5087  1.9619 -1.7739
 5323SOL    HW227606   2.638   0.852   1.636 -0.1981 -1.2231  0.5370
 5324SOL     OW27607   0.028   3.857   8.317  0.3234 -0.2329 -0.5187
 5324SOL    HW127608   0.057   3.766   8.313 -1.5331 -0.8888  0.6620
 5324SOL    HW227609   4.710   3.862   8.240 -0.3625  3.2910  0.1866
 5325SOL     OW27610   0.511   4.117   5.618 -0.2308 -0.0114  0.5116
 5325SOL    HW127611   0.508   4.065   5.698 -2.5785  0.1028  0.5175
 5325SOL    HW227612   0.596   4.158   5.631 -0.5758  0.2230  1.9715
 5326SOL     OW27613   3.861   2.133   5.756 -0.0266 -0.6733  0.0739
 5326SOL    HW127614   3.830   2.048   5.727  1.6374 -1.9303  1.9884
 5326SOL    HW227615   3.796   2.156   5.822  0.2279  1.0793 -0.2701
 5327SOL     OW27616   2.131   0.195  14.646 -0.0209 -0.3777 -0.2495
 5327SOL    HW127617   2.091   0.151  14.571  3.3770 -0.9148 -1.7547
 5327SOL    HW227618   2.224   0.175  14.640  0.2484  0.8254 -0.1723
 5328SOL     OW27619   3.597   3.594   3.047 -0.4401  0.3871  0.0309
 5328SOL    HW127620   3.624   3.686   3.053 -1.3601  0.5547  1.6836
 5328SOL    HW227621   3.585   3.562   3.136 -0.7912  1.1405  0.2585
 5329SOL     OW27622   3.537   1.066   7.693  0.1380 -0.4966 -0.0576
 5329SOL    HW127623   3.632   1.071   7.702  0.1752  0.3313 -1.0220
 5329SOL    HW227624   3.527   0.990   7.751 -0.1147 -0.7453 -0.4310
 5330SOL     OW27625   0.902   0.796   1.843  0.2487  0.7273  0.3689
 5330SOL    HW127626   0.852   0.717   1.821  1.2906 -0.3564  1.8602
 5330SOL    HW227627   0.991   0.783   1.809  0.5338  2.0904  0.5856
 5331SOL     OW27628   0.803   0.049   6.295 -0.0184 -0.0215  0.1466
 5331SOL    HW127629   0.743   0.001   6.353 -0.6749  0.4279 -0.1617
 5331SOL    HW227630   0.794   0.142   6.316 -1.3643 -0.6739  2.4084
 5332SOL     OW27631   1.462   4.126   5.680  0.4637  0.3787 -0.0737
 5332SOL    HW127632   1.525   4.187   5.644 -0.0425  1.2331  0.4933
 5332SOL    HW227633   1.482   4.137   5.773 -0.5798  0.0891  0.1931
 5333SOL     OW27634   1.695   2.967   4.957  0.1628  0.0989 -0.5450
 5333SOL    HW127635   1.761   2.956   4.887  0.0561 -1.5246 -0.3793
 5333SOL    HW227636   1.703   3.062   4.967  0.7801  0.1561 -1.5389
 5334SOL     OW27637   0.468   0.684  16.480  0.2241  0.7232 -0.3307
 5334SOL    HW127638   0.373   0.683  16.483  0.1929  1.1592 -1.0670
 5334SOL    HW227639   0.484   0.655  16.390 -2.6336 -0.3595 -0.4574
 5335SOL     OW27640   2.364   3.452  15.405  0.4788  0.1413  0.0789
 5335SOL    HW127641   2.350   3.526  15.345  0.6907  1.1420  1.2698
 5335SOL    HW227642   2.423   3.496  15.466 -1.6660  2.1163  0.7683
 5336SOL     OW27643   3.255   4.565   7.256  0.4981  0.0435 -0.0164
 5336SOL    HW127644   3.179   4.557   7.314  1.4504 -0.7131  1.1311
 5336SOL    HW227645   3.320   4.569   7.326  2.0611  0.7167 -1.5053
 5337SOL     OW27646   1.591   3.568  17.430 -0.0468 -0.2282 -0.3369
 5337SOL    HW127647   1.537   3.497  17.464 -1.6269  1.8291  1.4183
 5337SOL    HW227648   1.544   3.628  17.373  1.0174  0.3882 -0.5739
 5338SOL     OW27649   0.540   1.683   7.251  0.2921  0.3864 -0.1176
 5338SOL    HW127650   0.557   1.729   7.169 -1.6912 -1.9701 -1.8101
 5338SOL    HW227651   0.626   1.705   7.288 -0.1366 -0.9648  1.7059
 5339SOL     OW27652   2.987   1.405   7.769 -0.2579 -0.6284 -0.0487
 5339SOL    HW127653   3.076   1.415   7.805 -0.2335 -1.6305  0.1614
 5339SOL    HW227654   2.935   1.474   7.810  2.0555 -1.1738  3.7919
 5340SOL     OW27655   1.120   1.290   7.611 -0.1586 -0.0534 -0.1526
 5340SOL    HW127656   1.182   1.362   7.624  0.1441 -0.5298  1.0071
 5340SOL    HW227657   1.136   1.271   7.519 -0.3613 -0.2349 -0.1491
 5341SOL     OW27658   1.779   2.123  10.715  0.2762 -0.2464 -0.2558
 5341SOL    HW127659   1.814   2.148  10.630  0.3403 -1.9920 -0.7490
 5341SOL    HW227660   1.861   2.092  10.754 -0.5422 -0.0305  1.6477
 5342SOL     OW27661   3.215   4.531   0.801  0.3499  0.5252  0.1433
 5342SOL    HW127662   3.184   4.441   0.797 -1.1288  1.0080  0.6041
 5342SOL    HW227663   3.240   4.541   0.709  0.3225 -0.4877  0.0278
 5343SOL     OW27664   3.348   2.988   7.232 -0.4139 -0.1460 -0.2848
 5343SOL    HW127665   3.282   3.054   7.252 -0.7003  0.3389 -2.9011
 5343SOL    HW227666   3.299   2.909   7.209 -2.2397  0.5350  1.2605
 5344SOL     OW27667   1.468   1.865   8.447  0.4579  0.3289 -0.3243
 5344SOL    HW127668   1.417   1.822   8.378 -0.2687 -0.2055  0.5402
 5344SOL    HW227669   1.459   1.810   8.525 -1.8835 -2.6008 -2.6390
 5345SOL     OW27670   0.166   0.573   8.358  0.5377 -0.1176 -0.1510
 5345SOL    HW127671   0.176   0.610   8.270 -1.9187 -0.5259 -0.6150
 5345SOL    HW227672   0.163   0.648   8.418 -3.3422  0.2341 -0.7697
 5346SOL     OW27673   0.159   3.599   3.531  0.2017  0.2325  0.0876
 5346SOL    HW127674   0.202   3.569   3.451  1.0431 -0.7156  0.8891
 5346SOL    HW227675   0.184   3.528   3.590  3.5969  0.1516 -1.4449
 5347SOL     OW27676   0.253   1.097  10.091 -0.2687  0.2510  0.1205
 5347SOL    HW127677   0.274   1.074  10.181 -2.2455 -0.0068  0.5100
 5347SOL    HW227678   0.170   1.049  10.088  0.2504 -0.6467  0.1038
 5348SOL     OW27679   3.551   4.451   4.883 -0.2976  0.0330 -0.1800
 5348SOL    HW127680   3.524   4.538   4.913 -0.1808  0.7625 -2.1839
 5348SOL    HW227681   3.489   4.431   4.813 -0.8742  0.4774  0.2003
 5349SOL     OW27682   0.941   4.450   7.285 -0.8360  0.0272 -0.1932
 5349SOL    HW127683   0.966   4.501   7.208 -1.0345  0.7228  0.2029
 5349SOL    HW227684   0.944   4.357   7.263  2.4880  0.4304 -1.4645
 5350SOL     OW27685   2.257   1.689   8.763  0.3487  0.2675 -0.3850
 5350SOL    HW127686   2.346   1.684   8.728  0.4911  1.2169 -0.1485
 5350SOL    HW227687   2.267   1.713   8.855 -1.0757 -0.4984 -0.0158
 5351SOL     OW27688   3.673   2.259   5.528  0.4880  0.0289 -0.3175
 5351SOL    HW127689   3.618   2.300   5.594  1.0026 -1.1796  0.8730
 5351SOL    HW227690   3.733   2.214   5.589 -0.7535 -2.6753 -1.0701
 5352SOL     OW27691   0.626   1.374   2.972  0.8569  0.5472  0.2124
 5352SOL    HW127692   0.673   1.318   2.910  0.5109 -2.7791  2.9804
 5352SOL    HW227693   0.561   1.307   2.992  2.0875 -1.2439 -1.7555
 5353SOL     OW27694   3.040   3.941   8.320 -0.7683  0.3829  0.1783
 5353SOL    HW127695   3.014   4.010   8.382 -1.7679 -1.6110  1.9672
 5353SOL    HW227696   2.985   3.943   8.242 -3.0875 -0.6790  1.7946
 5354SOL     OW27697   3.333   1.229  17.481 -0.6075  0.3597  0.2021
 5354SOL    HW127698   3.306   1.265  17.396  1.9271  4.6131  1.2206
 5354SOL    HW227699   3.422   1.262  17.490 -0.1366 -0.8535 -0.0340
 5355SOL     OW27700   1.458   3.423   2.510 -0.4361  0.2214 -0.2707
 5355SOL    HW127701   1.527   3.357   2.507 -1.2306 -0.6881  1.3323
 5355SOL    HW227702   1.401   3.390   2.580 -1.5025 -0.2546 -1.3369
 5356SOL     OW27703   0.979   3.651   1.881 -0.1571  0.4379  0.4169
 5356SOL    HW127704   0.960   3.719   1.945  0.1817  0.4535  0.5020
 5356SOL    HW227705   0.895   3.628   1.841  0.0239  3.1239 -1.5193
 5357SOL     OW27706   0.049   1.521   6.198 -0.3338 -0.0450  0.0551
 5357SOL    HW127707   0.086   1.500   6.284 -0.5380 -1.3400 -0.1781
 5357SOL    HW227708   4.737   1.596   6.231 -0.2081 -0.5192  1.3136
 5358SOL     OW27709   0.051   1.138  14.406  0.5430  0.0476 -1.3874
 5358SOL    HW127710   0.118   1.166  14.468 -0.7401 -0.4565  0.2371
 5358SOL    HW227711   4.715   1.190  14.439  0.7098 -0.8850  0.5081
 5359SOL     OW27712   3.892   1.923   2.441 -0.3804  0.2838  0.0582
 5359SOL    HW127713   3.921   2.005   2.481  1.3228 -0.8245  1.1257
 5359SOL    HW227714   3.904   1.941   2.348  2.2226  0.4600  0.4025
 5360SOL     OW27715   1.424   3.899   4.892  0.2828  0.2197 -0.4011
 5360SOL    HW127716   1.434   3.845   4.814  3.1827  1.0432 -0.6163
 5360SOL    HW227717   1.490   3.969   4.886  0.3598  0.1498 -0.3699
 5361SOL     OW27718   0.362   4.648   3.954 -0.2078 -0.6932 -0.2766
 5361SOL    HW127719   0.456   4.661   3.939 -0.2531 -1.3422 -1.1402
 5361SOL    HW227720   0.336   4.736   3.981 -0.2226  0.2335 -3.2589
 5362SOL     OW27721   4.713   3.607   1.702  0.1180  0.1976  0.9779
 5362SOL    HW127722   4.628   3.590   1.743  0.3432 -0.3578  1.2144
 5362SOL    HW227723   4.721   3.702   1.708 -1.5227  0.4607 -0.8187
 5363SOL     OW27724   2.070   1.557   1.728  1.0155 -0.1651 -0.3664
 5363SOL    HW127725   2.113   1.600   1.802  0.5511  0.9886 -0.7546
 5363SOL    HW227726   2.101   1.468   1.746  0.9568  0.2194  1.6403
 5364SOL     OW27727   0.284   0.834   9.051  0.3489  0.4813 -0.3769
 5364SOL    HW127728   0.302   0.846   9.144 -1.6727  0.3923  0.0193
 5364SOL    HW227729   0.313   0.745   9.034 -0.1717  0.3613 -0.6418
 5365SOL     OW27730   4.417   0.586  14.920  0.0318 -0.6440  0.0187
 5365SOL    HW127731   4.475   0.574  14.845  1.2413  2.2490  0.4738
 5365SOL    HW227732   4.475   0.548  14.986 -0.3046 -0.5249  0.3827
 5366SOL     OW27733   3.832   1.912  13.887  0.2068  0.5733 -0.4671
 5366SOL    HW127734   3.818   1.873  13.974  0.6879 -2.2564 -1.6623
 5366SOL    HW227735   3.855   1.837  13.832 -4.0717 -0.6554 -0.5754
 5367SOL     OW27736   0.925   3.518   6.995 -0.1623  0.2202 -0.0571
 5367SOL    HW127737   0.860   3.530   7.064  0.2934 -1.6422  0.6882
 5367SOL    HW227738   0.964   3.435   7.024 -1.0262  0.3689  1.5309
 5368SOL     OW27739   0.158   1.322   3.116 -0.1079 -0.1451 -0.4427
 5368SOL    HW127740   0.117   1.403   3.086  0.5869  0.2258 -0.4100
 5368SOL    HW227741   0.149   1.263   3.041  0.6744  0.6499 -1.1682
 5369SOL     OW27742   1.993   2.002   0.828  0.0836  0.3641  0.1801
 5369SOL    HW127743   2.085   1.994   0.802  0.1638  0.6878  0.3600
 5369SOL    HW227744   2.000   2.096   0.845 -3.8039  0.6723 -0.0627
 5370SOL     OW27745   2.105   4.089   0.882 -0.4696  0.6085  0.1474
 5370SOL    HW127746   2.134   4.175   0.849 -0.9826  0.4634 -0.6875
 5370SOL    HW227747   2.188   4.049   0.910 -1.4075 -0.1378  1.8200
 5371SOL     OW27748   0.306   2.010  13.243  0.2521  0.1337  0.3850
 5371SOL    HW127749   0.348   1.938  13.196 -1.2112  0.1356 -0.9216
 5371SOL    HW227750   0.338   2.006  13.333 -0.6745  0.4760  0.7313
 5372SOL     OW27751   1.643   0.004   3.508 -0.0825  0.2187 -0.1858
 5372SOL    HW127752   1.644   0.098   3.527 -0.7087  0.1934 -0.0122
 5372SOL    HW227753   1.702   4.737   3.433  0.4915  2.1368  0.1366
 5373SOL     OW27754   2.947   2.293   1.728 -0.1665 -0.8716  0.7768
 5373SOL    HW127755   2.977   2.301   1.637  1.4952  0.2864  1.4270
 5373SOL    HW227756   3.023   2.289   1.786  1.3952 -0.2718 -1.2107
 5374SOL     OW27757   0.030   3.151   3.325 -0.1614  0.0506 -0.4658
 5374SOL    HW127758   0.101   3.205   3.291 -0.8374  0.4124 -1.2710
 5374SOL    HW227759   0.057   3.059   3.334  1.2655  0.6090  1.0828
 5375SOL     OW27760   4.413   0.290   3.569  0.4983 -0.0715 -0.0683
 5375SOL    HW127761   4.486   0.334   3.612  3.4109 -1.5582 -3.5368
 5375SOL    HW227762   4.460   0.264   3.490  0.5707  0.2877 -0.1435
 5376SOL     OW27763   2.704   1.819   2.864 -0.0753  0.2924  0.0005
 5376SOL    HW127764   2.796   1.812   2.888 -0.5436 -1.9728  1.1630
 5376SOL    HW227765   2.672   1.810   2.953  1.0215 -2.0198  0.1452
 5377SOL     OW27766   0.101   3.041   4.910  0.8248 -0.3030  0.3072
 5377SOL    HW127767   0.063   2.960   4.945 -0.9313 -0.1247 -1.1886
 5377SOL    HW227768   0.128   3.009   4.824 -1.7336 -0.4182 -0.4660
 5378SOL     OW27769   0.422   4.551   9.162 -0.0985  0.1722  0.5068
 5378SOL    HW127770   0.341   4.572   9.116 -0.2952  1.8282  1.6155
 5378SOL    HW227771   0.419   4.457   9.183 -0.6670 -0.0353 -0.4905
 5379SOL     OW27772   2.569   1.275  13.364 -0.5082 -0.1274 -0.3624
 5379SOL    HW127773   2.546   1.367  13.377 -2.2954 -0.4376 -1.2196
 5379SOL    HW227774   2.655   1.281  13.324 -0.0135  1.7430  1.0001
 5380SOL     OW27775   1.815   3.527   7.295 -0.0033  0.0742 -0.1186
 5380SOL    HW127776   1.741   3.587   7.289 -0.5864 -0.7374 -0.9390
 5380SOL    HW227777   1.838   3.521   7.202 -0.0108 -1.8051  0.0130
 5381SOL     OW27778   4.079   3.399   8.593  0.1675 -0.0944  0.1153
 5381SOL    HW127779   4.074   3.312   8.632  1.4207 -1.1486 -2.0937
 5381SOL    HW227780   4.020   3.380   8.519  0.2599 -1.9466  0.5155
 5382SOL     OW27781   0.292   0.698   2.408 -0.1583  0.2783 -0.2308
 5382SOL    HW127782   0.238   0.722   2.483  0.3936 -1.1155  0.6191
 5382SOL    HW227783   0.236   0.697   2.331 -0.6470 -1.0262  0.1444
 5383SOL     OW27784   2.038   2.567   2.672  0.1871  0.3320 -0.4047
 5383SOL    HW127785   1.947   2.543   2.656  0.3389 -0.4968 -0.0057
 5383SOL    HW227786   2.047   2.510   2.748  1.2104 -0.8430 -1.4086
 5384SOL     OW27787   1.143   2.313   7.581  0.0898  0.2904  0.4745
 5384SOL    HW127788   1.158   2.223   7.552 -0.5744  0.0811  0.7720
 5384SOL    HW227789   1.200   2.339   7.654 -0.0763  1.1487  0.3051
 5385SOL     OW27790   2.893   4.576   2.045  0.2634  0.1205  0.1285
 5385SOL    HW127791   2.861   4.644   1.986 -0.7199  0.0742  0.6142
 5385SOL    HW227792   2.855   4.599   2.130  1.5999  2.5995  0.0578
 5386SOL     OW27793   0.346   3.597   4.062  0.3728  0.0694 -0.0063
 5386SOL    HW127794   0.277   3.618   3.999  0.1171 -0.9145 -0.0607
 5386SOL    HW227795   0.298   3.603   4.144 -0.5537  1.7010 -0.6604
 5387SOL     OW27796   2.850   1.334   4.834  0.4597 -0.4929  0.0972
 5387SOL    HW127797   2.785   1.403   4.817  0.8652  0.1839  1.3177
 5387SOL    HW227798   2.795   1.255   4.836  0.8510 -0.8682 -3.5971
 5388SOL     OW27799   2.042   0.758   2.021  0.4259 -0.3255 -0.7650
 5388SOL    HW127800   1.958   0.720   2.048  1.1337 -1.0520  0.4438
 5388SOL    HW227801   2.108   0.692   2.044 -0.1260 -0.7512 -0.4009
 5389SOL     OW27802   3.851   1.497  10.059 -0.1595 -0.9891  0.1149
 5389SOL    HW127803   3.888   1.440  10.127 -1.0615  0.5152  1.8672
 5389SOL    HW227804   3.793   1.433  10.018  2.4136 -0.5374 -4.1597
 5390SOL     OW27805   4.365   1.176   0.627 -0.0701  0.1162  0.1543
 5390SOL    HW127806   4.344   1.193   0.719  1.6044  3.0004 -0.0135
 5390SOL    HW227807   4.386   1.082   0.628  1.0023  0.3638  0.4199
 5391SOL     OW27808   2.236   0.976  14.286  0.0119  0.5222 -0.6344
 5391SOL    HW127809   2.249   0.893  14.240  0.7119  0.7987 -0.9316
 5391SOL    HW227810   2.271   1.035  14.219  3.2407 -0.0872  0.5006
 5392SOL     OW27811   4.539   0.451   0.436  0.3023  0.4307 -0.5287
 5392SOL    HW127812   4.557   0.469   0.344  0.6036 -1.7544 -0.9134
 5392SOL    HW227813   4.444   0.463   0.431  0.3921  0.9558 -0.9744
 5393SOL     OW27814   3.892   4.185   6.891 -0.4803 -0.5464  1.0460
 5393SOL    HW127815   3.928   4.252   6.949  0.0050 -0.9759  1.2394
 5393SOL    HW227816   3.960   4.155   6.830 -1.4520  0.2383 -0.4124
 5394SOL     OW27817   0.941   0.800   6.048  0.1461  0.3706  0.6087
 5394SOL    HW127818   0.965   0.889   6.074 -1.5968  0.7299  0.9770
 5394SOL    HW227819   0.859   0.816   6.001  0.5920  1.0228  0.0672
 5395SOL     OW27820   4.314   2.824  16.885 -0.8756  0.3873 -0.1735
 5395SOL    HW127821   4.356   2.895  16.835 -1.4551  0.2683 -0.8368
 5395SOL    HW227822   4.357   2.839  16.969 -2.6017 -0.9112  0.9251
 5396SOL     OW27823   3.197   2.893  17.701  0.7368  0.5733 -0.2458
 5396SOL    HW127824   3.200   2.986  17.721  0.6130  0.4310  0.4698
 5396SOL    HW227825   3.128   2.855   0.008  0.8247  2.9776  1.5055
 5397SOL     OW27826   1.443   1.930   3.185  0.3066 -0.0765 -0.2919
 5397SOL    HW127827   1.411   2.000   3.128 -1.2513 -1.4945 -1.1471
 5397SOL    HW227828   1.426   1.852   3.133 -0.1735 -1.5710  2.0925
 5398SOL     OW27829   2.356   3.265   2.184 -0.0071  0.0964  0.2375
 5398SOL    HW127830   2.298   3.206   2.232 -1.0402  0.5440 -0.4556
 5398SOL    HW227831   2.422   3.283   2.251  1.1829  2.9015 -1.6977
 5399SOL     OW27832   1.034   1.982   6.975 -0.4772 -0.1117 -0.0020
 5399SOL    HW127833   0.974   2.022   7.038 -0.6613 -0.7908  0.2514
 5399SOL    HW227834   1.110   2.040   6.973 -0.8936  0.3255 -2.2007
 5400SOL     OW27835   1.802   1.598  10.776  0.4431  0.0522  0.0155
 5400SOL    HW127836   1.805   1.635  10.864  2.1818  1.7208 -0.7489
 5400SOL    HW227837   1.777   1.510  10.802 -0.5480  0.0605 -0.9095
 5401SOL     OW27838   1.873   0.984   1.706  0.0168  0.4674  0.3678
 5401SOL    HW127839   1.816   0.917   1.667  2.1081 -1.4148  0.5951
 5401SOL    HW227840   1.806   1.053   1.706 -0.0263  0.4171 -2.6581
 5402SOL     OW27841   2.935   4.172  12.380 -0.3115  0.1155  0.1756
 5402SOL    HW127842   2.982   4.214  12.452  0.6143  1.2433 -1.0820
 5402SOL    HW227843   2.891   4.096  12.418 -1.6058  1.6401  1.7080
 5403SOL     OW27844   4.249   1.189   4.900 -0.3973 -0.8357  0.0597
 5403SOL    HW127845   4.316   1.120   4.891 -1.5895 -1.6992 -2.2678
 5403SOL    HW227846   4.277   1.230   4.982  0.4433 -0.6896 -0.2912
 5404SOL     OW27847   3.919   2.313   2.496  0.6750 -0.3320 -0.1935
 5404SOL    HW127848   3.974   2.238   2.520 -0.0961 -1.4237 -1.8297
 5404SOL    HW227849   3.985   2.377   2.472 -0.8186  0.9901 -0.7542
 5405SOL     OW27850   3.793   1.146   7.807  0.4030 -0.5095 -0.0953
 5405SOL    HW127851   3.797   1.226   7.859 -1.8819 -1.4656  1.5731
 5405SOL    HW227852   3.837   1.081   7.861  0.9925  1.4260  1.7657
 5406SOL     OW27853   1.130   2.693   6.580  0.2266  0.4935  0.4911
 5406SOL    HW127854   1.156   2.678   6.488 -0.7965  1.1330  0.1026
 5406SOL    HW227855   1.209   2.747   6.591 -0.3156  1.3377  0.2167
 5407SOL     OW27856   0.271   1.687   0.422 -0.0522 -0.2934 -0.0431
 5407SOL    HW127857   0.265   1.660   0.513 -0.4061 -1.6769 -0.4806
 5407SOL    HW227858   0.230   1.604   0.400 -0.2759 -0.0617 -0.5145
 5408SOL     OW27859   0.818   3.080  11.780  0.4247 -0.2330  0.2361
 5408SOL    HW127860   0.875   3.024  11.833 -0.5247  0.6270  2.1796
 5408SOL    HW227861   0.870   3.066  11.701  0.0981 -1.2345  0.2021
 5409SOL     OW27862   2.734   4.515  14.029 -0.0922 -0.4530 -0.5066
 5409SOL    HW127863   2.725   4.579  13.958 -0.0699  0.7963  0.6332
 5409SOL    HW227864   2.671   4.539  14.097 -0.6478  0.8866 -1.4939
 5410SOL     OW27865   2.531   3.069   3.086 -0.1327 -0.0949 -0.0562
 5410SOL    HW127866   2.492   3.147   3.046 -0.2737 -0.4364 -0.5724
 5410SOL    HW227867   2.607   3.055   3.030  0.3038  0.3570  0.4200
 5411SOL     OW27868   3.968   4.649  17.143 -0.2044 -0.4608  0.0312
 5411SOL    HW127869   3.969   4.706  17.066 -0.4503 -0.3922  0.0779
 5411SOL    HW227870   3.873   4.650  17.153 -0.1008  1.4664  0.7854
 5412SOL     OW27871   1.954   4.723  11.292  0.0262 -0.8603 -0.4906
 5412SOL    HW127872   1.993   4.636  11.289  0.0517 -0.8938  0.7310
 5412SOL    HW227873   1.908   4.723  11.208  0.1990  1.4371 -0.5854
 5413SOL     OW27874   4.257   4.049   3.468  0.2564  0.2546 -0.1309
 5413SOL    HW127875   4.324   4.005   3.414 -0.7201 -0.4511 -0.7651
 5413SOL    HW227876   4.300   4.132   3.488 -1.9726  1.4044 -0.1513
 5414SOL     OW27877   2.792   1.221   2.447 -0.1111 -0.3716 -0.5204
 5414SOL    HW127878   2.819   1.134   2.477  2.6814  1.0277  1.0129
 5414SOL    HW227879   2.783   1.277   2.525 -3.0186  1.4992 -2.1965
 5415SOL     OW27880   0.276   4.264  16.596 -0.4503 -0.4995 -0.5144
 5415SOL    HW127881   0.245   4.204  16.664  0.4163 -1.1830 -0.7255
 5415SOL    HW227882   0.212   4.335  16.605 -0.5404 -0.7122  0.5427
 5416SOL     OW27883   0.173   1.114   2.098  0.5264 -0.0390  0.2342
 5416SOL    HW127884   0.213   1.027   2.101  0.6313  0.1018  2.4307
 5416SOL    HW227885   0.121   1.109   2.178  0.1295 -2.7539 -0.1753
 5417SOL     OW27886   4.134   1.595   6.032 -0.4248 -0.1702 -0.0159
 5417SOL    HW127887   4.122   1.666   5.969  0.7285 -1.7499 -2.0270
 5417SOL    HW227888   4.076   1.616   6.105  0.2599 -1.1956  0.8180
 5418SOL     OW27889   1.518   2.721   4.681 -0.2830  0.0538 -0.0056
 5418SOL    HW127890   1.457   2.677   4.741 -0.6950  2.9391  1.6675
 5418SOL    HW227891   1.475   2.806   4.675  0.1835  0.3059  0.2712
 5419SOL     OW27892   1.728   1.794   1.847  0.3071 -0.2186  0.1898
 5419SOL    HW127893   1.659   1.729   1.832  2.6922 -2.3406 -1.3623
 5419SOL    HW227894   1.784   1.772   1.773 -0.2645  0.8024 -0.5490
 5420SOL     OW27895   1.222   0.947   8.088 -0.3267 -0.1773  0.9565
 5420SOL    HW127896   1.256   0.935   8.000 -1.1112 -0.8388  0.7370
 5420SOL    HW227897   1.270   0.876   8.132  0.2152 -0.1740  0.3713
 5421SOL     OW27898   4.288   4.243   3.944  0.2212  0.0539 -0.3798
 5421SOL    HW127899   4.223   4.276   4.006  0.6210 -1.6905  0.9574
 5421SOL    HW227900   4.232   4.205   3.877  0.8131 -2.0317  0.2968
 5422SOL     OW27901   3.441   1.893   8.446  0.2216  0.2227 -0.8453
 5422SOL    HW127902   3.348   1.889   8.467  1.1632  1.8225  3.7030
 5422SOL    HW227903   3.437   1.847   8.362 -0.1504 -2.0868  0.4252
 5423SOL     OW27904   1.339   3.569   1.754  0.2217  0.0645  0.0864
 5423SOL    HW127905   1.371   3.549   1.666  0.8133  0.0870  0.2954
 5423SOL    HW227906   1.424   3.585   1.797 -1.2737  2.3916  2.1858
 5424SOL     OW27907   1.480   1.715   8.667 -0.4089  0.0385  0.4830
 5424SOL    HW127908   1.387   1.738   8.671  0.6631  4.3973  0.2471
 5424SOL    HW227909   1.512   1.734   8.755  0.2522  1.2739 -0.0290
 5425SOL     OW27910   1.686   1.937   6.769  0.0046 -0.7498  0.2012
 5425SOL    HW127911   1.735   2.016   6.743 -2.1138  0.4360 -0.1893
 5425SOL    HW227912   1.685   1.922   6.864  0.8780  3.5382  0.8915
 5426SOL     OW27913   3.828   0.028   7.677  0.0503  0.4691 -0.5467
 5426SOL    HW127914   3.894   4.712   7.634 -1.8925 -0.8777 -1.8671
 5426SOL    HW227915   3.875   0.112   7.677 -0.1869  0.6035 -0.5164
 5427SOL     OW27916   0.479   1.514   9.731  0.2531 -0.5823  0.4490
 5427SOL    HW127917   0.486   1.458   9.808 -1.5358 -1.9900 -0.3920
 5427SOL    HW227918   0.570   1.529   9.708  0.5101 -4.2535 -1.0653
 5428SOL     OW27919   3.393   0.278   5.693 -0.1911  0.0934  0.1180
 5428SOL    HW127920   3.425   0.216   5.758 -1.4752  0.2302  0.8665
 5428SOL    HW227921   3.450   0.276   5.615  1.7677 -0.7616  1.5588
 5429SOL     OW27922   1.726   0.876  12.604 -0.1300  0.1708 -0.0645
 5429SOL    HW127923   1.812   0.834  12.608 -0.1111  0.1063 -1.0964
 5429SOL    HW227924   1.721   0.902  12.512 -1.2670  1.1281  0.2686
 5430SOL     OW27925   1.738   0.538   6.512 -0.2889  0.1330  0.1142
 5430SOL    HW127926   1.735   0.617   6.459 -1.4128 -0.2781 -0.4309
 5430SOL    HW227927   1.675   0.558   6.582  0.1478  1.9018 -0.0045
 5431SOL     OW27928   3.545   1.930  13.731 -0.2145  0.0869  0.1788
 5431SOL    HW127929   3.589   1.927  13.816 -2.0662 -0.6524  1.0975
 5431SOL    HW227930   3.618   1.892  13.681  0.4586  1.5545  0.0422
 5432SOL     OW27931   1.292   4.718   3.629  0.2592  0.3390  0.2927
 5432SOL    HW127932   1.277   0.025   3.546  0.5199  0.4984  0.3301
 5432SOL    HW227933   1.201   4.717   3.660 -0.5163 -0.8538 -2.0241
 5433SOL     OW27934   4.160   4.012   5.317 -0.2149 -0.6135  0.0822
 5433SOL    HW127935   4.198   3.973   5.396 -0.0081 -0.9774 -0.1987
 5433SOL    HW227936   4.075   3.968   5.317 -1.5427  1.8892 -0.0530
 5434SOL     OW27937   1.597   0.482   7.131 -0.3851 -0.3624 -0.2083
 5434SOL    HW127938   1.667   0.534   7.091  0.0614 -1.2105 -0.5347
 5434SOL    HW227939   1.568   0.421   7.062  0.6917  1.3234 -2.1514
 5435SOL     OW27940   4.342   3.877   4.876  0.3537 -0.1559  0.3491
 5435SOL    HW127941   4.423   3.826   4.871  0.1572 -0.1940 -2.6835
 5435SOL    HW227942   4.367   3.967   4.895 -0.1993  0.3567 -1.3448
 5436SOL     OW27943   0.923   0.577   4.836  0.5829 -0.7338 -0.6053
 5436SOL    HW127944   1.015   0.552   4.836  1.0340  0.9026 -0.5552
 5436SOL    HW227945   0.908   0.588   4.930 -2.1675  1.7025 -1.3303
 5437SOL     OW27946   2.372   2.952   5.781  0.0628 -0.2683 -0.0772
 5437SOL    HW127947   2.304   2.960   5.848  0.1937 -2.2700  0.2846
 5437SOL    HW227948   2.417   2.875   5.818  1.2347 -1.2235 -3.4484
 5438SOL     OW27949   2.756   2.279   1.206 -0.1199  0.1337  0.0544
 5438SOL    HW127950   2.849   2.281   1.188 -0.2952  0.4054 -0.8173
 5438SOL    HW227951   2.746   2.257   1.299  3.6228  4.0935  1.3487
 5439SOL     OW27952   1.349   2.185   5.989 -0.6999 -0.0838 -0.2615
 5439SOL    HW127953   1.425   2.211   6.040  0.9437 -0.7672 -2.3695
 5439SOL    HW227954   1.381   2.101   5.955 -1.4498 -0.2558 -0.5487
 5440SOL     OW27955   1.559   1.352   6.554  0.2381 -0.1376  0.0200
 5440SOL    HW127956   1.470   1.378   6.575 -0.0499 -0.3007 -0.9596
 5440SOL    HW227957   1.588   1.329   6.642 -1.4453 -4.8433 -0.6651
 5441SOL     OW27958   2.668   0.976   0.612 -0.7014 -0.0057  0.3849
 5441SOL    HW127959   2.601   0.945   0.673 -0.0157  4.0296  3.1773
 5441SOL    HW227960   2.722   0.899   0.594  1.0368  0.3259  4.2253
 5442SOL     OW27961   3.441   1.824   6.519 -0.0662 -0.0819  0.2911
 5442SOL    HW127962   3.375   1.757   6.500 -1.6343  1.0161  1.9221
 5442SOL    HW227963   3.503   1.778   6.576 -1.3142 -0.5092  1.2909
 5443SOL     OW27964   1.938   4.513   8.022 -0.1182  0.1463  0.1176
 5443SOL    HW127965   2.022   4.486   8.060  0.6579  0.7342 -1.1967
 5443SOL    HW227966   1.906   4.558   8.100  1.4435 -0.8260  1.3245
 5444SOL     OW27967   1.869   3.914   8.912  0.4675 -0.0354  0.4650
 5444SOL    HW127968   1.901   3.937   8.999  3.2298  0.5726 -0.7281
 5444SOL    HW227969   1.922   3.836   8.898 -0.6945 -0.3690 -2.0211
 5445SOL     OW27970   1.726   2.255   2.457 -0.0137 -0.2227  0.1280
 5445SOL    HW127971   1.706   2.314   2.385 -0.9147 -1.2211 -0.4254
 5445SOL    HW227972   1.669   2.178   2.451  1.7101 -1.2801 -2.6927
 5446SOL     OW27973   3.421   3.273   6.486  0.1455 -0.2826 -0.6003
 5446SOL    HW127974   3.400   3.367   6.483  1.5156  0.1050  1.0971
 5446SOL    HW227975   3.330   3.244   6.481  0.3592 -1.3411  1.7308
 5447SOL     OW27976   2.193   4.274   7.557 -0.6940  0.0882  0.0019
 5447SOL    HW127977   2.191   4.345   7.492  2.1161 -0.2622 -0.4857
 5447SOL    HW227978   2.287   4.257   7.554 -1.0782 -1.7605 -1.3913
 5448SOL     OW27979   0.267   1.121   6.537 -0.3088 -0.4375  0.2713
 5448SOL    HW127980   0.279   1.086   6.449 -0.8031  0.8159 -0.2834
 5448SOL    HW227981   0.173   1.108   6.547 -0.1545 -1.2558  0.6617
 5449SOL     OW27982   0.738   4.281   6.898 -0.1672 -0.5440 -0.2930
 5449SOL    HW127983   0.659   4.239   6.866 -0.9158  1.3345 -0.9261
 5449SOL    HW227984   0.785   4.301   6.817  0.0544 -2.4131 -0.6103
 5450SOL     OW27985   0.004   0.441   4.484  0.2706  0.0296  0.5470
 5450SOL    HW127986   0.040   0.498   4.551 -0.4369  0.4963  0.5254
 5450SOL    HW227987   0.017   0.357   4.528 -0.8242  0.0247  0.8617
 5451SOL     OW27988   4.272   2.300  11.464  0.6296 -0.3263 -0.2330
 5451SOL    HW127989   4.345   2.310  11.402  0.2580  1.3024 -0.4200
 5451SOL    HW227990   4.203   2.346  11.416 -1.3793 -3.3257 -0.2157
 5452SOL     OW27991   4.200   0.057  12.938  0.3500  0.3061  0.0315
 5452SOL    HW127992   4.250   0.085  12.863 -0.0744 -1.7904 -1.0369
 5452SOL    HW227993   4.228   0.110  13.013  1.9260 -0.9446  0.3192
 5453SOL     OW27994   0.631   0.197  12.373 -0.3113 -0.0552  0.2141
 5453SOL    HW127995   0.578   0.263  12.417  0.2646  0.8674 -0.4899
 5453SOL    HW227996   0.577   0.120  12.395 -0.5049  0.4210  1.3778
 5454SOL     OW27997   4.690   3.578   4.514 -0.9622  0.2454 -0.7222
 5454SOL    HW127998   4.630   3.592   4.440  0.5958 -2.2252 -2.4394
 5454SOL    HW227999   0.021   3.641   4.494 -1.0879  1.2436  2.0682
 5455SOL     OW28000   1.946   0.419   6.704  0.0920  0.2058  0.1171
 5455SOL    HW128001   1.885   0.427   6.631  0.1519 -0.5997 -0.0259
 5455SOL    HW228002   1.908   0.344   6.749 -0.7813  1.2621  1.1253
 5456SOL     OW28003   0.212   1.444   5.798  0.4166 -0.0378  0.5700
 5456SOL    HW128004   0.262   1.371   5.762  1.0411  0.6084  0.1255
 5456SOL    HW228005   0.259   1.512   5.749 -0.2018 -1.4016 -1.9106
 5457SOL     OW28006   0.736   3.440   3.637  0.0871 -0.0008 -0.7476
 5457SOL    HW128007   0.727   3.487   3.720  0.1631 -1.0325 -0.1492
 5457SOL    HW228008   0.641   3.436   3.626  0.0116 -1.3833  0.3517
 5458SOL     OW28009   3.632   4.107   6.767 -0.3679  0.1803  0.8250
 5458SOL    HW128010   3.572   4.135   6.837  0.0855  1.5603  0.6602
 5458SOL    HW228011   3.715   4.117   6.814  0.6020  0.9565 -1.0983
 5459SOL     OW28012   2.718   0.106   5.584  0.1813 -0.0651 -0.1241
 5459SOL    HW128013   2.791   0.084   5.641 -0.3238 -2.5330 -0.4040
 5459SOL    HW228014   2.666   0.151   5.650 -0.2807 -1.4210  0.4356
 5460SOL     OW28015   4.617   2.107  15.796  0.1341 -0.4773 -0.6257
 5460SOL    HW128016   4.644   2.167  15.726 -1.1417  1.6252  0.6763
 5460SOL    HW228017   4.525   2.132  15.805  0.1813 -0.2138 -0.8900
 5461SOL     OW28018   3.854   4.668   7.961  0.6010  0.7477 -0.5022
 5461SOL    HW128019   3.793   4.596   7.976  2.2180  0.1426  3.1567
 5461SOL    HW228020   3.841   4.688   7.868 -2.9188  2.0552  0.2429
 5462SOL     OW28021   4.665   0.995  11.560  0.3382  0.6121 -0.8234
 5462SOL    HW128022   4.662   1.080  11.516 -0.1355 -0.2766 -2.5027
 5462SOL    HW228023   0.021   0.987  11.578  0.3640 -2.1440 -2.1717
 5463SOL     OW28024   4.636   2.465   3.747 -0.4217  0.3409 -0.7688
 5463SOL    HW128025   4.600   2.378   3.727 -0.3622  0.7221 -2.4905
 5463SOL    HW228026   4.566   2.505   3.800 -0.3125  0.8904 -1.0373
 5464SOL     OW28027   0.125   3.199   1.892  0.1055 -0.4741 -0.1852
 5464SOL    HW128028   0.149   3.291   1.882 -0.3839 -0.3169  0.1192
 5464SOL    HW228029   0.094   3.181   1.803 -1.0736 -1.0740  0.3572
 5465SOL     OW28030   2.160   1.929   8.238 -0.2319  0.4935 -0.4243
 5465SOL    HW128031   2.162   1.905   8.331 -2.9092 -0.2284 -0.5647
 5465SOL    HW228032   2.076   1.891   8.214 -0.3454 -0.0237  0.7636
 5466SOL     OW28033   2.692   0.977   5.196 -0.1019 -0.4837  0.3039
 5466SOL    HW128034   2.761   1.041   5.215  0.1558 -0.8829  0.6951
 5466SOL    HW228035   2.725   0.903   5.247  0.5254 -0.7669 -0.5219
 5467SOL     OW28036   3.553   0.862   7.212 -0.0574 -0.5583  0.1852
 5467SOL    HW128037   3.546   0.865   7.308 -1.0831 -0.1232  0.0905
 5467SOL    HW228038   3.473   0.906   7.183  0.2134  0.5255  1.0696
 5468SOL     OW28039   0.570   3.780   3.747 -0.6452 -0.1193  0.2118
 5468SOL    HW128040   0.625   3.731   3.808  1.4236  0.6950 -0.9934
 5468SOL    HW228041   0.498   3.811   3.801 -0.1692  1.3198  0.0151
 5469SOL     OW28042   0.561   1.028   6.576 -0.2614  0.6150 -0.2192
 5469SOL    HW128043   0.508   1.072   6.510 -2.0852  1.3370  1.7156
 5469SOL    HW228044   0.643   1.077   6.581  1.0774 -1.7598  0.8412
 5470SOL     OW28045   1.857   2.399   3.069 -0.9644  0.0153  0.4399
 5470SOL    HW128046   1.777   2.398   3.016 -0.8907 -3.3767  0.3907
 5470SOL    HW228047   1.832   2.354   3.150 -1.5773  0.1390  0.3257
 5471SOL     OW28048   1.062   4.092  10.235 -0.5011  0.1975 -0.0061
 5471SOL    HW128049   1.053   4.131  10.322  0.7773  2.0692 -0.7124
 5471SOL    HW228050   1.146   4.127  10.206 -0.9451  0.8868 -0.4702
 5472SOL     OW28051   4.573   0.607   3.856  0.6264  0.0813  0.4031
 5472SOL    HW128052   4.552   0.652   3.938  1.3418 -0.4061  0.8618
 5472SOL    HW228053   4.496   0.632   3.805  0.2903 -0.0634  0.8404
 5473SOL     OW28054   0.952   1.999   1.572  0.5045 -0.5207  0.1007
 5473SOL    HW128055   0.988   2.040   1.651  2.1000 -0.9515 -0.3946
 5473SOL    HW228056   0.913   1.923   1.615  0.9409 -0.9963 -0.3508
 5474SOL     OW28057   1.662   3.088   7.633  0.1596  0.0648 -0.1755
 5474SOL    HW128058   1.574   3.074   7.600  0.0609  1.7039 -0.5886
 5474SOL    HW228059   1.687   3.160   7.575 -2.3700  1.2590  0.2443
 5475SOL     OW28060   4.029   2.033   2.205  0.6340 -0.0346  0.3691
 5475SOL    HW128061   4.094   2.095   2.238 -0.8283  1.7273 -0.0939
 5475SOL    HW228062   4.081   1.983   2.142 -0.1561 -1.0679  0.5311
 5476SOL     OW28063   2.734   3.130   5.653 -0.3461  0.5737 -0.3140
 5476SOL    HW128064   2.705   3.220   5.639  0.0619  0.6608 -0.5961
 5476SOL    HW228065   2.805   3.146   5.714 -0.6411  0.6879 -0.0020
 5477SOL     OW28066   4.335   1.360   5.643  0.1501 -0.3439 -0.0532
 5477SOL    HW128067   4.273   1.377   5.713  0.3385  1.0409 -0.2235
 5477SOL    HW228068   4.350   1.268   5.663  2.0918 -0.4435 -1.8682
 5478SOL     OW28069   3.359   1.850  15.616 -0.0028 -0.5559  0.1859
 5478SOL    HW128070   3.412   1.904  15.558 -1.7390  0.0504 -0.8393
 5478SOL    HW228071   3.297   1.905  15.663 -1.2711 -1.7578 -0.0683
 5479SOL     OW28072   4.577   0.844  14.766  0.2487 -0.1949 -0.0105
 5479SOL    HW128073   4.555   0.853  14.674  2.9558  0.7225 -0.5742
 5479SOL    HW228074   4.597   0.750  14.771 -0.8573 -0.4408 -0.4166
 5480SOL     OW28075   0.512   0.173  12.916  0.4690 -0.6658 -0.2172
 5480SOL    HW128076   0.417   0.179  12.920  0.4192  0.0408 -2.0471
 5480SOL    HW228077   0.529   0.140  13.004  0.3061 -0.3104 -0.0531
 5481SOL     OW28078   3.319   4.615   2.794 -0.8128 -0.0259  0.0673
 5481SOL    HW128079   3.294   4.541   2.849 -2.3100 -1.4886 -2.5811
 5481SOL    HW228080   3.259   4.683   2.826 -0.1484  0.3796  0.4475
 5482SOL     OW28081   2.816   4.681  10.513  0.1310 -0.1384 -0.6244
 5482SOL    HW128082   2.792   4.634  10.434 -2.3974  0.0924  0.0009
 5482SOL    HW228083   2.898   4.637  10.535  0.6633  0.7633 -0.7932
 5483SOL     OW28084   1.820   3.504   1.166  0.3493  0.0561 -0.4973
 5483SOL    HW128085   1.763   3.580   1.173 -0.2141 -0.5133  1.0106
 5483SOL    HW228086   1.908   3.535   1.189 -0.0027  0.5143  0.2646
 5484SOL     OW28087   1.489   1.616  13.932  0.1483 -0.0920  0.6791
 5484SOL    HW128088   1.577   1.605  13.896  0.3990 -0.4874  1.4087
 5484SOL    HW228089   1.490   1.558  14.009 -0.2593  0.8293  1.3711
 5485SOL     OW28090   4.565   2.537   8.389 -0.5994 -0.2857  0.4609
 5485SOL    HW128091   4.636   2.518   8.328  0.7407  0.5162  1.7619
 5485SOL    HW228092   4.495   2.577   8.338  1.6306  2.3475 -0.5138
 5486SOL     OW28093   0.647   4.250   6.036 -0.2164 -0.2941 -0.4704
 5486SOL    HW128094   0.723   4.295   6.072  1.6040 -1.6697 -2.5318
 5486SOL    HW228095   0.587   4.264   6.109  2.3048  0.8455  1.3867
 5487SOL     OW28096   0.060   2.840   5.287 -0.2107 -0.6465 -0.2186
 5487SOL    HW128097   0.129   2.790   5.243  0.9135 -0.5639  1.4262
 5487SOL    HW228098   0.053   2.817   5.380  0.3979 -1.3155 -0.3443
 5488SOL     OW28099   0.006   0.977  10.102 -0.2178  0.1375 -0.1352
 5488SOL    HW128100   0.015   0.888  10.137  1.6379  0.4555  0.2190
 5488SOL    HW228101   4.687   0.950  10.030  0.9604  2.9089 -2.1162
 5489SOL     OW28102   2.786   2.021   2.559 -0.1664  0.0753  0.1445
 5489SOL    HW128103   2.702   1.985   2.585 -0.3080 -0.9998 -1.8044
 5489SOL    HW228104   2.798   1.978   2.475  0.2545  1.4080 -0.4916
 5490SOL     OW28105   0.265   2.225   2.995  0.6251  0.7364  0.0696
 5490SOL    HW128106   0.186   2.231   3.049  0.2997 -0.9079 -0.2235
 5490SOL    HW228107   0.302   2.151   3.043 -1.5556 -0.8856 -0.7499
 5491SOL     OW28108   1.088   0.470  14.037  0.1470 -0.3245  0.9765
 5491SOL    HW128109   1.082   0.428  13.951 -1.2932 -2.4496  2.1419
 5491SOL    HW228110   1.173   0.437  14.066  0.7615  0.6611  0.3259
 5492SOL     OW28111   4.176   2.049  11.304  0.2058  0.4878  0.2864
 5492SOL    HW128112   4.110   2.117  11.298 -1.5133 -1.2981 -0.8201
 5492SOL    HW228113   4.122   1.974  11.330  3.1756 -0.9431  2.3938
 5493SOL     OW28114   3.064   4.497  13.683 -0.2226  0.4134  0.1418
 5493SOL    HW128115   3.095   4.450  13.761 -0.2061  0.4603  0.1636
 5493SOL    HW228116   3.111   4.459  13.609  0.1037 -0.5082  0.8220
 5494SOL     OW28117   0.893   2.232  15.211 -0.1729  0.0467 -0.5519
 5494SOL    HW128118   0.850   2.152  15.183  1.2641 -0.9122 -0.0156
 5494SOL    HW228119   0.972   2.196  15.251 -1.1749  0.3778  1.7607
 5495SOL     OW28120   3.073   4.172   9.633 -0.5041 -0.1928 -0.2704
 5495SOL    HW128121   3.149   4.224   9.606 -0.3602  0.6264  1.6578
 5495SOL    HW228122   3.031   4.171   9.548 -0.1501  0.0922 -0.4513
 5496SOL     OW28123   1.216   1.317   8.695 -0.0680 -0.2560 -0.0224
 5496SOL    HW128124   1.173   1.233   8.708  1.4130 -1.0571 -0.2742
 5496SOL    HW228125   1.255   1.331   8.781  0.8585 -0.6647 -0.3708
 5497SOL     OW28126   1.368   1.989   8.052 -0.3246  0.2488  0.2102
 5497SOL    HW128127   1.310   1.922   8.090 -0.3722  0.7997  1.1241
 5497SOL    HW228128   1.360   2.053   8.123 -0.9306  0.6949 -0.2572
 5498SOL     OW28129   4.095   3.046   5.826  0.5274 -0.5083  0.5919
 5498SOL    HW128130   4.178   3.052   5.779 -0.1564  1.4849 -0.3234
 5498SOL    HW228131   4.060   2.971   5.778 -0.5931  1.4289 -1.5886
 5499SOL     OW28132   0.169   0.860   0.906 -0.0131 -0.4550  0.4469
 5499SOL    HW128133   0.230   0.787   0.908  0.0166 -0.4258  0.5819
 5499SOL    HW228134   0.124   0.840   0.988 -0.1906 -2.1500 -0.0594
 5500SOL     OW28135   0.929   2.456   6.382 -0.0611 -0.3866 -0.2110
 5500SOL    HW128136   0.909   2.549   6.391  0.2946 -0.0531 -2.6984
 5500SOL    HW228137   0.896   2.428   6.467 -2.3783 -0.9725 -1.2887
 5501SOL     OW28138   4.713   0.533   1.912  0.0122  0.0266  0.4069
 5501SOL    HW128139   4.714   0.490   1.998 -0.2327 -0.6167  0.0938
 5501SOL    HW228140   0.063   0.521   1.875  0.1328 -2.2803  1.4571
 5502SOL     OW28141   0.485   0.445   1.845 -0.0322 -0.4917  0.6847
 5502SOL    HW128142   0.518   0.395   1.771  0.3607  1.8514 -0.7379
 5502SOL    HW228143   0.524   0.404   1.922 -1.6888 -1.9892  0.7266
 5503SOL     OW28144   3.553   1.176  17.256  0.0458 -0.9605 -0.3121
 5503SOL    HW128145   3.521   1.229  17.183 -0.1810  0.4706  0.8124
 5503SOL    HW228146   3.622   1.231  17.293 -1.9054  0.8419  0.6758
 5504SOL     OW28147   3.064   3.580   9.251  0.1092  0.1821 -0.0021
 5504SOL    HW128148   3.087   3.656   9.197 -1.3165  0.7417  0.1745
 5504SOL    HW228149   3.037   3.622   9.333  1.0045 -0.0995  0.4269
 5505SOL     OW28150   2.333   0.070  13.509  0.5278  0.2240  0.1243
 5505SOL    HW128151   2.248   0.039  13.540 -0.3956 -0.1064 -2.6645
 5505SOL    HW228152   2.325   0.164  13.526 -0.1161  0.6080 -2.2360
 5506SOL     OW28153   1.406   0.198   2.941  0.0002 -0.5466 -0.0264
 5506SOL    HW128154   1.440   0.249   2.867  0.0306 -0.8509 -0.2226
 5506SOL    HW228155   1.461   0.221   3.016 -1.0076 -0.7966  0.7858
 5507SOL     OW28156   2.260   4.668  17.193 -0.0350  0.9532 -0.1240
 5507SOL    HW128157   2.308   4.638  17.270  2.1272 -0.0080 -1.8416
 5507SOL    HW228158   2.187   4.606  17.197 -0.8530  1.8354 -1.5149
 5508SOL     OW28159   1.290   1.304   8.966  0.0806  0.1828  0.1761
 5508SOL    HW128160   1.366   1.361   8.977 -0.5980  1.2367 -0.6956
 5508SOL    HW228161   1.307   1.220   9.009 -0.1424 -0.8720 -1.7743
 5509SOL     OW28162   4.577   1.195   2.037  0.2574 -0.0198  0.0433
 5509SOL    HW128163   4.641   1.197   1.966 -0.8802  1.6250 -0.9381
 5509SOL    HW228164   4.529   1.271   2.004 -0.3105 -1.4270 -2.3796
 5510SOL     OW28165   0.187   2.660   9.884  0.4047  0.4736 -0.5705
 5510SOL    HW128166   0.190   2.621   9.796 -0.8124  0.7827 -0.7520
 5510SOL    HW228167   0.139   2.740   9.864  0.6979  0.7448 -0.1768
 5511SOL     OW28168   0.421   1.006   9.599 -0.3530 -0.0037 -0.5330
 5511SOL    HW128169   0.383   0.919   9.600  2.0629 -1.0566 -1.3190
 5511SOL    HW228170   0.433   1.025   9.692  2.1602 -0.7635 -0.7003
 5512SOL     OW28171   0.637   0.681   8.929 -0.6375 -0.2448  0.0885
 5512SOL    HW128172   0.679   0.687   8.842  1.5207  1.0358  1.2097
 5512SOL    HW228173   0.635   0.774   8.954  0.9008  1.1633 -4.9725
 5513SOL     OW28174   1.357   2.688   0.485  0.4243 -0.0264  0.1924
 5513SOL    HW128175   1.291   2.642   0.433  2.1557 -2.3477  0.0528
 5513SOL    HW228176   1.300   2.734   0.546  0.1733 -0.7458  0.4970
 5514SOL     OW28177   3.064   4.177   3.379 -0.3306 -0.0698 -0.6643
 5514SOL    HW128178   3.106   4.095   3.406  0.6253  0.4808 -0.4938
 5514SOL    HW228179   3.138   4.225   3.342  0.6029 -2.1649 -1.5275
 5515SOL     OW28180   0.378   4.456   4.182  0.1633  0.7925  0.0107
 5515SOL    HW128181   0.472   4.445   4.194  0.1803  1.0953  0.1596
 5515SOL    HW228182   0.380   4.499   4.096  0.4933 -1.6253 -1.1996
 5516SOL     OW28183   4.523   0.360   7.323  0.1153  0.2631 -0.7932
 5516SOL    HW128184   4.464   0.386   7.252  0.0402  0.4222 -0.6714
 5516SOL    HW228185   4.458   0.341   7.390  0.0764  1.6675 -0.4420
 5517SOL     OW28186   1.249   4.521   4.774 -0.1894 -0.7553 -0.6186
 5517SOL    HW128187   1.212   4.601   4.737 -0.2901 -2.1928 -3.5792
 5517SOL    HW228188   1.168   4.479   4.804 -0.1610  0.3866  1.0231
 5518SOL     OW28189   2.960   2.981   3.021 -1.2088 -0.4448 -0.0849
 5518SOL    HW128190   2.990   2.894   2.996  0.0831 -0.1732  0.5065
 5518SOL    HW228191   2.885   3.000   2.965 -0.2733  0.5442 -1.0035
 5519SOL     OW28192   0.739   0.890   3.385 -0.6309 -0.3581  0.4748
 5519SOL    HW128193   0.739   0.960   3.320 -0.1794 -0.5992  0.2138
 5519SOL    HW228194   0.645   0.873   3.385 -0.8805  0.9804  2.8911
 5520SOL     OW28195   3.749   0.760   5.587  0.5967  0.2425 -0.2709
 5520SOL    HW128196   3.709   0.679   5.618  2.3075  0.6759  3.0677
 5520SOL    HW228197   3.798   0.781   5.666 -0.0235  1.0226 -0.0890
 5521SOL     OW28198   1.833   0.035  17.104  0.1926 -0.4422 -0.6212
 5521SOL    HW128199   1.887   4.722  17.043  0.2916 -0.9535 -0.1074
 5521SOL    HW228200   1.898   0.093  17.143 -0.0774 -1.3346  1.1560
 5522SOL     OW28201   0.868   0.325   4.508 -0.2477  0.1217 -0.2087
 5522SOL    HW128202   0.808   0.285   4.445 -2.0593 -0.3892  1.8559
 5522SOL    HW228203   0.943   0.340   4.450  0.0148 -0.1237  0.0675
 5523SOL     OW28204   2.788   4.615   2.989 -0.3989 -0.5977  0.0763
 5523SOL    HW128205   2.843   4.622   2.912  0.7929  1.4630  1.1043
 5523SOL    HW228206   2.840   4.555   3.042  1.7989  0.1259 -1.2607
 5524SOL     OW28207   0.367   2.743  13.217 -0.1421  0.4882 -0.1614
 5524SOL    HW128208   0.301   2.678  13.241 -1.9935  1.7731 -1.8193
 5524SOL    HW228209   0.341   2.758  13.126 -1.3286  0.3499  0.1524
 5525SOL     OW28210   0.892   2.701   7.057 -0.5732 -0.0098  0.1178
 5525SOL    HW128211   0.877   2.723   6.965 -1.7926 -0.1211  0.2882
 5525SOL    HW228212   0.923   2.611   7.052 -2.6564 -0.6966 -0.2507
 5526SOL     OW28213   3.257   0.245   3.307  0.3950  0.2375  0.2121
 5526SOL    HW128214   3.215   0.325   3.339  1.6853  1.2170 -0.5547
 5526SOL    HW228215   3.349   0.271   3.295  1.0113 -1.4239  1.2692
 5527SOL     OW28216   0.237   1.697   1.626 -0.3531 -0.5252  0.2992
 5527SOL    HW128217   0.332   1.697   1.613 -0.6884  0.0067 -2.1568
 5527SOL    HW228218   0.227   1.791   1.637 -1.0240 -0.6178  0.4768
 5528SOL     OW28219   1.180   3.329   0.141  0.0462  0.1002 -0.7332
 5528SOL    HW128220   1.257   3.379   0.112  0.7988 -1.1862 -0.9683
 5528SOL    HW228221   1.109   3.390   0.121  0.1268  0.9149  1.5495
 5529SOL     OW28222   3.704   0.216   4.593 -0.1881  0.2009  0.0174
 5529SOL    HW128223   3.645   0.286   4.567  0.9077  0.9741 -0.4170
 5529SOL    HW228224   3.757   0.216   4.514  1.4152  2.2378  1.0672
 5530SOL     OW28225   4.259   0.704   3.303  0.5713 -0.0846  0.2588
 5530SOL    HW128226   4.354   0.714   3.305  0.5597 -0.1018  1.0272
 5530SOL    HW228227   4.245   0.798   3.293 -2.4361 -0.4147  1.3349
 5531SOL     OW28228   4.353   3.627   5.690  0.0943  0.3971 -0.1783
 5531SOL    HW128229   4.280   3.626   5.752 -0.3250  0.2785 -0.6813
 5531SOL    HW228230   4.424   3.660   5.745  0.4186 -0.3051 -0.1755
 5532SOL     OW28231   0.600   2.422   6.461 -0.3145 -0.3455  0.5361
 5532SOL    HW128232   0.672   2.440   6.521 -0.4911  2.3155 -0.0300
 5532SOL    HW228233   0.531   2.478   6.497  0.0731  1.3442 -1.3083
 5533SOL     OW28234   0.679   0.556   9.868  0.0726  0.0066 -0.3688
 5533SOL    HW128235   0.673   0.650   9.850  1.0721 -0.0237 -0.8260
 5533SOL    HW228236   0.623   0.544   9.945 -0.3478  1.2461 -0.4854
 5534SOL     OW28237   2.870   1.973   7.627 -0.4071 -0.4549 -0.4191
 5534SOL    HW128238   2.891   2.065   7.609 -0.7858 -0.0520  1.1970
 5534SOL    HW228239   2.776   1.970   7.645 -0.5310 -2.0529 -1.4100
 5535SOL     OW28240   0.301   1.532   7.787 -0.4551 -0.3161  0.0921
 5535SOL    HW128241   0.282   1.438   7.788  1.0336 -0.6147  0.1594
 5535SOL    HW228242   0.221   1.553   7.835  0.4027 -1.9070  2.2223
 5536SOL     OW28243   1.993   0.850   8.258  0.4695 -0.4223 -0.3390
 5536SOL    HW128244   2.018   0.938   8.229 -2.1056  1.1426  2.1868
 5536SOL    HW228245   2.080   0.811   8.264  1.2449  1.0773 -1.9039
 5537SOL     OW28246   3.434   0.231   6.325 -0.2831 -0.3912  0.8165
 5537SOL    HW128247   3.344   0.199   6.321 -0.0835 -0.6705 -1.1619
 5537SOL    HW228248   3.433   0.315   6.278  1.5060 -1.4537 -1.0681
 5538SOL     OW28249   4.281   3.644  14.899 -1.1668  0.2408 -0.2372
 5538SOL    HW128250   4.194   3.673  14.871 -1.5485 -0.9030 -0.2588
 5538SOL    HW228251   4.292   3.695  14.979  1.3793 -1.3394  0.4380
 5539SOL     OW28252   0.398   0.675   0.031 -0.6573  0.2303 -0.4294
 5539SOL    HW128253   0.485   0.636   0.019 -1.0742 -1.5216  2.2902
 5539SOL    HW228254   0.350   0.612   0.085 -0.5111 -0.1107 -0.6985
 5540SOL     OW28255   0.000   2.008   4.652 -0.4301  0.4194  0.3186
 5540SOL    HW128256   4.672   1.954   4.609 -1.6444  2.4501 -0.3727
 5540SOL    HW228257   4.676   2.060   4.704 -2.1600  0.5513 -1.8979
 5541SOL     OW28258   1.882   0.085  11.051 -0.8337 -0.6171 -0.1400
 5541SOL    HW128259   1.956   0.085  10.991  0.9802 -0.7425  2.1125
 5541SOL    HW228260   1.893   0.171  11.090 -0.4274 -0.5036 -0.4991
 5542SOL     OW28261   3.094   3.360  15.488  0.4613 -0.6013  0.0089
 5542SOL    HW128262   3.130   3.425  15.548 -0.6878  0.5322 -0.5354
 5542SOL    HW228263   3.060   3.415  15.418 -1.0020  0.1948  1.3733
 5543SOL     OW28264   1.461   0.436   8.150  0.1596  0.1282 -0.3604
 5543SOL    HW128265   1.537   0.449   8.207  0.6380  0.0714 -0.9892
 5543SOL    HW228266   1.505   0.431   8.065  3.1166  1.0514  1.0975
 5544SOL     OW28267   4.277   1.250   2.051 -0.2675 -0.4354  0.3500
 5544SOL    HW128268   4.339   1.186   2.088  2.3729  1.8021 -0.1676
 5544SOL    HW228269   4.329   1.329   2.035 -1.7076  0.0845 -1.6574
 5545SOL     OW28270   3.662   1.838  15.975  0.2355  0.3167 -0.3687
 5545SOL    HW128271   3.644   1.918  15.927 -1.6790  0.0914 -0.0288
 5545SOL    HW228272   3.574   1.804  15.992  1.0677 -2.0341 -0.6939
 5546SOL     OW28273   3.809   4.575   3.818 -0.0170  0.3950 -0.0641
 5546SOL    HW128274   3.875   4.518   3.859  0.5873 -0.8306 -2.7891
 5546SOL    HW228275   3.813   4.538   3.730 -1.2317  0.0698  0.0196
 5547SOL     OW28276   0.393   2.485   2.071 -0.3464  0.2278  0.7225
 5547SOL    HW128277   0.485   2.479   2.045 -0.7625  1.0616 -0.9362
 5547SOL    HW228278   0.407   2.464   2.163  0.1705 -0.3708  0.5040
 5548SOL     OW28279   1.017   1.613  16.510  0.6852  0.1770  0.3770
 5548SOL    HW128280   0.987   1.569  16.590  0.7988 -0.2047  0.2087
 5548SOL    HW228281   1.047   1.535  16.464 -0.2055  0.3889 -0.5501
 5549SOL     OW28282   2.675   3.842   8.495  0.3444 -0.1332  0.2327
 5549SOL    HW128283   2.695   3.895   8.418 -2.9240 -1.8467 -1.7981
 5549SOL    HW228284   2.590   3.803   8.474  0.2569 -1.3990  2.8910
 5550SOL     OW28285   0.265   0.269  14.997 -0.0448  0.2147 -0.7313
 5550SOL    HW128286   0.337   0.287  14.936 -0.2481 -0.4412 -1.1639
 5550SOL    HW228287   0.304   0.263  15.085  0.2215  0.7543 -0.8126
 5551SOL     OW28288   2.287   4.530   5.122 -0.5635 -0.4560  0.4386
 5551SOL    HW128289   2.194   4.517   5.102 -0.9100  1.9321  0.4998
 5551SOL    HW228290   2.318   4.439   5.128  1.6332  0.2731  0.0941
 5552SOL     OW28291   3.723   2.000  15.575  0.0525 -0.0394  0.0521
 5552SOL    HW128292   3.703   2.009  15.668 -0.8163 -1.5038  0.0053
 5552SOL    HW228293   3.654   2.053  15.536 -0.7121 -2.1906 -1.4990
 5553SOL     OW28294   3.513   1.196   8.889  0.0973  0.0757  0.7958
 5553SOL    HW128295   3.466   1.115   8.868 -0.0521  0.2123  0.5976
 5553SOL    HW228296   3.469   1.230   8.967 -1.5432  1.0370 -0.5572
 5554SOL     OW28297   3.332   4.041   5.514 -0.0827 -0.6790 -0.2352
 5554SOL    HW128298   3.307   4.133   5.503  0.4085 -0.7267 -1.6916
 5554SOL    HW228299   3.344   4.029   5.609 -1.1632  0.2638  0.0157
 5555SOL     OW28300   1.008   1.013   4.600  0.1054  0.5440  0.1275
 5555SOL    HW128301   1.001   0.961   4.680  0.4565 -1.2939 -1.0289
 5555SOL    HW228302   0.980   0.951   4.532 -1.8080  0.0431  1.3914
 5556SOL     OW28303   0.859   1.493  16.729 -0.2892  0.3802 -0.3108
 5556SOL    HW128304   0.772   1.468  16.697  0.6503  0.8479 -3.2263
 5556SOL    HW228305   0.833   1.560  16.793  1.2936  1.9764 -1.3363
 5557SOL     OW28306   2.533   3.820   4.184 -0.0005  0.0457  0.0672
 5557SOL    HW128307   2.462   3.787   4.129  1.2982 -2.0166 -0.3854
 5557SOL    HW228308   2.486   3.825   4.267  1.1618  3.5366  0.5065
 5558SOL     OW28309   0.411   2.302   8.254  0.1168 -0.4574  0.1320
 5558SOL    HW128310   0.412   2.308   8.349  1.2882  0.3704  0.0783
 5558SOL    HW228311   0.493   2.259   8.230  0.9830  0.0769  2.1622
 5559SOL     OW28312   3.195   1.790   6.164  0.5973  0.0071  0.9173
 5559SOL    HW128313   3.265   1.852   6.144  0.4764  0.1128  0.8193
 5559SOL    HW228314   3.118   1.840   6.136  0.3962 -0.8822 -0.1241
 5560SOL     OW28315   2.623   2.562  16.521  0.3752 -0.0680  0.5960
 5560SOL    HW128316   2.656   2.490  16.467  1.7115  2.0823 -1.4356
 5560SOL    HW228317   2.644   2.543  16.613  4.3551 -0.3243 -0.3769
 5561SOL     OW28318   2.243   3.289   8.009  0.4270 -0.5681  0.4874
 5561SOL    HW128319   2.213   3.371   7.970  2.4439  0.7297  1.7112
 5561SOL    HW228320   2.316   3.257   7.956  0.3724  0.1753 -0.0333
 5562SOL     OW28321   4.430   2.244   4.528 -0.2983  0.0148  0.0944
 5562SOL    HW128322   4.436   2.272   4.619  3.6213  1.2339 -0.5020
 5562SOL    HW228323   4.378   2.314   4.489  2.9220  2.3824  0.0115
 5563SOL     OW28324   3.063   0.003   6.890  0.4572 -0.0866 -0.3482
 5563SOL    HW128325   3.149   0.041   6.870  0.6429  0.2107  0.9937
 5563SOL    HW228326   3.004   0.078   6.887 -0.5015 -0.8358 -0.2670
 5564SOL     OW28327   3.049   1.150   1.988 -0.2337  0.5398  0.2374
 5564SOL    HW128328   3.026   1.194   2.070 -0.8351 -0.0236  0.3788
 5564SOL    HW228329   3.143   1.141   1.998 -0.1136 -0.1681 -1.6196
 5565SOL     OW28330   0.527   0.017  14.992 -0.0700  0.9127  0.1854
 5565SOL    HW128331   0.611   4.709  14.997 -0.7169 -0.6782 -3.5446
 5565SOL    HW228332   0.544   0.099  14.946 -0.8581  0.8442 -0.2113
 5566SOL     OW28333   0.756   0.706   8.698  0.1996  0.0584 -0.2048
 5566SOL    HW128334   0.741   0.697   8.604  1.7989  1.5964 -0.6195
 5566SOL    HW228335   0.770   0.801   8.699  1.7818 -0.1800  0.1368
 5567SOL     OW28336   1.631   1.364   6.293  0.3453  0.2152 -0.1137
 5567SOL    HW128337   1.558   1.417   6.262  0.0322  0.6480  1.3629
 5567SOL    HW228338   1.607   1.354   6.385  0.0418  0.5525 -0.1585
 5568SOL     OW28339   4.488   0.057  11.563 -0.1898 -0.0766 -0.8187
 5568SOL    HW128340   4.584   0.050  11.562 -0.2691 -1.7121  2.1694
 5568SOL    HW228341   4.477   0.088  11.653  0.7147 -1.9256 -0.0576
 5569SOL     OW28342   0.983   0.995   9.444  0.3443 -0.4026  0.0597
 5569SOL    HW128343   0.967   1.033   9.530  1.0810  0.2170 -0.0808
 5569SOL    HW228344   1.078   0.983   9.448  0.6242  1.1198 -1.7376
 5570SOL     OW28345   1.078   1.441   5.383 -0.4418  0.2524  0.4129
 5570SOL    HW128346   1.015   1.429   5.312  1.7061 -0.5077 -1.3728
 5570SOL    HW228347   1.027   1.420   5.461  1.9636  0.8321  2.1696
 5571SOL     OW28348   1.032   4.558  13.416 -0.8433  0.0873 -0.1792
 5571SOL    HW128349   1.092   4.624  13.382  0.7372 -0.6969  1.0295
 5571SOL    HW228350   0.970   4.607  13.469  0.8022  1.9504  0.0247
 5572SOL     OW28351   2.373   2.749  14.866 -0.5818 -0.2393 -0.7924
 5572SOL    HW128352   2.297   2.749  14.924 -0.9646 -0.3770 -1.2898
 5572SOL    HW228353   2.425   2.677  14.903  1.1668  0.5547 -1.7140
 5573SOL     OW28354   0.979   4.684   6.585  0.1541  0.9068  0.1030
 5573SOL    HW128355   0.902   4.727   6.549  0.4503  1.6304  0.3309
 5573SOL    HW228356   1.024   0.023   6.621 -1.3615  1.3554  1.0147
 5574SOL     OW28357   1.932   0.183   1.696  1.1160  0.4450  0.0206
 5574SOL    HW128358   1.888   0.153   1.776  1.1469  1.0887  0.2836
 5574SOL    HW228359   1.865   0.161   1.632  1.2715  1.2097 -0.4050
 5575SOL     OW28360   4.476   3.164   3.365 -0.0964  0.1093  0.1184
 5575SOL    HW128361   4.571   3.160   3.353 -0.1898 -0.8269 -0.3032
 5575SOL    HW228362   4.464   3.099   3.434  3.9062  0.3285  1.0547
 5576SOL     OW28363   2.383   0.030   5.027 -0.3634  0.0890  0.4528
 5576SOL    HW128364   2.363   4.674   5.038  0.9581 -0.1021  1.1664
 5576SOL    HW228365   2.381   0.045   4.933 -0.7735  0.9161  0.5956
 5577SOL     OW28366   0.899   2.079   2.132  0.6358  0.4388  0.2489
 5577SOL    HW128367   0.817   2.068   2.181  0.5188  3.1821  0.6700
 5577SOL    HW228368   0.947   2.009   2.175  1.8251 -1.0197 -3.4452
 5578SOL     OW28369   4.185   2.419   5.269 -0.0998  0.5155 -0.2166
 5578SOL    HW128370   4.177   2.477   5.345  0.7647  1.7831 -1.1016
 5578SOL    HW228371   4.249   2.355   5.302 -2.1169 -0.1222  2.5165
 5579SOL     OW28372   3.863   0.290   2.198  0.5628 -0.1535  0.1920
 5579SOL    HW128373   3.787   0.264   2.146 -0.3214 -0.2505  1.5457
 5579SOL    HW228374   3.846   0.285   2.292  0.9136  1.4727  0.3491
 5580SOL     OW28375   0.241   3.485  12.398 -0.2576  0.2890  1.1983
 5580SOL    HW128376   0.291   3.498  12.317  0.3515  0.4928  1.6105
 5580SOL    HW228377   0.285   3.546  12.457  1.3153 -1.2721  1.6236
 5581SOL     OW28378   2.558   3.942  16.806 -0.0940  0.2521  0.4907
 5581SOL    HW128379   2.477   3.985  16.779  0.0721  0.3732  0.1930
 5581SOL    HW228380   2.613   4.015  16.779 -1.2070  1.2550  0.9458
 5582SOL     OW28381   0.911   1.013   2.957 -0.3409 -0.6085 -0.5778
 5582SOL    HW128382   0.859   0.944   2.917 -1.8566 -0.1979  0.6799
 5582SOL    HW228383   0.970   0.962   3.013 -0.6026 -0.7998 -0.4774
 5583SOL     OW28384   1.909   3.194   1.885 -0.0203  0.3873  0.2343
 5583SOL    HW128385   1.914   3.137   1.962 -3.0067 -1.8653 -1.2170
 5583SOL    HW228386   1.833   3.161   1.836 -0.1859  1.1529 -0.0286
 5584SOL     OW28387   1.101   4.140   9.323 -0.0328  0.0799 -0.3826
 5584SOL    HW128388   1.020   4.168   9.281 -1.2851  2.6900  3.7125
 5584SOL    HW228389   1.089   4.045   9.322  0.0515  0.1003 -1.9558
 5585SOL     OW28390   1.405   4.549   3.364  0.3673 -0.1662 -0.2020
 5585SOL    HW128391   1.323   4.502   3.350  0.9169 -0.0970 -3.6908
 5585SOL    HW228392   1.393   4.583   3.452 -0.5753 -0.7020 -0.1234
 5586SOL     OW28393   1.807   0.162  13.653  0.2531 -0.0437  0.1863
 5586SOL    HW128394   1.738   0.198  13.708  0.4327 -0.6433  0.7945
 5586SOL    HW228395   1.852   0.242  13.624 -1.5922  0.8197 -0.2815
 5587SOL     OW28396   1.541   1.942  13.114  0.1762  0.4013 -0.4138
 5587SOL    HW128397   1.556   1.879  13.044 -0.1941 -0.4316  0.2436
 5587SOL    HW228398   1.565   1.882  13.185  1.5185  0.3203 -0.9376
 5588SOL     OW28399   1.436   1.035   9.469  0.1504 -0.1099 -0.4289
 5588SOL    HW128400   1.424   1.127   9.444 -0.8939  0.6689  3.0057
 5588SOL    HW228401   1.347   1.010   9.495  0.5186 -0.0817  0.8707
 5589SOL     OW28402   1.300   0.293   1.322  0.2284  0.2629  0.1144
 5589SOL    HW128403   1.245   0.331   1.390 -2.4765  1.1797 -2.5440
 5589SOL    HW228404   1.384   0.333   1.343 -0.2015  2.5688 -2.5076
 5590SOL     OW28405   4.622   4.566   8.063  0.3824  0.6459  0.3431
 5590SOL    HW128406   4.717   4.577   8.066  0.5748 -0.6858 -0.9622
 5590SOL    HW228407   4.606   4.616   7.983  1.2591 -0.1757 -0.3346
 5591SOL     OW28408   2.043   2.008  13.738 -0.3951 -0.0582 -0.5091
 5591SOL    HW128409   1.960   2.051  13.715  0.3594  1.5332 -0.2195
 5591SOL    HW228410   2.045   2.029  13.831 -0.8060  0.2510 -0.5695
 5592SOL     OW28411   3.798   0.719  17.410  0.5016  0.3566 -0.4556
 5592SOL    HW128412   3.851   0.673  17.345 -1.4262  0.1782 -1.8976
 5592SOL    HW228413   3.848   0.695  17.488 -1.6499 -0.2241  0.7557
 5593SOL     OW28414   0.076   4.553   2.207 -0.4520 -0.1870  0.6329
 5593SOL    HW128415   0.103   4.632   2.254 -1.1832  0.4026  0.0506
 5593SOL    HW228416   4.725   4.546   2.243 -0.2866 -1.2464  0.8271
 5594SOL     OW28417   1.097   2.434  15.738 -0.0791  0.1281 -0.5879
 5594SOL    HW128418   1.135   2.506  15.688  0.1857 -0.4398 -1.2064
 5594SOL    HW228419   1.025   2.467  15.791 -2.7004 -2.2695 -2.6668
 5595SOL     OW28420   0.398   0.062   7.626 -0.7706  0.0215 -0.5732
 5595SOL    HW128421   0.364   0.005   7.558  0.5588  0.0702 -1.2817
 5595SOL    HW228422   0.351   0.140   7.598 -0.7029 -0.1686 -1.2000
 5596SOL     OW28423   0.547   1.586   2.817 -0.2457 -0.3208 -0.3416
 5596SOL    HW128424   0.580   1.517   2.874  2.2344 -0.0978 -1.5141
 5596SOL    HW228425   0.631   1.604   2.776 -0.6459 -1.2120 -1.5532
 5597SOL     OW28426   2.240   2.759  10.051  0.2597  0.1084 -0.3090
 5597SOL    HW128427   2.284   2.751   9.966 -3.0192 -0.3007 -1.9989
 5597SOL    HW228428   2.180   2.686  10.035 -1.1864  0.8945  1.5810
 5598SOL     OW28429   3.933   2.051   6.085 -0.0126  0.0196  0.6665
 5598SOL    HW128430   3.960   2.077   6.173  1.3213  1.3485 -0.1383
 5598SOL    HW228431   3.977   2.117   6.032 -4.3154  0.1959 -2.6668
 5599SOL     OW28432   0.190   3.512  15.478 -0.4503 -0.3417  0.1925
 5599SOL    HW128433   0.223   3.573  15.545 -2.2220 -1.2809  1.8870
 5599SOL    HW228434   0.162   3.439  15.533  0.6277 -1.5353 -0.8443
 5600SOL     OW28435   1.173   2.189   8.989  0.1914 -0.0717  0.3179
 5600SOL    HW128436   1.094   2.237   9.014 -0.1582 -0.1629 -0.5950
 5600SOL    HW228437   1.229   2.259   8.954 -0.5052  1.3692  2.1048
 5601SOL     OW28438   4.331   2.866   4.423 -0.1112 -0.2971  0.5148
 5601SOL    HW128439   4.404   2.924   4.442  1.0355 -2.0176  1.3631
 5601SOL    HW228440   4.314   2.816   4.503  1.6671 -2.4931 -0.4708
 5602SOL     OW28441   0.347   4.084  10.567  0.1594 -0.5490  0.0996
 5602SOL    HW128442   0.261   4.124  10.575  0.6091  0.6387 -0.9383
 5602SOL    HW228443   0.328   3.992  10.550  1.8339 -0.7259 -0.8011
 5603SOL     OW28444   1.051   2.355  14.937 -0.0912  0.2578 -0.4725
 5603SOL    HW128445   1.043   2.306  15.019 -1.4852  3.0552  1.0497
 5603SOL    HW228446   1.010   2.296  14.874  0.7913 -0.8893  0.0171
 5604SOL     OW28447   3.336   4.041   3.438 -0.1309  0.1230 -0.1385
 5604SOL    HW128448   3.341   3.964   3.382 -1.9547 -1.6861  2.2075
 5604SOL    HW228449   3.412   4.097   3.418 -1.2158  1.9517  0.8114
 5605SOL     OW28450   2.319   0.750   7.651  0.0303  0.0414  0.0852
 5605SOL    HW128451   2.265   0.680   7.687 -0.9281  0.8115  0.1534
 5605SOL    HW228452   2.280   0.832   7.682 -0.5267  0.5058 -1.7935
 5606SOL     OW28453   2.836   3.541   3.886  0.1119  0.4408 -0.5650
 5606SOL    HW128454   2.779   3.466   3.903  1.7327 -0.5985  0.2198
 5606SOL    HW228455   2.793   3.583   3.811 -1.9570 -0.1706  0.2960
 5607SOL     OW28456   2.970   3.997  16.945  0.1236 -0.0998  0.3929
 5607SOL    HW128457   3.052   4.037  16.975 -0.5184  0.8633  0.8526
 5607SOL    HW228458   2.973   4.014  16.851  2.8957  1.5225  0.7558
 5608SOL     OW28459   1.691   3.824  15.254  0.4783  0.1556 -0.0426
 5608SOL    HW128460   1.602   3.790  15.244  0.5416 -0.3982  1.2508
 5608SOL    HW228461   1.719   3.799  15.342  0.7625 -0.6910 -0.3776
 5609SOL     OW28462   1.726   2.944   5.333 -0.4566 -0.0455 -0.5656
 5609SOL    HW128463   1.768   2.875   5.282  0.1188  0.0630 -0.2431
 5609SOL    HW228464   1.758   3.024   5.293  2.7666 -1.0602 -0.0495
 5610SOL     OW28465   0.133   3.964   7.649 -0.7252  0.4243 -0.0388
 5610SOL    HW128466   0.166   3.877   7.670 -1.3249 -0.0575 -1.0982
 5610SOL    HW228467   0.193   3.990   7.580  0.9588 -0.1214  1.2302
 5611SOL     OW28468   0.722   1.650   9.668  0.0402 -0.0399  0.3272
 5611SOL    HW128469   0.814   1.636   9.688  0.2372 -0.8931 -1.1819
 5611SOL    HW228470   0.703   1.733   9.712  2.0192  0.7516 -0.3045
 5612SOL     OW28471   0.506   2.456   4.909  0.3995 -0.2638  0.6081
 5612SOL    HW128472   0.487   2.547   4.933  3.9716  0.6822 -0.2468
 5612SOL    HW228473   0.427   2.415   4.946  0.3615  1.3317  2.2875
 5613SOL     OW28474   1.938   1.369  14.546  0.0263  0.6095  0.2875
 5613SOL    HW128475   1.941   1.283  14.587 -0.9373  1.0447  1.2546
 5613SOL    HW228476   1.870   1.417  14.592 -1.2606  1.4348 -2.4549
 5614SOL     OW28477   2.984   3.158   5.466 -0.3117  0.5646  1.1091
 5614SOL    HW128478   2.987   3.197   5.379 -2.0382  0.2178  0.8967
 5614SOL    HW228479   2.892   3.133   5.473 -0.3925 -0.1133 -2.3502
 5615SOL     OW28480   2.028   3.737   0.357  0.6240  0.0077  0.0354
 5615SOL    HW128481   2.020   3.791   0.435 -1.9213 -0.0872 -0.1421
 5615SOL    HW228482   1.936   3.747   0.330  0.6775 -3.0846 -1.3275
 5616SOL     OW28483   0.036   0.646   3.207 -0.1138 -0.1930  0.0748
 5616SOL    HW128484   0.060   0.712   3.142  4.1105 -0.0165  1.8370
 5616SOL    HW228485   0.092   0.660   3.283 -0.0504  2.0423 -0.3816
 5617SOL     OW28486   3.291   1.033   4.624  0.3152 -0.0436 -0.5548
 5617SOL    HW128487   3.275   1.080   4.542 -1.6017  0.4573  0.1066
 5617SOL    HW228488   3.325   0.955   4.581 -1.2798 -0.2199 -1.4960
 5618SOL     OW28489   0.093   3.737   8.862  0.0322  0.0475  0.1426
 5618SOL    HW128490   0.177   3.723   8.819  0.5694 -0.7547  1.4585
 5618SOL    HW228491   0.106   3.712   8.953  1.8711  0.1426 -0.0993
 5619SOL     OW28492   3.830   4.477   9.303 -0.0811 -0.4972  0.2700
 5619SOL    HW128493   3.846   4.424   9.225 -0.0849 -0.5998  0.3402
 5619SOL    HW228494   3.921   4.484   9.332 -0.0946  1.4413 -0.0944
 5620SOL     OW28495   3.258   4.565   8.436  0.3973 -0.7501 -0.2801
 5620SOL    HW128496   3.215   4.627   8.494  1.6620 -1.7726  1.7522
 5620SOL    HW228497   3.350   4.590   8.442  1.2718 -4.3545  0.8970
 5621SOL     OW28498   4.273   1.921   8.951  0.0762  0.0892 -0.4890
 5621SOL    HW128499   4.208   1.857   8.982  0.3012  0.4489  0.7109
 5621SOL    HW228500   4.338   1.865   8.908 -0.4484  0.0906 -1.2918
 5622SOL     OW28501   4.504   0.280   1.743  0.0454  0.1099 -0.1642
 5622SOL    HW128502   4.582   0.231   1.716 -0.9248 -2.5328  1.8715
 5622SOL    HW228503   4.448   0.203   1.754 -2.4976  1.8792 -0.8370
 5623SOL     OW28504   2.760   0.391   5.960  0.4128  0.1849 -1.3900
 5623SOL    HW128505   2.821   0.419   5.891  1.1145 -1.0347 -1.2624
 5623SOL    HW228506   2.817   0.379   6.036 -0.9242 -1.8157 -0.7005
 5624SOL     OW28507   0.073   0.330   1.677 -0.2909 -0.4329 -0.5971
 5624SOL    HW128508   0.125   0.262   1.719  0.9065  0.4854 -0.5970
 5624SOL    HW228509   0.127   0.402   1.710 -0.1373 -0.0564 -1.6703
 5625SOL     OW28510   2.993   1.735  11.936 -0.0491 -0.0741 -0.3882
 5625SOL    HW128511   2.949   1.672  11.993 -0.7891  0.0858 -0.7718
 5625SOL    HW228512   3.001   1.679  11.858 -0.7047 -0.6452 -0.0436
 5626SOL     OW28513   4.205   1.548   1.554 -0.3257  0.2145 -0.4523
 5626SOL    HW128514   4.167   1.574   1.470  2.4887  0.5461 -1.6052
 5626SOL    HW228515   4.146   1.481   1.590 -0.2422  0.4960  0.2166
 5627SOL     OW28516   1.218   4.176  10.766  0.0000 -0.6266  0.4385
 5627SOL    HW128517   1.300   4.137  10.796  1.4089  0.4927 -1.9452
 5627SOL    HW228518   1.239   4.254  10.715  0.6475 -1.6553 -0.8653
 5628SOL     OW28519   3.479   0.721   5.886 -0.3903 -0.0839 -0.9186
 5628SOL    HW128520   3.421   0.653   5.919  2.3338 -1.8080  0.3488
 5628SOL    HW228521   3.429   0.737   5.806  2.2150  0.0089 -2.5681
 5629SOL     OW28522   3.568   0.567  13.062  0.1129 -0.1986  0.6158
 5629SOL    HW128523   3.629   0.509  13.016  0.6520  0.2250  0.7943
 5629SOL    HW228524   3.489   0.513  13.071  1.0338 -1.6438  0.0867
 5630SOL     OW28525   3.642   2.329   1.757  0.3890 -0.3449  0.2344
 5630SOL    HW128526   3.712   2.314   1.694 -0.8923 -1.4892 -0.9167
 5630SOL    HW228527   3.583   2.254   1.744 -0.7019  0.1987  2.0260
 5631SOL     OW28528   1.692   1.506  12.998  0.5805  0.6283 -0.4929
 5631SOL    HW128529   1.752   1.520  12.926  1.1272 -0.2324 -0.1951
 5631SOL    HW228530   1.739   1.436  13.042 -0.5022 -1.1856 -2.2215
 5632SOL     OW28531   2.070   3.029   4.968  0.4896 -0.3173  0.0199
 5632SOL    HW128532   2.098   3.087   5.039  2.1716 -2.0748  0.7934
 5632SOL    HW228533   2.153   2.986   4.948 -0.7649 -1.5056 -2.6944
 5633SOL     OW28534   3.645   4.503   2.611 -0.0993  0.4419 -0.2897
 5633SOL    HW128535   3.562   4.463   2.588  0.4166 -1.6701  1.5879
 5633SOL    HW228536   3.621   4.557   2.686  0.7855 -2.9681  2.4281
 5634SOL     OW28537   1.191   0.978   6.105 -0.0016  0.2308 -0.2067
 5634SOL    HW128538   1.263   0.983   6.043 -0.2526  0.0594 -0.5130
 5634SOL    HW228539   1.225   1.018   6.185  1.3999 -0.5610 -0.4176
 5635SOL     OW28540   4.463   0.066   2.744  0.3038  0.2905  0.0419
 5635SOL    HW128541   4.396   0.037   2.682  0.3745 -1.2225  0.6608
 5635SOL    HW228542   4.525   0.109   2.686 -1.3782  1.4338 -0.9057
 5636SOL     OW28543   2.092   2.526   2.074  0.5010 -0.0336  0.1729
 5636SOL    HW128544   2.138   2.609   2.088  0.5868 -0.0509  0.0025
 5636SOL    HW228545   2.009   2.555   2.035  0.3416 -1.0995 -0.2688
 5637SOL     OW28546   4.663   1.866   0.177  0.0655 -0.2698  0.5575
 5637SOL    HW128547   4.734   1.926   0.201 -0.3509  0.7907 -0.8335
 5637SOL    HW228548   4.686   1.796   0.238  0.5081  1.2105  2.0805
 5638SOL     OW28549   0.258   3.569   4.918  0.2127  0.0865 -0.3007
 5638SOL    HW128550   0.328   3.586   4.980 -0.2359  3.4299 -0.6942
 5638SOL    HW228551   0.291   3.510   4.850  1.1141  0.1189  0.1216
 5639SOL     OW28552   2.592   2.135   1.039  0.0740 -0.1562  0.5111
 5639SOL    HW128553   2.632   2.055   1.074  3.0125  1.3142  0.4943
 5639SOL    HW228554   2.644   2.197   1.090  0.3662 -1.0226  1.2688
 5640SOL     OW28555   4.686   2.894   9.089 -0.0369 -0.0794  0.1205
 5640SOL    HW128556   4.644   2.953   9.026  0.1419 -0.5651 -0.4558
 5640SOL    HW228557   4.624   2.824   9.108 -0.0804  0.1472  0.8045
 5641SOL     OW28558   2.563   1.739   2.394 -0.4713 -0.2999  0.2759
 5641SOL    HW128559   2.556   1.807   2.460 -0.6256  1.1931 -1.2762
 5641SOL    HW228560   2.471   1.738   2.369 -0.5933 -0.6601  0.7391
 5642SOL     OW28561   2.136   2.712   4.309  0.0316  0.5444 -0.0960
 5642SOL    HW128562   2.096   2.644   4.255  0.0373 -0.9904  1.8450
 5642SOL    HW228563   2.213   2.733   4.255  1.3821  0.3056  1.7219
 5643SOL     OW28564   1.709   4.186   4.358  0.4070  0.2454 -0.0593
 5643SOL    HW128565   1.787   4.200   4.305  1.4524 -0.1559  1.3769
 5643SOL    HW228566   1.641   4.152   4.299 -2.1283  1.2701  2.2376
 5644SOL     OW28567   2.404   2.076   3.986 -0.0322  0.0950  0.1463
 5644SOL    HW128568   2.464   2.031   3.927 -2.3112 -1.1362 -1.2380
 5644SOL    HW228569   2.445   2.057   4.070 -0.7905 -0.1250  0.4664
 5645SOL     OW28570   3.308   0.090   8.142  0.1149 -0.2095 -0.2776
 5645SOL    HW128571   3.320   0.022   8.075  0.8767  0.5002 -0.8555
 5645SOL    HW228572   3.261   0.161   8.098 -1.0840 -1.3821 -0.8821
 5646SOL     OW28573   2.445   3.055   5.133  0.1718  0.1722 -0.4881
 5646SOL    HW128574   2.502   3.064   5.209  1.7461 -0.8493 -1.5637
 5646SOL    HW228575   2.480   2.969   5.108 -1.1893 -0.5242 -0.0244
 5647SOL     OW28576   0.199   2.268   5.512  0.0928 -0.4361  0.1130
 5647SOL    HW128577   0.275   2.254   5.455  1.5339  1.2656  1.6190
 5647SOL    HW228578   0.136   2.273   5.441 -1.9250  0.0442  1.9626
 5648SOL     OW28579   1.813   4.494   6.282 -0.9142 -0.1109  0.6183
 5648SOL    HW128580   1.890   4.489   6.339  1.4828 -0.5987 -2.6375
 5648SOL    HW228581   1.754   4.548   6.333 -0.9498  0.7592 -0.3342
 5649SOL     OW28582   0.754   0.103   0.484 -0.1316 -0.2170 -0.3901
 5649SOL    HW128583   0.788   0.111   0.394  1.0117 -0.2061  0.0422
 5649SOL    HW228584   0.832   0.076   0.533  1.6155  0.9876 -2.4722
 5650SOL     OW28585   1.746   1.911   3.714  1.1461 -0.4748  0.0045
 5650SOL    HW128586   1.776   1.820   3.716 -1.6726 -1.4052 -0.3274
 5650SOL    HW228587   1.796   1.954   3.783  1.5187  0.2903 -0.7416
 5651SOL     OW28588   4.183   4.207  15.588  0.2725 -0.1484 -0.3831
 5651SOL    HW128589   4.162   4.172  15.501  1.7075  0.1762 -0.8662
 5651SOL    HW228590   4.193   4.302  15.587 -1.1300  0.0242  1.5018
 5652SOL     OW28591   2.680   0.772  14.723  0.4638  0.5518 -0.0434
 5652SOL    HW128592   2.655   0.823  14.645 -0.6007 -1.5704 -1.0852
 5652SOL    HW228593   2.702   0.845  14.780  0.6657  0.2185  0.3018
 5653SOL     OW28594   1.900   4.405   1.866  0.3616 -0.9658  0.0380
 5653SOL    HW128595   1.813   4.435   1.842  0.9468 -0.4180 -1.3846
 5653SOL    HW228596   1.946   4.380   1.786  1.6709  2.1152 -0.1648
 5654SOL     OW28597   1.751   2.003  11.448 -0.1530 -0.0936  0.5455
 5654SOL    HW128598   1.761   2.045  11.534  0.8806 -0.7267  0.7332
 5654SOL    HW228599   1.787   1.916  11.465  1.7832  0.6506  0.3349
 5655SOL     OW28600   0.087   3.629   2.427  0.1883  0.3513 -0.4008
 5655SOL    HW128601   0.019   3.579   2.472  0.9725 -0.0782  0.3359
 5655SOL    HW228602   0.060   3.612   2.337  1.2045 -0.2169 -0.6031
 5656SOL     OW28603   0.405   0.934   3.527 -0.2113  0.2279 -0.1460
 5656SOL    HW128604   0.436   0.868   3.588  0.8804  0.0547 -0.8845
 5656SOL    HW228605   0.354   0.988   3.587 -2.8452 -0.9460 -1.3471
 5657SOL     OW28606   2.629   4.437   4.986  0.1610  0.0062  0.5542
 5657SOL    HW128607   2.546   4.408   4.948  0.3763 -0.2053  0.2450
 5657SOL    HW228608   2.694   4.406   4.923 -0.4676  0.5467 -0.3579
 5658SOL     OW28609   4.232   4.731  11.383  0.4058  0.4172 -0.3187
 5658SOL    HW128610   4.312   0.045  11.372  0.2657  0.8685  0.7900
 5658SOL    HW228611   4.254   4.656  11.328  1.7995  0.4300  0.2154
 5659SOL     OW28612   3.907   4.445   3.557 -0.1508 -0.0997 -0.2483
 5659SOL    HW128613   3.832   4.385   3.553  0.3838 -0.8788  1.1300
 5659SOL    HW228614   3.878   4.512   3.495 -2.7802  0.4229  1.5292
 5660SOL     OW28615   0.701   0.908   5.915 -0.4639 -0.0287 -0.0757
 5660SOL    HW128616   0.741   0.991   5.939  1.2530 -0.7225 -0.5405
 5660SOL    HW228617   0.611   0.928   5.890 -0.1915  1.7280  0.3284
 5661SOL     OW28618   2.916   2.591   1.073  0.1775 -0.0405 -0.3036
 5661SOL    HW128619   2.910   2.686   1.066  0.2586 -0.1297 -1.6603
 5661SOL    HW228620   3.008   2.581   1.047 -0.1285 -1.3442 -0.8855
 5662SOL     OW28621   0.488   4.108   1.995  0.7128 -0.1030 -0.3881
 5662SOL    HW128622   0.550   4.053   2.042  1.0240  1.4395  1.0171
 5662SOL    HW228623   0.442   4.049   1.936  0.8139  1.2824 -1.8534
 5663SOL     OW28624   2.667   0.193   2.082  0.0072 -0.1613 -0.1006
 5663SOL    HW128625   2.671   0.185   2.178 -0.6652  1.2154  0.0344
 5663SOL    HW228626   2.573   0.193   2.067 -0.0089 -2.0334 -0.0958
 5664SOL     OW28627   4.039   2.784  15.052  0.1831  0.1597 -0.2705
 5664SOL    HW128628   4.078   2.854  14.999  1.5622 -0.6049 -0.2579
 5664SOL    HW228629   3.965   2.758  14.995  0.3731 -0.9216 -0.0206
 5665SOL     OW28630   2.332   0.123   3.188  0.0328 -0.4125 -0.4557
 5665SOL    HW128631   2.298   0.133   3.099 -0.8755 -0.6652 -0.1345
 5665SOL    HW228632   2.414   0.079   3.167 -0.9192 -1.4468 -1.9849
 5666SOL     OW28633   4.571   1.975   5.500  0.3428 -0.5833  0.0516
 5666SOL    HW128634   4.517   1.927   5.563 -0.3000 -0.9957 -0.8171
 5666SOL    HW228635   4.539   2.063   5.521  0.8034 -0.1208 -1.1724
 5667SOL     OW28636   0.208   3.189   4.367 -0.3473 -0.5370 -0.3520
 5667SOL    HW128637   0.127   3.151   4.333 -0.8865  1.3505 -1.1966
 5667SOL    HW228638   0.177   3.265   4.416 -0.7055 -1.7449  1.2598
 5668SOL     OW28639   0.189   0.158  10.639 -0.1210  0.5401  0.3234
 5668SOL    HW128640   0.244   0.080  10.639  0.3907  0.9082  0.9112
 5668SOL    HW228641   0.111   0.137  10.587  1.7352 -0.0636 -2.2264
 5669SOL     OW28642   1.363   3.070  12.102  0.1465 -0.1661  0.1521
 5669SOL    HW128643   1.337   3.100  12.189 -0.1628 -0.0153  0.0097
 5669SOL    HW228644   1.352   2.975  12.105  3.3425 -0.4768  1.6674
 5670SOL     OW28645   3.678   4.534   1.528 -0.2902 -0.0613  0.5216
 5670SOL    HW128646   3.596   4.487   1.538  0.8159 -1.9976  0.6489
 5670SOL    HW228647   3.697   4.539   1.434 -2.5645  1.7776  0.1860
 5671SOL     OW28648   4.549   4.141   2.447  0.1085  0.2537  0.4753
 5671SOL    HW128649   4.574   4.052   2.420 -1.2953 -1.0334  3.4899
 5671SOL    HW228650   4.545   4.190   2.365 -0.8606 -0.6903 -0.0531
 5672SOL     OW28651   1.491   1.425   7.467 -0.1770  0.0596  0.2160
 5672SOL    HW128652   1.440   1.465   7.538  1.5701  1.8453  0.4582
 5672SOL    HW228653   1.523   1.507   7.430 -0.8539 -0.7467 -2.1320
 5673SOL     OW28654   2.797   0.639   8.860  0.3866  0.4994 -0.3888
 5673SOL    HW128655   2.843   0.613   8.780  1.6318  0.1423  0.4394
 5673SOL    HW228656   2.877   0.655   8.911  1.7585 -2.6543 -1.4934
 5674SOL     OW28657   0.277   1.792  10.618 -0.2774 -0.3818 -0.0727
 5674SOL    HW128658   0.302   1.747  10.537  1.6784  0.6807 -0.0696
 5674SOL    HW228659   0.237   1.717  10.662 -2.3003  1.6341  1.4823
 5675SOL     OW28660   0.938   1.989   5.888  0.4723 -0.6456 -0.1560
 5675SOL    HW128661   1.028   2.015   5.869  1.3510 -1.6424  2.6174
 5675SOL    HW228662   0.949   1.968   5.981 -1.6499  0.4553  0.3553
 5676SOL     OW28663   3.759   1.535   9.554 -0.5660  0.6456 -0.5172
 5676SOL    HW128664   3.820   1.588   9.606  2.0876 -0.8369 -2.1014
 5676SOL    HW228665   3.739   1.469   9.620 -2.3151  0.7839 -0.8989
 5677SOL     OW28666   1.829   2.482  16.981 -0.1906 -0.8266 -0.1826
 5677SOL    HW128667   1.770   2.558  16.983  0.2584 -0.3942 -3.1698
 5677SOL    HW228668   1.769   2.410  16.961 -0.8390 -0.5232  0.6385
 5678SOL     OW28669   0.861   1.932   0.199 -0.2656 -0.4921 -0.3876
 5678SOL    HW128670   0.887   1.864   0.261  0.2095  0.3312  0.3227
 5678SOL    HW228671   0.779   1.963   0.236 -0.4840 -0.2932 -1.0439
 5679SOL     OW28672   1.556   3.756   3.477  0.1898  0.5759 -0.2880
 5679SOL    HW128673   1.487   3.714   3.426  0.5343  0.7140 -0.8641
 5679SOL    HW228674   1.527   3.758   3.568 -1.5840 -1.3246 -0.8222
 5680SOL     OW28675   2.304   1.060   2.023 -0.2331  0.1308 -0.3301
 5680SOL    HW128676   2.222   1.074   1.975 -0.1159  0.3326 -0.4721
 5680SOL    HW228677   2.276   0.982   2.071  0.1343 -1.1834 -2.2556
 5681SOL     OW28678   3.690   1.498   6.395 -0.4206  0.2513 -0.0065
 5681SOL    HW128679   3.665   1.563   6.330 -0.7319 -0.7684 -0.9137
 5681SOL    HW228680   3.616   1.437   6.391  0.5675 -1.0409  1.3178
 5682SOL     OW28681   0.088   0.942   3.882 -0.7073 -0.5409 -0.6199
 5682SOL    HW128682   0.082   0.854   3.918 -0.8464 -0.4050 -0.3087
 5682SOL    HW228683   0.109   0.926   3.790 -1.8960  1.5749 -1.2810
 5683SOL     OW28684   1.752   3.984   6.612  0.4326 -0.1458  0.2534
 5683SOL    HW128685   1.747   3.980   6.517  1.4322  2.0290  0.1052
 5683SOL    HW228686   1.656   3.980   6.619  0.3265  0.8413 -0.6872
 5684SOL     OW28687   1.488   2.998   5.212  0.0109 -0.0610  0.2211
 5684SOL    HW128688   1.498   3.093   5.203 -1.7739  0.1290  0.2357
 5684SOL    HW228689   1.562   2.979   5.270 -2.1231 -0.9133  2.6631
 5685SOL     OW28690   0.720   4.524  14.950 -0.0733  0.0490 -0.2412
 5685SOL    HW128691   0.744   4.433  14.934  1.7677  0.2177  1.5983
 5685SOL    HW228692   0.626   4.507  14.944  0.0224 -0.9757  1.1161
 5686SOL     OW28693   1.894   1.114   7.215 -0.0344 -0.4664 -0.2258
 5686SOL    HW128694   1.820   1.101   7.275  0.9131  0.6359  1.1809
 5686SOL    HW228695   1.914   1.206   7.235 -1.3055 -0.0201 -1.0289
 5687SOL     OW28696   1.105   0.709   4.194 -0.3005  0.2807  0.0299
 5687SOL    HW128697   1.129   0.691   4.103 -0.8983 -2.0536  0.3307
 5687SOL    HW228698   1.044   0.781   4.178 -0.1630 -0.2561 -2.9998
 5688SOL     OW28699   0.963   1.453   3.969  0.5625  0.2248  0.0355
 5688SOL    HW128700   0.926   1.428   4.053  1.8532  0.6229  0.7205
 5688SOL    HW228701   0.912   1.397   3.911  1.0264 -0.9353  0.7595
 5689SOL     OW28702   1.716   0.268   6.901  0.0181  0.0277 -0.6100
 5689SOL    HW128703   1.809   0.251   6.913 -0.2393 -0.0790  1.2680
 5689SOL    HW228704   1.694   0.176   6.915  3.0949 -0.2100  2.5695
 5690SOL     OW28705   4.077   0.399   4.126 -0.3159 -1.7577 -0.5123
 5690SOL    HW128706   4.109   0.340   4.057  0.9489  0.8703 -2.1674
 5690SOL    HW228707   4.154   0.446   4.157 -1.7936 -1.5586  2.7694
 5691SOL     OW28708   0.260   1.082   5.094  0.4544  0.1083  0.2827
 5691SOL    HW128709   0.196   1.142   5.133  3.0371  2.1560  1.3817
 5691SOL    HW228710   0.256   0.997   5.138  1.9447  1.0072  2.1557
 5692SOL     OW28711   4.123   1.179  15.213 -0.1742 -0.3926 -0.6853
 5692SOL    HW128712   4.066   1.149  15.143 -1.3287 -0.4928  0.3066
 5692SOL    HW228713   4.205   1.178  15.163  0.4024  0.7976  0.2379
 5693SOL     OW28714   1.431   3.337  17.454 -0.2909 -0.3090  0.7551
 5693SOL    HW128715   1.374   3.349  17.377 -1.2323 -0.0936  1.4853
 5693SOL    HW228716   1.418   3.242  17.463  0.3680 -0.4545  0.0902
 5694SOL     OW28717   1.504   3.602  11.308 -0.1138  0.2534 -0.2071
 5694SOL    HW128718   1.501   3.671  11.374 -0.3664 -0.7596  0.8279
 5694SOL    HW228719   1.582   3.555  11.336  0.4583  2.0554  1.2163
 5695SOL     OW28720   0.746   2.742   5.056  0.0805  0.1376 -0.2612
 5695SOL    HW128721   0.728   2.694   5.136 -1.1207  1.3867  0.2120
 5695SOL    HW228722   0.680   2.699   5.002 -0.4205 -0.7976  1.0971
 5696SOL     OW28723   2.659   3.643   3.701 -0.0945  0.2334  0.1060
 5696SOL    HW128724   2.606   3.722   3.703  0.2385  0.4477  0.3605
 5696SOL    HW228725   2.605   3.602   3.633  2.6688  0.8454 -2.4706
 5697SOL     OW28726   4.071   0.623   7.084  0.0207  0.1132 -0.1633
 5697SOL    HW128727   4.091   0.568   7.009 -1.1501 -1.1206  0.4220
 5697SOL    HW228728   4.154   0.633   7.130 -0.5471 -1.4955  1.2292
 5698SOL     OW28729   1.127   2.048   8.674  0.8454 -0.0934 -0.0883
 5698SOL    HW128730   1.082   2.123   8.712 -1.6936 -1.1134 -1.0391
 5698SOL    HW228731   1.069   2.036   8.599 -1.3055  2.4876  1.1511
 5699SOL     OW28732   1.292   4.219   2.044  0.0778  0.7535  0.0093
 5699SOL    HW128733   1.306   4.129   2.012 -0.9519  0.3913  0.5853
 5699SOL    HW228734   1.208   4.200   2.084 -0.4120 -0.8598 -1.7749
 5700SOL     OW28735   4.216   3.302   3.230 -0.0322 -0.0287  0.3972
 5700SOL    HW128736   4.210   3.223   3.177 -1.1354 -0.9008  1.8145
 5700SOL    HW228737   4.256   3.267   3.310 -0.7672 -0.1153  0.7306
 5701SOL     OW28738   0.474   0.124   0.475 -0.0404  0.4238  0.3220
 5701SOL    HW128739   0.429   0.206   0.493 -4.1333 -2.0106  1.1096
 5701SOL    HW228740   0.567   0.149   0.477 -0.1715  0.7966  1.6081
 5702SOL     OW28741   1.845   3.109   4.390 -0.2581 -0.0314  0.1944
 5702SOL    HW128742   1.840   3.165   4.468 -0.6817  1.5484 -0.9557
 5702SOL    HW228743   1.879   3.026   4.422 -1.6027 -1.2604 -1.6075
 5703SOL     OW28744   1.428   4.030   7.067 -0.0101  0.3586  0.3262
 5703SOL    HW128745   1.489   4.100   7.045  0.0541  0.0659 -0.4384
 5703SOL    HW228746   1.365   4.044   6.996 -2.1181 -1.1022  1.8963
 5704SOL     OW28747   4.628   1.828   7.500  0.2051  0.4984  0.5277
 5704SOL    HW128748   4.701   1.781   7.459  0.3724  2.2787 -1.2182
 5704SOL    HW228749   4.573   1.820   7.422 -0.6639 -0.9678  1.2818
 5705SOL     OW28750   3.292   3.580   1.280 -0.2067  0.3449 -0.1277
 5705SOL    HW128751   3.327   3.497   1.311 -0.9536 -0.0626 -0.3686
 5705SOL    HW228752   3.247   3.546   1.203  0.9166 -1.8376  0.2011
 5706SOL     OW28753   3.106   1.458   2.939 -0.2761 -0.4257  0.1035
 5706SOL    HW128754   3.090   1.539   2.988  0.1295  1.4709 -2.8777
 5706SOL    HW228755   3.195   1.439   2.970 -0.2758 -0.2621  0.2054
 5707SOL     OW28756   0.848   2.729  17.709 -0.5646  0.0295 -0.5080
 5707SOL    HW128757   0.878   2.660   0.020 -0.4138  0.9808  0.5304
 5707SOL    HW228758   0.819   2.800   0.018 -0.5733 -1.1201  0.9158
 5708SOL     OW28759   2.893   3.971   6.943 -0.3978 -0.4327  0.2703
 5708SOL    HW128760   2.850   4.054   6.920 -0.3949 -0.3912  0.4161
 5708SOL    HW228761   2.844   3.912   6.885  3.1590 -1.0948 -2.0403
 5709SOL     OW28762   0.281   1.882  16.508  0.2612  0.1027 -0.2340
 5709SOL    HW128763   0.210   1.937  16.542 -1.7692 -2.0970 -0.9410
 5709SOL    HW228764   0.340   1.871  16.583  0.2114 -1.5275 -0.4517
 5710SOL     OW28765   2.834   2.639   0.472  0.2559 -0.2613  0.0179
 5710SOL    HW128766   2.819   2.548   0.448  0.7740 -1.0036  2.5022
 5710SOL    HW228767   2.764   2.654   0.536 -0.9177 -0.6690 -1.1577
 5711SOL     OW28768   1.812   1.844   6.032  0.3389  0.3227 -0.0958
 5711SOL    HW128769   1.779   1.870   6.118  1.0649 -0.0433  0.2963
 5711SOL    HW228770   1.891   1.794   6.052  0.6529  0.6255 -0.5646
 5712SOL     OW28771   3.998   2.755   4.215  0.4928  0.4017 -0.3402
 5712SOL    HW128772   4.041   2.825   4.265  1.4539 -0.2142 -0.3157
 5712SOL    HW228773   3.928   2.792   4.160 -0.6025 -1.0517  0.0901
 5713SOL     OW28774   3.638   3.526   8.589 -0.4128  0.7581 -0.2166
 5713SOL    HW128775   3.577   3.594   8.617 -0.6943  0.2839  0.3157
 5713SOL    HW228776   3.725   3.535   8.627 -0.1909 -0.0750 -0.5225
 5714SOL     OW28777   0.266   2.826   3.874 -0.1409 -0.1970 -0.7824
 5714SOL    HW128778   0.250   2.739   3.911 -0.7672  0.2157 -0.0832
 5714SOL    HW228779   0.361   2.829   3.881 -0.0311  1.0864 -3.1033
 5715SOL     OW28780   2.115   1.703   9.153  0.2748  0.4054  0.0021
 5715SOL    HW128781   2.107   1.798   9.153 -0.5879  0.3408  0.2633
 5715SOL    HW228782   2.039   1.676   9.100 -0.1641  0.1084  0.7819
 5716SOL     OW28783   3.268   3.458   7.518 -0.0395 -0.1494 -0.3028
 5716SOL    HW128784   3.331   3.482   7.450  1.1681 -0.8032  0.5698
 5716SOL    HW228785   3.334   3.444   7.587  1.2028  0.5356 -1.3591
 5717SOL     OW28786   2.358   0.617   5.005 -0.3113 -0.2909  0.4025
 5717SOL    HW128787   2.404   0.649   5.082 -1.5193  0.9095  0.6234
 5717SOL    HW228788   2.318   0.536   5.037 -3.0542  0.6038 -0.6893
 5718SOL     OW28789   4.514   0.634   3.301  0.5428  0.0463 -0.4454
 5718SOL    HW128790   4.526   0.540   3.284 -1.6176 -0.7563  2.2942
 5718SOL    HW228791   4.591   0.671   3.258  1.7216  1.3870  2.8124
 5719SOL     OW28792   2.995   3.733  13.749  0.2934  0.3536 -0.3905
 5719SOL    HW128793   2.907   3.722  13.785  0.1784  1.3723 -0.3564
 5719SOL    HW228794   3.047   3.669  13.797 -0.7140 -0.6766 -0.6684
 5720SOL     OW28795   3.371   3.965   2.802  0.3812  0.1214  0.7691
 5720SOL    HW128796   3.318   4.032   2.758 -1.2176 -2.6420 -1.4866
 5720SOL    HW228797   3.456   3.965   2.758  0.7645 -1.6185  1.5352
 5721SOL     OW28798   1.120   4.340  14.277 -0.0983 -0.2968 -0.2955
 5721SOL    HW128799   1.036   4.309  14.313  0.4730  0.0956  1.3973
 5721SOL    HW228800   1.106   4.434  14.288 -1.1098 -0.7807  2.8520
 5722SOL     OW28801   1.223   2.467   5.722  0.1387  0.6642  0.6418
 5722SOL    HW128802   1.202   2.544   5.670  0.3920 -1.5126 -2.7557
 5722SOL    HW228803   1.135   2.438   5.747  0.5876  0.1965  1.6842
 5723SOL     OW28804   1.463   3.271   5.142 -0.3390  0.4014  0.4655
 5723SOL    HW128805   1.503   3.338   5.197  0.7261 -0.7374  1.0563
 5723SOL    HW228806   1.511   3.289   5.061 -2.0372  1.3184 -0.3353
 5724SOL     OW28807   2.920   2.624   7.447 -0.0500  0.1010 -0.3922
 5724SOL    HW128808   2.965   2.556   7.497 -0.3748 -1.7091 -2.5856
 5724SOL    HW228809   2.868   2.669   7.513 -0.1026 -1.4070  0.5938
 5725SOL     OW28810   0.497   4.649   8.385 -0.7776  0.2614 -0.7101
 5725SOL    HW128811   0.516   4.670   8.293 -0.7068  0.2102 -0.7065
 5725SOL    HW228812   0.402   4.663   8.387 -0.9944 -1.0297 -2.1527
 5726SOL     OW28813   1.102   2.657   4.037  0.0549  0.7947 -0.4813
 5726SOL    HW128814   1.025   2.666   4.093  0.0898 -0.1009 -0.2903
 5726SOL    HW228815   1.181   2.648   4.091 -0.2391 -0.5413 -0.2812
 5727SOL     OW28816   4.485   2.019   2.687  0.5270  0.3408  0.2065
 5727SOL    HW128817   4.442   2.101   2.710  0.2886  0.6298 -1.2732
 5727SOL    HW228818   4.542   1.999   2.762 -0.4641 -0.9681  0.6243
 5728SOL     OW28819   1.525   0.378  14.013 -0.4244  0.0774  0.1257
 5728SOL    HW128820   1.445   0.363  14.062 -0.3717  0.3077  0.2850
 5728SOL    HW228821   1.513   0.473  14.007 -1.2780 -0.1045 -0.9662
 5729SOL     OW28822   2.138   0.692   3.801 -0.2123 -0.2189 -0.6199
 5729SOL    HW128823   2.174   0.769   3.844 -1.7241 -1.0744  2.1425
 5729SOL    HW228824   2.083   0.737   3.737  0.7281 -1.7055 -2.4815
 5730SOL     OW28825   3.060   0.661   1.407 -0.0449 -0.1500 -0.6096
 5730SOL    HW128826   3.001   0.680   1.334 -1.4632 -1.4834  0.1749
 5730SOL    HW228827   3.141   0.633   1.365  0.2957 -0.3984  0.2153
 5731SOL     OW28828   3.017   3.610   7.053  0.0054  0.0969 -0.4498
 5731SOL    HW128829   3.093   3.553   7.039 -0.7534 -1.0853  0.2207
 5731SOL    HW228830   3.027   3.616   7.148 -0.1980 -0.8477 -0.3670
 5732SOL     OW28831   2.741   3.662   2.323  0.0460 -0.8002 -0.1775
 5732SOL    HW128832   2.792   3.654   2.404 -3.0523 -3.0706  1.5493
 5732SOL    HW228833   2.717   3.753   2.339 -0.6549 -0.8730 -0.8312
 5733SOL     OW28834   0.082   1.802   3.162  0.8268  0.1584  0.5705
 5733SOL    HW128835   0.152   1.814   3.225 -0.3752 -1.7477  2.2769
 5733SOL    HW228836   0.110   1.842   3.080 -0.6225 -2.5929 -1.2663
 5734SOL     OW28837   2.356   3.953   0.375  0.0094 -0.4703  0.8110
 5734SOL    HW128838   2.440   3.996   0.363 -0.8537  0.5679 -1.5471
 5734SOL    HW228839   2.314   4.004   0.445 -2.1773 -1.6779  0.3930
 5735SOL     OW28840   4.370   2.470  12.052 -0.1370  0.4409 -0.5477
 5735SOL    HW128841   4.420   2.458  11.971 -0.4976 -1.2105 -0.5373
 5735SOL    HW228842   4.405   2.554  12.081  1.9409 -0.8178  0.6185
 5736SOL     OW28843   1.405   0.748   6.720 -0.1732  0.2475 -0.0768
 5736SOL    HW128844   1.497   0.734   6.744  0.3511  0.2115 -2.1065
 5736SOL    HW228845   1.397   0.688   6.645 -2.3228 -0.2960  0.5766
 5737SOL     OW28846   1.434   0.142   6.745  0.1300 -0.9542  0.0739
 5737SOL    HW128847   1.452   0.178   6.832 -2.9940 -2.4807  1.3771
 5737SOL    HW228848   1.372   0.071   6.766 -1.1898  0.0759 -0.3639
 5738SOL     OW28849   2.964   1.900   1.174 -0.8341 -0.0358  0.4257
 5738SOL    HW128850   2.997   1.983   1.140 -0.3131 -0.8948 -1.1577
 5738SOL    HW228851   2.875   1.910   1.141 -0.5615  0.2030 -0.2289
 5739SOL     OW28852   2.160   1.535   2.356  0.4294  0.8312  0.2387
 5739SOL    HW128853   2.186   1.485   2.433 -3.8801 -1.1475  0.4058
 5739SOL    HW228854   2.180   1.626   2.379 -0.5027  0.7921  1.2265
 5740SOL     OW28855   2.221   2.610   7.961 -0.3890  0.1921  0.0058
 5740SOL    HW128856   2.187   2.563   7.885  1.2155  0.0737 -0.6538
 5740SOL    HW228857   2.311   2.576   7.965 -0.0438  0.6581 -3.2455
 5741SOL     OW28858   3.240   1.710   7.209 -0.1949 -0.5125  0.3982
 5741SOL    HW128859   3.325   1.675   7.182 -0.1035  0.4920 -0.6005
 5741SOL    HW228860   3.213   1.764   7.135  1.9817 -0.5174 -0.3748
 5742SOL     OW28861   0.810   2.048  17.255 -0.1988  0.0859 -0.2924
 5742SOL    HW128862   0.893   2.000  17.257 -0.4524 -0.2905  1.9269
 5742SOL    HW228863   0.760   2.014  17.330 -2.0813  2.0817 -0.6394
 5743SOL     OW28864   1.621   1.861   5.576 -0.2324  0.1386 -0.2593
 5743SOL    HW128865   1.690   1.872   5.641  1.5587 -0.2447 -2.0784
 5743SOL    HW228866   1.604   1.951   5.549 -0.9725 -0.3079 -1.3091
 5744SOL     OW28867   4.609   0.086   4.400 -0.3462  0.2220  0.2994
 5744SOL    HW128868   4.676   0.122   4.458  0.8004 -2.2251  0.4541
 5744SOL    HW228869   4.535   0.128   4.444 -1.8431 -1.1793 -0.8822
 5745SOL     OW28870   0.228   1.241  11.786  0.1174  0.5088  0.2416
 5745SOL    HW128871   0.178   1.303  11.733  0.2838 -0.7201 -1.3657
 5745SOL    HW228872   0.172   1.214  11.858 -1.8915  1.0555 -1.1115
 5746SOL     OW28873   1.208   4.465   9.677  0.6646  0.4961  0.3806
 5746SOL    HW128874   1.233   4.525   9.607 -2.0538 -0.2984 -1.2810
 5746SOL    HW228875   1.234   4.518   9.752 -2.8780  1.5127  0.9038
 5747SOL     OW28876   0.936   4.334   8.980  0.1606  0.7531  0.2914
 5747SOL    HW128877   0.895   4.270   9.038 -0.2865  1.0267  0.2742
 5747SOL    HW228878   0.878   4.409   8.994  0.5962  1.4937 -1.8199
 5748SOL     OW28879   3.172   3.123   0.566  0.0715  0.5831  0.1837
 5748SOL    HW128880   3.207   3.132   0.477 -0.7457 -0.3224 -0.2258
 5748SOL    HW228881   3.198   3.208   0.602 -0.2075  0.0316  1.6688
 5749SOL     OW28882   4.234   4.151   8.739 -0.0179 -0.0604  0.3065
 5749SOL    HW128883   4.276   4.074   8.701 -0.9264 -1.5706  2.3171
 5749SOL    HW228884   4.215   4.117   8.826 -3.0371 -0.4322 -0.4978
 5750SOL     OW28885   0.213   3.649  16.147  0.2963  0.5301 -0.4164
 5750SOL    HW128886   0.117   3.643  16.144  0.2984 -0.3842  1.7190
 5750SOL    HW228887   0.230   3.728  16.096 -0.7209  0.0945 -1.4542
 5751SOL     OW28888   2.909   3.365  17.461 -0.1673  0.1271  0.1339
 5751SOL    HW128889   2.854   3.402  17.391  0.3755  0.7149  0.0142
 5751SOL    HW228890   2.911   3.431  17.530 -2.0311  2.1615 -1.7773
 5752SOL     OW28891   0.220   0.606   0.521 -0.5197  0.2938 -0.2612
 5752SOL    HW128892   0.200   0.517   0.552 -0.7710 -0.6694 -3.1652
 5752SOL    HW228893   0.142   0.656   0.543 -0.5424  0.4133 -0.6129
 5753SOL     OW28894   0.562   2.578  12.293  0.3890  0.2063  0.1543
 5753SOL    HW128895   0.491   2.584  12.229  1.9470  0.3803 -1.5890
 5753SOL    HW228896   0.590   2.488  12.274  0.9887  0.4643 -0.2011
 5754SOL     OW28897   4.508   1.782   8.884 -0.2670  0.4437 -0.0547
 5754SOL    HW128898   4.559   1.720   8.937  0.3635  1.7401  0.8512
 5754SOL    HW228899   4.572   1.839   8.841  3.7872 -2.7491  1.7502
 5755SOL     OW28900   1.368   3.166   5.930 -0.1133 -0.1218 -0.2892
 5755SOL    HW128901   1.293   3.108   5.943 -0.9307  1.1978  0.9526
 5755SOL    HW228902   1.391   3.140   5.841 -1.4194  2.2729 -1.3341
 5756SOL     OW28903   0.213   2.214  15.259 -0.7325 -0.2388 -0.0561
 5756SOL    HW128904   0.308   2.209  15.275 -0.6864 -1.1529 -0.6118
 5756SOL    HW228905   0.187   2.300  15.293 -0.2883 -0.3528  0.5895
 5757SOL     OW28906   0.012   0.702   0.704  0.5606 -0.2492 -0.1046
 5757SOL    HW128907   0.081   0.730   0.764 -0.1903  0.4878  0.4319
 5757SOL    HW228908   0.024   0.776   0.645 -0.1754  0.0080  0.0638
 5758SOL     OW28909   3.523   2.586   0.308 -0.0122  0.6349 -0.0564
 5758SOL    HW128910   3.542   2.504   0.263 -2.6445  0.7917 -1.4595
 5758SOL    HW228911   3.434   2.594   0.273 -0.0882 -0.3464 -0.1012
 5759SOL     OW28912   2.938   3.243   3.679 -0.4404  0.4713  0.1008
 5759SOL    HW128913   2.946   3.337   3.693 -1.6233  0.4793  0.7677
 5759SOL    HW228914   2.965   3.237   3.588 -0.2368 -0.8316  0.2399
 5760SOL     OW28915   0.521   2.762  16.485 -0.1265 -0.1535 -0.5951
 5760SOL    HW128916   0.584   2.750  16.556 -0.7718 -0.6847 -0.1096
 5760SOL    HW228917   0.466   2.684  16.494 -1.9569  1.3251  1.0407
 5761SOL     OW28918   3.880   1.160   5.340 -0.1028  0.4045  0.1134
 5761SOL    HW128919   3.963   1.195   5.373  0.8338 -2.1138  0.3801
 5761SOL    HW228920   3.818   1.192   5.405 -1.0793 -1.0388 -0.1162
 5762SOL     OW28921   2.039   0.029  13.453  0.1678 -0.4449 -0.0960
 5762SOL    HW128922   1.994   0.102  13.411  2.3553  1.5771  1.0631
 5762SOL    HW228923   2.008   0.036  13.544  2.1807 -0.4609  0.6001
 5763SOL     OW28924   4.011   3.313  12.156  0.1516 -0.7158 -0.2904
 5763SOL    HW128925   4.019   3.331  12.250  1.6877  0.1265 -0.5881
 5763SOL    HW228926   3.971   3.226  12.157 -2.3638  0.4417  0.0711
 5764SOL     OW28927   1.605   2.512   4.960 -0.1757 -0.1702 -0.7954
 5764SOL    HW128928   1.694   2.525   4.927  0.1582  1.9381  0.9409
 5764SOL    HW228929   1.588   2.597   5.000  1.7325 -0.4003  0.5385
 5765SOL     OW28930   2.282   3.125   5.445 -0.0540  0.2104 -0.2092
 5765SOL    HW128931   2.357   3.068   5.464  0.7418  1.4337  0.3433
 5765SOL    HW228932   2.326   3.209   5.460  0.2676 -0.1313  0.7704
 5766SOL     OW28933   0.254   3.967   8.969  0.1360  0.4731  0.1213
 5766SOL    HW128934   0.188   3.998   8.907 -0.4411 -1.3222 -0.1660
 5766SOL    HW228935   0.286   3.894   8.915  1.0773  0.6700  0.4118
 5767SOL     OW28936   1.617   0.582   6.191 -0.2830  0.2251  0.0236
 5767SOL    HW128937   1.692   0.526   6.174 -0.7878 -1.4526  3.3890
 5767SOL    HW228938   1.551   0.519   6.221 -1.4240  1.8080  0.8413
 5768SOL     OW28939   1.086   3.872  17.390  0.3636  0.3287  0.2317
 5768SOL    HW128940   1.014   3.852  17.330  0.9315  0.8519 -0.6322
 5768SOL    HW228941   1.075   3.809  17.461  1.6423 -0.5373 -0.3290
 5769SOL     OW28942   1.826   2.468   7.985 -0.1441  0.6970 -0.2612
 5769SOL    HW128943   1.917   2.447   8.008  0.1151  2.8581  0.7381
 5769SOL    HW228944   1.789   2.474   8.072  2.5755  1.8874  0.8194
 5770SOL     OW28945   1.416   0.659  16.568  0.1690  0.8274  0.0122
 5770SOL    HW128946   1.409   0.682  16.661 -0.8506 -0.3812  0.2337
 5770SOL    HW228947   1.437   0.747  16.537  0.9281  0.3817 -0.7285
 5771SOL     OW28948   4.030   1.553   5.594 -0.0604  0.2050  0.4359
 5771SOL    HW128949   4.024   1.478   5.535  0.3817 -0.2598  0.9794
 5771SOL    HW228950   4.068   1.510   5.671  2.0312 -0.2145 -0.8195
 5772SOL     OW28951   2.311   2.155  16.740 -0.3058 -0.1238  0.7399
 5772SOL    HW128952   2.293   2.249  16.740  0.0159 -0.0633 -0.7226
 5772SOL    HW228953   2.222   2.121  16.746 -0.7929  1.2546  1.2544
 5773SOL     OW28954   1.585   1.743   9.590  0.1853 -0.0628  0.1205
 5773SOL    HW128955   1.659   1.803   9.584  2.0511 -2.2396  1.5060
 5773SOL    HW228956   1.619   1.672   9.536 -0.8220 -1.1846  0.9613
 5774SOL     OW28957   4.285   1.669   5.335 -0.2727 -0.3637  0.1921
 5774SOL    HW128958   4.214   1.657   5.271  1.3442 -0.7202 -1.5371
 5774SOL    HW228959   4.324   1.582   5.347 -0.7369 -0.0737  3.8258
 5775SOL     OW28960   2.345   2.860   7.954 -0.7858 -0.0853 -0.6661
 5775SOL    HW128961   2.418   2.801   7.937 -0.7519 -0.6195  1.4399
 5775SOL    HW228962   2.289   2.787   7.980 -0.6271  0.2851  0.7214
 5776SOL     OW28963   3.649   3.847   4.191  0.9079  0.2328  0.5348
 5776SOL    HW128964   3.715   3.805   4.247  1.8521 -0.8981 -1.4044
 5776SOL    HW228965   3.611   3.912   4.249 -2.1412  0.9380 -2.2728
 5777SOL     OW28966   1.874   3.253   0.563  0.0205 -0.3397  0.1328
 5777SOL    HW128967   1.928   3.301   0.500  2.0961 -0.2211  1.9912
 5777SOL    HW228968   1.941   3.227   0.626 -0.5755  1.3519  1.4960
 5778SOL     OW28969   0.637   2.342   2.047  0.2862 -0.3017 -0.1839
 5778SOL    HW128970   0.724   2.382   2.044  0.7763 -1.2235  1.2568
 5778SOL    HW228971   0.624   2.337   2.142  0.6419 -2.2782 -0.2410
 5779SOL     OW28972   1.438   0.654  14.828 -0.5680 -0.1338  0.1060
 5779SOL    HW128973   1.524   0.613  14.818  1.0344  3.9431 -2.6313
 5779SOL    HW228974   1.438   0.681  14.919  1.9577 -2.8935  0.9232
 5780SOL     OW28975   3.732   3.774  12.575 -0.3103  0.3706 -0.1796
 5780SOL    HW128976   3.794   3.831  12.620  0.6094 -1.1647  0.4703
 5780SOL    HW228977   3.739   3.690  12.619 -1.0642  0.6065  0.4073
 5781SOL     OW28978   3.768   3.894   4.725  0.9047  0.2434  0.0095
 5781SOL    HW128979   3.728   3.869   4.808 -2.4497  0.0832 -1.6617
 5781SOL    HW228980   3.809   3.816   4.687 -0.6412 -0.2607 -0.6200
 5782SOL     OW28981   2.760   1.242   2.972 -0.5328  0.1083 -0.5233
 5782SOL    HW128982   2.807   1.282   3.045  1.2113 -2.3160 -0.3167
 5782SOL    HW228983   2.816   1.169   2.948 -0.3912  1.4009 -4.0235
 5783SOL     OW28984   0.823   0.860  14.328  0.6860  0.0373 -0.3323
 5783SOL    HW128985   0.758   0.820  14.270  1.1411  1.4371 -1.8151
 5783SOL    HW228986   0.782   0.858  14.414 -1.1858  1.6095 -1.2029
 5784SOL     OW28987   0.977   3.066   1.540 -0.0521  0.1185  0.1304
 5784SOL    HW128988   1.030   3.145   1.533 -1.5699  1.2984  2.0326
 5784SOL    HW228989   0.980   3.045   1.633 -0.5575  2.0640  0.5863
 5785SOL     OW28990   3.404   2.347   5.279 -0.5778  0.3228  0.2717
 5785SOL    HW128991   3.354   2.309   5.350 -0.2657 -1.6021 -0.5215
 5785SOL    HW228992   3.484   2.294   5.271 -0.8438 -0.1102  0.4536
 5786SOL     OW28993   1.732   2.560   6.685 -0.2890  0.1779  0.0305
 5786SOL    HW128994   1.701   2.474   6.715 -0.7100  0.2053 -0.3280
 5786SOL    HW228995   1.827   2.549   6.684 -0.3187 -0.1673  0.8479
 5787SOL     OW28996   0.321   0.874   4.677  0.2755  0.4369  0.0234
 5787SOL    HW128997   0.289   0.839   4.594  1.0122 -0.9245  0.3213
 5787SOL    HW228998   0.414   0.875   4.655  0.0503 -0.7647 -0.9445
 5788SOL     OW28999   0.714   1.752   5.871 -0.5974 -0.7913  0.1556
 5788SOL    HW129000   0.793   1.700   5.855 -0.9853 -1.1364 -0.6113
 5788SOL    HW229001   0.685   1.772   5.782 -1.1604 -1.9507  0.0812
 5789SOL     OW29002   2.492   1.248   9.461  0.0386 -0.2429  0.5071
 5789SOL    HW129003   2.454   1.236   9.548  0.5898 -0.8119  0.6750
 5789SOL    HW229004   2.462   1.176   9.407 -1.4123  0.9612 -0.2815
 5790SOL     OW29005   3.333   0.144   3.552  0.0230  0.3928  0.8493
 5790SOL    HW129006   3.333   0.237   3.575 -2.3980  0.6062 -0.0596
 5790SOL    HW229007   3.314   0.125   3.460  1.4428  0.1381  0.6009
 5791SOL     OW29008   3.917   3.898   5.407  0.0376 -0.5542 -0.0119
 5791SOL    HW129009   3.862   3.932   5.337 -0.4584  0.6410  0.9589
 5791SOL    HW229010   3.854   3.844   5.455  0.9191 -1.6068 -0.0283
 5792SOL     OW29011   1.748   4.695   2.329  0.2966  0.1461 -0.8462
 5792SOL    HW129012   1.791   4.662   2.250 -2.3904  0.2913 -2.3719
 5792SOL    HW229013   1.695   4.616   2.340  0.6343 -0.2645 -2.1153
 5793SOL     OW29014   3.511   3.866  17.179  0.4270 -0.1948  0.4018
 5793SOL    HW129015   3.419   3.854  17.153  0.6002 -0.3430 -0.1493
 5793SOL    HW229016   3.511   3.855  17.274 -0.1374 -0.2520  0.3980
 5794SOL     OW29017   2.168   3.739   6.803 -0.0968 -0.2439 -0.2264
 5794SOL    HW129018   2.200   3.746   6.713  0.2198 -0.5818 -0.1409
 5794SOL    HW229019   2.074   3.733   6.785 -0.2882 -0.7123  0.9228
 5795SOL     OW29020   3.305   0.949   7.115  0.1133 -0.8647  0.2972
 5795SOL    HW129021   3.300   0.873   7.056 -0.0182  2.0494 -3.4416
 5795SOL    HW229022   3.258   0.923   7.194 -1.3610 -1.7578 -0.8764
 5796SOL     OW29023   2.469   0.580  13.957  0.2916  0.5456 -0.3301
 5796SOL    HW129024   2.508   0.497  13.929 -1.4551 -0.4447  0.2194
 5796SOL    HW229025   2.428   0.551  14.038  2.8335 -2.5826 -0.1480
 5797SOL     OW29026   3.635   3.156  12.209  0.0039 -0.0166  0.0871
 5797SOL    HW129027   3.607   3.184  12.295 -0.1730  0.1382 -0.0226
 5797SOL    HW229028   3.725   3.134  12.234  0.8555  1.2159 -1.8414
 5798SOL     OW29029   0.203   4.310  14.564 -0.2353 -0.1253 -0.2059
 5798SOL    HW129030   0.139   4.381  14.569 -0.0027  0.0538  0.2013
 5798SOL    HW229031   0.136   4.244  14.581 -1.5074  0.9128 -1.1122
 5799SOL     OW29032   3.734   3.263   6.061 -0.2609  0.0507 -0.1723
 5799SOL    HW129033   3.707   3.306   5.979  0.7022 -0.2700 -0.6555
 5799SOL    HW229034   3.644   3.241   6.085  0.1616  0.7153  1.9810
 5800SOL     OW29035   4.105   3.854   4.718  0.1928  0.1316 -0.8094
 5800SOL    HW129036   4.106   3.759   4.730 -0.4530  0.3433  0.8768
 5800SOL    HW229037   4.187   3.874   4.765  0.7464  0.2039 -1.7936
 5801SOL     OW29038   2.360   0.825   6.059  0.0494  0.2345 -0.0309
 5801SOL    HW129039   2.294   0.763   6.027  0.9586 -1.9296  2.2310
 5801SOL    HW229040   2.343   0.896   5.998  1.6416  0.7404  0.1111
 5802SOL     OW29041   2.569   0.877   3.953 -0.0367 -0.1258  0.1994
 5802SOL    HW129042   2.560   0.892   3.859  0.8295 -1.2793 -0.0677
 5802SOL    HW229043   2.511   0.802   3.968 -1.0166  0.4592 -0.7084
 5803SOL     OW29044   1.506   3.406   8.939 -0.2516 -0.3323  0.5281
 5803SOL    HW129045   1.600   3.421   8.928 -0.2143  0.8425  2.2795
 5803SOL    HW229046   1.505   3.422   9.034  0.9565  1.6990  0.2028
 5804SOL     OW29047   0.329   4.272  11.381 -0.3408 -0.0387  0.3452
 5804SOL    HW129048   0.331   4.193  11.327  2.1556  1.3952 -1.6704
 5804SOL    HW229049   0.235   4.274  11.398 -0.6611  0.7447 -1.4685
 5805SOL     OW29050   1.491   0.655   7.295  0.1856  0.1835 -0.7929
 5805SOL    HW129051   1.512   0.581   7.238 -1.2142 -0.8985  0.0922
 5805SOL    HW229052   1.405   0.621   7.318 -0.5045  1.5702 -1.3570
 5806SOL     OW29053   2.457   3.798   5.124  0.6742 -0.1979  0.2858
 5806SOL    HW129054   2.531   3.846   5.085  1.1538 -0.0792  1.3337
 5806SOL    HW229055   2.397   3.796   5.050  0.3291 -0.6278  0.5798
 5807SOL     OW29056   1.801   0.800  15.810  0.3360 -0.3927 -0.3760
 5807SOL    HW129057   1.892   0.814  15.833  0.2488  0.8671 -0.7794
 5807SOL    HW229058   1.790   0.706  15.821  1.6631 -0.5835 -0.7439
 5808SOL     OW29059   1.264   0.084  14.431  0.5020 -0.2636  0.2486
 5808SOL    HW129060   1.200   0.141  14.387 -0.4081 -0.6932  1.0119
 5808SOL    HW229061   1.343   0.115  14.387 -0.0973 -0.7877 -1.2025
 5809SOL     OW29062   0.072   1.581   4.406  0.3038 -0.1650 -0.3379
 5809SOL    HW129063   0.081   1.629   4.488  0.7906  0.2538 -0.6298
 5809SOL    HW229064   0.048   1.657   4.352 -0.8067 -1.2629 -1.3791
 5810SOL     OW29065   3.043   2.723   8.122 -0.0843  0.0154  0.4594
 5810SOL    HW129066   3.128   2.687   8.147 -0.0459  0.7677  1.4059
 5810SOL    HW229067   3.033   2.701   8.030  1.8234  2.1093 -0.2309
 5811SOL     OW29068   0.993   4.472   5.297  0.1884 -0.1599 -0.2336
 5811SOL    HW129069   1.037   4.518   5.226 -2.2536  1.5862 -0.6075
 5811SOL    HW229070   0.923   4.535   5.310  1.5999  1.4599 -0.4602
 5812SOL     OW29071   1.824   0.389   2.360 -0.5124 -0.5673  0.0859
 5812SOL    HW129072   1.802   0.372   2.269 -0.4650 -3.0893  0.5419
 5812SOL    HW229073   1.829   0.484   2.360 -4.9151 -0.3325  0.7254
 5813SOL     OW29074   4.673   4.305   7.662  0.8319  0.1455 -0.1441
 5813SOL    HW129075   4.600   4.366   7.655  0.2606 -0.7055 -1.6117
 5813SOL    HW229076   4.691   4.300   7.755 -3.0175  0.9204  0.6681
 5814SOL     OW29077   0.247   4.214  12.079  1.1669  0.5050 -0.5916
 5814SOL    HW129078   0.192   4.159  12.023  3.4042 -0.0383 -2.2401
 5814SOL    HW229079   0.295   4.274  12.023  1.7051 -1.1365 -1.8963
 5815SOL     OW29080   1.425   3.704   9.561  0.3999  0.4431  0.3242
 5815SOL    HW129081   1.426   3.799   9.575  2.1321  0.9275 -3.3348
 5815SOL    HW229082   1.515   3.694   9.531  0.6299  2.2618  0.4308
 5816SOL     OW29083   0.242   2.037   7.449  0.7413 -0.6400  0.0876
 5816SOL    HW129084   0.259   1.997   7.364 -0.2013 -0.9438  0.0411
 5816SOL    HW229085   0.275   1.965   7.502  2.7202 -0.2545 -0.6338
 5817SOL     OW29086   1.811   3.858   6.950 -0.6021 -0.4284 -0.0569
 5817SOL    HW129087   1.730   3.822   6.986 -1.0208  0.7493  0.1801
 5817SOL    HW229088   1.847   3.911   7.021 -0.2495  0.4834 -0.9053
 5818SOL     OW29089   1.587   4.682   2.067 -0.2462 -0.9193 -0.9647
 5818SOL    HW129090   1.577   4.591   2.096 -2.6265 -0.3598 -0.1102
 5818SOL    HW229091   1.516   4.727   2.111 -0.4918 -0.4712 -1.8248
 5819SOL     OW29092   1.708   2.564  16.044  0.7756 -0.1741 -0.1997
 5819SOL    HW129093   1.663   2.641  16.078 -1.0497 -0.4423 -1.9992
 5819SOL    HW229094   1.713   2.592  15.952 -2.3279  1.0063  0.0036
 5820SOL     OW29095   4.714   4.642  12.613  0.0097  0.0906  0.0551
 5820SOL    HW129096   0.061   4.619  12.651 -0.7605  0.9454  2.2739
 5820SOL    HW229097   4.715   4.610  12.523  1.3247 -0.7646  0.3823
 5821SOL     OW29098   0.473   4.472   9.539  0.1548 -0.4119  0.0889
 5821SOL    HW129099   0.536   4.518   9.483  1.0020 -1.2429  0.3452
 5821SOL    HW229100   0.440   4.538   9.600  0.6404 -0.8402  0.8279
 5822SOL     OW29101   0.932   4.121   4.718 -0.4957  0.6286 -0.1470
 5822SOL    HW129102   0.944   4.034   4.755  1.1786  1.6486  1.7158
 5822SOL    HW229103   0.912   4.171   4.798 -0.1711  0.3697  0.0954
 5823SOL     OW29104   2.480   3.498   9.443  0.4649  0.0397 -0.8990
 5823SOL    HW129105   2.476   3.507   9.538  0.5768  0.3812 -0.9268
 5823SOL    HW229106   2.532   3.419   9.432 -0.6447 -0.5346 -2.0643
 5824SOL     OW29107   0.099   3.446   7.543  0.2853 -0.0147  0.0838
 5824SOL    HW129108   0.085   3.389   7.618  0.0581  1.1466  0.9357
 5824SOL    HW229109   0.033   3.411   7.483 -0.8152  3.2749 -0.6639
 5825SOL     OW29110   1.823   0.388  11.595 -0.7061  0.0388 -0.3879
 5825SOL    HW129111   1.791   0.465  11.549 -0.2463 -0.4827 -1.6054
 5825SOL    HW229112   1.833   0.319  11.529  0.2121 -2.2158  2.0774
 5826SOL     OW29113   1.098   2.513   0.923 -0.3129  0.4254 -1.0905
 5826SOL    HW129114   1.025   2.452   0.929 -1.6068  2.2237  1.2512
 5826SOL    HW229115   1.091   2.544   0.832 -0.5898  0.7640 -0.9515
 5827SOL     OW29116   3.894   3.058   4.722 -0.0159  0.3007 -0.4551
 5827SOL    HW129117   3.871   2.972   4.759  3.7872 -1.1015 -1.3464
 5827SOL    HW229118   3.812   3.102   4.741  0.4041  0.2111  1.5895
 5828SOL     OW29119   4.675   2.526   6.043  0.3505 -0.5196  0.2350
 5828SOL    HW129120   4.592   2.542   6.088  0.1369  0.9908 -0.6837
 5828SOL    HW229121   4.653   2.488   5.958 -1.9696 -2.9120  1.9147
 5829SOL     OW29122   1.985   3.389   0.371  0.4929 -0.1969  0.0277
 5829SOL    HW129123   2.039   3.401   0.293 -0.3494 -2.6248 -0.9289
 5829SOL    HW229124   1.966   3.480   0.390 -0.8501 -0.5860  0.5211
 5830SOL     OW29125   2.055   2.517   9.326 -0.4025  0.2424 -0.2202
 5830SOL    HW129126   2.058   2.460   9.249  1.1541  0.0884 -0.0426
 5830SOL    HW229127   1.963   2.506   9.352 -0.5855  0.4149 -0.8024
 5831SOL     OW29128   0.951   3.127   6.940  0.7142 -0.5341  0.4458
 5831SOL    HW129129   0.994   3.181   7.007 -0.3748 -2.0303  2.3644
 5831SOL    HW229130   0.892   3.197   6.912  0.0958 -0.8425  0.9891
 5832SOL     OW29131   2.904   1.584   8.890  0.4634  0.8653 -0.5011
 5832SOL    HW129132   2.856   1.532   8.826  0.0699 -0.4246  0.8104
 5832SOL    HW229133   2.995   1.570   8.864  0.0049 -1.5163 -0.8774
 5833SOL     OW29134   4.321   3.840   8.825 -0.5948  0.8108 -0.2645
 5833SOL    HW129135   4.282   3.764   8.868  0.2593  1.4025  1.5546
 5833SOL    HW229136   4.376   3.872   8.896  0.2688  0.9478 -0.9897
 5834SOL     OW29137   3.919   0.144   4.219 -0.1580 -0.5147  0.6466
 5834SOL    HW129138   3.991   0.084   4.241  0.7752 -0.4187 -2.1266
 5834SOL    HW229139   3.953   0.227   4.184 -2.3684  0.4674  0.8155
 5835SOL     OW29140   3.168   0.429  12.972  0.0585  0.6813  0.4470
 5835SOL    HW129141   3.250   0.408  13.016  0.9475 -0.7699 -1.9098
 5835SOL    HW229142   3.124   0.490  13.030  1.0937  1.5346  0.3412
 5836SOL     OW29143   0.023   0.301  15.446 -0.0316  0.1414 -0.6533
 5836SOL    HW129144   0.071   0.221  15.426 -0.6494  0.3018 -2.7200
 5836SOL    HW229145   0.086   0.349  15.501 -0.4975 -0.6684  0.5684
 5837SOL     OW29146   4.332   4.056  10.841  0.1973  0.2030  0.8384
 5837SOL    HW129147   4.320   4.038  10.934  0.0292 -0.4974  0.6762
 5837SOL    HW229148   4.424   4.081  10.845 -0.1563  1.1451  3.3808
 5838SOL     OW29149   0.042   3.565   8.229 -0.3321 -0.1807  0.2881
 5838SOL    HW129150   0.066   3.494   8.289 -0.5147  0.2850  0.9168
 5838SOL    HW229151   4.707   3.522   8.185 -0.2486 -0.9329  0.8887
 5839SOL     OW29152   4.313   3.129   5.672  0.5750  0.0490 -0.4363
 5839SOL    HW129153   4.288   3.221   5.661 -0.5408 -0.2756 -0.6493
 5839SOL    HW229154   4.357   3.108   5.589  2.2218 -0.3808  0.5498
 5840SOL     OW29155   1.843   1.644   4.248  0.6250 -0.0560  0.4048
 5840SOL    HW129156   1.798   1.728   4.232  2.0479  0.8666  1.2595
 5840SOL    HW229157   1.855   1.633   4.153  2.5851 -0.7969  0.7506
 5841SOL     OW29158   4.294   1.824   6.199 -0.3071 -0.2501  0.2338
 5841SOL    HW129159   4.210   1.847   6.238 -0.0982  2.9045 -1.2198
 5841SOL    HW229160   4.277   1.860   6.112 -0.3731  2.0138  1.1772
 5842SOL     OW29161   1.970   0.994  11.055  0.0236 -0.0656 -0.4275
 5842SOL    HW129162   1.894   1.049  11.075  0.1127  0.8171 -2.4268
 5842SOL    HW229163   1.947   0.978  10.963 -2.3534  0.1965  0.1205
 5843SOL     OW29164   1.993   1.087  14.321  0.5203  0.3180  0.0844
 5843SOL    HW129165   2.085   1.059  14.316  0.3537 -0.2080 -0.0742
 5843SOL    HW229166   1.980   1.084  14.416 -2.1770  2.3657 -0.2351
 5844SOL     OW29167   3.918   0.032   3.169  0.1357  0.3666 -0.0054
 5844SOL    HW129168   3.982   4.723   3.115  0.8028  0.1459  0.9605
 5844SOL    HW229169   3.956   0.117   3.150 -0.5675  0.6088 -0.3081
 5845SOL     OW29170   1.637   0.064   2.576  0.0098  0.0186  0.5612
 5845SOL    HW129171   1.638   0.053   2.481 -2.7455 -0.0787  0.5274
 5845SOL    HW229172   1.597   0.150   2.588 -0.5834 -0.1713 -0.0488
 5846SOL     OW29173   2.379   0.723  17.013 -0.2388 -0.2826 -0.3626
 5846SOL    HW129174   2.411   0.771  16.937 -1.8271  2.2605  0.5839
 5846SOL    HW229175   2.372   0.786  17.084 -0.5716 -0.8546  0.1101
 5847SOL     OW29176   2.500   0.210   4.260  0.3385  0.3873 -0.0020
 5847SOL    HW129177   2.534   0.300   4.261  0.5692  0.2729  2.8055
 5847SOL    HW229178   2.578   0.155   4.267 -0.6478 -0.8620  1.2786
 5848SOL     OW29179   0.079   1.026   3.295  0.2742  0.5257  0.4214
 5848SOL    HW129180   0.087   0.963   3.366  1.9526 -0.6751 -0.8416
 5848SOL    HW229181   0.110   1.110   3.329 -0.8251  0.3955  1.7591
 5849SOL     OW29182   2.180   0.125  11.807  0.4833  0.4006 -0.1193
 5849SOL    HW129183   2.100   0.177  11.814 -0.2814 -0.3355 -3.3568
 5849SOL    HW229184   2.160   0.070  11.732  0.0035  1.6497 -0.9099
 5850SOL     OW29185   1.379   2.621  17.618 -0.7899 -0.4347 -0.0536
 5850SOL    HW129186   1.348   2.610  17.708  1.1200  0.8923  0.7672
 5850SOL    HW229187   1.300   2.665  17.588  0.7204  2.0132 -0.4444
 5851SOL     OW29188   4.212   0.297   2.435  0.1897 -0.6821  0.0876
 5851SOL    HW129189   4.279   0.333   2.378 -0.8282  0.3909 -0.4225
 5851SOL    HW229190   4.146   0.364   2.417  0.2504 -0.5393  0.3856
 5852SOL     OW29191   0.941   4.421   8.288 -1.0193 -0.1202 -0.2170
 5852SOL    HW129192   1.002   4.458   8.352 -1.3661  0.5388 -0.2574
 5852SOL    HW229193   1.008   4.403   8.223 -0.9336  0.1242 -0.1997
 5853SOL     OW29194   1.553   4.619   3.988 -0.5634  0.2414  0.2027
 5853SOL    HW129195   1.614   4.665   4.046  1.5553  0.3229 -2.0866
 5853SOL    HW229196   1.544   4.683   3.917 -3.7638  0.1549  0.5558
 5854SOL     OW29197   4.063   1.142   9.324 -0.6448 -0.3719  0.2746
 5854SOL    HW129198   4.073   1.080   9.252 -0.8449 -1.8574  1.5082
 5854SOL    HW229199   4.071   1.229   9.285  2.8994 -1.4294 -1.3393
 5855SOL     OW29200   1.449   1.556  15.057 -0.3138 -0.6215  0.0579
 5855SOL    HW129201   1.401   1.559  15.140  0.8788  0.6961  0.7226
 5855SOL    HW229202   1.482   1.646  15.049  0.0544 -0.8168 -0.6084
 5856SOL     OW29203   1.343   3.801   1.428  0.2084 -0.5309  0.0420
 5856SOL    HW129204   1.384   3.791   1.342 -0.9721  1.1942 -0.7107
 5856SOL    HW229205   1.398   3.755   1.492  0.0999 -1.6796 -0.6913
 5857SOL     OW29206   1.272   0.453   5.600  0.4902  0.0613 -0.1069
 5857SOL    HW129207   1.348   0.511   5.608  1.2093 -1.0581  1.0816
 5857SOL    HW229208   1.211   0.495   5.661  0.9984  0.2777  0.2505
 5858SOL     OW29209   0.889   3.409   1.708 -0.4124 -0.1134  0.3471
 5858SOL    HW129210   0.968   3.364   1.678 -0.7993 -0.6164  0.0994
 5858SOL    HW229211   0.889   3.481   1.644 -1.0051 -0.0434  0.4244
 5859SOL     OW29212   1.778   0.245   3.478 -0.2280  0.1731  0.0922
 5859SOL    HW129213   1.771   0.262   3.384  0.9675 -1.7958 -0.3633
 5859SOL    HW229214   1.852   0.186   3.469 -0.2646  0.1221  0.1240
 5860SOL     OW29215   4.623   2.494  15.470 -0.0062  0.2528  0.1905
 5860SOL    HW129216   4.600   2.586  15.463  1.6627  0.6964  0.5261
 5860SOL    HW229217   4.713   2.501  15.439  0.0560  0.8613  0.5222
 5861SOL     OW29218   4.726   2.080   7.526 -0.2447 -0.1663  0.1605
 5861SOL    HW129219   4.694   1.990   7.529  0.4634 -0.4129  0.3431
 5861SOL    HW229220   0.081   2.081   7.500 -0.5144  0.2111 -0.8125
 5862SOL     OW29221   4.080   3.585   4.238  0.0055 -0.2680  0.5533
 5862SOL    HW129222   4.079   3.555   4.329  2.2022  0.5457  0.8246
 5862SOL    HW229223   4.032   3.512   4.197  0.9136 -0.4813 -0.1446
 5863SOL     OW29224   0.431   0.205   7.225  0.3483  0.1308 -0.6610
 5863SOL    HW129225   0.428   0.229   7.132 -0.1498  2.8044  0.0552
 5863SOL    HW229226   0.517   0.162   7.219  0.3930  0.3003 -1.2221
 5864SOL     OW29227   3.659   1.162  14.996 -0.5389 -0.2980 -0.1654
 5864SOL    HW129228   3.692   1.133  14.911 -0.1271  0.3877 -0.2387
 5864SOL    HW229229   3.620   1.244  14.967 -1.1842 -1.0063 -1.3527
 5865SOL     OW29230   3.586   2.369  16.985  0.3980  0.9489  0.1516
 5865SOL    HW129231   3.662   2.312  16.996 -0.9068 -1.1891 -1.8461
 5865SOL    HW229232   3.574   2.395  17.077 -0.2270 -0.5812  0.5111
 5866SOL     OW29233   2.740   0.914   7.169 -0.1204 -0.2123 -0.3147
 5866SOL    HW129234   2.680   0.989   7.169 -0.6135 -0.6008  2.1072
 5866SOL    HW229235   2.734   0.897   7.263  1.2680 -0.3661 -0.2637
 5867SOL     OW29236   0.928   3.399   6.149  0.5429  0.1075  0.4727
 5867SOL    HW129237   0.937   3.487   6.185  3.8086 -0.5344  1.2422
 5867SOL    HW229238   0.836   3.381   6.165  0.2219  0.7188 -0.7408
 5868SOL     OW29239   2.938   1.622  12.884 -0.7993 -0.1198 -0.0729
 5868SOL    HW129240   2.847   1.650  12.879  0.1842  3.2105  0.7189
 5868SOL    HW229241   2.970   1.662  12.804  2.7413  0.8118  1.8056
 5869SOL     OW29242   4.573   2.596   7.848 -0.6561  0.1214 -0.0213
 5869SOL    HW129243   4.650   2.584   7.791  0.5272 -1.1546  1.8320
 5869SOL    HW229244   4.552   2.508   7.878 -0.8698  0.9460  2.2136
 5870SOL     OW29245   1.598   0.992   2.878  0.3702  0.7833 -0.0125
 5870SOL    HW129246   1.618   1.041   2.958  0.3503  0.5096  0.1596
 5870SOL    HW229247   1.664   0.923   2.872  0.9123  1.3480 -0.5205
 5871SOL     OW29248   4.641   1.688   3.679  0.0959  0.1495 -0.1770
 5871SOL    HW129249   4.634   1.662   3.587  0.5940  0.5774 -0.3353
 5871SOL    HW229250   4.664   1.780   3.669  0.8206  0.0901  0.8788
 5872SOL     OW29251   2.083   2.951   9.695 -0.1222 -0.3488 -0.3999
 5872SOL    HW129252   2.137   2.991   9.763 -1.4819  2.7792 -1.1614
 5872SOL    HW229253   2.125   2.979   9.614  1.4293  0.2577  0.6015
 5873SOL     OW29254   3.509   3.140   5.664 -0.8642  0.3406  0.5808
 5873SOL    HW129255   3.579   3.091   5.620 -0.8234 -0.3999  1.4738
 5873SOL    HW229256   3.437   3.117   5.605  0.1632 -1.7512  0.1358
 5874SOL     OW29257   3.271   1.646   3.394  0.3438  0.4315 -0.2934
 5874SOL    HW129258   3.316   1.729   3.375  1.0036  0.1317 -0.0290
 5874SOL    HW229259   3.220   1.675   3.470  3.7665 -0.6499  2.4241
 5875SOL     OW29260   3.521   0.147   8.575 -0.3370 -0.5742 -0.1496
 5875SOL    HW129261   3.442   0.194   8.601  1.4629  1.9957  0.6832
 5875SOL    HW229262   3.592   0.169   8.637  0.8048  0.3273 -1.7822
 5876SOL     OW29263   3.982   3.122   6.055  0.1796  0.5261  0.4024
 5876SOL    HW129264   3.905   3.178   6.053  1.2097  1.8726 -0.7845
 5876SOL    HW229265   4.010   3.101   5.966 -1.3356 -2.0891  0.5245
 5877SOL     OW29266   0.742   1.191   2.819  0.0450  0.7485 -0.4173
 5877SOL    HW129267   0.812   1.149   2.868 -0.1702  1.2590  0.3144
 5877SOL    HW229268   0.735   1.136   2.741 -1.8150  0.8037 -0.2822
 5878SOL     OW29269   3.937   3.883  17.656 -0.1488  0.5912 -0.1063
 5878SOL    HW129270   3.951   3.795  17.691 -3.3051  0.2540  0.2800
 5878SOL    HW229271   3.897   3.865  17.571  0.1471  1.2087 -0.3767
 5879SOL     OW29272   3.386   3.151   9.832 -0.1357 -0.0795 -0.2797
 5879SOL    HW129273   3.465   3.187   9.792  1.7464 -2.4848  1.3347
 5879SOL    HW229274   3.399   3.057   9.837 -1.3114 -0.1913  0.6027
 5880SOL     OW29275   0.479   4.144   7.163  0.1130  0.4932 -0.0963
 5880SOL    HW129276   0.430   4.197   7.101 -0.0010 -0.2638 -0.6501
 5880SOL    HW229277   0.509   4.066   7.116  2.3355  1.1183  0.3099
 5881SOL     OW29278   1.495   1.730  12.889  0.0592 -0.2268  0.3980
 5881SOL    HW129279   1.544   1.652  12.917 -0.4945 -1.4331 -1.9652
 5881SOL    HW229280   1.567   1.785  12.861 -2.5277  1.9004 -2.0412
 5882SOL     OW29281   3.237   1.460   2.678  0.0592  0.0267 -0.0621
 5882SOL    HW129282   3.262   1.551   2.695 -0.7720  0.1794  0.3308
 5882SOL    HW229283   3.192   1.452   2.762  2.9760 -1.6694  1.3263
 5883SOL     OW29284   2.325   0.828   4.831  0.1063 -0.3175  0.2452
 5883SOL    HW129285   2.407   0.874   4.850 -0.1084  1.0199 -2.2018
 5883SOL    HW229286   2.342   0.741   4.870  0.8747  0.1684  1.0022
 5884SOL     OW29287   2.991   2.704   2.973  0.8645 -0.3255 -0.2098
 5884SOL    HW129288   2.957   2.632   3.026  0.4309  0.6484  0.8396
 5884SOL    HW229289   2.928   2.695   2.902  0.7219 -0.7110 -0.0321
 5885SOL     OW29290   0.643   2.486  13.478  0.1837  0.3158 -0.3155
 5885SOL    HW129291   0.676   2.572  13.452 -0.9738  1.3869  1.7556
 5885SOL    HW229292   0.665   2.451  13.391  0.2015  2.4412 -1.1601
 5886SOL     OW29293   1.428   4.372   5.208 -0.0811 -0.0392  0.3172
 5886SOL    HW129294   1.380   4.329   5.138  0.5150 -1.1556  0.5939
 5886SOL    HW229295   1.363   4.437   5.235 -1.8871 -2.2929  1.2986
 5887SOL     OW29296   0.073   1.679   2.419 -0.4570 -0.5182 -0.5942
 5887SOL    HW129297   0.051   1.595   2.379 -0.9509 -1.1573  1.0478
 5887SOL    HW229298   4.732   1.727   2.391  0.2505  0.9660 -0.0201
 5888SOL     OW29299   0.877   4.315   8.592 -0.0621  0.1523  0.0758
 5888SOL    HW129300   0.807   4.280   8.536  1.3597 -0.8076 -1.0925
 5888SOL    HW229301   0.891   4.403   8.559 -0.8505 -0.9159 -3.0514
 5889SOL     OW29302   3.891   3.337   6.605 -0.5219  0.4701  0.6468
 5889SOL    HW129303   3.807   3.302   6.632  0.3555 -1.8105  0.3815
 5889SOL    HW229304   3.876   3.324   6.512  0.3908  0.1023  0.5478
 5890SOL     OW29305   2.968   2.073   6.854 -0.2240 -0.6807 -1.1801
 5890SOL    HW129306   3.044   2.128   6.871  0.6633 -1.1345 -3.6893
 5890SOL    HW229307   2.995   2.057   6.763 -2.1170  1.6895 -2.1710
 5891SOL     OW29308   0.937   2.773   3.607  0.2880  0.2719  0.0200
 5891SOL    HW129309   1.010   2.825   3.642  0.3942  1.6311 -2.2345
 5891SOL    HW229310   0.896   2.837   3.548  1.8724  0.4145 -0.9342
 5892SOL     OW29311   3.542   2.667   6.150 -0.0439  1.0409 -0.5148
 5892SOL    HW129312   3.608   2.600   6.169 -1.6513 -0.7047 -1.0935
 5892SOL    HW229313   3.462   2.617   6.134  0.3844  1.0506 -2.5946
 5893SOL     OW29314   2.448   0.945   1.758  0.6879  0.4115  0.2413
 5893SOL    HW129315   2.411   1.004   1.692 -1.1143 -2.6008 -1.4366
 5893SOL    HW229316   2.379   0.879   1.750  0.0923  1.2217 -1.4305
 5894SOL     OW29317   0.773   2.070   6.564  0.3616 -0.2845 -0.4637
 5894SOL    HW129318   0.840   2.030   6.509  2.1469 -0.7718  2.0474
 5894SOL    HW229319   0.719   2.103   6.493 -2.5360 -2.2221  0.8219
 5895SOL     OW29320   0.584   1.924   6.732  0.2300 -0.3707 -0.2639
 5895SOL    HW129321   0.564   1.835   6.703 -1.7510  0.7201 -2.1904
 5895SOL    HW229322   0.640   1.968   6.668  0.8849  0.1740  0.6878
 5896SOL     OW29323   3.870   1.154   4.360  0.3144 -0.4275  0.3385
 5896SOL    HW129324   3.782   1.140   4.325  0.3827 -0.5505  0.2196
 5896SOL    HW229325   3.891   1.246   4.341 -1.7404 -0.5669 -2.5466
 5897SOL     OW29326   3.909   0.744   9.404  0.1809  0.4369  0.0066
 5897SOL    HW129327   4.000   0.723   9.428  0.2531 -0.5931 -1.1277
 5897SOL    HW229328   3.924   0.807   9.334 -1.1215  0.5481 -0.1575
 5898SOL     OW29329   0.539   1.554   7.899 -0.1303 -0.2949  0.1376
 5898SOL    HW129330   0.515   1.578   7.989  2.5240 -0.7966  0.9850
 5898SOL    HW229331   0.454   1.553   7.855 -1.5814  2.8091  2.8077
 5899SOL     OW29332   4.324   4.667   6.703 -0.3196  0.0494  0.4609
 5899SOL    HW129333   4.393   4.679   6.769  2.7780 -1.0469 -2.5711
 5899SOL    HW229334   4.287   4.593   6.752  0.9935 -2.8016 -2.9058
 5900SOL     OW29335   1.488   2.344   5.769 -0.0076  0.1383 -0.4067
 5900SOL    HW129336   1.470   2.260   5.811 -1.7446  0.0044 -1.4526
 5900SOL    HW229337   1.403   2.385   5.755 -1.0063 -2.4002 -1.6587
 5901SOL     OW29338   4.227   1.597   2.919  0.3831  0.0513 -0.3608
 5901SOL    HW129339   4.270   1.673   2.880  2.7401 -0.5049  1.2297
 5901SOL    HW229340   4.137   1.612   2.890  1.5156  2.9871 -2.3640
 5902SOL     OW29341   2.224   1.813   7.132 -0.0186  0.2005  0.3577
 5902SOL    HW129342   2.209   1.865   7.053  1.2420  3.5685  2.2832
 5902SOL    HW229343   2.314   1.789   7.109 -0.0557  0.9559 -0.5795
 5903SOL     OW29344   0.606   2.239   4.392  0.0682  0.0550  0.5412
 5903SOL    HW129345   0.582   2.273   4.479  2.8751 -0.1631  1.4035
 5903SOL    HW229346   0.647   2.315   4.351  1.6859 -1.1367 -0.0701
 5904SOL     OW29347   1.152   1.005   6.438  0.2765 -0.0892 -0.1081
 5904SOL    HW129348   1.235   0.974   6.475  0.2210 -0.1461 -0.0327
 5904SOL    HW229349   1.137   1.090   6.481  1.3565  1.1777 -2.2329
 5905SOL     OW29350   0.556   4.458   8.071 -0.1708 -0.2083 -0.0897
 5905SOL    HW129351   0.546   4.548   8.102  0.7892 -0.0327 -0.2681
 5905SOL    HW229352   0.577   4.475   7.979 -3.5408  0.4472 -0.7093
 5906SOL     OW29353   1.248   3.535   8.404  0.1496 -0.1387  0.3447
 5906SOL    HW129354   1.203   3.576   8.331 -1.1121 -0.9769  0.6632
 5906SOL    HW229355   1.287   3.460   8.358  1.9244 -0.8971  3.0756
 5907SOL     OW29356   2.452   2.361  14.477  0.0006  0.4589 -0.6411
 5907SOL    HW129357   2.449   2.393  14.387  0.9251  1.3982 -0.3414
 5907SOL    HW229358   2.395   2.430  14.511  0.5288  0.3805  0.4000
 5908SOL     OW29359   1.185   3.151   1.967  0.4956 -0.1493  0.0261
 5908SOL    HW129360   1.237   3.131   1.889 -0.2460  1.1866 -0.8180
 5908SOL    HW229361   1.166   3.245   1.959 -2.6927 -1.0124 -2.4731
 5909SOL     OW29362   0.133   0.098   1.851 -0.0178 -0.0082  0.3519
 5909SOL    HW129363   0.068   0.029   1.866  0.1214 -0.6713 -2.0255
 5909SOL    HW229364   0.217   0.067   1.884  0.9592  1.4769 -0.7384
 5910SOL     OW29365   2.493   3.957   3.232 -0.3534 -0.7063 -0.0398
 5910SOL    HW129366   2.449   3.888   3.182 -1.5560 -1.1917  1.6740
 5910SOL    HW229367   2.574   3.963   3.181  0.4751  0.3100  1.3971
 5911SOL     OW29368   4.662   0.624  16.342  0.0377 -0.4927 -0.2091
 5911SOL    HW129369   4.628   0.700  16.295 -0.2895  0.7542  2.0334
 5911SOL    HW229370   4.626   0.548  16.297  2.8223 -2.6740  1.2432
 5912SOL     OW29371   0.310   1.540   3.865 -0.3721 -0.1827  0.1962
 5912SOL    HW129372   0.273   1.527   3.778 -0.3366  0.1290  0.1341
 5912SOL    HW229373   0.232   1.526   3.918 -1.8313  1.0710 -1.6212
 5913SOL     OW29374   4.320   1.676  17.717  0.8013  0.1502  0.3579
 5913SOL    HW129375   4.299   1.697  17.626 -1.2057  2.0535  1.2691
 5913SOL    HW229376   4.232   1.675   0.007  1.1631  3.7092  1.2073
 5914SOL     OW29377   0.317   1.939  13.795  0.5085  0.2736  0.0494
 5914SOL    HW129378   0.368   1.866  13.830  0.9829  0.1075 -0.9824
 5914SOL    HW229379   0.314   2.001  13.868  0.3616 -0.0783  0.3404
 5915SOL     OW29380   2.686   4.019  15.611 -0.7380  0.4629  0.1975
 5915SOL    HW129381   2.650   4.058  15.691  1.6462 -2.5187  2.7393
 5915SOL    HW229382   2.765   3.972  15.636 -0.7441  1.0088  1.2556
 5916SOL     OW29383   0.131   2.306   0.307 -0.7138  0.6265  0.0707
 5916SOL    HW129384   0.114   2.387   0.259  0.3214  0.5409 -0.4251
 5916SOL    HW229385   0.198   2.329   0.372 -0.0315 -0.0819 -0.3919
 5917SOL     OW29386   0.719   3.576   8.006  0.1298 -0.6339  0.0053
 5917SOL    HW129387   0.735   3.486   7.976  0.3407  0.0818 -1.9872
 5917SOL    HW229388   0.794   3.623   7.970  0.3969 -1.3823 -0.4245
 5918SOL     OW29389   2.957   1.899   6.052  0.1703 -0.8004  0.2138
 5918SOL    HW129390   2.956   1.893   5.956  0.6728  2.3161  0.0208
 5918SOL    HW229391   2.914   1.983   6.070 -2.2031 -2.0175  0.2357
 5919SOL     OW29392   0.487   4.491   1.291 -0.7933 -0.4502 -0.3852
 5919SOL    HW129393   0.431   4.440   1.232  0.6439 -0.6303 -1.5743
 5919SOL    HW229394   0.416   4.544   1.328 -2.3429 -2.7173 -0.1562
 5920SOL     OW29395   3.419   4.702  17.448 -0.6985 -0.3043 -0.2451
 5920SOL    HW129396   3.400   0.058  17.452 -0.8005 -0.2531 -1.9124
 5920SOL    HW229397   3.514   4.712  17.434 -0.6301 -2.2565 -1.1399
 5921SOL     OW29398   0.034   4.613   6.649 -0.3623 -0.1236 -0.2230
 5921SOL    HW129399   0.043   4.522   6.677 -1.1565 -0.5785 -1.4091
 5921SOL    HW229400   0.126   4.636   6.641 -0.6548  1.0939 -0.1668
 5922SOL     OW29401   4.549   0.698   1.461 -0.0725  0.1403 -0.3649
 5922SOL    HW129402   4.557   0.608   1.492 -0.3810  0.0990 -0.4116
 5922SOL    HW229403   4.578   0.685   1.370 -0.2814  1.2847 -0.5942
 5923SOL     OW29404   4.378   2.732  13.598 -0.2105  0.4675 -0.8407
 5923SOL    HW129405   4.432   2.797  13.642 -0.9369 -0.6936  1.7236
 5923SOL    HW229406   4.409   2.737  13.507  0.9276  1.6327 -0.3883
 5924SOL     OW29407   1.899   4.041   4.514 -0.2620 -0.4364  0.0126
 5924SOL    HW129408   1.835   3.973   4.536 -0.2845 -0.2525  0.5079
 5924SOL    HW229409   1.840   4.088   4.455  1.2031  1.1072 -0.2176
 5925SOL     OW29410   1.090   4.553   9.169  0.1426 -0.2762  0.2931
 5925SOL    HW129411   1.066   4.460   9.159 -1.0580  0.0716 -0.0946
 5925SOL    HW229412   1.045   4.576   9.250 -0.3767 -0.7928  0.1562
 5926SOL     OW29413   1.443   1.556   7.137  0.0731  0.0929 -0.5892
 5926SOL    HW129414   1.458   1.605   7.057  1.0499 -0.5529 -0.8015
 5926SOL    HW229415   1.512   1.581   7.199  1.8640 -0.2982 -2.4491
 5927SOL     OW29416   0.995   3.278  14.669 -0.2934 -0.6619 -0.5120
 5927SOL    HW129417   0.971   3.308  14.582  0.8041  1.9859  0.1098
 5927SOL    HW229418   1.064   3.214  14.651 -0.0630  0.0363 -2.1234
 5928SOL     OW29419   4.705   3.933  13.459  0.6569  0.8331 -0.2856
 5928SOL    HW129420   4.705   3.878  13.381  2.3035  1.5898 -0.8174
 5928SOL    HW229421   0.058   3.914  13.483  0.3369 -0.5904 -0.2107
 5929SOL     OW29422   3.104   0.158   6.365 -0.4216  0.5235 -0.3212
 5929SOL    HW129423   3.015   0.124   6.366 -0.2003 -0.0081  3.4062
 5929SOL    HW229424   3.099   0.206   6.448  1.9313  0.7449 -0.3084
 5930SOL     OW29425   3.398   1.590  14.823  0.0451  0.0982  0.0176
 5930SOL    HW129426   3.335   1.522  14.800  0.9010 -0.1079 -1.6634
 5930SOL    HW229427   3.453   1.535  14.879 -0.8732 -1.0418 -0.1996
 5931SOL     OW29428   2.160   0.580  10.903 -0.4209 -0.5712 -0.0520
 5931SOL    HW129429   2.249   0.549  10.921 -0.2759  0.3210  0.7905
 5931SOL    HW229430   2.112   0.498  10.892 -0.2885 -0.7769  0.9065
 5932SOL     OW29431   4.540   0.629   9.438  0.8458  0.0512 -0.2873
 5932SOL    HW129432   4.527   0.612   9.531  0.0509  0.5466 -0.3072
 5932SOL    HW229433   4.463   0.581   9.407  0.8699 -0.0258 -0.2283
 5933SOL     OW29434   1.019   0.580   5.091 -0.0398  0.0195  0.1448
 5933SOL    HW129435   1.051   0.520   5.159  2.1910  1.1469  0.1052
 5933SOL    HW229436   0.950   0.612   5.149  2.0502  1.6395  1.7777
 5934SOL     OW29437   0.726   0.312   9.432 -0.1272  0.1466  0.1276
 5934SOL    HW129438   0.668   0.339   9.361  2.5425  1.1550 -1.6822
 5934SOL    HW229439   0.734   0.384   9.494  0.5549 -0.6245  0.9310
 5935SOL     OW29440   2.363   4.030   7.107 -0.4549  0.6214  0.1434
 5935SOL    HW129441   2.356   4.019   7.202  1.2617 -1.7492  0.0082
 5935SOL    HW229442   2.422   3.961   7.077 -1.4000 -0.3137  0.4678
 5936SOL     OW29443   3.081   3.650  16.339  0.2752  0.5611  0.0771
 5936SOL    HW129444   3.008   3.703  16.369 -0.1052  0.4065 -0.5717
 5936SOL    HW229445   3.097   3.584  16.406  0.8623  0.0771 -0.5295
 5937SOL     OW29446   0.091   1.066   0.767  0.3376  0.2840  0.0447
 5937SOL    HW129447   0.137   0.996   0.814 -0.0866 -1.0572 -1.5309
 5937SOL    HW229448   0.101   1.023   0.682  1.4800 -1.9677  1.3114
 5938SOL     OW29449   1.201   2.654   9.859 -0.3381 -0.0237 -0.2572
 5938SOL    HW129450   1.192   2.688   9.948 -1.4343  1.9378 -1.1271
 5938SOL    HW229451   1.278   2.700   9.826  1.1290 -0.3354  2.7761
 5939SOL     OW29452   0.714   3.505   6.462 -0.1197  0.5823  0.2324
 5939SOL    HW129453   0.703   3.586   6.512  1.3935  1.2755 -0.5620
 5939SOL    HW229454   0.797   3.526   6.418 -1.5504  2.9356 -1.3113
 5940SOL     OW29455   3.864   1.725  15.686 -0.2761 -0.4835 -0.3177
 5940SOL    HW129456   3.888   1.818  15.678  0.5694 -0.8461 -2.0816
 5940SOL    HW229457   3.880   1.694  15.597 -0.3567 -2.4440  0.3649
 5941SOL     OW29458   2.914   2.514   6.328  0.4553 -0.1589 -0.0354
 5941SOL    HW129459   2.828   2.495   6.290  0.5654  2.1738 -1.4687
 5941SOL    HW229460   2.938   2.594   6.282  0.6504 -0.4012 -0.3536
 5942SOL     OW29461   0.197   1.537  16.964  0.1067  0.0428 -0.0661
 5942SOL    HW129462   0.181   1.631  16.978 -0.1921 -0.3867  2.4591
 5942SOL    HW229463   0.270   1.545  16.903  1.1597  1.2023  1.3421
 5943SOL     OW29464   2.414   2.004  16.004  0.1780 -0.8213 -0.0962
 5943SOL    HW129465   2.436   1.978  16.093 -1.3161  0.0767  0.5162
 5943SOL    HW229466   2.320   2.014  16.014  0.5085  1.3115  0.9310
 5944SOL     OW29467   1.636   1.504   4.745 -0.2252 -0.3572  0.5146
 5944SOL    HW129468   1.617   1.411   4.751 -1.3833 -0.0234  2.0240
 5944SOL    HW229469   1.574   1.529   4.814  0.5291  2.3548  0.2038
 5945SOL     OW29470   4.384   1.290   4.580 -0.4487  0.0117 -0.5517
 5945SOL    HW129471   4.349   1.369   4.621 -0.7941 -0.3481 -0.1453
 5945SOL    HW229472   4.308   1.232   4.587  0.1352 -0.3966  2.4350
 5946SOL     OW29473   1.889   3.148   3.124  0.0584  0.2705  0.4682
 5946SOL    HW129474   1.925   3.098   3.198  0.4375  0.9678  0.7541
 5946SOL    HW229475   1.801   3.154   3.160  0.0532  3.5742 -0.0968
 5947SOL     OW29476   2.348   0.720   6.514  0.5942  0.5608 -0.2693
 5947SOL    HW129477   2.254   0.711   6.528  0.2918 -0.1100 -2.6797
 5947SOL    HW229478   2.375   0.637   6.473 -1.3373  0.3888 -1.2022
 5948SOL     OW29479   2.758   0.500  16.923  0.0188  0.0395  0.0451
 5948SOL    HW129480   2.718   0.421  16.959  0.2119  0.3449  0.9509
 5948SOL    HW229481   2.848   0.477  16.897 -1.2919 -0.7254 -3.7763
 5949SOL     OW29482   4.330   4.499   1.566  0.2123 -0.0611 -0.1275
 5949SOL    HW129483   4.288   4.570   1.516  1.1967 -1.3635 -2.7906
 5949SOL    HW229484   4.304   4.422   1.516  0.3499 -0.7722  0.8942
 5950SOL     OW29485   2.301   2.308   8.688 -0.0631 -0.1678 -0.2348
 5950SOL    HW129486   2.343   2.288   8.772 -3.4625 -0.2403  1.4420
 5950SOL    HW229487   2.368   2.361   8.645 -0.5043  0.7328  0.1721
 5951SOL     OW29488   2.436   2.438   7.942 -0.4447 -0.2780  0.1716
 5951SOL    HW129489   2.474   2.489   7.870 -1.5532 -0.2155 -0.3615
 5951SOL    HW229490   2.485   2.356   7.938  0.5609  0.3272  0.0048
 5952SOL     OW29491   4.218   1.144   9.590 -0.0026  0.0421  0.0452
 5952SOL    HW129492   4.226   1.061   9.543  0.0026 -0.3679  0.7672
 5952SOL    HW229493   4.163   1.198   9.533  0.7674  0.2260 -0.5206
 5953SOL     OW29494   0.337   1.898   4.902 -0.1107  0.4877  0.2081
 5953SOL    HW129495   0.305   1.956   4.970  2.6151  1.3192  0.7543
 5953SOL    HW229496   0.293   1.814   4.919  0.0976 -0.2049 -2.5748
 5954SOL     OW29497   1.142   2.049   9.284 -0.1505 -0.0895  0.1084
 5954SOL    HW129498   1.096   2.030   9.202  0.4615 -0.6388 -0.1036
 5954SOL    HW229499   1.227   2.006   9.277 -0.0305  0.1717 -0.0380
 5955SOL     OW29500   4.235   2.942  10.910 -0.3810  0.0470  0.0965
 5955SOL    HW129501   4.211   2.908  10.824 -2.5343  1.4256  0.1523
 5955SOL    HW229502   4.325   2.974  10.898  0.5827 -3.1892 -1.2034
 5956SOL     OW29503   3.073   2.228   6.245 -0.4953  0.2528 -0.4848
 5956SOL    HW129504   3.043   2.297   6.186  1.4858 -0.2131 -2.0365
 5956SOL    HW229505   3.025   2.251   6.325 -0.1158 -1.2898  0.1758
 5957SOL     OW29506   3.884   1.939   7.697  0.3573  0.1604  0.3457
 5957SOL    HW129507   3.966   1.925   7.650  0.8667  0.9029  1.0145
 5957SOL    HW229508   3.894   1.856   7.744 -1.7637 -0.4229 -0.2239
 5958SOL     OW29509   1.318   2.442   3.870 -0.0630  0.3161 -0.6449
 5958SOL    HW129510   1.388   2.428   3.806  0.2369  2.1587 -0.7174
 5958SOL    HW229511   1.285   2.525   3.836  1.2428  0.8302 -0.6520
 5959SOL     OW29512   4.369   3.880   6.753 -0.2478  0.3474 -0.2848
 5959SOL    HW129513   4.341   3.789   6.766 -1.9044  1.1203  1.5705
 5959SOL    HW229514   4.427   3.882   6.829 -0.5213 -0.0460 -0.0629
 5960SOL     OW29515   2.133   2.658  17.118  0.5414  0.3913  0.1749
 5960SOL    HW129516   2.173   2.712  17.185  2.9953 -0.6311 -0.4694
 5960SOL    HW229517   2.056   2.626  17.165  0.0576 -0.5999 -1.2810
 5961SOL     OW29518   3.950   2.227  11.347  0.0891  0.0646  0.1633
 5961SOL    HW129519   3.970   2.311  11.306 -2.4457  0.5177 -0.1616
 5961SOL    HW229520   3.915   2.249  11.433  0.6046 -1.2082  0.6926
 5962SOL     OW29521   0.950   1.471   4.790 -0.6305 -0.0361  0.1171
 5962SOL    HW129522   0.858   1.460   4.812 -0.8299  1.3516  0.0184
 5962SOL    HW229523   0.971   1.400   4.730  1.0185  1.5572 -1.2107
 5963SOL     OW29524   3.673   1.002   8.571  0.6461  0.2839  0.1575
 5963SOL    HW129525   3.608   1.047   8.517 -0.1931 -0.3927  0.6024
 5963SOL    HW229526   3.728   0.955   8.509  0.3346  0.0769  0.0373
 5964SOL     OW29527   0.358   1.709   8.594  0.0516 -0.7864  0.1638
 5964SOL    HW129528   0.389   1.738   8.508 -1.0714 -1.9212 -0.6083
 5964SOL    HW229529   0.415   1.766   8.646 -0.3600 -1.6133  1.5117
 5965SOL     OW29530   4.526   0.196  10.927  0.1268 -0.0719 -0.4120
 5965SOL    HW129531   4.531   0.212  10.832  0.1787 -1.1203 -0.5820
 5965SOL    HW229532   4.579   0.118  10.942 -0.8175 -0.3460  1.4494
 5966SOL     OW29533   3.776   2.994   2.944 -0.3243  0.2624 -0.5018
 5966SOL    HW129534   3.727   2.939   3.004  1.0710 -1.9630 -1.3871
 5966SOL    HW229535   3.713   3.016   2.875 -1.4781 -0.6183  0.2812
 5967SOL     OW29536   0.849   4.526   3.376  0.0301 -0.2486 -0.2389
 5967SOL    HW129537   0.802   4.581   3.313 -0.7170 -0.2952  0.2795
 5967SOL    HW229538   0.808   4.442   3.355 -0.0268 -1.1074  3.2088
 5968SOL     OW29539   1.266   1.932   1.470 -0.2969 -0.0447  0.2218
 5968SOL    HW129540   1.211   2.003   1.435  1.2023  0.9661 -0.0729
 5968SOL    HW229541   1.200   1.893   1.528 -1.1017  3.2842  1.5334
 5969SOL     OW29542   4.387   3.523   3.140  0.3946 -0.1133 -0.9122
 5969SOL    HW129543   4.316   3.477   3.095 -0.8563 -0.2657  1.1924
 5969SOL    HW229544   4.464   3.480   3.104 -0.4062 -0.2079 -2.5166
 5970SOL     OW29545   2.398   2.199  11.273 -0.0845  0.0013 -0.8267
 5970SOL    HW129546   2.441   2.117  11.298  0.5898  1.0541  1.4315
 5970SOL    HW229547   2.465   2.265  11.290  1.9065 -2.2542  0.0782
 5971SOL     OW29548   2.796   2.445   8.011 -0.1132 -0.6617  0.3665
 5971SOL    HW129549   2.737   2.510   8.050  1.0615  0.5304  0.1194
 5971SOL    HW229550   2.808   2.392   8.091 -0.8027  0.3083  1.1112
 5972SOL     OW29551   2.191   4.014  14.668 -0.0377 -0.5832  0.0819
 5972SOL    HW129552   2.163   3.991  14.757 -0.0944 -1.4848 -0.1667
 5972SOL    HW229553   2.107   4.043  14.634 -0.8303 -1.7513  1.0343
 5973SOL     OW29554   2.632   0.679  11.692 -0.0003 -0.2546  0.0296
 5973SOL    HW129555   2.586   0.661  11.610  0.2733 -1.1218  0.0655
 5973SOL    HW229556   2.593   0.611  11.747 -1.4204  0.4296 -0.1466
 5974SOL     OW29557   1.243   1.456  17.642 -0.1758  0.2284 -0.1474
 5974SOL    HW129558   1.300   1.470  17.567 -0.6681 -1.5166 -0.8481
 5974SOL    HW229559   1.263   1.367  17.673  0.1372  0.0826 -0.7616
 5975SOL     OW29560   4.142   0.848   8.754  0.3919 -0.7864  0.0425
 5975SOL    HW129561   4.211   0.851   8.688 -1.9055  0.4144 -2.3559
 5975SOL    HW229562   4.141   0.755   8.776  3.4097 -0.3646  1.9205
 5976SOL     OW29563   1.211   3.539  13.815  0.1321  0.1117 -0.7673
 5976SOL    HW129564   1.257   3.558  13.897  0.7959  2.6551 -1.7360
 5976SOL    HW229565   1.280   3.527  13.750  1.3094 -1.5837  0.8003
 5977SOL     OW29566   1.702   0.824   2.289  0.6556 -0.1477 -0.0742
 5977SOL    HW129567   1.742   0.910   2.297 -1.9671  0.9381  1.2554
 5977SOL    HW229568   1.662   0.833   2.202  0.3887  0.7346  0.1430
 5978SOL     OW29569   3.749   0.903   1.723 -0.8192 -0.3174  0.0854
 5978SOL    HW129570   3.765   0.811   1.743 -0.3534  0.0560  1.4370
 5978SOL    HW229571   3.707   0.892   1.637 -2.1861  0.4662  0.6538
 5979SOL     OW29572   3.950   4.135   3.234  0.5685  0.5153 -0.6182
 5979SOL    HW129573   3.949   4.047   3.195  1.5154  0.0765  0.3430
 5979SOL    HW229574   3.996   4.123   3.317 -0.5449  0.5234  0.0069
 5980SOL     OW29575   4.671   2.471   6.726  0.2688  0.0100  0.0897
 5980SOL    HW129576   4.695   2.378   6.730 -1.4751 -0.3489  2.2836
 5980SOL    HW229577   4.725   2.503   6.654  1.7784 -1.2131  0.6581
 5981SOL     OW29578   4.391   3.788   0.186  0.2261  0.5432 -0.0998
 5981SOL    HW129579   4.358   3.874   0.211  1.8647  1.0117  0.4804
 5981SOL    HW229580   4.386   3.751   0.274  2.0386 -1.7522 -0.9387
 5982SOL     OW29581   2.828   1.352   3.835 -0.1644 -0.0266 -0.2135
 5982SOL    HW129582   2.819   1.379   3.743  0.0842 -1.0161 -0.5361
 5982SOL    HW229583   2.759   1.286   3.841  0.4984 -0.7954 -0.9037
 5983SOL     OW29584   2.429   1.429   8.682 -0.2150 -0.0392  0.3987
 5983SOL    HW129585   2.413   1.369   8.609  2.3112  0.9433 -0.9475
 5983SOL    HW229586   2.465   1.505   8.636 -0.1781 -2.4034 -3.4436
 5984SOL     OW29587   3.491   3.946  15.079 -0.1699  0.3339  0.5601
 5984SOL    HW129588   3.570   3.907  15.042 -0.1886 -0.8852  1.7913
 5984SOL    HW229589   3.521   4.036  15.086 -0.0196  0.5649 -3.3075
 5985SOL     OW29590   1.072   1.305   9.162 -0.2977  0.5149 -0.5036
 5985SOL    HW129591   1.065   1.399   9.176 -0.7391  0.1530  1.7061
 5985SOL    HW229592   1.066   1.307   9.067 -1.1464  1.0163 -0.4445
 5986SOL     OW29593   3.986   3.282   0.244 -0.8033  0.3684  0.2746
 5986SOL    HW129594   3.991   3.343   0.170 -1.1855 -2.1748 -1.8395
 5986SOL    HW229595   3.943   3.210   0.199 -0.3762  0.1832  0.1623
 5987SOL     OW29596   0.649   0.534   6.497  0.5790  0.7335 -0.5487
 5987SOL    HW129597   0.638   0.629   6.506  0.2815  0.3217  3.2555
 5987SOL    HW229598   0.563   0.516   6.459  1.1828 -4.6977  0.6870
 5988SOL     OW29599   4.137   0.031   2.952 -0.5466  0.5518  0.0091
 5988SOL    HW129600   4.158   0.105   3.010 -2.2965  0.6896  0.4870
 5988SOL    HW229601   4.121   0.064   2.864  2.0480  1.0077 -0.2652
 5989SOL     OW29602   1.702   0.527  12.751  0.0562  0.2859  0.6602
 5989SOL    HW129603   1.782   0.514  12.699 -0.7363  0.8456 -0.6942
 5989SOL    HW229604   1.695   0.441  12.791 -2.9505  1.5793  2.8977
 5990SOL     OW29605   3.953   3.643   1.890  0.1740  0.5774 -0.2133
 5990SOL    HW129606   3.864   3.647   1.855  0.0833 -3.4866 -0.4817
 5990SOL    HW229607   3.952   3.657   1.985 -1.3098  0.7901 -0.2513
 5991SOL     OW29608   2.725   4.541   7.227  0.9536 -0.0213  0.1150
 5991SOL    HW129609   2.663   4.613   7.221 -0.4941 -1.1578  1.3166
 5991SOL    HW229610   2.778   4.556   7.150  1.3271 -0.2674  0.3245
 5992SOL     OW29611   0.404   0.677  11.990  0.4803 -0.1987  0.1485
 5992SOL    HW129612   0.405   0.706  11.899  0.4536 -0.5781  0.0305
 5992SOL    HW229613   0.496   0.661  12.011 -0.0270 -1.4971  1.3726
 5993SOL     OW29614   3.132   4.723   1.193  0.0253  0.1964  0.0496
 5993SOL    HW129615   3.224   4.735   1.215  0.6037  2.0420 -3.3949
 5993SOL    HW229616   3.094   0.064   1.234  1.1658  0.2740  0.9510
 5994SOL     OW29617   2.819   1.675   5.410  0.1329 -0.3170 -0.0474
 5994SOL    HW129618   2.797   1.582   5.399  0.1525 -0.5988  2.2353
 5994SOL    HW229619   2.770   1.687   5.492 -0.7719 -0.9107 -0.5045
 5995SOL     OW29620   0.753   1.817   7.627  0.3719  0.5919 -0.3186
 5995SOL    HW129621   0.687   1.747   7.630  0.5009  0.5774  1.9444
 5995SOL    HW229622   0.698   1.895   7.626 -1.0294 -0.3806  0.3623
 5996SOL     OW29623   1.160   4.293  11.901 -0.4194 -0.1213  0.0334
 5996SOL    HW129624   1.102   4.285  11.825  0.6245 -1.1068 -0.6622
 5996SOL    HW229625   1.214   4.368  11.874  1.1809 -1.6591 -1.0762
 5997SOL     OW29626   3.163   4.480   1.079  0.6547 -0.2153  0.2383
 5997SOL    HW129627   3.171   4.520   0.992  2.0776  0.9143  0.8714
 5997SOL    HW229628   3.143   4.565   1.119  2.4062  0.5324 -0.4602
 5998SOL     OW29629   3.360   0.424  12.488 -0.2233  0.5894  0.6404
 5998SOL    HW129630   3.426   0.374  12.440  0.7874  1.1510  1.4358
 5998SOL    HW229631   3.293   0.458  12.428 -0.4724  0.6625  0.9611
 5999SOL     OW29632   0.461   1.039   2.185 -0.0232  0.3744  0.2731
 5999SOL    HW129633   0.457   0.956   2.136 -0.4413  0.9217 -0.6136
 5999SOL    HW229634   0.437   1.098   2.114 -0.0782  1.2485  1.0255
 6000SOL     OW29635   2.345   1.938   7.508  0.5456 -0.0372 -0.4207
 6000SOL    HW129636   2.350   1.842   7.502 -0.1774  0.0478 -2.2998
 6000SOL    HW229637   2.428   1.968   7.470  1.3431 -0.5737  0.9086
 6001SOL     OW29638   2.205   1.960   4.359  0.1359 -0.1766 -0.0564
 6001SOL    HW129639   2.238   1.903   4.289 -1.9629  0.2702 -1.4061
 6001SOL    HW229640   2.112   1.939   4.364  0.3555 -0.7401  1.6976
 6002SOL     OW29641   2.166   2.239   2.033  0.4935 -0.5783 -0.8189
 6002SOL    HW129642   2.259   2.257   2.036  0.0392  1.9232 -2.0374
 6002SOL    HW229643   2.131   2.327   2.042 -1.6657 -1.3471 -1.5320
 6003SOL     OW29644   4.617   0.838  15.147 -0.2737 -0.2284 -0.0321
 6003SOL    HW129645   4.530   0.862  15.179  0.4370  1.1420  0.8896
 6003SOL    HW229646   4.604   0.745  15.129 -2.3708 -0.3317  2.0693
 6004SOL     OW29647   3.130   0.089   2.871 -0.2059 -0.5023  0.3510
 6004SOL    HW129648   3.062   0.119   2.930 -3.3505 -1.0539 -2.9840
 6004SOL    HW229649   3.123   0.147   2.796  0.0147 -1.0196 -0.0741
 6005SOL     OW29650   4.011   4.398   7.973 -0.4000 -0.6181  0.0026
 6005SOL    HW129651   3.943   4.334   7.994 -1.8280  0.5518 -1.0505
 6005SOL    HW229652   4.022   4.441   8.057 -0.0114  0.9891 -0.8649
 6006SOL     OW29653   3.888   3.888   7.488 -0.1179 -0.1513 -0.7262
 6006SOL    HW129654   3.824   3.957   7.472 -0.2453  0.2459  1.4578
 6006SOL    HW229655   3.965   3.945   7.491  0.9798 -1.6689 -0.0890
 6007SOL     OW29656   0.745   3.757  13.112  0.1158 -0.7208  0.2046
 6007SOL    HW129657   0.768   3.667  13.135 -1.0539 -0.8214  0.9567
 6007SOL    HW229658   0.816   3.804  13.155 -0.7330  0.2935  0.4931
 6008SOL     OW29659   2.467   2.656   4.844  0.3259 -0.1819 -0.3941
 6008SOL    HW129660   2.523   2.733   4.855 -0.6839  0.7035 -1.5348
 6008SOL    HW229661   2.536   2.589   4.845  1.7911  1.3452  1.9041
 6009SOL     OW29662   2.147   0.391   9.811  0.0728  0.1031 -0.4188
 6009SOL    HW129663   2.067   0.346   9.783  0.5287  0.3241 -2.0914
 6009SOL    HW229664   2.173   0.343   9.890 -3.0462 -1.1980 -0.1940
 6010SOL     OW29665   2.803   4.252   5.218  0.3418 -0.3669  0.3853
 6010SOL    HW129666   2.848   4.269   5.301  1.0494 -0.6963  0.0729
 6010SOL    HW229667   2.713   4.280   5.233 -0.5378 -2.8475 -0.2903
 6011SOL     OW29668   2.020   4.364   9.091  0.2806 -0.4773 -0.7360
 6011SOL    HW129669   1.942   4.419   9.104  0.9756 -0.1375  2.0489
 6011SOL    HW229670   2.047   4.341   9.180 -0.3449 -0.1014 -0.4498
 6012SOL     OW29671   3.097   0.079   7.420 -0.1338  0.6281  0.0561
 6012SOL    HW129672   3.038   0.042   7.354  0.7548  3.7512 -2.4555
 6012SOL    HW229673   3.045   0.071   7.500 -0.3100 -1.4887 -0.2631
 6013SOL     OW29674   3.491   0.811   3.022  0.2436 -0.5434 -0.0744
 6013SOL    HW129675   3.485   0.873   2.949  0.3746 -0.9649 -0.4416
 6013SOL    HW229676   3.400   0.807   3.051  0.3808 -1.5280  0.2160
 6014SOL     OW29677   2.340   2.973  15.868 -0.1265 -0.9462  0.5118
 6014SOL    HW129678   2.385   3.044  15.822 -0.5757 -0.9853 -0.0008
 6014SOL    HW229679   2.254   2.973  15.825  0.9007  0.0291 -1.5437
 6015SOL     OW29680   3.887   1.551  17.250 -0.1353 -0.1391 -0.2456
 6015SOL    HW129681   3.949   1.558  17.322 -0.8494  0.9509  0.2609
 6015SOL    HW229682   3.835   1.474  17.274  0.1507 -0.1217  0.4326
 6016SOL     OW29683   4.693   2.684   1.873 -0.1903  0.2315  0.2925
 6016SOL    HW129684   4.682   2.590   1.883 -1.4030  0.3484  0.0932
 6016SOL    HW229685   0.051   2.690   1.870 -0.0619 -1.1545  1.5508
 6017SOL     OW29686   1.123   0.018  16.589  0.4309  0.0443 -0.0105
 6017SOL    HW129687   1.158   0.107  16.579 -1.3252  0.6399 -1.0061
 6017SOL    HW229688   1.035   0.040  16.621  0.7924  2.3334 -0.5999
 6018SOL     OW29689   0.392   4.080   4.022 -0.2991 -0.2596  0.3442
 6018SOL    HW129690   0.379   4.003   3.966  0.8574 -1.0736  1.2087
 6018SOL    HW229691   0.337   4.151   3.988  2.2029  1.4300 -0.1407
 6019SOL     OW29692   2.590   4.319   1.129  0.0944 -0.7004  0.7080
 6019SOL    HW129693   2.659   4.255   1.145 -1.3397 -2.4019  0.0671
 6019SOL    HW229694   2.579   4.306   1.034 -1.1797  1.0158  0.6113
 6020SOL     OW29695   3.243   2.388  16.817  0.4216  0.2698  0.1284
 6020SOL    HW129696   3.280   2.302  16.834  0.7544  0.4519  0.3277
 6020SOL    HW229697   3.168   2.359  16.766  0.3322  2.6666 -1.1206
 6021SOL     OW29698   0.476   0.888   0.157 -0.0550 -0.5002  0.2922
 6021SOL    HW129699   0.423   0.819   0.118  2.8110 -1.4677 -1.9113
 6021SOL    HW229700   0.560   0.889   0.112 -1.4579  0.3430 -2.2918
 6022SOL     OW29701   4.035   1.230   1.905 -0.4418  0.3323 -0.3217
 6022SOL    HW129702   4.115   1.225   1.957 -1.3954 -0.1695  1.0828
 6022SOL    HW229703   3.981   1.301   1.940  0.3542  1.5833 -1.6560
 6023SOL     OW29704   0.863   3.350   5.647  0.5031  0.3241 -0.1245
 6023SOL    HW129705   0.894   3.315   5.563 -2.2617  1.4957 -1.6190
 6023SOL    HW229706   0.940   3.318   5.694  0.4747  0.5444  0.0729
 6024SOL     OW29707   4.244   1.890  14.210  0.4348  0.1330 -0.0657
 6024SOL    HW129708   4.334   1.868  14.186  0.0184 -0.3042 -1.1890
 6024SOL    HW229709   4.215   1.811  14.256  0.2874  0.3274  0.1725
 6025SOL     OW29710   0.240   0.908   1.324  0.4176  0.2991  0.1582
 6025SOL    HW129711   0.173   0.897   1.257 -0.3821 -2.3590  1.3914
 6025SOL    HW229712   0.175   0.931   1.390 -0.4834 -1.3888 -0.1463
 6026SOL     OW29713   2.681   4.139   7.834 -0.3564 -0.2573  0.4750
 6026SOL    HW129714   2.765   4.156   7.791 -1.1347  0.6461 -0.6778
 6026SOL    HW229715   2.655   4.049   7.819  0.4741  0.2091 -3.6211
 6027SOL     OW29716   1.951   0.281  11.824 -0.6565  0.0633 -0.4647
 6027SOL    HW129717   1.887   0.220  11.861  1.4510 -0.8623  1.6718
 6027SOL    HW229718   1.896   0.322  11.757 -1.3738  1.0480  0.7188
 6028SOL     OW29719   3.763   3.700   3.999 -0.2975 -0.4919  0.4311
 6028SOL    HW129720   3.733   3.761   3.932 -0.6912 -1.6883 -0.4768
 6028SOL    HW229721   3.719   3.732   4.077 -2.0443  1.6288 -1.4672
 6029SOL     OW29722   1.876   2.793   1.218 -0.2363 -0.2399 -0.5185
 6029SOL    HW129723   1.854   2.720   1.160  0.6543 -1.7935  1.0971
 6029SOL    HW229724   1.927   2.743   1.282 -0.3583 -2.2763 -2.0051
 6030SOL     OW29725   3.857   4.616   6.961 -0.1974  0.0548  0.7107
 6030SOL    HW129726   3.931   4.669   6.990  1.1257 -1.8814  0.9018
 6030SOL    HW229727   3.800   4.688   6.936  1.1133  0.7413 -0.2720
 6031SOL     OW29728   3.966   3.270   1.492 -0.1605 -0.0492 -0.1376
 6031SOL    HW129729   4.043   3.305   1.447  1.4344 -2.1472  0.9177
 6031SOL    HW229730   3.915   3.348   1.513  0.4076  0.4464 -0.6049
 6032SOL     OW29731   2.374   0.229   2.009  0.1969  0.0204  0.1187
 6032SOL    HW129732   2.284   0.239   2.040  0.3956 -1.9449  1.3775
 6032SOL    HW229733   2.376   0.170   1.934 -2.4523 -0.4891  0.4525
 6033SOL     OW29734   0.317   0.516   8.076  0.2458  0.3233 -0.2930
 6033SOL    HW129735   0.293   0.461   8.001  2.4325  0.4718 -1.1048
 6033SOL    HW229736   0.233   0.559   8.088 -0.5634 -1.4350  0.2706
 6034SOL     OW29737   2.089   3.631  13.546 -0.7155 -0.3161  0.5141
 6034SOL    HW129738   2.072   3.590  13.461 -0.6424  2.5304 -0.8832
 6034SOL    HW229739   2.132   3.559  13.592 -1.0819 -0.7935  0.1138
 6035SOL     OW29740   1.731   1.725   8.385 -0.0752 -0.3798 -0.0503
 6035SOL    HW129741   1.673   1.709   8.310 -2.3294  0.2009  1.5556
 6035SOL    HW229742   1.711   1.815   8.411  0.0745 -0.7773  1.4107
 6036SOL     OW29743   1.063   1.351  14.241  0.4745  0.1252 -0.2757
 6036SOL    HW129744   1.154   1.380  14.253  1.1377 -0.7741 -3.2532
 6036SOL    HW229745   1.072   1.293  14.166  2.1376  0.2946 -0.1972
 6037SOL     OW29746   2.172   1.338   3.625 -0.0214  0.6874 -0.2439
 6037SOL    HW129747   2.210   1.260   3.584 -1.2147  0.6124 -1.2166
 6037SOL    HW229748   2.079   1.319   3.611  0.1020 -2.0810  2.5802
 6038SOL     OW29749   1.588   2.014   2.542 -0.5960 -0.0802  0.4788
 6038SOL    HW129750   1.639   1.967   2.476 -3.8246 -1.1846 -1.2425
 6038SOL    HW229751   1.594   1.943   2.606 -1.1868 -1.2197 -0.7079
 6039SOL     OW29752   4.540   2.618   7.148  0.2164  0.7479  0.3374
 6039SOL    HW129753   4.609   2.678   7.175  0.3490  1.0884 -0.7352
 6039SOL    HW229754   4.472   2.646   7.210 -0.2511  0.0744  0.1354
 6040SOL     OW29755   1.978   0.715   3.169 -0.2719 -0.0123 -0.5940
 6040SOL    HW129756   2.030   0.742   3.245 -1.6703 -0.8289  0.6645
 6040SOL    HW229757   2.045   0.702   3.102 -0.9056 -2.4053 -0.7632
 6041SOL     OW29758   1.071   0.921   7.788  0.3639 -0.0185 -0.0124
 6041SOL    HW129759   1.088   0.830   7.815  2.8291 -0.0610 -1.6968
 6041SOL    HW229760   1.158   0.942   7.754  0.5281  1.5375  1.3949
 6042SOL     OW29761   2.374   0.165   3.984 -0.1711  0.1472 -0.0672
 6042SOL    HW129762   2.353   0.074   4.007  0.9571 -0.0597  0.1391
 6042SOL    HW229763   2.436   0.182   4.054 -0.4467  0.2867  0.1391
 6043SOL     OW29764   2.324   3.277   4.723 -0.8182 -0.2816  0.4839
 6043SOL    HW129765   2.264   3.334   4.772 -0.7118  1.6294 -1.6059
 6043SOL    HW229766   2.267   3.206   4.695 -1.6851  0.7565 -0.3421
 6044SOL     OW29767   4.327   0.066   1.804  0.1164 -0.3863  0.7611
 6044SOL    HW129768   4.264   0.137   1.816  2.0135  1.4062  0.0653
 6044SOL    HW229769   4.273   4.728   1.783  1.1256 -0.2712 -2.2215
 6045SOL     OW29770   3.460   2.173   9.950 -0.2318  0.4623  0.5657
 6045SOL    HW129771   3.437   2.234   9.879  2.8119 -1.0776 -1.7728
 6045SOL    HW229772   3.528   2.122   9.906  2.6074  2.1192  3.0541
 6046SOL     OW29773   0.790   1.176   2.205 -0.2073  0.3073 -0.4302
 6046SOL    HW129774   0.847   1.216   2.139 -0.8995  0.1144 -1.1455
 6046SOL    HW229775   0.708   1.221   2.183 -0.6201 -0.0118  0.4608
 6047SOL     OW29776   3.309   0.345   9.516 -0.0683 -0.3127  0.3544
 6047SOL    HW129777   3.370   0.355   9.443 -0.1095  0.3242  0.4074
 6047SOL    HW229778   3.361   0.335   9.596 -0.2314 -2.1304  0.2431
 6048SOL     OW29779   4.322   1.899   8.499 -0.4566 -0.2526 -0.2947
 6048SOL    HW129780   4.407   1.918   8.538 -1.1278  0.3106  0.8877
 6048SOL    HW229781   4.313   1.811   8.534  0.1590 -0.1712  0.0624
 6049SOL     OW29782   0.350   4.160  11.760  0.7364  0.3583  0.0109
 6049SOL    HW129783   0.406   4.083  11.764 -0.0099 -0.1034  1.7611
 6049SOL    HW229784   0.400   4.216  11.701 -0.4625 -0.2525 -1.5929
 6050SOL     OW29785   2.828   3.876   0.156  0.4016  0.3755 -0.4736
 6050SOL    HW129786   2.784   3.840   0.079  1.1856 -1.3031 -0.1228
 6050SOL    HW229787   2.759   3.934   0.190  0.3462 -0.7526  1.3417
 6051SOL     OW29788   2.631   2.264   0.691 -0.1182  0.2182 -0.3112
 6051SOL    HW129789   2.715   2.259   0.736  0.2388 -0.5503 -1.0717
 6051SOL    HW229790   2.575   2.276   0.767  0.9931  1.9660  0.2336
 6052SOL     OW29791   2.881   2.389   5.667  0.0117  0.0414 -0.0122
 6052SOL    HW129792   2.886   2.312   5.610 -0.1282  0.4124 -0.5301
 6052SOL    HW229793   2.961   2.436   5.641  0.3165 -1.2903 -1.5230
 6053SOL     OW29794   1.738   1.685   1.375 -0.2346  0.3260  0.0356
 6053SOL    HW129795   1.771   1.762   1.329  0.2569  0.1490  0.0950
 6053SOL    HW229796   1.680   1.660   1.303  0.8494  0.3530 -0.8394
 6054SOL     OW29797   2.743   2.823   8.708  0.1774 -0.1291  0.3445
 6054SOL    HW129798   2.737   2.905   8.658  1.3648  0.1411  0.6297
 6054SOL    HW229799   2.809   2.858   8.769  0.7529  0.3499 -0.5389
 6055SOL     OW29800   3.220   2.532   2.188  0.0968 -0.2922 -0.4241
 6055SOL    HW129801   3.217   2.517   2.283  1.5586 -1.8838 -0.6257
 6055SOL    HW229802   3.289   2.474   2.157 -0.9056 -1.7624  0.0717
 6056SOL     OW29803   4.717   0.265   8.147 -0.5236  0.2185 -0.2571
 6056SOL    HW129804   0.019   0.325   8.210 -0.0988  0.4110 -0.7082
 6056SOL    HW229805   4.655   0.209   8.192  0.1977  0.3522  0.8908
 6057SOL     OW29806   2.053   2.400   8.110 -0.3095 -0.7723  0.1992
 6057SOL    HW129807   2.121   2.463   8.135  1.1580 -1.8891 -1.0118
 6057SOL    HW229808   2.092   2.317   8.138  1.5582  0.1929  0.4646
 6058SOL     OW29809   2.699   0.096   6.078  0.0094 -0.5596 -0.1339
 6058SOL    HW129810   2.616   0.138   6.101  1.4284  0.7389  2.6663
 6058SOL    HW229811   2.742   0.171   6.035  1.1401  0.3595  2.6154
 6059SOL     OW29812   0.654   3.584  17.155  0.0744 -0.5197  0.0118
 6059SOL    HW129813   0.673   3.621  17.242  0.5567 -1.3856  0.2772
 6059SOL    HW229814   0.688   3.494  17.156  0.7490 -0.2805 -1.1268
 6060SOL     OW29815   3.654   0.062   7.245  0.4083 -0.4929 -0.8662
 6060SOL    HW129816   3.569   0.031   7.213  0.1048 -0.5153 -0.0342
 6060SOL    HW229817   3.678   4.719   7.291  2.1262  0.8457  0.5618
 6061SOL     OW29818   4.495   3.610   5.468 -0.5889  0.0045 -0.0259
 6061SOL    HW129819   4.574   3.649   5.505 -0.1014 -0.0497 -1.0202
 6061SOL    HW229820   4.432   3.613   5.540  0.1433 -2.0114  0.6923
 6062SOL     OW29821   2.473   1.670   9.009 -0.3711  0.2672 -0.2045
 6062SOL    HW129822   2.550   1.619   8.985 -0.6476 -0.4325  0.3828
 6062SOL    HW229823   2.418   1.598   9.041 -1.4440  1.1769 -0.0195
 6063SOL     OW29824   2.583   2.887  16.501 -0.2381  0.1179 -0.9514
 6063SOL    HW129825   2.627   2.962  16.461  0.9061  0.0471  0.1573
 6063SOL    HW229826   2.615   2.897  16.591  1.3175 -2.4454 -1.2326
 6064SOL     OW29827   2.512   0.638   3.641  0.4586 -0.0282  0.5458
 6064SOL    HW129828   2.452   0.583   3.691 -1.0938  0.3600 -0.8867
 6064SOL    HW229829   2.527   0.588   3.561 -2.0958  1.6956 -1.0000
 6065SOL     OW29830   1.690   2.364  11.674  0.0244  0.3206 -0.2989
 6065SOL    HW129831   1.609   2.354  11.724 -1.9350 -2.5937 -4.1155
 6065SOL    HW229832   1.681   2.456  11.650  0.5974  0.6577  0.7397
 6066SOL     OW29833   0.838   0.032   4.018 -0.3797 -0.4262 -0.2835
 6066SOL    HW129834   0.923   0.016   3.978 -0.7484 -1.4438 -0.6498
 6066SOL    HW229835   0.847   0.125   4.041  2.1452 -0.6585 -0.2980
 6067SOL     OW29836   1.379   4.471   4.126  0.3936 -0.2667  0.1553
 6067SOL    HW129837   1.451   4.498   4.068  0.2994 -1.3295 -0.4619
 6067SOL    HW229838   1.399   4.503   4.214  1.2651 -0.2190 -0.0556
 6068SOL     OW29839   1.329   0.280   3.905 -0.3381  0.0798 -0.1450
 6068SOL    HW129840   1.373   0.317   3.982  0.3649  1.3088 -1.1462
 6068SOL    HW229841   1.353   0.346   3.841 -0.7546  0.4397  0.0632
 6069SOL     OW29842   3.579   1.039  17.521  0.1557  0.0191  0.0455
 6069SOL    HW129843   3.585   1.088  17.439  1.3909 -3.0226 -1.6773
 6069SOL    HW229844   3.672   1.040  17.543  0.2943 -0.3024 -0.5061
 6070SOL     OW29845   0.225   0.979   0.136  0.3307 -0.6090 -0.5019
 6070SOL    HW129846   0.236   0.925   0.215 -0.5454  1.3914  0.9897
 6070SOL    HW229847   0.309   0.961   0.094 -0.9367 -3.0691 -1.9198
 6071SOL     OW29848   3.220   4.424   5.870 -0.4181 -0.2299  0.1747
 6071SOL    HW129849   3.183   4.370   5.939 -2.0951 -0.8089 -1.1764
 6071SOL    HW229850   3.301   4.376   5.853  0.4993  0.4166  2.7815
 6072SOL     OW29851   0.329   1.848   7.685  0.2986 -0.9235 -0.1058
 6072SOL    HW129852   0.262   1.806   7.738  0.4648  1.7561  2.2403
 6072SOL    HW229853   0.390   1.782   7.652  0.8666 -0.9003  0.8793
 6073SOL     OW29854   0.242   2.264   8.052  0.3116  0.0967  0.4633
 6073SOL    HW129855   0.286   2.243   8.135 -0.9540 -1.8249  0.6446
 6073SOL    HW229856   0.280   2.352   8.044  0.1123 -0.1419 -3.0624
 6074SOL     OW29857   3.233   3.662   4.829  0.2112  0.1428  0.1178
 6074SOL    HW129858   3.247   3.737   4.771 -1.1839 -0.7194 -1.3168
 6074SOL    HW229859   3.205   3.712   4.906  1.3969 -0.4455  0.9284
 6075SOL     OW29860   4.448   4.603   5.892  0.6789 -0.0237 -0.2289
 6075SOL    HW129861   4.521   4.637   5.944  0.0885 -1.0701  1.2674
 6075SOL    HW229862   4.428   4.678   5.836  1.1999  0.5928  0.4156
 6076SOL     OW29863   1.121   4.427   3.854  0.3399 -0.6938 -0.4569
 6076SOL    HW129864   1.093   4.371   3.782 -0.7589  0.7153 -1.1020
 6076SOL    HW229865   1.041   4.439   3.905  0.0307  0.0301 -1.1202
 6077SOL     OW29866   2.399   3.633  16.054  0.0735 -0.6847  0.3014
 6077SOL    HW129867   2.407   3.575  16.129  1.8644 -2.0485 -0.9409
 6077SOL    HW229868   2.436   3.581  15.983 -0.3320  2.3421 -2.1390
 6078SOL     OW29869   2.326   2.863   3.989 -0.0481  0.6111 -0.4731
 6078SOL    HW129870   2.364   2.947   4.017  3.0041 -0.7542 -0.4727
 6078SOL    HW229871   2.402   2.808   4.007 -0.5292 -0.1144 -0.6704
 6079SOL     OW29872   3.410   1.472   7.616  0.2694  0.4408 -0.4818
 6079SOL    HW129873   3.436   1.428   7.697 -1.2705  4.9983  2.4928
 6079SOL    HW229874   3.431   1.406   7.551 -0.1410 -0.7143  0.5662
 6080SOL     OW29875   1.330   2.377  10.839 -0.2442  0.3077  0.4956
 6080SOL    HW129876   1.390   2.307  10.815 -0.0672 -0.3546  2.8545
 6080SOL    HW229877   1.386   2.445  10.876 -1.2742  0.7730  1.1899
 6081SOL     OW29878   3.696   1.662   2.963  0.4286  0.4182 -0.2604
 6081SOL    HW129879   3.626   1.640   3.024 -0.4602  3.7872 -0.0690
 6081SOL    HW229880   3.645   1.684   2.885  1.8450  1.3732 -0.9162
 6082SOL     OW29881   3.378   2.783  15.268 -0.0783 -0.5068  0.0571
 6082SOL    HW129882   3.381   2.687  15.270  1.5187 -0.4733 -0.9329
 6082SOL    HW229883   3.283   2.797  15.273  0.4246  2.4522  1.6706
 6083SOL     OW29884   4.410   4.248   4.195  0.9160 -0.0155 -0.1775
 6083SOL    HW129885   4.383   4.224   4.106  0.1177  1.9147 -0.4557
 6083SOL    HW229886   4.418   4.168   4.246  0.9516 -0.6449 -1.1671
 6084SOL     OW29887   2.076   3.546   1.280  0.5517  0.3867  0.3909
 6084SOL    HW129888   2.147   3.488   1.252 -1.6363 -0.4259 -3.4629
 6084SOL    HW229889   2.051   3.497   1.359  1.6137  1.8566  1.6329
 6085SOL     OW29890   2.748   0.823   8.569  0.6999  0.2547 -0.0981
 6085SOL    HW129891   2.807   0.856   8.636 -2.2230  0.5601  2.3503
 6085SOL    HW229892   2.664   0.862   8.595  0.8718  0.5738 -0.0316
 6086SOL     OW29893   1.935   2.250  16.430 -0.1498 -0.0986 -0.5470
 6086SOL    HW129894   1.933   2.158  16.455 -0.2415  0.7095  2.4880
 6086SOL    HW229895   1.879   2.253  16.353  0.1148 -0.6205 -0.7590
 6087SOL     OW29896   1.380   2.396   5.234  0.0193 -0.6998 -0.1965
 6087SOL    HW129897   1.414   2.424   5.319 -0.1597 -0.9255 -0.0518
 6087SOL    HW229898   1.458   2.429   5.189  0.2498  0.3537  0.9655
 6088SOL     OW29899   4.487   2.650   2.238  0.3931  0.1420  0.2686
 6088SOL    HW129900   4.529   2.697   2.167  1.6954  1.1910  1.7338
 6088SOL    HW229901   4.450   2.573   2.194 -0.4503 -0.1536  1.4853
 6089SOL     OW29902   4.527   1.356   1.689  0.3178 -0.2668 -0.6011
 6089SOL    HW129903   4.487   1.270   1.679 -0.1851 -0.2363  1.1779
 6089SOL    HW229904   4.616   1.345   1.655 -1.1156 -1.8770 -3.8266
 6090SOL     OW29905   4.564   3.888   6.943 -0.3783  0.1164 -0.0419
 6090SOL    HW129906   4.525   3.969   6.976  0.6918 -0.4748  2.6694
 6090SOL    HW229907   4.619   3.856   7.015  1.5883  0.9444 -1.1629
 6091SOL     OW29908   1.795   3.625   2.689  0.0358  0.2287  0.2797
 6091SOL    HW129909   1.842   3.619   2.772 -0.1503 -3.9483  0.0796
 6091SOL    HW229910   1.783   3.720   2.685  1.6296  0.3940 -0.7105
 6092SOL     OW29911   4.006   4.576   7.590  0.4180  0.6249 -0.4601
 6092SOL    HW129912   3.975   4.498   7.543 -1.1485  1.2880 -0.5290
 6092SOL    HW229913   4.074   4.539   7.646  1.3086 -0.1478 -2.0461
 6093SOL     OW29914   0.422   4.430  11.716 -0.0564  0.0617  0.3533
 6093SOL    HW129915   0.337   4.463  11.687  0.9978  2.7500  0.3193
 6093SOL    HW229916   0.463   4.434  11.630  0.3322  5.6487  0.8139
 6094SOL     OW29917   3.177   4.712   5.854  0.2240  0.2859 -0.1656
 6094SOL    HW129918   3.171   0.023   5.936  0.0329  0.4199 -0.2591
 6094SOL    HW229919   3.220   4.630   5.881 -1.2945 -0.7086 -0.7696
 6095SOL     OW29920   3.140   0.825   4.335  0.0520 -0.5044  0.2490
 6095SOL    HW129921   3.102   0.897   4.384  0.6464 -0.3699  0.5125
 6095SOL    HW229922   3.208   0.802   4.398 -1.7518 -2.3633  1.5184
 6096SOL     OW29923   3.378   0.423   2.832  0.6154 -0.4470  0.1293
 6096SOL    HW129924   3.388   0.403   2.925  1.7108  0.3829  0.1875
 6096SOL    HW229925   3.469   0.417   2.801  0.2419  0.3083 -1.0875
 6097SOL     OW29926   2.387   4.622  12.754 -0.4381  0.7852 -0.0317
 6097SOL    HW129927   2.404   4.712  12.727  2.0894  0.7807  1.4890
 6097SOL    HW229928   2.354   4.637  12.843 -1.0466 -1.2824  0.0756
 6098SOL     OW29929   2.604   2.056   5.451 -1.0256 -0.2134  0.1767
 6098SOL    HW129930   2.585   2.145   5.481  2.0954  0.0892  1.1768
 6098SOL    HW229931   2.676   2.030   5.508 -0.9044 -1.9563 -0.7693
 6099SOL     OW29932   1.229   2.569   4.515 -0.3352 -0.2878  0.3265
 6099SOL    HW129933   1.258   2.619   4.592 -0.4965 -0.1734  0.3136
 6099SOL    HW229934   1.196   2.497   4.569 -0.6816 -0.2259  0.1958
 6100SOL     OW29935   0.962   3.404   8.114  0.2889 -0.0445  0.1554
 6100SOL    HW129936   1.023   3.354   8.061 -0.7673 -1.5194  0.3417
 6100SOL    HW229937   0.963   3.489   8.069  1.0869 -1.1672 -1.9479
 6101SOL     OW29938   2.186   0.961   4.345 -0.1575 -0.2107 -0.2998
 6101SOL    HW129939   2.243   0.977   4.420 -0.2050  1.4538 -0.6282
 6101SOL    HW229940   2.137   0.894   4.394 -0.1279  1.2168  1.6644
 6102SOL     OW29941   2.837   2.221   8.810 -0.4114  0.3319  0.3573
 6102SOL    HW129942   2.923   2.246   8.842 -0.0100  0.1833 -0.6043
 6102SOL    HW229943   2.859   2.133   8.781 -1.0429  0.2049  0.2573
 6103SOL     OW29944   1.964   0.263   7.335 -0.3478 -0.1222  0.7576
 6103SOL    HW129945   1.894   0.234   7.394  0.9393  1.0494  2.8985
 6103SOL    HW229946   2.002   0.185   7.297 -3.5377 -1.5493  0.5262
 6104SOL     OW29947   0.123   3.609   9.109 -0.1832  0.6714 -0.6646
 6104SOL    HW129948   0.069   3.684   9.133 -0.8749  0.4948 -1.7024
 6104SOL    HW229949   0.146   3.591   9.200  0.6037  1.4176 -0.7074
 6105SOL     OW29950   1.481   1.415   4.408 -0.5811 -0.2831  0.1641
 6105SOL    HW129951   1.419   1.420   4.335  0.3556 -0.9410 -0.6773
 6105SOL    HW229952   1.436   1.465   4.476  1.8987  1.2915  0.6540
 6106SOL     OW29953   4.044   4.181   0.823 -0.0352 -0.2163 -0.0946
 6106SOL    HW129954   4.030   4.157   0.732 -2.5257  0.7055  0.0282
 6106SOL    HW229955   3.955   4.195   0.855 -0.7993  0.5187 -2.5813
 6107SOL     OW29956   3.054   0.982   2.353 -0.3832  0.0701 -0.4509
 6107SOL    HW129957   3.032   1.000   2.444  0.3001  0.9382 -0.4653
 6107SOL    HW229958   3.052   1.071   2.318  0.3160 -0.1328 -1.0130
 6108SOL     OW29959   4.018   4.287   8.735 -0.5077 -0.2615 -0.0651
 6108SOL    HW129960   4.080   4.214   8.737  0.2487  0.3485 -1.4026
 6108SOL    HW229961   4.033   4.323   8.648  0.9859  1.0144  0.7109
 6109SOL     OW29962   0.255   3.060   2.988  0.0417 -0.1763  0.1666
 6109SOL    HW129963   0.267   3.150   3.017  0.0096  0.4894 -1.8924
 6109SOL    HW229964   0.212   3.028   3.068 -1.2010 -0.0138 -0.4327
 6110SOL     OW29965   0.513   2.295  11.107  0.3304 -0.3555 -0.3447
 6110SOL    HW129966   0.487   2.360  11.172 -0.8852 -0.9861 -0.1923
 6110SOL    HW229967   0.527   2.352  11.031  1.7597 -1.8730 -1.2127
 6111SOL     OW29968   2.339   2.163  12.168 -0.1948  0.0035  0.2876
 6111SOL    HW129969   2.275   2.112  12.118 -1.4914  0.6299  1.2800
 6111SOL    HW229970   2.403   2.097  12.192 -0.5679 -0.9072 -1.2612
 6112SOL     OW29971   4.628   1.175   4.224  0.5213  0.2838 -0.5407
 6112SOL    HW129972   4.689   1.191   4.152 -2.0698  0.7909 -2.6053
 6112SOL    HW229973   4.626   1.251   4.283  0.8267 -0.6405  0.6579
 6113SOL     OW29974   3.370   3.044   6.340 -0.1059 -0.5375  0.0879
 6113SOL    HW129975   3.410   3.103   6.404 -1.4900 -0.5674  0.9841
 6113SOL    HW229976   3.286   3.011   6.374 -0.2320 -0.3619 -0.0565
 6114SOL     OW29977   0.009   1.625  12.763 -0.1102 -0.3347  0.2914
 6114SOL    HW129978   0.032   1.686  12.833 -0.5842 -1.6338  1.5740
 6114SOL    HW229979   4.716   1.686  12.695  1.0757  2.3352  2.1446
 6115SOL     OW29980   3.774   2.049   4.373  0.3759 -0.2871  0.1277
 6115SOL    HW129981   3.736   1.982   4.316  0.7109 -0.7237  0.4239
 6115SOL    HW229982   3.766   2.005   4.457  0.4101 -0.6763 -0.0695
 6116SOL     OW29983   1.379   1.010   6.617  0.0818  0.9181  0.1945
 6116SOL    HW129984   1.472   1.032   6.616  0.2317  0.2769  0.0701
 6116SOL    HW229985   1.383   0.919   6.648 -0.2847  1.2317  1.1760
 6117SOL     OW29986   0.760   0.046   9.509 -0.2035  0.4293 -0.5091
 6117SOL    HW129987   0.691   0.006   9.456 -0.3022  0.6682 -0.5585
 6117SOL    HW229988   0.767   0.136   9.479 -0.8874 -0.0417 -2.1189
 6118SOL     OW29989   3.069   2.419   5.064  0.1635  0.1564 -0.3515
 6118SOL    HW129990   3.059   2.494   5.005 -1.0001  0.7404  0.5950
 6118SOL    HW229991   3.137   2.458   5.120 -0.5194  0.2088  0.4289
 6119SOL     OW29992   0.261   1.737  10.327  0.1239 -0.4471 -0.4901
 6119SOL    HW129993   0.174   1.698  10.315 -0.8072  1.4720  0.1029
 6119SOL    HW229994   0.313   1.706  10.253  0.6600  0.1976 -0.3844
 6120SOL     OW29995   4.679   0.140  17.747  0.1366 -0.3466  0.2519
 6120SOL    HW129996   4.626   0.164   0.074  0.5656 -1.1709  0.8163
 6120SOL    HW229997   4.613   0.152  17.679  0.1407 -0.3789  0.2419
 6121SOL     OW29998   1.373   2.035  16.974  0.2316 -0.3547  0.1964
 6121SOL    HW129999   1.315   1.961  16.994  1.2352 -0.3790  3.0811
 6121SOL    HW230000   1.433   2.043  17.049 -0.6520 -0.5043  0.9139
 6122SOL     OW30001   3.166   3.380   6.042  0.1025  0.4658 -0.4193
 6122SOL    HW130002   3.221   3.329   5.983  1.5396 -0.8619  2.0502
 6122SOL    HW230003   3.180   3.471   6.019  0.2572 -0.2932 -3.2895
 6123SOL     OW30004   2.007   4.527  10.573 -0.3378  0.2606  0.1074
 6123SOL    HW130005   2.087   4.507  10.525  0.7689  1.4776  1.4505
 6123SOL    HW230006   1.977   4.602  10.522  1.4600  0.2823 -0.9133
 6124SOL     OW30007   2.435   0.819   5.330  0.3684  0.0164  0.2211
 6124SOL    HW130008   2.479   0.757   5.271  0.8478 -0.0999  0.7064
 6124SOL    HW230009   2.411   0.884   5.263 -1.3375 -1.1921 -0.3268
 6125SOL     OW30010   3.795   0.108   2.648  0.3953  0.1344  0.2440
 6125SOL    HW130011   3.734   0.054   2.698  1.8975 -0.3876  1.5262
 6125SOL    HW230012   3.745   0.130   2.570  0.0555  0.1050  0.4512
 6126SOL     OW30013   2.516   1.365   7.916 -0.2346  0.5220  0.3649
 6126SOL    HW130014   2.575   1.371   7.840 -0.6632 -0.8843 -0.0727
 6126SOL    HW230015   2.451   1.423   7.876  1.9904  1.8964 -1.2566
 6127SOL     OW30016   3.630   1.694  15.533 -0.2179 -0.1679 -0.1824
 6127SOL    HW130017   3.554   1.747  15.558 -0.4626  0.8399 -3.0749
 6127SOL    HW230018   3.671   1.690  15.620  1.4623  1.4668 -0.9020
 6128SOL     OW30019   4.679   2.192   1.625 -0.2668  0.5080 -0.0089
 6128SOL    HW130020   4.713   2.115   1.580 -0.4625 -0.3745  1.3395
 6128SOL    HW230021   0.025   2.234   1.648 -0.3284 -0.3205  1.7607
 6129SOL     OW30022   1.089   4.534   8.479 -0.3537  0.1985 -0.2955
 6129SOL    HW130023   1.110   4.525   8.571 -1.2796  0.0010 -0.1050
 6129SOL    HW230024   1.092   4.629   8.468  0.8966  0.3036  1.0891
 6130SOL     OW30025   1.648   3.434  13.328  0.0463  0.0019 -0.1420
 6130SOL    HW130026   1.614   3.345  13.332  0.2001 -0.1111 -1.5517
 6130SOL    HW230027   1.650   3.447  13.423  1.4451 -2.4190  0.1607
 6131SOL     OW30028   1.604   1.875  11.024  0.0465 -0.7005 -0.0055
 6131SOL    HW130029   1.513   1.864  10.997  0.5305 -0.5530 -1.7149
 6131SOL    HW230030   1.606   1.961  11.066  2.1829 -0.5070 -0.4791
 6132SOL     OW30031   2.290   3.448   2.853  0.6376 -0.2106 -0.1920
 6132SOL    HW130032   2.210   3.454   2.801  1.3712  1.0340 -1.1885
 6132SOL    HW230033   2.248   3.493   2.927  0.4687 -3.0103  1.4161
 6133SOL     OW30034   1.431   1.182   7.513 -0.2651 -0.1591 -0.2543
 6133SOL    HW130035   1.363   1.156   7.451  1.4575 -0.5435 -1.9813
 6133SOL    HW230036   1.457   1.273   7.495 -0.1162 -0.5397 -1.9550
 6134SOL     OW30037   4.607   1.311   6.489 -0.3615 -0.3569  0.0183
 6134SOL    HW130038   4.654   1.227   6.486 -0.5855 -0.5564  1.9298
 6134SOL    HW230039   4.560   1.325   6.407 -1.6939  1.9775  1.1921
 6135SOL     OW30040   2.739   2.398   1.865  0.1593 -0.6797 -0.5415
 6135SOL    HW130041   2.674   2.429   1.802 -0.0216  0.0551  0.0101
 6135SOL    HW230042   2.818   2.376   1.816  1.0444  1.8289 -0.1921
 6136SOL     OW30043   2.027   2.475  14.045  0.7933 -0.3677 -0.4682
 6136SOL    HW130044   2.082   2.500  14.120  0.3737  1.1049 -0.6394
 6136SOL    HW230045   2.067   2.393  14.019  1.6510  0.7121 -2.5320
 6137SOL     OW30046   4.651   4.172   6.274 -0.0602 -0.2218  0.3149
 6137SOL    HW130047   4.578   4.180   6.212 -0.9108  1.5990  1.5210
 6137SOL    HW230048   4.605   4.122   6.342  0.6866 -1.1849  0.0906
 6138SOL     OW30049   0.209   2.413   1.762 -0.1070 -0.3256  0.3564
 6138SOL    HW130050   0.234   2.422   1.670  1.0248  0.8050  0.7785
 6138SOL    HW230051   0.227   2.503   1.789 -1.9264  0.0339  0.3679
 6139SOL     OW30052   3.676   3.967  13.742 -0.2554  0.8163  0.0963
 6139SOL    HW130053   3.681   4.026  13.818  0.0227  1.6021 -0.5221
 6139SOL    HW230054   3.696   4.032  13.675 -1.1274  0.7454 -0.2212
 6140SOL     OW30055   2.241   3.428   2.005 -0.1118  0.2053  0.5736
 6140SOL    HW130056   2.274   3.370   2.074  1.7474 -1.8434 -2.0880
 6140SOL    HW230057   2.312   3.422   1.941 -0.7392 -1.9000  0.0777
 6141SOL     OW30058   4.606   1.554   2.765 -0.6004  0.4899  0.7145
 6141SOL    HW130059   4.674   1.519   2.707  0.7663 -0.1179  2.6802
 6141SOL    HW230060   4.660   1.555   2.844 -2.1483 -1.7245  1.7797
 6142SOL     OW30061   3.597   2.267   3.200  1.0129  0.2087  0.0045
 6142SOL    HW130062   3.604   2.337   3.265 -0.2792  1.0446 -0.7572
 6142SOL    HW230063   3.622   2.190   3.250  1.1333  0.8014  0.8492
 6143SOL     OW30064   4.494   0.197   6.788 -0.1447  0.1380  0.2028
 6143SOL    HW130065   4.533   0.224   6.705  0.6325 -2.4907 -0.2926
 6143SOL    HW230066   4.422   0.259   6.799 -0.4869 -0.4229  1.1984
 6144SOL     OW30067   3.910   1.346   6.093  0.0578  0.1851 -0.3164
 6144SOL    HW130068   3.881   1.433   6.067  2.0480  0.3278 -2.0554
 6144SOL    HW230069   3.832   1.296   6.116  1.8019 -1.7860  1.3887
 6145SOL     OW30070   1.722   2.967   2.536  0.3339  0.6003  0.1229
 6145SOL    HW130071   1.750   2.986   2.447  2.9884 -1.3450  0.5346
 6145SOL    HW230072   1.708   2.873   2.529 -1.8340  0.8587  0.9901
 6146SOL     OW30073   4.156   0.444   3.558 -0.4976 -0.3561 -0.4162
 6146SOL    HW130074   4.244   0.444   3.595 -0.2048 -0.8543 -1.1113
 6146SOL    HW230075   4.127   0.530   3.589 -0.1654 -0.7324  0.9518
 6147SOL     OW30076   1.334   1.836   4.955  0.0672 -0.2299 -0.1339
 6147SOL    HW130077   1.389   1.891   4.899 -0.9480  1.4176  0.4726
 6147SOL    HW230078   1.401   1.772   4.980  0.4757  0.4240  0.4461
 6148SOL     OW30079   0.799   4.468   3.005 -0.2259 -0.4813  0.4123
 6148SOL    HW130080   0.890   4.451   3.029  0.3531  1.2971 -0.4511
 6148SOL    HW230081   0.785   4.412   2.929 -3.3579  1.3883 -0.4149
 6149SOL     OW30082   3.007   0.920  16.239  0.3517  0.7429  0.3212
 6149SOL    HW130083   3.043   0.853  16.181  0.6271  0.9775  0.2252
 6149SOL    HW230084   2.988   0.992  16.180  2.1735 -0.2781 -1.4831
 6150SOL     OW30085   3.183   1.307  10.630 -0.7854 -0.2981  0.0422
 6150SOL    HW130086   3.111   1.268  10.679 -0.8564  0.4060  0.5175
 6150SOL    HW230087   3.169   1.397  10.662  2.4372  0.1604  0.1490
 6151SOL     OW30088   0.321   0.197  10.932 -0.3857  0.1864  0.2112
 6151SOL    HW130089   0.289   0.181  10.843 -0.0285  1.5370 -0.1588
 6151SOL    HW230090   0.370   0.117  10.951  1.4383  1.0154 -0.9777
 6152SOL     OW30091   3.036   3.989   6.039 -0.1845  0.4242  0.1802
 6152SOL    HW130092   2.960   4.001   5.983 -0.3323 -0.1849  0.2506
 6152SOL    HW230093   3.000   3.914   6.087 -0.1369  0.9381  1.0314
 6153SOL     OW30094   4.103   0.622  12.495  0.0253 -0.4627 -0.4442
 6153SOL    HW130095   4.009   0.620  12.482 -0.0140  1.8491 -0.4625
 6153SOL    HW230096   4.123   0.543  12.445 -2.1260 -0.9423 -0.5178
 6154SOL     OW30097   1.648   0.325   7.684  0.1585 -0.0319  0.7429
 6154SOL    HW130098   1.612   0.359   7.602  0.6440 -0.4615  0.3562
 6154SOL    HW230099   1.683   0.243   7.650 -2.3701  0.0043 -1.8910
 6155SOL     OW30100   2.225   1.942  12.502 -0.5040  0.1561  0.7884
 6155SOL    HW130101   2.288   1.870  12.502 -1.7406 -0.9029 -2.1175
 6155SOL    HW230102   2.153   1.902  12.452  0.5373 -0.0395 -0.5333
 6156SOL     OW30103   1.144   2.437  14.024 -0.0909 -0.2936 -0.1288
 6156SOL    HW130104   1.203   2.390  14.083 -0.3041  1.3809  1.4550
 6156SOL    HW230105   1.099   2.368  13.976  1.5764 -0.8448 -0.8743
 6157SOL     OW30106   3.565   3.176   9.529 -0.1374  0.2206  0.3653
 6157SOL    HW130107   3.583   3.216   9.444  0.6677  0.4124  0.6237
 6157SOL    HW230108   3.515   3.099   9.502 -1.7035  0.8209  1.5282
 6158SOL     OW30109   0.262   1.091   3.681 -0.2253  0.0510 -0.6310
 6158SOL    HW130110   0.244   1.134   3.765 -0.5232 -0.4145 -0.4599
 6158SOL    HW230111   0.176   1.093   3.640 -1.0848  0.5022  1.1960
 6159SOL     OW30112   1.201   2.887   4.903  0.5631  0.4630  0.4833
 6159SOL    HW130113   1.135   2.945   4.865  0.6001 -0.2269 -0.6294
 6159SOL    HW230114   1.292   2.915   4.891  0.3569  0.6196 -0.8007
 6160SOL     OW30115   3.483   3.040   8.377  0.0794 -0.0470  0.2466
 6160SOL    HW130116   3.497   3.134   8.389 -1.2474  0.6303 -3.5366
 6160SOL    HW230117   3.409   3.044   8.317  1.9503  1.1500 -1.9922
 6161SOL     OW30118   2.048   3.583   5.794  0.0510  0.2898 -0.3824
 6161SOL    HW130119   2.088   3.658   5.838  2.3042 -0.9816 -0.2489
 6161SOL    HW230120   1.965   3.574   5.840 -0.3234  2.4454 -0.6298
 6162SOL     OW30121   1.029   2.570   3.789  0.0466 -0.0496 -0.2733
 6162SOL    HW130122   1.054   2.602   3.876 -0.5599  1.1309 -0.5313
 6162SOL    HW230123   0.998   2.650   3.746 -0.3372 -0.0554 -0.0059
 6163SOL     OW30124   4.158   0.695  12.736  0.1899  0.4407  0.7880
 6163SOL    HW130125   4.153   0.684  12.641  1.0809 -0.3945  0.8425
 6163SOL    HW230126   4.136   0.787  12.752 -0.2403  0.4293  0.2650
 6164SOL     OW30127   2.388   3.016   2.061 -0.3205 -0.3885 -0.1280
 6164SOL    HW130128   2.412   3.096   2.108 -0.9544 -1.4245  1.9605
 6164SOL    HW230129   2.476   2.979   2.052 -0.2028 -0.0654 -0.3028
 6165SOL     OW30130   1.891   3.148  12.571  0.0929  0.2904  0.0087
 6165SOL    HW130131   1.942   3.228  12.586 -0.7306  0.5590  1.3430
 6165SOL    HW230132   1.868   3.158  12.479  1.0118  1.7211 -0.0660
 6166SOL     OW30133   0.965   0.903   5.352  0.0772 -0.5358 -0.1748
 6166SOL    HW130134   0.924   0.852   5.282 -3.2767  2.2628 -0.2627
 6166SOL    HW230135   1.025   0.835   5.384 -1.8204 -0.0313  4.4713
 6167SOL     OW30136   0.681   3.917   2.776 -0.1737 -0.4088 -0.0099
 6167SOL    HW130137   0.633   3.900   2.695  0.7844 -0.3267 -0.5991
 6167SOL    HW230138   0.669   3.832   2.817  1.4958  1.4916  4.3576
 6168SOL     OW30139   2.639   0.460   8.036 -0.0999  0.1953  0.1378
 6168SOL    HW130140   2.680   0.375   8.051 -1.0733 -0.1879  0.6449
 6168SOL    HW230141   2.683   0.509   8.106 -0.6441  0.4468  0.3063
 6169SOL     OW30142   4.087   1.414   9.370 -0.5425  0.7179 -0.3724
 6169SOL    HW130143   4.042   1.494   9.345 -1.7463  0.4884  1.0797
 6169SOL    HW230144   4.032   1.394   9.445  3.9710  0.3223  2.8459
 6170SOL     OW30145   1.956   0.879  11.321 -0.5082  0.4990  0.4245
 6170SOL    HW130146   1.895   0.927  11.264  1.0922  3.1691  0.9725
 6170SOL    HW230147   2.016   0.844  11.254 -2.3290 -0.0169 -0.9557
 6171SOL     OW30148   0.899   1.043  15.243 -0.0757 -1.1311 -0.4313
 6171SOL    HW130149   0.808   1.018  15.255  0.1114 -1.6771 -0.1545
 6171SOL    HW230150   0.919   1.079  15.330 -0.2820 -2.0622 -0.0026
 6172SOL     OW30151   2.914   4.465   3.172  0.3350 -0.0375  0.7179
 6172SOL    HW130152   2.857   4.390   3.188 -0.7869  0.3053 -1.6670
 6172SOL    HW230153   3.000   4.442   3.208 -0.5844 -2.0479  1.6153
 6173SOL     OW30154   1.274   1.237   4.978 -0.0003  0.0647  0.1997
 6173SOL    HW130155   1.325   1.159   4.956 -1.1068 -0.6578  0.1922
 6173SOL    HW230156   1.185   1.205   4.963  0.1356 -1.1738  2.0514
 6174SOL     OW30157   3.021   3.569   3.472  0.6526  0.0884 -0.0527
 6174SOL    HW130158   2.976   3.640   3.517 -0.0720 -0.0236 -0.5968
 6174SOL    HW230159   2.997   3.592   3.382  1.7635  3.3145  0.4493
 6175SOL     OW30160   1.790   3.326   3.428  0.0847 -0.5430  0.0476
 6175SOL    HW130161   1.766   3.349   3.517 -0.0605 -1.9622  0.3860
 6175SOL    HW230162   1.837   3.401   3.393  0.1259  0.0180  1.3072
 6176SOL     OW30163   3.153   0.573   2.739  0.4000 -0.1541  0.3411
 6176SOL    HW130164   3.196   0.590   2.655  2.2991  1.0588  1.5690
 6176SOL    HW230165   3.215   0.518   2.786 -0.4228 -1.5794 -0.2216
 6177SOL     OW30166   2.262   2.998   3.158  0.0712  0.3922 -0.0007
 6177SOL    HW130167   2.289   3.022   3.246 -1.6227  1.7264  0.1580
 6177SOL    HW230168   2.345   2.996   3.111  0.9148 -2.5743  1.6208
 6178SOL     OW30169   4.065   1.554   8.730 -0.1287 -0.0436  0.3359
 6178SOL    HW130170   4.011   1.493   8.680 -2.0310  1.4146  0.6093
 6178SOL    HW230171   4.029   1.638   8.701 -1.9460 -1.0584 -0.2975
 6179SOL     OW30172   0.673   0.003   2.055  0.3666 -0.9236  0.2818
 6179SOL    HW130173   0.674   0.030   2.147  0.2726  2.8926 -0.8238
 6179SOL    HW230174   0.688   4.646   2.056  1.3788 -0.7682 -0.3200
 6180SOL     OW30175   0.153   1.452   9.467 -0.2522 -0.5896  0.2787
 6180SOL    HW130176   0.138   1.472   9.375  0.5722 -0.3855  0.1866
 6180SOL    HW230177   0.067   1.453   9.508  0.4294  2.5449  1.6335
 6181SOL     OW30178   3.358   2.320   4.399 -0.3502 -0.1797 -0.2086
 6181SOL    HW130179   3.289   2.317   4.466  0.0509  4.1415  0.4269
 6181SOL    HW230180   3.376   2.228   4.381 -0.5408 -0.1611 -0.4875
 6182SOL     OW30181   4.132   3.033   3.075 -0.3690 -0.4124  0.4223
 6182SOL    HW130182   4.176   2.990   3.002 -2.3708 -0.4467 -0.7348
 6182SOL    HW230183   4.072   3.082   3.019  0.5295 -0.7654 -0.8411
 6183SOL     OW30184   2.679   3.019   3.518 -0.1917 -0.5824  0.0193
 6183SOL    HW130185   2.638   2.944   3.475  0.2748 -1.4996  1.1717
 6183SOL    HW230186   2.763   3.011   3.472  0.6591 -1.0451  1.6658
 6184SOL     OW30187   1.777   3.305  10.794 -0.3165  0.1545  0.2549
 6184SOL    HW130188   1.784   3.288  10.888  0.5997  1.2821  0.3930
 6184SOL    HW230189   1.708   3.371  10.799 -1.0440 -0.6463  0.8759
 6185SOL     OW30190   0.463   3.240   0.408 -0.1437  0.4623  0.1841
 6185SOL    HW130191   0.394   3.252   0.342 -1.2100  2.5806  1.6600
 6185SOL    HW230192   0.418   3.204   0.484  1.7949 -2.6479 -0.1731
 6186SOL     OW30193   0.407   2.412   3.898  0.2453 -0.1220  0.2109
 6186SOL    HW130194   0.444   2.337   3.945 -3.5358 -1.2208  1.3867
 6186SOL    HW230195   0.342   2.371   3.841  0.4552 -1.0118  0.6243
 6187SOL     OW30196   4.503   3.219   7.833 -0.4175 -0.4906  1.1983
 6187SOL    HW130197   4.491   3.297   7.887  0.7875  1.6631 -1.6309
 6187SOL    HW230198   4.595   3.219   7.808  0.0038  0.3212  2.6959
 6188SOL     OW30199   1.614   2.740   6.854  0.0485  0.0452  0.0508
 6188SOL    HW130200   1.658   2.677   6.797 -1.3937  0.1708 -1.2107
 6188SOL    HW230201   1.521   2.718   6.849  0.3548 -1.9448  3.3110
 6189SOL     OW30202   3.912   1.042  14.780  0.4215  0.2414 -0.0430
 6189SOL    HW130203   3.978   1.011  14.841  0.5656 -3.1506 -1.9082
 6189SOL    HW230204   3.945   1.124  14.744 -0.7873  0.7686  0.0600
 6190SOL     OW30205   1.084   3.835   1.541  0.3082 -0.2078 -0.0501
 6190SOL    HW130206   1.121   3.874   1.620  1.0463  0.7948 -0.8896
 6190SOL    HW230207   1.164   3.802   1.500  0.4055  2.2580 -1.8712
 6191SOL     OW30208   2.584   2.417   5.307  0.0223  0.0574  0.4947
 6191SOL    HW130209   2.581   2.363   5.228 -1.9273  1.6859 -0.5228
 6191SOL    HW230210   2.523   2.371   5.365  1.5137 -1.7676  0.6133
 6192SOL     OW30211   2.303   2.193   4.872  0.6070  0.1485 -0.3214
 6192SOL    HW130212   2.265   2.141   4.802  0.7970  1.3923 -1.3593
 6192SOL    HW230213   2.300   2.282   4.838 -0.4341 -0.0302 -0.6742
 6193SOL     OW30214   2.590   4.725   3.262  0.0566  0.5566  0.0853
 6193SOL    HW130215   2.548   0.044   3.327  0.7044  2.2098 -0.9405
 6193SOL    HW230216   2.681   4.720   3.293 -0.0002 -2.5320 -0.2097
 6194SOL     OW30217   4.181   3.770  13.827  0.7546 -0.0137  0.2590
 6194SOL    HW130218   4.119   3.699  13.810 -0.6050  1.6573 -1.8087
 6194SOL    HW230219   4.259   3.721  13.854  0.7925 -0.6851 -1.0614
 6195SOL     OW30220   0.805   3.632   5.975 -0.5910  0.1945  0.1401
 6195SOL    HW130221   0.765   3.651   5.890  1.3714  0.7942 -0.6410
 6195SOL    HW230222   0.772   3.542   5.981 -0.8847  0.1678 -1.8595
 6196SOL     OW30223   3.994   0.663   2.903  0.4602  0.0210 -0.4330
 6196SOL    HW130224   3.999   0.759   2.900  0.1030  0.0557 -0.0141
 6196SOL    HW230225   4.004   0.661   2.998  0.7231  0.3872 -0.4512
 6197SOL     OW30226   3.036   1.140   8.490  0.2806  0.3643  0.7196
 6197SOL    HW130227   2.969   1.073   8.477  0.6314  0.0121  0.7243
 6197SOL    HW230228   2.986   1.218   8.468  1.6506  1.0459 -0.0058
 6198SOL     OW30229   4.160   0.864   8.330 -0.7436  0.5136 -0.1276
 6198SOL    HW130230   4.147   0.802   8.258  2.0993 -1.1964  0.8245
 6198SOL    HW230231   4.072   0.855   8.364 -1.6937 -3.1410 -3.5558
 6199SOL     OW30232   0.571   1.137  11.152 -0.1859 -0.1319 -0.0492
 6199SOL    HW130233   0.540   1.067  11.210  0.6844  0.0030  0.5777
 6199SOL    HW230234   0.594   1.079  11.079 -0.1286  0.2783 -0.3604
 6200SOL     OW30235   2.415   2.718   9.142  0.7003  0.0308  0.1422
 6200SOL    HW130236   2.349   2.707   9.074  0.2508 -2.1745  0.9245
 6200SOL    HW230237   2.496   2.694   9.098 -1.0054 -0.0518 -2.9077
 6201SOL     OW30238   4.156   2.724   7.017 -0.3723  0.2004  0.0631
 6201SOL    HW130239   4.172   2.805   7.065  1.3868 -0.7689  1.1028
 6201SOL    HW230240   4.084   2.693   7.072  0.2594  0.9004  1.2903
 6202SOL     OW30241   4.239   4.420   6.325 -0.2200  0.5816  0.2836
 6202SOL    HW130242   4.225   4.513   6.312  1.9620  0.8540  0.0082
 6202SOL    HW230243   4.155   4.378   6.305  0.1191 -0.9496  2.0405
 6203SOL     OW30244   1.659   3.396   1.980 -0.1761 -0.0583 -0.1710
 6203SOL    HW130245   1.596   3.416   2.049  0.8616 -1.2443  1.1022
 6203SOL    HW230246   1.661   3.300   1.981  1.8167 -0.0113 -0.8173
 6204SOL     OW30247   2.552   3.852   6.973  0.1926 -0.1046  0.2625
 6204SOL    HW130248   2.525   3.760   6.972  1.1048 -0.3567 -0.7800
 6204SOL    HW230249   2.592   3.869   6.887  1.2794 -1.6560  0.4716
 6205SOL     OW30250   4.333   3.942   5.943  0.1167 -0.0780  0.0315
 6205SOL    HW130251   4.270   3.878   5.910  1.3005 -1.0415 -0.3601
 6205SOL    HW230252   4.283   3.990   6.010 -2.0814 -0.5996 -1.2632
 6206SOL     OW30253   1.152   4.112   7.800  0.1306 -0.7567  0.0898
 6206SOL    HW130254   1.166   4.206   7.810  0.2005 -0.9647  1.8682
 6206SOL    HW230255   1.065   4.106   7.840 -0.3306 -0.2749 -0.8584
 6207SOL     OW30256   2.524   3.924   5.688  0.1395  0.0153 -0.2418
 6207SOL    HW130257   2.550   3.871   5.613 -0.9417  0.3089 -0.8263
 6207SOL    HW230258   2.464   3.981   5.640 -0.9306 -1.5616 -0.7748
 6208SOL     OW30259   4.642   3.295  17.425 -0.1405  0.2766 -0.3366
 6208SOL    HW130260   4.696   3.353  17.370  0.9942 -2.2008 -1.8148
 6208SOL    HW230261   4.627   3.344  17.506 -0.2837 -0.2878 -0.0268
 6209SOL     OW30262   2.967   0.023   3.551 -0.0651 -0.2762 -0.1113
 6209SOL    HW130263   2.948   0.021   3.458  1.4524 -0.9579 -0.4067
 6209SOL    HW230264   3.038   4.697   3.560 -3.2442 -4.0950 -2.2687
 6210SOL     OW30265   3.944   1.679  10.401 -0.5364  0.1598 -0.2703
 6210SOL    HW130266   4.007   1.607  10.396 -1.3483 -0.6029  0.5203
 6210SOL    HW230267   3.899   1.656  10.483  1.2014 -1.2365  0.3051
 6211SOL     OW30268   4.080   3.999   1.704 -0.2257  0.3878  0.0503
 6211SOL    HW130269   4.137   3.941   1.653 -0.1189  1.3948 -0.9857
 6211SOL    HW230270   4.065   3.955   1.787  0.0341  0.8424  0.3367
 6212SOL     OW30271   3.333   2.604  12.219  0.6382  0.0349 -0.0813
 6212SOL    HW130272   3.413   2.552  12.229  0.3569 -0.2685  0.6364
 6212SOL    HW230273   3.364   2.677  12.166 -1.8337  1.5083  0.5136
 6213SOL     OW30274   2.363   3.302   6.487  0.2165 -0.0898  0.4104
 6213SOL    HW130275   2.379   3.314   6.393  2.0137  0.4739  0.7954
 6213SOL    HW230276   2.290   3.356   6.516  1.0789  0.7476  1.0117
 6214SOL     OW30277   3.630   0.600   3.148 -0.3065  0.3154  0.2223
 6214SOL    HW130278   3.587   0.683   3.128  1.1595  0.9197 -0.4514
 6214SOL    HW230279   3.665   0.573   3.063 -1.2094  0.0350 -0.0553
 6215SOL     OW30280   3.321   4.708   1.691  0.2940  0.4596 -0.0857
 6215SOL    HW130281   3.338   0.036   1.624  0.8557  0.4829  0.0815
 6215SOL    HW230282   3.228   4.731   1.701  0.0111 -1.3343  1.3904
 6216SOL     OW30283   1.871   0.735   4.016 -0.2152  0.1692 -0.1147
 6216SOL    HW130284   1.955   0.780   4.022  0.1568 -0.1311 -2.9905
 6216SOL    HW230285   1.900   0.644   4.009  0.4717  0.0981  3.3039
 6217SOL     OW30286   4.126   3.977   2.827  0.0657  0.3311  0.5786
 6217SOL    HW130287   4.142   4.057   2.878  1.3531  0.4577 -0.0115
 6217SOL    HW230288   4.157   3.909   2.886  2.2907 -0.7648 -1.8159
 6218SOL     OW30289   0.987   2.971   7.465  0.8924 -0.0125  0.9374
 6218SOL    HW130290   1.018   2.892   7.509 -0.3022 -0.1489  1.5343
 6218SOL    HW230291   1.024   2.956   7.378 -0.5293 -2.9992  0.8349
 6219SOL     OW30292   4.050   1.790   9.096  0.1498  0.3157  0.0244
 6219SOL    HW130293   3.977   1.747   9.052 -0.6921  2.2707 -0.5171
 6219SOL    HW230294   4.050   1.735   9.173 -1.4622 -1.8509 -1.5123
 6220SOL     OW30295   3.036   1.722   5.568  0.2293  0.2070 -0.0972
 6220SOL    HW130296   3.084   1.642   5.550  0.3426  0.5375 -1.2752
 6220SOL    HW230297   2.974   1.718   5.496  0.9756 -2.4097 -0.5672
 6221SOL     OW30298   2.293   0.300  16.815 -0.2974  0.5050 -0.2828
 6221SOL    HW130299   2.260   0.388  16.796 -0.4560  0.3519 -0.7001
 6221SOL    HW230300   2.229   0.277  16.882  0.0198  1.1456  0.2447
 6222SOL     OW30301   3.568   1.459   5.477  0.0998  1.0683 -0.6313
 6222SOL    HW130302   3.640   1.476   5.539  0.2271  1.3870 -0.8690
 6222SOL    HW230303   3.625   1.479   5.403 -0.3215  0.5825 -1.0875
 6223SOL     OW30304   3.572   2.057   9.547  0.0380  0.2537 -0.0447
 6223SOL    HW130305   3.593   2.053   9.640 -1.3208 -0.3009  0.2394
 6223SOL    HW230306   3.612   1.978   9.511 -1.8374 -0.5498 -0.4098
 6224SOL     OW30307   0.424   4.284   6.195 -0.4468 -0.2094 -0.2143
 6224SOL    HW130308   0.396   4.269   6.285  1.6261  1.7073  0.7386
 6224SOL    HW230309   0.396   4.199   6.159  1.2337 -0.8083 -0.1492
 6225SOL     OW30310   1.179   3.824   5.198  0.5517 -0.6884  0.7004
 6225SOL    HW130311   1.150   3.751   5.142  0.9345  1.3158 -2.1095
 6225SOL    HW230312   1.112   3.890   5.183  0.8121 -0.7062 -0.5515
 6226SOL     OW30313   1.969   2.038  11.259 -0.7142  0.2711  0.1922
 6226SOL    HW130314   1.947   2.132  11.259 -0.9089  0.2239  0.1206
 6226SOL    HW230315   1.891   2.003  11.301  0.2206 -1.6445  0.3229
 6227SOL     OW30316   2.876   0.349   2.011 -0.8961 -0.0297 -0.3296
 6227SOL    HW130317   2.929   0.352   2.090 -0.1378 -2.2524 -0.7284
 6227SOL    HW230318   2.805   0.293   2.044 -0.3371 -0.8125 -0.4404
 6228SOL     OW30319   2.131   3.061  14.529 -0.0767 -0.5946  0.0333
 6228SOL    HW130320   2.204   3.011  14.493 -0.0168  0.0307 -0.7072
 6228SOL    HW230321   2.121   3.139  14.474  1.4605 -0.2414  0.2506
 6229SOL     OW30322   2.099   0.856   3.416  0.1921 -0.5140  0.1127
 6229SOL    HW130323   2.053   0.849   3.499  1.6893  0.9792  1.0570
 6229SOL    HW230324   2.155   0.779   3.407  0.8951 -0.3716  3.5444
 6230SOL     OW30325   2.705   3.811   7.215 -0.4828 -0.2474 -0.3265
 6230SOL    HW130326   2.674   3.830   7.127 -0.6969 -0.2271 -0.2474
 6230SOL    HW230327   2.625   3.781   7.259  0.0291 -0.1583  0.6520
 6231SOL     OW30328   0.263   0.076   6.670  0.4874 -0.0770  0.3668
 6231SOL    HW130329   0.173   0.089   6.700  0.2440  0.0501 -0.4021
 6231SOL    HW230330   0.303   0.031   6.744  0.6526  2.6018  1.8878
 6232SOL     OW30331   0.459   4.077  10.864  0.2022 -0.5286  0.0526
 6232SOL    HW130332   0.473   4.079  10.769 -0.3382  1.2347  0.0080
 6232SOL    HW230333   0.493   3.988  10.873 -0.7488 -0.9733 -0.7183
 6233SOL     OW30334   1.515   4.578   4.326  0.0117 -0.0940 -0.2567
 6233SOL    HW130335   1.527   4.538   4.413  0.2338 -1.3306 -0.8460
 6233SOL    HW230336   1.609   4.583   4.308  0.0253  1.0301  0.1362
 6234SOL     OW30337   1.853   2.429   1.230  0.3609  0.3571 -0.5951
 6234SOL    HW130338   1.801   2.451   1.153  3.6029 -0.2760 -2.9795
 6234SOL    HW230339   1.943   2.440   1.199  0.8876 -0.1288  0.7750
 6235SOL     OW30340   4.392   4.669  17.440  0.3868 -0.0646 -0.6484
 6235SOL    HW130341   4.380   4.591  17.494  0.1483 -0.2875 -1.0214
 6235SOL    HW230342   4.299   4.692  17.440  0.5978  0.8510 -3.2671
 6236SOL     OW30343   0.988   2.985   9.081  0.0043  0.3098 -0.0544
 6236SOL    HW130344   1.028   2.987   8.994  2.0822 -0.0216  0.8848
 6236SOL    HW230345   1.066   2.995   9.137 -0.2994  0.5634  0.3272
 6237SOL     OW30346   0.086   1.207   4.006  0.1398  0.0815 -1.2134
 6237SOL    HW130347   0.180   1.226   4.006 -0.3431  2.3988 -0.8254
 6237SOL    HW230348   0.093   1.113   3.986 -0.7729  0.1287 -1.7304
 6238SOL     OW30349   0.502   0.811   3.790 -0.3427 -0.1332 -0.4347
 6238SOL    HW130350   0.570   0.748   3.813  0.0013 -0.2108 -1.6308
 6238SOL    HW230351   0.421   0.777   3.829  0.0635 -0.7962 -0.1822
 6239SOL     OW30352   3.083   2.112   4.249  0.7818 -0.3083  0.1879
 6239SOL    HW130353   3.100   2.201   4.219 -0.7558  0.2698  1.0562
 6239SOL    HW230354   3.041   2.091   4.166  4.4965  0.5465 -1.9288
 6240SOL     OW30355   3.151   0.146  16.979  0.3778  0.2150 -0.3939
 6240SOL    HW130356   3.093   0.188  16.915  0.1782 -0.1343 -0.4416
 6240SOL    HW230357   3.220   0.108  16.925  0.7107  1.7467 -1.0569
 6241SOL     OW30358   4.468   0.697  14.267  0.4644  0.3986  0.5650
 6241SOL    HW130359   4.395   0.639  14.287 -1.5614  2.9520  0.5373
 6241SOL    HW230360   4.463   0.711  14.172  2.1629 -0.4141  0.3387
 6242SOL     OW30361   3.350   4.450  17.394  0.0862  0.0553  0.5152
 6242SOL    HW130362   3.366   4.544  17.403 -3.2771  0.6635  0.1147
 6242SOL    HW230363   3.420   4.421  17.452  0.4638  0.7353  0.3923
 6243SOL     OW30364   4.174   0.668   9.480  0.0319 -0.0377 -0.0357
 6243SOL    HW130365   4.241   0.620   9.431 -0.5691 -1.3209  0.4121
 6243SOL    HW230366   4.142   0.602   9.541 -0.9307  1.6387  1.2907
 6244SOL     OW30367   0.418   0.351   2.508 -0.2384 -0.3700  0.2963
 6244SOL    HW130368   0.345   0.377   2.564 -1.1588 -2.1765 -0.0548
 6244SOL    HW230369   0.494   0.373   2.561  0.4527 -0.1229 -0.7863
 6245SOL     OW30370   0.038   0.462   2.255  0.1863  0.1777  0.1539
 6245SOL    HW130371   0.055   0.369   2.270 -1.1740 -0.3435 -1.4861
 6245SOL    HW230372   4.708   0.481   2.320 -0.9058 -0.1849 -0.8614
 6246SOL     OW30373   2.535   1.600   2.932 -0.8663  0.5105  0.5898
 6246SOL    HW130374   2.628   1.590   2.909 -0.6148  1.3800  1.2325
 6246SOL    HW230375   2.500   1.530   2.878 -0.0573  0.0642  0.6346
 6247SOL     OW30376   0.353   2.217   6.195 -0.0492 -0.6069  0.0893
 6247SOL    HW130377   0.306   2.150   6.245 -0.7155 -1.0488 -1.1235
 6247SOL    HW230378   0.440   2.197   6.228 -0.5845 -1.3906  1.0225
 6248SOL     OW30379   4.661   2.780   2.419  0.1767 -0.3476 -0.1638
 6248SOL    HW130380   0.013   2.759   2.447  0.2020 -1.3430 -0.9838
 6248SOL    HW230381   4.659   2.742   2.332 -0.1806 -1.1999  0.2169
 6249SOL     OW30382   0.600   3.150   7.682 -0.2956  0.2448 -0.0986
 6249SOL    HW130383   0.650   3.125   7.604 -0.4456 -0.0359 -0.1052
 6249SOL    HW230384   0.554   3.233   7.668 -0.0530  0.0743 -1.9943
 6250SOL     OW30385   0.879   3.320   8.985 -0.2657  0.2062  0.0085
 6250SOL    HW130386   0.953   3.348   8.931  0.4039  0.6556  1.1717
 6250SOL    HW230387   0.800   3.336   8.933  0.7271 -2.1299 -2.2540
 6251SOL     OW30388   3.896   4.477   5.192 -0.6121 -0.2029 -0.7366
 6251SOL    HW130389   3.875   4.442   5.105  0.9738 -1.3775 -0.6380
 6251SOL    HW230390   3.921   4.401   5.243 -1.7132  1.7670  2.7852
 6252SOL     OW30391   3.897   4.061   9.357  0.5924  0.0298  0.3176
 6252SOL    HW130392   3.864   4.095   9.274 -1.6677 -1.3674  0.6556
 6252SOL    HW230393   3.814   4.070   9.403  0.7164  0.1252  0.5260
 6253SOL     OW30394   3.742   4.534  10.362 -0.4486 -0.1217 -0.0183
 6253SOL    HW130395   3.709   4.505  10.447 -1.7268  2.4426  0.3318
 6253SOL    HW230396   3.718   4.626  10.366  1.5059  0.2751  2.8425
 6254SOL     OW30397   0.175   2.195   9.216 -0.1749 -0.1710  0.3127
 6254SOL    HW130398   0.180   2.291   9.210 -0.7930 -0.3292 -3.1655
 6254SOL    HW230399   0.191   2.186   9.122 -1.3507  0.5708  0.0387
 6255SOL     OW30400   4.004   0.496  12.813  0.1681 -0.5263 -0.3713
 6255SOL    HW130401   4.088   0.458  12.838 -0.7894 -3.2892 -1.2838
 6255SOL    HW230402   4.044   0.577  12.782  0.1791 -0.7414 -0.9190
 6256SOL     OW30403   0.024   0.047  11.626 -0.0377  0.0534 -0.0710
 6256SOL    HW130404   0.078   0.093  11.562  0.6672 -0.5267  0.0967
 6256SOL    HW230405   0.066   0.080  11.706  3.2349  1.6244 -2.4712
 6257SOL     OW30406   2.505   0.858   8.689 -0.2985 -0.0034  0.4377
 6257SOL    HW130407   2.475   0.778   8.733 -1.3274  0.3572  0.4099
 6257SOL    HW230408   2.532   0.902   8.770 -1.1722  1.5974 -0.1450
 6258SOL     OW30409   2.131   1.964  11.908 -0.6942 -0.0484  0.4150
 6258SOL    HW130410   2.098   2.052  11.927 -0.9225  0.2334 -1.2909
 6258SOL    HW230411   2.053   1.913  11.928 -0.5856 -0.0922  0.7206
 6259SOL     OW30412   1.231   3.458   6.904 -0.1047  0.1527 -0.9246
 6259SOL    HW130413   1.156   3.490   6.854 -1.8731 -0.8859  1.0148
 6259SOL    HW230414   1.246   3.373   6.864 -1.5385  0.3166 -1.8230
 6260SOL     OW30415   3.448   0.206   4.721 -0.1895 -0.4410  0.4894
 6260SOL    HW130416   3.542   0.206   4.736 -0.4140  2.5479  1.7793
 6260SOL    HW230417   3.446   0.129   4.663  1.7135 -0.9879  1.1744
 6261SOL     OW30418   4.529   2.302   7.908 -0.4778  0.2435  0.0370
 6261SOL    HW130419   4.623   2.298   7.927 -0.7827 -1.0445  1.2556
 6261SOL    HW230420   4.497   2.299   7.998  0.2512  0.8528  0.3191
 6262SOL     OW30421   2.289   2.247   2.915  0.4496 -0.2090 -0.0548
 6262SOL    HW130422   2.354   2.191   2.872 -0.7544 -0.1763 -1.9305
 6262SOL    HW230423   2.293   2.328   2.865  0.7073 -0.6153 -0.6941
 6263SOL     OW30424   4.416   1.752   2.796  0.3161  0.2079 -0.1049
 6263SOL    HW130425   4.479   1.814   2.833 -2.3992  1.6895  1.9964
 6263SOL    HW230426   4.475   1.682   2.767  1.2712  0.5811  0.9696
 6264SOL     OW30427   4.352   4.469   0.653  0.3476  0.0706  0.4475
 6264SOL    HW130428   4.327   4.390   0.701 -2.6354  0.9104  0.2788
 6264SOL    HW230429   4.445   4.451   0.642 -0.8275 -4.8876 -1.4248
 6265SOL     OW30430   1.512   2.187  13.218  0.2600  0.4824  0.1450
 6265SOL    HW130431   1.582   2.225  13.270 -0.4907  1.6424  0.3199
 6265SOL    HW230432   1.546   2.099  13.200 -0.5126  0.1130  0.4706
 6266SOL     OW30433   1.492   3.947   1.758  0.2685 -0.2011  0.0499
 6266SOL    HW130434   1.546   3.950   1.679 -0.2236 -2.0865 -0.3438
 6266SOL    HW230435   1.565   3.962   1.818  2.1220 -0.8689 -2.0235
 6267SOL     OW30436   4.239   2.698  14.636  0.1783  0.1809 -0.1806
 6267SOL    HW130437   4.231   2.646  14.716  1.3766  1.0293  0.4915
 6267SOL    HW230438   4.183   2.774  14.649 -0.1845 -0.0090 -0.6304
 6268SOL     OW30439   2.113   4.450   1.654 -0.4500 -0.1267 -0.3725
 6268SOL    HW130440   2.091   4.373   1.601 -3.5002  1.4158 -1.3515
 6268SOL    HW230441   2.182   4.405   1.703  0.2226 -0.9785 -2.0707
 6269SOL     OW30442   2.897   3.080  11.616  0.5766 -0.2967  0.3067
 6269SOL    HW130443   2.914   3.153  11.558 -1.2088 -0.5534 -0.5556
 6269SOL    HW230444   2.938   3.004  11.576  1.5436  0.8423 -0.8510
 6270SOL     OW30445   2.329   0.298   2.308  0.4048 -0.2562  0.1277
 6270SOL    HW130446   2.421   0.325   2.318  0.3419  0.9884 -2.5931
 6270SOL    HW230447   2.336   0.276   2.215  0.5061 -3.2793  0.8633
 6271SOL     OW30448   1.564   0.995   8.793  0.0226  0.1985 -0.0560
 6271SOL    HW130449   1.590   0.934   8.724 -2.5174 -2.0010  0.9367
 6271SOL    HW230450   1.469   1.001   8.789 -0.0127 -0.2410  0.0706
 6272SOL     OW30451   0.759   1.821  17.703  0.2442 -0.0803  0.0568
 6272SOL    HW130452   0.804   1.852   0.033 -1.0285  2.3950 -0.1788
 6272SOL    HW230453   0.730   1.738  17.742 -0.5269  0.8916  1.5349
 6273SOL     OW30454   2.546   2.689   7.903 -0.3406  0.5747 -0.1168
 6273SOL    HW130455   2.622   2.747   7.913  0.5608 -0.3508 -1.6260
 6273SOL    HW230456   2.547   2.679   7.808 -1.0751  1.0036 -0.1647
 6274SOL     OW30457   3.685   0.421   5.837 -0.2420 -0.2667  0.0676
 6274SOL    HW130458   3.774   0.392   5.819  0.6191  1.8512  1.0178
 6274SOL    HW230459   3.675   0.375   5.920 -2.3245  1.2284  0.6420
 6275SOL     OW30460   2.254   0.302   3.435 -0.0481  0.4189  0.0522
 6275SOL    HW130461   2.217   0.328   3.351 -0.0988 -0.9271 -0.3438
 6275SOL    HW230462   2.313   0.234   3.403 -2.3675 -1.9814  0.9077
 6276SOL     OW30463   0.552   4.018   5.904 -0.2222 -0.1555  0.1664
 6276SOL    HW130464   0.472   4.029   5.955 -0.2740  0.0469  0.0420
 6276SOL    HW230465   0.618   4.057   5.962  0.9571 -0.2204 -1.1405
 6277SOL     OW30466   4.734   2.159   8.247 -0.3431 -0.5382 -0.0828
 6277SOL    HW130467   4.734   2.140   8.341  1.6468  1.3039  0.3095
 6277SOL    HW230468   0.090   2.175   8.233 -0.6052  2.5171  1.6244
 6278SOL     OW30469   3.560   3.804   5.816  0.2647  0.3362 -0.7626
 6278SOL    HW130470   3.550   3.718   5.858 -1.2961  0.0311 -1.7651
 6278SOL    HW230471   3.601   3.852   5.888 -1.5697  0.8453 -0.0501
 6279SOL     OW30472   1.420   0.197  10.073 -0.0509  0.1747  0.1494
 6279SOL    HW130473   1.434   0.122  10.131 -0.8770 -1.2419 -1.4593
 6279SOL    HW230474   1.352   0.251  10.114 -0.0274  0.7820 -0.6147
 6280SOL     OW30475   2.153   3.798   5.954  0.3632 -0.1868  0.1416
 6280SOL    HW130476   2.216   3.869   5.936 -0.5799  0.5546 -0.2248
 6280SOL    HW230477   2.132   3.814   6.046 -1.6467 -2.3994  0.0448
 6281SOL     OW30478   2.603   2.807   1.508  0.2685  0.4482 -0.3829
 6281SOL    HW130479   2.543   2.757   1.453  0.2537  0.0496 -0.0073
 6281SOL    HW230480   2.546   2.881   1.527 -0.6507  0.0211 -1.4996
 6282SOL     OW30481   0.923   1.552   8.396 -0.2701  0.2892  0.4070
 6282SOL    HW130482   0.867   1.515   8.329 -0.5919 -1.7943  1.8370
 6282SOL    HW230483   0.900   1.495   8.469 -0.7956 -1.2022 -0.9490
 6283SOL     OW30484   3.276   2.441  15.773 -0.1048 -0.2036  0.1643
 6283SOL    HW130485   3.289   2.472  15.683 -0.8325  0.7723  0.3968
 6283SOL    HW230486   3.360   2.443  15.819  0.3323  0.3037 -0.6626
 6284SOL     OW30487   0.604   3.463   9.101  0.1462 -0.3308 -0.4362
 6284SOL    HW130488   0.625   3.458   9.008  0.0313 -1.8946 -0.3874
 6284SOL    HW230489   0.633   3.549   9.131 -2.2179  0.5676 -0.7638
 6285SOL     OW30490   1.702   2.376   5.588 -0.1566  0.6378  0.1185
 6285SOL    HW130491   1.759   2.333   5.651 -0.5439  0.0584  0.0685
 6285SOL    HW230492   1.619   2.358   5.633 -0.6581  3.8081  0.4631
 6286SOL     OW30493   2.560   2.730   4.104 -0.1083  0.1815  0.9912
 6286SOL    HW130494   2.535   2.690   4.187  0.7092 -0.1711  1.0700
 6286SOL    HW230495   2.639   2.678   4.091  0.1581  0.7281  0.4025
 6287SOL     OW30496   2.666   1.191   1.468  0.4874  0.0836 -0.0959
 6287SOL    HW130497   2.637   1.189   1.559 -1.2373  0.2009 -0.6366
 6287SOL    HW230498   2.620   1.258   1.418  1.1339  0.4428 -0.2191
 6288SOL     OW30499   0.307   4.717   7.351  0.0170 -0.4482 -0.2964
 6288SOL    HW130500   0.382   4.664   7.325  0.5224  0.6933 -1.1664
 6288SOL    HW230501   0.329   0.063   7.311 -0.2241 -1.0283 -1.6553
 6289SOL     OW30502   1.334   2.362   0.901  0.0703 -0.1114 -0.6392
 6289SOL    HW130503   1.248   2.404   0.895  0.5316  0.2313 -4.3387
 6289SOL    HW230504   1.335   2.354   0.997  0.8831 -0.1802 -0.6541
 6290SOL     OW30505   2.977   1.125   7.765 -0.1086  0.0396  0.3329
 6290SOL    HW130506   2.996   1.218   7.755  1.5781 -0.3406 -0.0870
 6290SOL    HW230507   3.004   1.116   7.856  2.2441  0.1133 -0.3498
 6291SOL     OW30508   0.250   0.398  10.528 -0.0695 -0.0526  0.1623
 6291SOL    HW130509   0.229   0.307  10.550  2.1189 -0.4406  0.6986
 6291SOL    HW230510   0.345   0.400  10.542  0.3359 -1.1760 -2.3690
 6292SOL     OW30511   0.887   2.330   3.698  0.1668  0.2793 -0.2931
 6292SOL    HW130512   0.930   2.381   3.766  2.0275 -0.8254 -0.6409
 6292SOL    HW230513   0.833   2.272   3.752 -1.7523  1.8435 -0.5064
 6293SOL     OW30514   0.040   2.058  13.247 -0.7710  0.3396 -0.7920
 6293SOL    HW130515   0.128   2.020  13.243 -0.7099  0.5625 -1.6066
 6293SOL    HW230516   0.059   2.139  13.296 -1.9732 -0.6256  1.2600
 6294SOL     OW30517   2.479   2.672   9.587 -0.8338  0.1175  0.0330
 6294SOL    HW130518   2.448   2.677   9.497 -0.0976 -1.0433 -0.2823
 6294SOL    HW230519   2.520   2.586   9.585 -3.0623 -0.9241 -0.4037
 6295SOL     OW30520   2.056   4.215   7.777  0.7433 -0.5055 -0.7738
 6295SOL    HW130521   2.092   4.196   7.690 -2.7102 -1.4915 -1.9737
 6295SOL    HW230522   2.137   4.227   7.827 -0.0460  1.5525 -0.0073
 6296SOL     OW30523   1.458   2.296   2.941 -1.0140 -0.2431 -0.2923
 6296SOL    HW130524   1.368   2.316   2.968 -1.8829 -0.8642 -2.7055
 6296SOL    HW230525   1.446   2.261   2.852 -0.2379  1.8843 -1.2327
 6297SOL     OW30526   3.555   3.625   4.617 -0.0676  0.1530  0.4276
 6297SOL    HW130527   3.538   3.620   4.711  0.3491 -2.7394  0.3269
 6297SOL    HW230528   3.649   3.634   4.629 -0.3256  1.1695  1.6925
 6298SOL     OW30529   0.548   1.890   8.729  0.0169  0.1241 -0.0840
 6298SOL    HW130530   0.590   1.874   8.814  2.2172  1.0925 -0.9747
 6298SOL    HW230531   0.537   1.985   8.720 -0.1376  0.2848  1.7286
 6299SOL     OW30532   2.023   0.797   8.596 -0.2209 -0.0910 -0.7914
 6299SOL    HW130533   2.083   0.724   8.580 -1.8340 -1.6927  0.6041
 6299SOL    HW230534   2.043   0.857   8.524  0.3972 -0.0466 -0.5855
 6300SOL     OW30535   3.357   4.114   6.440 -0.4589 -0.4252  0.7330
 6300SOL    HW130536   3.376   4.054   6.513 -1.1224 -0.2798  1.0294
 6300SOL    HW230537   3.272   4.150   6.466 -0.1257 -0.5579  2.0241
 6301SOL     OW30538   2.004   0.957  15.100 -0.2481  0.0415  0.4130
 6301SOL    HW130539   2.042   0.874  15.128 -0.3375  0.1932  0.9784
 6301SOL    HW230540   2.049   1.007  15.167  3.4435 -1.1753 -1.1656
 6302SOL     OW30541   0.968   2.277   2.462 -0.1368  0.5224 -0.1904
 6302SOL    HW130542   0.935   2.260   2.551  0.9191  2.7285  0.6122
 6302SOL    HW230543   1.053   2.315   2.482  0.1286  0.6307 -1.5666
 6303SOL     OW30544   2.492   2.271   0.451  0.2364  0.5465 -0.4532
 6303SOL    HW130545   2.538   2.257   0.534 -2.3051  1.5814  1.1370
 6303SOL    HW230546   2.405   2.236   0.470 -0.0253  0.8493 -1.1139
 6304SOL     OW30547   1.108   3.946   4.398 -0.3013  0.4459 -0.5500
 6304SOL    HW130548   1.046   4.018   4.411 -0.9157  0.0841 -1.4924
 6304SOL    HW230549   1.051   3.873   4.372  0.1547 -1.1053  2.8008
 6305SOL     OW30550   2.992   1.360   7.505  0.3351 -0.5945  0.0431
 6305SOL    HW130551   2.989   1.358   7.600 -0.8157  1.6628  0.0504
 6305SOL    HW230552   3.004   1.453   7.484  1.0405 -0.3762  1.4106
 6306SOL     OW30553   4.145   3.368  12.774 -0.1156  0.0507 -0.4992
 6306SOL    HW130554   4.121   3.439  12.833 -0.4131 -0.3359 -0.1507
 6306SOL    HW230555   4.112   3.305  12.838  0.6636 -0.9096 -1.0395
 6307SOL     OW30556   0.632   1.438   7.231 -0.3311 -0.4822  0.2505
 6307SOL    HW130557   0.588   1.519   7.256 -0.9587 -1.0332  0.9334
 6307SOL    HW230558   0.718   1.462   7.266 -0.8538 -1.2307  2.0486
 6308SOL     OW30559   0.176   2.608   2.530  0.1056 -0.3522 -0.0049
 6308SOL    HW130560   0.254   2.553   2.530 -0.7075 -1.5129  0.5715
 6308SOL    HW230561   0.114   2.549   2.571 -2.3313  0.1509 -2.9824
 6309SOL     OW30562   4.608   3.638  14.542 -0.9268 -0.1858  0.7062
 6309SOL    HW130563   4.580   3.581  14.470  1.5520 -0.1433 -0.2907
 6309SOL    HW230564   4.525   3.686  14.546 -1.8863 -1.8234  0.2353
 6310SOL     OW30565   1.975   0.355   4.976 -0.1771  0.7040 -0.5435
 6310SOL    HW130566   1.991   0.416   5.049  0.4021 -1.7157  1.3486
 6310SOL    HW230567   2.064   0.328   4.954 -0.1372  0.3340  0.0560
 6311SOL     OW30568   0.428   2.561  12.038 -0.4348  0.3688  0.0289
 6311SOL    HW130569   0.462   2.501  11.972 -2.0875 -0.4773 -0.0337
 6311SOL    HW230570   0.490   2.633  12.025 -1.2899  1.4751  2.0691
 6312SOL     OW30571   2.999   0.093   4.360 -0.3213 -0.6719  0.4478
 6312SOL    HW130572   2.926   0.121   4.305  1.2014 -0.3580 -1.4264
 6312SOL    HW230573   3.075   0.126   4.311 -0.3004 -0.9939  0.2618
 6313SOL     OW30574   2.227   3.863   3.893 -0.3631 -0.4529 -0.4557
 6313SOL    HW130575   2.280   3.936   3.859 -0.3518 -1.1252 -1.8927
 6313SOL    HW230576   2.193   3.835   3.808 -0.7588  1.3297 -0.8873
 6314SOL     OW30577   1.764   3.358   4.320 -0.3429 -0.2212 -0.2904
 6314SOL    HW130578   1.782   3.269   4.349 -0.6239 -1.8343 -5.0872
 6314SOL    HW230579   1.695   3.343   4.255 -1.1419  3.9249 -0.4021
 6315SOL     OW30580   0.353   0.868   6.221  0.1096 -0.0123  0.4896
 6315SOL    HW130581   0.388   0.945   6.266  1.6224 -1.4622  1.7670
 6315SOL    HW230582   0.264   0.901   6.207 -0.0076  0.2663  1.8537
 6316SOL     OW30583   3.911   2.157  13.724 -0.7373  0.0013  0.1270
 6316SOL    HW130584   3.944   2.223  13.663  0.9617 -1.1316 -0.1846
 6316SOL    HW230585   3.872   2.090  13.668 -1.7463  0.6297  0.0902
 6317SOL     OW30586   0.181   3.627  15.228 -0.3950  0.5415  0.0173
 6317SOL    HW130587   0.195   3.593  15.316  0.9573  0.7119 -0.1356
 6317SOL    HW230588   0.275   3.643  15.217 -0.2967 -0.2550 -0.3248
 6318SOL     OW30589   3.381   4.007   5.774  0.2205  0.4836 -0.2769
 6318SOL    HW130590   3.437   3.932   5.795 -1.1641 -0.4965 -0.0613
 6318SOL    HW230591   3.318   4.012   5.846  1.1917 -2.4763  0.7806
 6319SOL     OW30592   2.518   3.504  13.738 -0.0367 -0.1177 -0.8351
 6319SOL    HW130593   2.544   3.526  13.649 -1.2372  0.3653 -1.0673
 6319SOL    HW230594   2.488   3.591  13.767 -1.5334 -0.9869  0.2272
 6320SOL     OW30595   3.581   2.074  15.792 -0.1710  0.4375 -0.4318
 6320SOL    HW130596   3.554   2.098  15.704  1.3400  1.5074 -0.6180
 6320SOL    HW230597   3.517   2.116  15.850 -0.4453 -0.8761  0.2151
 6321SOL     OW30598   2.362   4.489   9.202  0.2458  0.4968  0.4601
 6321SOL    HW130599   2.292   4.548   9.229  0.7885  1.1173  0.5063
 6321SOL    HW230600   2.393   4.452   9.285  0.4005 -2.0926 -0.7429
 6322SOL     OW30601   4.058   1.717  17.747  0.1333 -1.2954  0.0909
 6322SOL    HW130602   3.983   1.774  17.727  0.6633 -1.0332 -1.1534
 6322SOL    HW230603   4.060   1.727   0.094  1.9584 -1.2336  0.0385
 6323SOL     OW30604   0.267   3.184   8.897  0.5723 -0.2801  0.1165
 6323SOL    HW130605   0.272   3.185   8.992  0.9354 -0.0005  0.0939
 6323SOL    HW230606   0.258   3.090   8.883  0.3291 -0.4676  1.5230
 6324SOL     OW30607   3.886   4.387   8.965 -0.0337 -0.3595 -0.0175
 6324SOL    HW130608   3.927   4.334   8.896 -1.6059 -1.2599 -0.2805
 6324SOL    HW230609   3.809   4.410   8.913 -0.4336 -0.3044  0.5963
 6325SOL     OW30610   1.356   2.645   9.537  0.4265  0.6359  0.3227
 6325SOL    HW130611   1.411   2.613   9.465  0.7772 -0.7244  1.2003
 6325SOL    HW230612   1.326   2.561   9.571 -0.1044  1.1891  1.2368
 6326SOL     OW30613   2.507   3.710  17.015 -0.0806 -0.1626  0.0388
 6326SOL    HW130614   2.495   3.757  16.933 -2.1092 -3.7207 -1.6737
 6326SOL    HW230615   2.602   3.698  17.015 -0.3520 -2.2178 -0.2909
 6327SOL     OW30616   1.181   3.031   9.990  0.4082  0.1998 -0.2301
 6327SOL    HW130617   1.141   3.041  10.076 -1.8587  0.9008 -1.3566
 6327SOL    HW230618   1.153   2.943   9.969 -1.0216  1.3194 -3.0394
 6328SOL     OW30619   1.141   0.909   2.269  0.1558  0.3237 -0.3878
 6328SOL    HW130620   1.114   0.821   2.244  1.3793  0.2520 -1.4805
 6328SOL    HW230621   1.057   0.956   2.267  1.4373  2.6138 -1.2825
 6329SOL     OW30622   3.841   2.605   9.818 -0.3356 -0.5340 -0.4734
 6329SOL    HW130623   3.759   2.559   9.836 -0.1266 -0.4743  0.6094
 6329SOL    HW230624   3.878   2.534   9.765 -0.2527 -0.1403 -0.9454
 6330SOL     OW30625   4.025   2.413   3.044 -0.3700 -0.0264  0.5441
 6330SOL    HW130626   4.007   2.321   3.066 -0.8199 -0.5421 -2.0117
 6330SOL    HW230627   4.010   2.413   2.950  3.2936  0.4463 -0.0257
 6331SOL     OW30628   0.965   2.921  11.924  0.0132 -0.3848  0.8192
 6331SOL    HW130629   0.986   2.899  12.015  0.9995  3.3547  1.5256
 6331SOL    HW230630   0.956   2.832  11.891  1.7165 -0.7818  1.4300
 6332SOL     OW30631   1.927   3.475   4.827 -0.2908 -0.2559 -0.0348
 6332SOL    HW130632   1.920   3.564   4.860  2.6378 -0.7877  2.0571
 6332SOL    HW230633   1.847   3.472   4.775 -0.6420 -0.8062  0.5449
 6333SOL     OW30634   1.496   4.668   4.637  0.0045 -0.6805  0.4250
 6333SOL    HW130635   1.579   4.621   4.635  0.3927 -0.0576  2.6415
 6333SOL    HW230636   1.543   0.010   4.663  0.5527 -0.8584 -0.0185
 6334SOL     OW30637   2.378   1.878   7.909 -0.3488  0.4139 -0.2021
 6334SOL    HW130638   2.307   1.858   7.970 -0.3633 -0.6358 -0.5760
 6334SOL    HW230639   2.314   1.902   7.842  1.5029 -1.6095 -2.7069
 6335SOL     OW30640   2.142   4.350   8.164  0.7329 -0.3048  0.1904
 6335SOL    HW130641   2.197   4.412   8.116  0.3744  1.3826  1.9573
 6335SOL    HW230642   2.119   4.394   8.246  1.6911  0.6300 -0.0334
 6336SOL     OW30643   0.452   3.716   3.403 -0.3705  0.3256 -0.0349
 6336SOL    HW130644   0.408   3.631   3.401  0.8351 -0.2919 -0.7812
 6336SOL    HW230645   0.384   3.783   3.396 -3.0279 -2.4038 -0.5298
 6337SOL     OW30646   0.635   4.048   4.137 -0.0706  0.2350  0.5782
 6337SOL    HW130647   0.647   3.962   4.096  1.1500 -0.3662  2.2167
 6337SOL    HW230648   0.550   4.076   4.102 -0.2232  0.1523  0.8888
 6338SOL     OW30649   2.106   4.311   6.088 -0.2266 -1.1099  0.3264
 6338SOL    HW130650   2.190   4.335   6.125 -1.7718  1.0326  2.4661
 6338SOL    HW230651   2.074   4.250   6.154 -2.8500 -0.7740 -0.6269
 6339SOL     OW30652   3.108   3.234   1.378 -0.1374  0.1289 -0.7520
 6339SOL    HW130653   3.120   3.141   1.359  1.2195  0.5488 -1.8994
 6339SOL    HW230654   3.117   3.273   1.291 -0.7370  0.6475 -0.5757
 6340SOL     OW30655   0.235   0.163   3.753  0.2135 -0.5689  0.4911
 6340SOL    HW130656   0.285   0.239   3.723  0.4337 -0.1773  1.8143
 6340SOL    HW230657   0.193   0.185   3.837  0.4959  3.6015 -0.4714
 6341SOL     OW30658   2.111   3.767   7.701 -0.0745  0.1978 -0.2823
 6341SOL    HW130659   2.038   3.808   7.655 -0.5292  1.3687  1.4681
 6341SOL    HW230660   2.108   3.807   7.788 -1.5039  0.2870 -0.3655
 6342SOL     OW30661   2.689   0.725  13.980  0.1502  0.1137  0.0456
 6342SOL    HW130662   2.753   0.654  13.984 -0.0594 -0.0486  0.6954
 6342SOL    HW230663   2.606   0.678  13.967  0.9831 -1.1481 -0.7283
 6343SOL     OW30664   1.901   0.578  12.298 -0.5233 -0.3483 -0.4614
 6343SOL    HW130665   1.837   0.623  12.243 -0.9730 -1.0740 -0.5313
 6343SOL    HW230666   1.974   0.576  12.235  1.5516 -2.4052  2.0059
 6344SOL     OW30667   0.725   1.015   1.852 -0.1890 -0.1907 -0.0649
 6344SOL    HW130668   0.794   0.955   1.821  0.6217  0.5580  0.2729
 6344SOL    HW230669   0.762   1.052   1.932  2.2280  0.3039 -1.3729
 6345SOL     OW30670   1.959   3.174   7.870 -0.7207 -0.1176  0.5303
 6345SOL    HW130671   1.918   3.255   7.838  2.7505  1.0392 -0.9396
 6345SOL    HW230672   2.042   3.207   7.905 -1.3789  2.0393  0.0764
 6346SOL     OW30673   0.394   1.665  11.848  0.5072 -0.2584  0.7331
 6346SOL    HW130674   0.454   1.739  11.847 -1.3967  1.2896  2.1897
 6346SOL    HW230675   0.440   1.604  11.906 -0.3917  0.0441  1.7672
 6347SOL     OW30676   0.038   0.550   2.605  0.2790 -0.7785 -0.1765
 6347SOL    HW130677   0.115   0.495   2.618  1.2606  0.7609  0.5134
 6347SOL    HW230678   4.708   0.484   2.592  1.4491 -2.0259  0.0513
 6348SOL     OW30679   3.447   2.140   1.439  0.2305 -0.0708  0.2975
 6348SOL    HW130680   3.484   2.132   1.527 -1.1468 -1.3060  0.7568
 6348SOL    HW230681   3.396   2.221   1.445 -0.3460 -0.5588  1.8762
 6349SOL     OW30682   3.995   4.110  15.784 -0.3212 -0.1147 -0.3900
 6349SOL    HW130683   3.903   4.116  15.759  0.6355  1.0075 -3.5919
 6349SOL    HW230684   4.042   4.149  15.710  0.0884  2.4631  1.2448
 6350SOL     OW30685   3.221   3.133   8.330 -0.5177 -0.3271  0.2891
 6350SOL    HW130686   3.231   3.038   8.323  2.6347  0.1099 -1.0339
 6350SOL    HW230687   3.160   3.135   8.404 -1.4957 -2.1148 -0.4857
 6351SOL     OW30688   1.271   2.834   8.923  0.0636  0.0249  0.0582
 6351SOL    HW130689   1.230   2.824   9.009  0.2157  0.8155  0.2220
 6351SOL    HW230690   1.363   2.831   8.949  0.5859  1.7272 -1.5682
 6352SOL     OW30691   0.138   3.495   4.241  0.2344 -0.3287  0.1678
 6352SOL    HW130692   0.056   3.537   4.268 -0.4301 -1.2477 -0.4391
 6352SOL    HW230693   0.209   3.519   4.299  0.5933  0.8852 -0.7713
 6353SOL     OW30694   0.907   1.710  14.342  0.2395 -0.0107 -0.1627
 6353SOL    HW130695   0.903   1.705  14.437 -1.1816  1.8268 -0.1157
 6353SOL    HW230696   0.857   1.788  14.316 -1.3926 -0.9062  0.2723
 6354SOL     OW30697   1.917   1.570   3.306 -0.0557 -0.4169 -0.3603
 6354SOL    HW130698   1.928   1.553   3.399  2.1079  2.6290 -0.0458
 6354SOL    HW230699   1.823   1.568   3.288  0.0500  1.3145 -1.1200
 6355SOL     OW30700   0.933   4.445  10.076 -0.1394  0.3319  0.2195
 6355SOL    HW130701   1.026   4.454  10.096 -0.1235 -1.3608  0.8744
 6355SOL    HW230702   0.888   4.431  10.159  1.7485  1.2639  1.4053
 6356SOL     OW30703   0.717   2.614   5.430  0.1306 -0.1069  0.2111
 6356SOL    HW130704   0.664   2.680   5.384 -0.8179  1.5551  3.7485
 6356SOL    HW230705   0.652   2.569   5.483  0.2278 -1.8933 -1.1747
 6357SOL     OW30706   0.429   1.401   6.398 -0.0680 -0.0453  0.0007
 6357SOL    HW130707   0.414   1.411   6.304  1.9460 -1.7402 -0.4978
 6357SOL    HW230708   0.341   1.414   6.435  0.6554  0.7013  1.4298
 6358SOL     OW30709   2.148   0.190   4.680 -0.3907  0.7744  0.7761
 6358SOL    HW130710   2.169   0.170   4.589 -2.9810 -0.6684  0.4915
 6358SOL    HW230711   2.223   0.142   4.714 -1.4248 -2.3140 -1.2945
 6359SOL     OW30712   0.225   0.007   8.245 -0.5424  0.3770 -0.1087
 6359SOL    HW130713   0.266   0.093   8.242  1.2078 -0.4284  0.5914
 6359SOL    HW230714   0.211   4.734   8.151 -3.1207 -1.4618  0.4674
 6360SOL     OW30715   3.884   1.644   9.303 -0.3123 -0.1790 -0.7177
 6360SOL    HW130716   3.816   1.618   9.240 -1.4640  3.6494 -1.0647
 6360SOL    HW230717   3.825   1.637   9.378  0.2562 -0.3369 -0.2919
 6361SOL     OW30718   2.098   3.539  17.554 -0.3271  0.0156  0.0129
 6361SOL    HW130719   2.015   3.578  17.526  0.8188  2.5273  0.1088
 6361SOL    HW230720   2.084   3.456  17.508  1.4866 -0.7214  0.7952
 6362SOL     OW30721   4.335   0.614   8.691 -0.0989 -0.5611  0.2317
 6362SOL    HW130722   4.341   0.537   8.634  2.1207  1.0409 -1.6993
 6362SOL    HW230723   4.417   0.658   8.668 -1.7271  2.1623 -0.3975
 6363SOL     OW30724   2.651   1.663   7.377 -0.5368 -0.0010  0.2340
 6363SOL    HW130725   2.724   1.639   7.435 -1.4346  0.2857  1.4730
 6363SOL    HW230726   2.690   1.697   7.296  0.5682  0.2511  0.8565
 6364SOL     OW30727   2.969   2.060   8.317  0.6416 -0.3138 -0.3740
 6364SOL    HW130728   2.995   2.037   8.228  0.4320  1.8266 -0.9765
 6364SOL    HW230729   2.956   2.154   8.313 -0.2955 -0.4386 -0.4762
 6365SOL     OW30730   2.435   4.599  16.984  0.4968 -0.0981 -0.0144
 6365SOL    HW130731   2.376   4.554  16.924 -0.4799 -0.2542  1.0573
 6365SOL    HW230732   2.390   4.585  17.068  1.2256  1.7404  0.6774
 6366SOL     OW30733   1.653   4.034   4.070 -0.0495  0.1498 -0.1258
 6366SOL    HW130734   1.569   4.053   4.112 -0.7566 -0.9129 -1.0624
 6366SOL    HW230735   1.656   4.076   3.985 -0.1964  0.2035 -0.1043
 6367SOL     OW30736   1.474   3.502  17.045  0.6197 -0.1851  0.2328
 6367SOL    HW130737   1.412   3.527  16.976  1.6160  0.2438 -0.5223
 6367SOL    HW230738   1.516   3.586  17.063 -0.9805  0.7173 -0.2653
 6368SOL     OW30739   4.345   0.596   3.722 -0.0970 -0.2337  0.8283
 6368SOL    HW130740   4.261   0.638   3.701  0.5244 -0.2058 -1.5347
 6368SOL    HW230741   4.326   0.526   3.785 -1.0260  1.2962  2.2725
 6369SOL     OW30742   1.778   2.751  16.991 -0.7480 -0.1460  0.5636
 6369SOL    HW130743   1.828   2.755  17.072 -0.1353  1.8638  0.0937
 6369SOL    HW230744   1.692   2.774  17.026 -0.7182 -0.9074  1.1304
 6370SOL     OW30745   3.274   3.096   8.951  0.0537  0.3264 -0.2471
 6370SOL    HW130746   3.311   3.180   8.978  0.3928 -0.0274  0.3803
 6370SOL    HW230747   3.336   3.036   8.992 -2.1864 -1.4311  0.5936
 6371SOL     OW30748   1.122   2.212  16.890 -0.0898  0.0487 -0.0023
 6371SOL    HW130749   1.184   2.148  16.926 -0.7904 -0.5244  0.1914
 6371SOL    HW230750   1.094   2.167  16.810 -0.7880  0.5113 -0.0126
 6372SOL     OW30751   3.979   0.281   3.131  0.1164  0.5579 -0.0605
 6372SOL    HW130752   3.977   0.349   3.199  0.1830 -1.4383  1.9215
 6372SOL    HW230753   4.038   0.333   3.076 -1.3147  0.2098 -1.9012
 6373SOL     OW30754   2.806   2.388   0.413  0.2710 -0.5018 -0.2029
 6373SOL    HW130755   2.899   2.366   0.415 -0.3016 -2.8585  1.1742
 6373SOL    HW230756   2.760   2.312   0.449 -1.8536  0.8641 -0.0310
 6374SOL     OW30757   1.412   1.505   6.129  0.0112  0.1507  0.2166
 6374SOL    HW130758   1.470   1.459   6.069 -1.5524 -0.5793 -0.7165
 6374SOL    HW230759   1.325   1.469   6.114  0.4654 -1.1917  0.7963
 6375SOL     OW30760   1.163   1.171   5.617 -0.7011  0.1099 -0.0371
 6375SOL    HW130761   1.139   1.212   5.534  0.1237  0.9013  0.1137
 6375SOL    HW230762   1.237   1.114   5.599 -1.5876 -1.3870  1.0801
 6376SOL     OW30763   0.634   0.259   6.369  0.4778  0.3728 -0.2372
 6376SOL    HW130764   0.574   0.246   6.442  0.0958  0.3769 -0.5488
 6376SOL    HW230765   0.566   0.262   6.302 -1.7479 -1.5757  1.9388
 6377SOL     OW30766   3.433   4.437  15.317  0.2286  0.4536  0.8810
 6377SOL    HW130767   3.421   4.477  15.403  1.6010  2.0406  0.3431
 6377SOL    HW230768   3.345   4.428  15.280 -0.4004 -0.3671  2.6048
 6378SOL     OW30769   3.285   0.569   1.256 -0.7857 -0.3401  0.2203
 6378SOL    HW130770   3.306   0.599   1.168  0.7541  2.2363  1.4461
 6378SOL    HW230771   3.279   0.476   1.238 -0.4603  0.2822 -3.0767
 6379SOL     OW30772   3.354   4.318   8.096  0.5779  0.1944  0.5214
 6379SOL    HW130773   3.427   4.273   8.138 -0.3079 -3.1268 -1.4402
 6379SOL    HW230774   3.303   4.336   8.175  1.6688  0.7818  1.0796
 6380SOL     OW30775   0.210   4.387  15.565  0.2223  0.2067 -0.1766
 6380SOL    HW130776   0.190   4.300  15.597 -2.2083 -0.9823 -4.8958
 6380SOL    HW230777   0.133   4.435  15.593  1.1196  0.6115  1.5696
 6381SOL     OW30778   4.361   2.395   2.133 -1.0252 -0.2040  0.1371
 6381SOL    HW130779   4.317   2.386   2.048  0.6074 -2.6373 -0.4677
 6381SOL    HW230780   4.319   2.336   2.196 -1.9498 -1.0473 -1.2569
 6382SOL     OW30781   2.386   2.127   6.416  0.1473  0.6298  0.0943
 6382SOL    HW130782   2.292   2.113   6.409  0.2990 -0.3584 -0.0302
 6382SOL    HW230783   2.419   2.037   6.415 -3.2122 -0.6002  0.5551
 6383SOL     OW30784   2.470   2.570   2.464 -0.2451 -0.5376  0.0322
 6383SOL    HW130785   2.544   2.626   2.487 -0.5542 -0.0695 -0.1019
 6383SOL    HW230786   2.456   2.519   2.544 -0.2044 -0.9056 -0.1980
 6384SOL     OW30787   0.215   2.368   7.681  0.2196 -0.1469  0.0828
 6384SOL    HW130788   0.278   2.298   7.668  0.9018  0.2518  1.2927
 6384SOL    HW230789   0.249   2.439   7.626  0.3234 -0.3946 -0.1749
 6385SOL     OW30790   0.556   0.847   4.541  0.0610 -0.4237 -0.2805
 6385SOL    HW130791   0.600   0.912   4.486 -0.2036 -0.0251 -0.0147
 6385SOL    HW230792   0.623   0.786   4.572  1.5769  0.7002 -1.3450
 6386SOL     OW30793   4.628   1.699   7.045 -0.3409 -0.4819 -0.1172
 6386SOL    HW130794   4.709   1.748   7.053  2.0423 -4.0429 -2.3738
 6386SOL    HW230795   4.651   1.621   7.094  0.4843 -0.2012 -0.0584
 6387SOL     OW30796   3.612   4.710   9.068 -0.0965  0.5622 -0.1170
 6387SOL    HW130797   3.593   4.619   9.044 -1.7217  0.5184  1.3322
 6387SOL    HW230798   3.564   4.718   9.150 -0.9859 -0.6826 -0.5207
 6388SOL     OW30799   0.341   0.380   2.956  0.0625  0.2638 -0.2494
 6388SOL    HW130800   0.288   0.382   3.035  0.7714 -0.1777  0.2413
 6388SOL    HW230801   0.429   0.368   2.991  0.2365  1.0214 -0.4172
 6389SOL     OW30802   3.324   4.726   2.533  0.0377 -0.3426  0.2264
 6389SOL    HW130803   3.342   0.070   2.580 -0.8935  0.0243 -0.0688
 6389SOL    HW230804   3.306   4.674   2.612  0.6712 -0.1872  0.4781
 6390SOL     OW30805   3.031   0.839   7.711  0.4934 -0.2381  0.3400
 6390SOL    HW130806   3.041   0.778   7.784 -0.2227 -1.6716 -0.7440
 6390SOL    HW230807   3.020   0.923   7.756 -2.3817  0.2595 -1.2750
 6391SOL     OW30808   2.549   1.885   2.620 -0.3340  0.2293  0.3919
 6391SOL    HW130809   2.602   1.851   2.692 -0.2426  1.0059  0.6948
 6391SOL    HW230810   2.469   1.905   2.668 -0.1754 -0.1547  0.8174
 6392SOL     OW30811   0.553   0.432   3.852  0.8265  0.1261  0.4982
 6392SOL    HW130812   0.471   0.396   3.885 -1.1586  2.2799 -2.1198
 6392SOL    HW230813   0.587   0.351   3.814  0.1446  0.9572 -1.8863
 6393SOL     OW30814   1.627   2.779  12.215  0.0892  0.1728  0.2103
 6393SOL    HW130815   1.608   2.685  12.209 -0.5183  0.0900  3.0172
 6393SOL    HW230816   1.710   2.772  12.261  0.0571 -0.2931  0.2035
 6394SOL     OW30817   2.010   1.409   8.224 -0.2040  0.1141  0.0744
 6394SOL    HW130818   1.937   1.370   8.272 -0.1882 -0.2951 -0.2353
 6394SOL    HW230819   2.053   1.444   8.302 -1.6399 -1.7388  1.6968
 6395SOL     OW30820   2.235   1.226  16.909  0.3542  0.6125  0.0269
 6395SOL    HW130821   2.277   1.245  16.825 -1.1472  1.9851 -0.4096
 6395SOL    HW230822   2.167   1.292  16.923 -0.4962 -0.6817  2.0756
 6396SOL     OW30823   2.537   4.002   7.475 -0.2348  0.0208 -0.0523
 6396SOL    HW130824   2.550   3.951   7.555  0.4460 -0.1114 -0.2441
 6396SOL    HW230825   2.445   3.983   7.456 -0.4095  1.8275 -1.0062
 6397SOL     OW30826   4.065   2.970   8.662 -0.2141  0.2566 -0.7185
 6397SOL    HW130827   4.092   2.967   8.753 -1.0004  0.0776 -0.4880
 6397SOL    HW230828   4.125   3.039   8.634  0.3228 -0.2037 -0.6789
 6398SOL     OW30829   4.581   0.838   5.170  0.0275 -0.3034  0.1088
 6398SOL    HW130830   4.491   0.848   5.202 -0.2521 -0.9991 -0.4691
 6398SOL    HW230831   4.587   0.742   5.173  2.7382 -0.0950  1.6226
 6399SOL     OW30832   1.913   3.900   0.955 -0.3980  0.9878 -0.4585
 6399SOL    HW130833   1.987   3.939   0.909  0.0482 -0.2954 -0.8510
 6399SOL    HW230834   1.927   3.924   1.047  0.6308  1.3882 -0.7152
 6400SOL     OW30835   3.633   4.099  16.491  0.4400  0.7654  0.0154
 6400SOL    HW130836   3.561   4.037  16.501  1.8140 -0.8802 -0.2739
 6400SOL    HW230837   3.587   4.179  16.514  0.8198  0.5797  1.4528
 6401SOL     OW30838   0.033   2.345   3.426 -0.2226  0.1344 -0.2813
 6401SOL    HW130839   0.108   2.294   3.455 -1.0601  0.3525  2.2087
 6401SOL    HW230840   4.706   2.289   3.469 -0.7895  1.3399  0.4466
 6402SOL     OW30841   2.560   0.127  17.536  0.2558  0.2078 -0.3101
 6402SOL    HW130842   2.518   0.153  17.454 -2.0295  0.5378  0.9744
 6402SOL    HW230843   2.540   0.196  17.599 -0.0108  1.3361 -1.6575
 6403SOL     OW30844   0.343   2.590   4.625 -0.2154  0.0246 -0.3484
 6403SOL    HW130845   0.364   2.627   4.539 -1.5209 -1.2434 -1.2171
 6403SOL    HW230846   0.387   2.505   4.619  1.8786  1.0888 -0.0881
 6404SOL     OW30847   1.727   4.382   8.334 -0.2487  0.9217 -0.4037
 6404SOL    HW130848   1.764   4.297   8.357 -1.3314  0.9149  1.2678
 6404SOL    HW230849   1.805   4.423   8.297  0.6447 -0.1733  0.2970
 6405SOL     OW30850   2.215   1.142  10.651 -0.1969 -0.0455  0.4062
 6405SOL    HW130851   2.230   1.108  10.740 -0.7394  1.8187  1.1973
 6405SOL    HW230852   2.269   1.220  10.645 -1.1043  0.5314 -0.1967
 6406SOL     OW30853   2.035   2.182   5.199  0.1467 -0.4649 -0.9952
 6406SOL    HW130854   2.016   2.276   5.206  2.1482  0.0264 -2.1820
 6406SOL    HW230855   1.945   2.148   5.203 -0.4375  1.2797  0.8304
 6407SOL     OW30856   3.537   0.284   5.469 -0.4524  0.5224 -0.3222
 6407SOL    HW130857   3.461   0.267   5.413 -0.0747 -1.0283 -0.3450
 6407SOL    HW230858   3.587   0.203   5.461  0.2000  0.9738 -0.7220
 6408SOL     OW30859   0.451   3.701   8.464  0.2630 -0.0151  0.7007
 6408SOL    HW130860   0.363   3.672   8.487  0.1752 -2.5912 -2.8054
 6408SOL    HW230861   0.485   3.622   8.421  1.0160  0.4027  0.5391
 6409SOL     OW30862   0.338   0.378  12.152  0.0455  0.0756  0.1251
 6409SOL    HW130863   0.308   0.352  12.239 -0.9495 -2.1712 -0.8810
 6409SOL    HW230864   0.308   0.468  12.140 -1.6600 -0.5248 -0.0305
 6410SOL     OW30865   4.524   1.162  16.636  0.0512  0.9604  0.0918
 6410SOL    HW130866   4.487   1.084  16.597  0.5630 -0.1229  1.7859
 6410SOL    HW230867   4.490   1.159  16.725  1.4229 -0.4427  0.5580
 6411SOL     OW30868   0.731   0.121  10.236  0.2944  0.7430  0.1449
 6411SOL    HW130869   0.702   0.207  10.266 -0.3658  0.9537 -1.0927
 6411SOL    HW230870   0.789   0.095  10.307  0.9150 -0.5127 -0.8266
 6412SOL     OW30871   0.491   2.089   3.947 -0.8329 -0.3344 -0.2837
 6412SOL    HW130872   0.454   2.124   4.028 -2.0708 -1.1225 -0.5138
 6412SOL    HW230873   0.499   1.998   3.975 -1.1221 -0.3759 -0.3377
 6413SOL     OW30874   1.804   1.509   2.116 -0.2082  1.1597 -0.2600
 6413SOL    HW130875   1.832   1.425   2.080 -3.2453 -0.1414  0.4570
 6413SOL    HW230876   1.811   1.570   2.042 -1.8514  1.5890 -0.0600
 6414SOL     OW30877   1.667   3.663  13.790 -0.5016  0.3924  0.0807
 6414SOL    HW130878   1.622   3.716  13.724 -1.2126 -0.4291 -0.0881
 6414SOL    HW230879   1.748   3.628  13.751 -0.3877  1.1304 -0.3562
 6415SOL     OW30880   0.376   3.909  17.463  0.0176 -0.3722  0.0249
 6415SOL    HW130881   0.435   3.975  17.500 -0.1738  0.5727 -1.3512
 6415SOL    HW230882   0.291   3.950  17.479  0.2712 -1.0022  3.0450
 6416SOL     OW30883   1.956   4.100   2.602  0.0122  0.4161 -0.2297
 6416SOL    HW130884   2.030   4.160   2.611 -0.3507  1.1121 -1.8276
 6416SOL    HW230885   2.010   4.023   2.585 -0.0404  0.2067  0.5658
 6417SOL     OW30886   1.776   3.276   0.140 -0.5206 -0.3869  1.0051
 6417SOL    HW130887   1.751   3.186   0.122 -0.2633 -0.1555 -0.4917
 6417SOL    HW230888   1.760   3.277   0.234 -0.7288 -1.4896  0.9786
 6418SOL     OW30889   1.654   2.945   4.203 -0.0721 -0.0447 -0.0828
 6418SOL    HW130890   1.700   2.989   4.274  0.9997  1.0015 -1.4298
 6418SOL    HW230891   1.701   2.975   4.124  0.1380 -0.3116 -0.0597
 6419SOL     OW30892   4.536   3.171   5.906 -0.2435 -0.1465 -0.1771
 6419SOL    HW130893   4.447   3.138   5.921 -0.2680 -0.2322 -0.5187
 6419SOL    HW230894   4.507   3.253   5.867 -0.9583 -0.9654 -1.3815
 6420SOL     OW30895   1.852   4.537   2.961 -0.3666 -0.4650  0.5262
 6420SOL    HW130896   1.809   4.623   2.953 -0.6588 -0.7951 -1.3569
 6420SOL    HW230897   1.817   4.493   2.883 -3.4316  0.2868  1.4497
 6421SOL     OW30898   2.092   2.965  15.769 -1.0747  0.2448 -0.2806
 6421SOL    HW130899   2.062   2.957  15.678  1.1966  0.2976 -1.0198
 6421SOL    HW230900   2.014   2.943  15.821 -1.7405  1.6525 -0.6846
 6422SOL     OW30901   2.816   3.757  17.269 -0.2525  0.5174  0.8886
 6422SOL    HW130902   2.729   3.747  17.308 -0.8502  0.5666 -0.4428
 6422SOL    HW230903   2.822   3.852  17.259 -2.3737  0.4284 -1.1442
 6423SOL     OW30904   1.761   2.621   4.630 -0.2649  0.2401  0.1334
 6423SOL    HW130905   1.782   2.622   4.724  1.0834 -1.1030 -0.1450
 6423SOL    HW230906   1.685   2.674   4.650  2.0556  2.3554  3.4220
 6424SOL     OW30907   2.497   1.184   5.383 -0.3098  0.4166  0.1881
 6424SOL    HW130908   2.515   1.093   5.360  1.2718  0.9539 -0.7742
 6424SOL    HW230909   2.566   1.227   5.332 -0.2896  1.6606  1.2852
 6425SOL     OW30910   2.190   4.632   8.090  0.2930  0.1439  0.4125
 6425SOL    HW130911   2.176   4.717   8.047  0.1028  0.5023  1.1857
 6425SOL    HW230912   2.248   4.600   8.021 -0.3727  0.6047 -0.3731
 6426SOL     OW30913   2.702   3.292   6.553  0.0877  0.3044  0.1692
 6426SOL    HW130914   2.683   3.221   6.492 -0.8233 -0.5386  1.4310
 6426SOL    HW230915   2.794   3.279   6.573  0.2364  2.8762  1.1856
 6427SOL     OW30916   1.599   1.448   2.977  0.0703 -0.5389  0.0117
 6427SOL    HW130917   1.624   1.473   3.066  0.5404  1.5232 -0.6799
 6427SOL    HW230918   1.635   1.520   2.924  2.4703 -2.1809 -0.5655
 6428SOL     OW30919   1.768   2.950   5.602 -0.5283 -0.1439 -0.1398
 6428SOL    HW130920   1.747   2.968   5.510  0.7475 -2.1766 -0.8294
 6428SOL    HW230921   1.747   3.034   5.642 -1.3203  0.0569 -0.9776
 6429SOL     OW30922   2.291   2.519   0.255  0.9720 -0.2728 -0.2930
 6429SOL    HW130923   2.380   2.497   0.226  1.1818 -1.2216  1.0592
 6429SOL    HW230924   2.255   2.432   0.236  2.5055 -1.2466  1.2467
 6430SOL     OW30925   0.289   4.193   1.663 -0.2744 -0.2886  0.0273
 6430SOL    HW130926   0.196   4.215   1.677 -0.1175 -0.3556  1.2276
 6430SOL    HW230927   0.321   4.236   1.584  1.2032 -2.5170 -0.5824
 6431SOL     OW30928   1.327   3.068  17.512 -0.1207  0.7111 -0.2996
 6431SOL    HW130929   1.332   2.972  17.510  0.7530  0.7755 -0.9022
 6431SOL    HW230930   1.345   3.079  17.606  0.3096  2.2915 -0.5778
 6432SOL     OW30931   1.122   3.352   0.707  0.1893 -0.2910 -0.3296
 6432SOL    HW130932   1.124   3.270   0.755  0.5354 -0.0407  0.0886
 6432SOL    HW230933   1.029   3.364   0.687 -0.4033 -0.4606  2.3721
 6433SOL     OW30934   2.034   0.155  17.543 -0.5118 -0.4829  0.3076
 6433SOL    HW130935   2.073   0.237  17.573  0.5700 -1.2858  1.0796
 6433SOL    HW230936   2.074   0.084  17.594 -3.1619 -0.9657  1.7096
 6434SOL     OW30937   3.427   2.240  14.885 -0.5843  0.3622  0.1840
 6434SOL    HW130938   3.439   2.158  14.932  1.8034  0.8396  0.4111
 6434SOL    HW230939   3.470   2.217  14.803 -0.7050  3.5023 -0.7470
 6435SOL     OW30940   2.775   2.312   8.287  0.3328  0.2133  0.7458
 6435SOL    HW130941   2.716   2.248   8.327 -1.1163  1.9902  1.4830
 6435SOL    HW230942   2.739   2.398   8.308  1.6861  0.9495  0.0551
 6436SOL     OW30943   4.704   3.815  14.976  0.2816  0.0884  0.1635
 6436SOL    HW130944   4.675   3.750  14.912  1.4515  0.9712 -1.2854
 6436SOL    HW230945   0.062   3.809  14.976  0.3202  0.7055  2.0067
 6437SOL     OW30946   4.128   4.594   6.056 -0.3998  0.0957  0.2534
 6437SOL    HW130947   4.203   4.535   6.066  1.7701  2.8333  0.2594
 6437SOL    HW230948   4.133   4.644   6.138 -0.2471  0.6521 -0.0976
 6438SOL     OW30949   4.611   1.637   8.452 -0.1660  0.0437 -0.2324
 6438SOL    HW130950   4.530   1.660   8.407  0.1213  0.3013 -0.6219
 6438SOL    HW230951   4.659   1.720   8.460  0.9667 -0.6062 -0.4315
 6439SOL     OW30952   0.631   2.845   5.307  0.1456  0.3611  0.0085
 6439SOL    HW130953   0.683   2.924   5.286  2.4173 -1.1885 -0.2352
 6439SOL    HW230954   0.545   2.875   5.281  1.6834  3.5727 -1.4135
 6440SOL     OW30955   1.169   2.334   6.375 -0.0929 -0.6009 -0.3079
 6440SOL    HW130956   1.160   2.285   6.293 -2.1686  0.1678 -0.5542
 6440SOL    HW230957   1.086   2.382   6.369  0.1849 -0.0797  0.0089
 6441SOL     OW30958   2.659   0.938   1.930  0.1859 -0.0389  0.9566
 6441SOL    HW130959   2.690   0.868   1.872 -1.2323 -0.6534  0.9552
 6441SOL    HW230960   2.569   0.950   1.900  0.4415 -0.0430  0.1834
 6442SOL     OW30961   3.619   0.489   9.246  0.1150 -0.2292 -0.1324
 6442SOL    HW130962   3.689   0.447   9.196  1.5189  2.5047 -0.4419
 6442SOL    HW230963   3.570   0.409   9.263 -0.3871  0.5532  2.1035
 6443SOL     OW30964   0.373   0.737   3.042  0.0186 -0.1713 -0.3131
 6443SOL    HW130965   0.284   0.769   3.060 -0.1349 -1.2158  0.7276
 6443SOL    HW230966   0.423   0.722   3.122 -0.4738  1.1105  0.2479
 6444SOL     OW30967   2.623   1.458   7.077 -0.3362 -0.1523  0.3292
 6444SOL    HW130968   2.657   1.547   7.092  1.5537 -0.8664  0.3046
 6444SOL    HW230969   2.635   1.434   6.985 -2.4914  1.3566 -0.3258
 6445SOL     OW30970   3.325   3.812   5.324  0.1200 -0.7294 -0.3786
 6445SOL    HW130971   3.342   3.884   5.385  3.3002 -1.0178 -0.8978
 6445SOL    HW230972   3.307   3.855   5.240 -1.0038  1.0912  0.8214
 6446SOL     OW30973   4.619   0.499  13.391 -0.2217  0.4405 -0.3265
 6446SOL    HW130974   4.684   0.541  13.449  0.0848 -0.1230 -0.2660
 6446SOL    HW230975   4.576   0.577  13.356 -1.4426 -0.1307 -0.0710
 6447SOL     OW30976   3.153   4.171   2.793  0.4334 -0.1247  0.0978
 6447SOL    HW130977   3.120   4.114   2.862  2.4690 -0.5973  0.6696
 6447SOL    HW230978   3.103   4.140   2.719  0.1256  1.7246 -0.4846
 6448SOL     OW30979   3.931   0.099  12.698 -0.1169  0.3173 -0.1287
 6448SOL    HW130980   3.912   0.188  12.669 -1.5348 -0.2298 -0.8729
 6448SOL    HW230981   3.912   0.117  12.790  1.7403 -1.5768  0.6289
 6449SOL     OW30982   0.278   2.176  14.842 -0.1525 -0.4392  0.0201
 6449SOL    HW130983   0.284   2.105  14.779 -0.9941 -1.5295  1.1535
 6449SOL    HW230984   0.351   2.234  14.822 -0.5012  0.8403  2.4253
 6450SOL     OW30985   0.915   4.006   3.173  0.7026  0.3056  0.0744
 6450SOL    HW130986   0.914   3.997   3.077 -2.2046  0.1583  0.1327
 6450SOL    HW230987   0.899   3.914   3.197  1.1610  0.6518  1.6799
 6451SOL     OW30988   3.638   0.931   5.925  0.0892 -0.2546  0.2659
 6451SOL    HW130989   3.584   0.853   5.913 -0.7806  0.1743  1.3935
 6451SOL    HW230990   3.635   0.977   5.841 -1.3253  0.2797  0.6044
 6452SOL     OW30991   2.317   0.561   0.435  0.6431 -0.7899 -0.1444
 6452SOL    HW130992   2.247   0.507   0.472 -0.1725  1.3284  1.4107
 6452SOL    HW230993   2.303   0.557   0.341  0.8792  1.2739 -0.2713
 6453SOL     OW30994   1.228   2.533   9.066  0.0508 -0.3061 -0.1355
 6453SOL    HW130995   1.216   2.608   9.126 -0.7756  0.1400 -0.8713
 6453SOL    HW230996   1.307   2.493   9.104  0.2803  1.4713  1.2720
 6454SOL     OW30997   4.408   4.135  11.404 -0.2994 -0.3110 -0.2881
 6454SOL    HW130998   4.491   4.183  11.414 -0.5309 -0.3368  1.6390
 6454SOL    HW230999   4.339   4.196  11.379  0.5560 -0.1668 -2.3574
 6455SOL     OW31000   3.736   0.684  11.279 -0.6491 -0.6148 -0.0211
 6455SOL    HW131001   3.763   0.599  11.243 -0.2533  0.3899 -2.1210
 6455SOL    HW231002   3.817   0.731  11.256 -1.1410  0.4296  0.3918
 6456SOL     OW31003   1.917   2.151   6.102 -0.1036  0.2986 -0.3349
 6456SOL    HW131004   1.910   2.193   6.017  0.8573 -0.0720 -0.5946
 6456SOL    HW231005   1.972   2.076   6.080 -2.4705 -1.9953  1.4495
 6457SOL     OW31006   1.878   2.271   4.699  0.2338 -0.5884 -0.3972
 6457SOL    HW131007   1.890   2.323   4.620 -0.2427  0.8491  0.4961
 6457SOL    HW231008   1.941   2.305   4.763 -0.0976 -0.9656  0.1299
 6458SOL     OW31009   3.842   3.514   1.571  0.7194  0.4003 -0.5974
 6458SOL    HW131010   3.833   3.559   1.656  0.0769  1.8541 -1.4401
 6458SOL    HW231011   3.757   3.471   1.568  1.3966 -0.8932 -1.2125
 6459SOL     OW31012   3.972   0.130  13.523  0.1057 -0.1143  0.0710
 6459SOL    HW131013   4.041   0.175  13.573  0.5646  0.3568 -0.9811
 6459SOL    HW231014   3.923   0.107  13.602 -0.1723  2.2577  0.5943
 6460SOL     OW31015   0.197   2.447   6.018 -0.4698 -0.1527  0.3319
 6460SOL    HW131016   0.105   2.472   6.010 -0.1618  0.6958 -0.5899
 6460SOL    HW231017   0.206   2.435   6.113  0.3310 -1.1644  0.1303
 6461SOL     OW31018   2.564   1.138   7.161  0.2808  0.5001  0.0555
 6461SOL    HW131019   2.593   1.162   7.249  1.2695  0.5623 -0.2824
 6461SOL    HW231020   2.549   1.221   7.115  0.3376  0.0422 -0.7875
 6462SOL     OW31021   3.981   2.872   5.660  0.0079  0.1512 -0.2109
 6462SOL    HW131022   4.017   2.783   5.661 -1.2860 -0.3793 -1.3095
 6462SOL    HW231023   3.890   2.845   5.663 -0.4493  1.9234  1.5229
 6463SOL     OW31024   3.179   2.155   2.180  0.0386  0.2087  0.1584
 6463SOL    HW131025   3.174   2.221   2.111  2.4661  2.3951  2.0836
 6463SOL    HW231026   3.103   2.172   2.236  1.1232  0.5367  1.5313
 6464SOL     OW31027   0.038   4.394   5.805 -0.8699 -0.4598  0.1484
 6464SOL    HW131028   0.131   4.371   5.808 -0.5029  0.9814 -0.3458
 6464SOL    HW231029   0.002   4.320   5.755 -1.1666  0.0085 -0.3335
 6465SOL     OW31030   3.030   1.598   5.970  0.6466  0.4868 -0.4003
 6465SOL    HW131031   3.073   1.681   5.992  1.3476 -0.4503  1.7596
 6465SOL    HW231032   3.063   1.539   6.037 -2.6140  0.1739  0.9571
 6466SOL     OW31033   2.923   0.029  14.933  0.4583 -0.0767  0.4052
 6466SOL    HW131034   2.886   0.117  14.933 -0.7835 -0.6055 -0.2602
 6466SOL    HW231035   2.991   0.038  14.866  0.6797 -0.1856  0.6122
 6467SOL     OW31036   3.218   3.316   8.564  0.3784 -1.0549  0.0393
 6467SOL    HW131037   3.312   3.305   8.554  0.5038 -0.1202  0.2254
 6467SOL    HW231038   3.178   3.230   8.579  3.4307 -2.1869  1.6204
 6468SOL     OW31039   3.327   2.175   6.203 -0.0863  1.3032  0.4329
 6468SOL    HW131040   3.359   2.155   6.291  0.7991 -1.3405 -0.4804
 6468SOL    HW231041   3.233   2.191   6.207 -0.8121 -2.9182  0.3721
 6469SOL     OW31042   0.245   1.041   4.347  0.1738 -0.2713 -0.1943
 6469SOL    HW131043   0.222   1.103   4.416 -0.4978  1.0626 -1.6099
 6469SOL    HW231044   0.159   1.023   4.311  0.6483 -0.7975 -1.0786
 6470SOL     OW31045   3.269   0.212   2.654 -0.0972  0.4563 -0.0567
 6470SOL    HW131046   3.193   0.257   2.617  0.7804 -0.5709 -3.0794
 6470SOL    HW231047   3.292   0.271   2.727  0.7350  1.0742 -0.8133
 6471SOL     OW31048   2.971   3.878   1.235  0.4687  0.1195 -0.2124
 6471SOL    HW131049   2.933   3.861   1.322 -0.3334  0.2875 -0.5240
 6471SOL    HW231050   3.018   3.795   1.226 -0.9143 -0.7064 -0.0112
 6472SOL     OW31051   3.543   0.497   2.233  0.1965  0.9981 -0.0698
 6472SOL    HW131052   3.615   0.556   2.254 -0.0882  0.4418  2.5093
 6472SOL    HW231053   3.568   0.451   2.153 -0.2603  1.3377 -0.4090
 6473SOL     OW31054   3.984   2.381   3.328  0.1182  0.1053 -0.0112
 6473SOL    HW131055   3.927   2.458   3.327 -0.8608 -0.6258 -0.9111
 6473SOL    HW231056   4.019   2.395   3.240  0.4519 -0.5242  0.0268
 6474SOL     OW31057   1.601   2.066   8.783  0.3990  0.3064  0.2981
 6474SOL    HW131058   1.679   2.097   8.829 -1.2257  0.6536  2.8369
 6474SOL    HW231059   1.528   2.086   8.842 -0.2210 -1.1186  0.0353
 6475SOL     OW31060   4.064   0.951  12.726  0.1654 -0.2849 -0.2690
 6475SOL    HW131061   3.969   0.940  12.725  0.1198  0.2437 -1.7060
 6475SOL    HW231062   4.075   1.046  12.728  2.3138 -0.5257 -0.3712
 6476SOL     OW31063   2.568   0.026   5.351 -0.2874 -0.2540 -0.1594
 6476SOL    HW131064   2.573   4.673   5.320 -0.0429 -0.5877  0.8595
 6476SOL    HW231065   2.646   0.035   5.406  0.9004 -0.3406 -1.8357
 6477SOL     OW31066   0.252   2.434  14.119  0.5034 -0.5327  0.1340
 6477SOL    HW131067   0.308   2.388  14.057  0.5519 -1.1386  0.6284
 6477SOL    HW231068   0.169   2.442  14.071 -0.1562 -1.7363  1.0828
 6478SOL     OW31069   4.016   2.496   6.833 -0.5345 -0.2038  0.2605
 6478SOL    HW131070   4.039   2.488   6.741 -1.3607  0.8366 -0.0425
 6478SOL    HW231071   4.082   2.558   6.865 -3.9512  3.6260 -0.0011
 6479SOL     OW31072   1.136   3.314   9.273  0.2366 -0.6798  0.3281
 6479SOL    HW131073   1.172   3.239   9.226  0.2906 -1.5694  1.7750
 6479SOL    HW231074   1.206   3.330   9.336 -2.0767 -2.0882  3.2466
 6480SOL     OW31075   2.071   0.565   0.799 -0.3990  0.2287 -0.3629
 6480SOL    HW131076   2.074   0.562   0.703  0.3523  0.7379 -0.3492
 6480SOL    HW231077   2.004   0.498   0.816  0.7188 -0.9077 -0.4128
 6481SOL     OW31078   1.354   3.643   0.298  0.1248  0.3526 -0.1675
 6481SOL    HW131079   1.386   3.577   0.237  0.8486 -0.5689  1.2035
 6481SOL    HW231080   1.413   3.641   0.374  0.6797 -3.1292 -0.6891
 6482SOL     OW31081   3.955   4.017  16.047  0.4925 -0.7805  0.2436
 6482SOL    HW131082   3.973   4.055  15.962 -2.6132  0.5700  0.1560
 6482SOL    HW231083   3.877   3.964  16.027 -0.1631  0.3034 -0.0859
 6483SOL     OW31084   4.224   1.707  10.607 -0.4658  0.1112  0.0675
 6483SOL    HW131085   4.311   1.670  10.622 -1.3179 -3.3984 -3.8090
 6483SOL    HW231086   4.222   1.708  10.512  2.9482 -3.0768 -0.0302
 6484SOL     OW31087   2.134   4.565   9.298  0.7851 -0.5416 -0.8824
 6484SOL    HW131088   2.106   4.496   9.358  0.4406 -0.9181 -1.4727
 6484SOL    HW231089   2.084   4.641   9.328 -2.1563 -2.6099 -0.5294
 6485SOL     OW31090   2.719   3.496   5.019  0.1922 -0.4668  0.0777
 6485SOL    HW131091   2.636   3.465   4.983 -1.3054  2.2504  1.1583
 6485SOL    HW231092   2.768   3.503   4.937 -1.1926 -2.0772 -0.8804
 6486SOL     OW31093   4.695   3.652   6.118 -0.4778 -0.1400  0.8235
 6486SOL    HW131094   4.614   3.646   6.067  1.0676 -2.3978 -1.3265
 6486SOL    HW231095   4.693   3.563   6.152  1.1912  0.1506  1.6588
 6487SOL     OW31096   0.478   1.120   9.866  0.5339 -0.3668 -0.2262
 6487SOL    HW131097   0.512   1.099   9.953  0.3078  0.9560  0.1807
 6487SOL    HW231098   0.466   1.215   9.868  1.0049 -0.2949 -0.6643
 6488SOL     OW31099   1.513   2.819   3.965 -0.2227 -0.0576 -0.5297
 6488SOL    HW131100   1.475   2.826   3.877  0.6251  0.0442 -0.8869
 6488SOL    HW231101   1.600   2.845   3.935  0.1719 -0.2892  0.4181
 6489SOL     OW31102   0.189   0.684   7.201  0.1237 -0.0407 -0.2322
 6489SOL    HW131103   0.122   0.702   7.135  2.1799  1.8331 -1.7873
 6489SOL    HW231104   0.201   0.773   7.234  1.5240  0.1260 -1.2057
 6490SOL     OW31105   1.519   1.158   5.541 -0.3188 -0.5418 -0.0855
 6490SOL    HW131106   1.540   1.089   5.478  0.3777 -0.5614  0.1674
 6490SOL    HW231107   1.568   1.232   5.506  0.6102 -0.6639  0.9318
 6491SOL     OW31108   0.923   2.602  13.535 -0.7205 -0.4139  0.1688
 6491SOL    HW131109   0.959   2.688  13.557 -1.0633 -0.0175 -0.8269
 6491SOL    HW231110   0.839   2.619  13.494 -0.4020 -0.4025 -0.4730
 6492SOL     OW31111   2.763   2.108   6.136 -0.0806  0.0738  0.0193
 6492SOL    HW131112   2.683   2.108   6.084  0.9621 -0.2922 -1.5859
 6492SOL    HW231113   2.733   2.164   6.208 -1.1101 -1.8080  1.0540
 6493SOL     OW31114   4.227   4.084   6.659 -0.4385 -0.2836  0.5258
 6493SOL    HW131115   4.277   4.163   6.682 -0.1972 -0.0414 -0.8703
 6493SOL    HW231116   4.281   4.013   6.694  0.2958 -0.3558 -0.7580
 6494SOL     OW31117   3.383   2.168  10.442 -0.3650 -0.1249 -0.1022
 6494SOL    HW131118   3.371   2.205  10.355  1.1925 -2.0655 -1.1371
 6494SOL    HW231119   3.452   2.225  10.477  0.1846  0.3068 -1.8931
 6495SOL     OW31120   0.375   2.468   2.594 -0.0324 -0.2469  0.0447
 6495SOL    HW131121   0.367   2.506   2.681 -0.4374 -1.3597  0.4967
 6495SOL    HW231122   0.372   2.377   2.625 -0.7215 -0.4048 -0.5042
 6496SOL     OW31123   0.873   1.783  14.606  0.2680  0.3747  0.2788
 6496SOL    HW131124   0.834   1.852  14.553  1.6765  1.5135  0.7158
 6496SOL    HW231125   0.814   1.780  14.682 -3.1202 -1.9659 -2.4663
 6497SOL     OW31126   4.334   1.649   8.645  0.3570 -0.5553  0.4490
 6497SOL    HW131127   4.392   1.605   8.708  0.3342  1.1345  1.6535
 6497SOL    HW231128   4.249   1.612   8.667 -0.8202  0.3613 -2.5658
 6498SOL     OW31129   4.074   0.261   6.927  0.0892  0.2435 -0.2850
 6498SOL    HW131130   4.013   0.229   6.861  0.4060 -2.3943  0.6800
 6498SOL    HW231131   4.112   0.178   6.955 -1.0900 -0.2598 -0.1876
 6499SOL     OW31132   1.709   3.634   6.099 -0.5198  0.1595 -0.3099
 6499SOL    HW131133   1.619   3.658   6.120 -0.4910 -2.1608  2.4423
 6499SOL    HW231134   1.719   3.543   6.127 -2.5061  0.7007  2.1281
 6500SOL     OW31135   1.421   2.199   8.581  0.7383 -0.0317 -0.0826
 6500SOL    HW131136   1.496   2.255   8.560 -0.4817  2.0080  0.9347
 6500SOL    HW231137   1.427   2.212   8.676  1.8471  0.2426 -0.1938
 6501SOL     OW31138   4.153   4.088  16.349 -0.6838 -0.0445  0.7517
 6501SOL    HW131139   4.131   3.995  16.339 -0.1785 -0.0983  0.1688
 6501SOL    HW231140   4.085   4.112  16.412 -0.8560  0.1418  0.4930
 6502SOL     OW31141   3.600   1.062  13.208 -0.5064  0.1758 -0.5150
 6502SOL    HW131142   3.560   1.081  13.292  1.3160 -0.7029  0.5560
 6502SOL    HW231143   3.568   0.973  13.193 -0.6316  0.2188 -0.5050
 6503SOL     OW31144   2.168   4.087   8.917  0.3895 -0.4441  0.5782
 6503SOL    HW131145   2.233   4.028   8.954  0.4000 -0.1338  1.0529
 6503SOL    HW231146   2.097   4.068   8.979 -0.4343  3.0291  0.7018
 6504SOL     OW31147   0.224   3.764   6.876  1.0635 -0.2690  0.0949
 6504SOL    HW131148   0.201   3.845   6.921  1.0953 -0.6890  0.8615
 6504SOL    HW231149   0.263   3.717   6.950  1.6037 -0.5470 -0.3636
 6505SOL     OW31150   4.007   2.705  12.938  0.7521  0.1777 -0.2178
 6505SOL    HW131151   3.945   2.751  12.881  1.4584  1.8500  0.3672
 6505SOL    HW231152   3.972   2.617  12.954  1.2265 -0.1579 -1.0031
 6506SOL     OW31153   0.688   4.598  11.104  0.1655  0.4352 -0.1329
 6506SOL    HW131154   0.753   4.533  11.077 -1.6650 -2.6262  2.7693
 6506SOL    HW231155   0.634   4.535  11.153  0.1067  0.6167  0.0325
 6507SOL     OW31156   2.841   0.908   3.067  0.4353  0.1886 -0.7171
 6507SOL    HW131157   2.746   0.905   3.072  0.5047 -0.1836  0.2737
 6507SOL    HW231158   2.877   0.820   3.072  0.8135  0.3315 -0.8909
 6508SOL     OW31159   4.336   0.634   5.353  0.2089 -0.5074 -0.4379
 6508SOL    HW131160   4.280   0.625   5.430 -1.1068 -0.5643 -1.4099
 6508SOL    HW231161   4.307   0.567   5.291  1.7105  1.0635 -2.8395
 6509SOL     OW31162   2.496   1.536  13.447  0.2758  0.2335 -0.0362
 6509SOL    HW131163   2.485   1.603  13.514  3.1162 -0.9341  1.5987
 6509SOL    HW231164   2.557   1.578  13.386 -1.2831  1.3301 -0.8531
 6510SOL     OW31165   2.650   1.389   6.126  0.0591 -0.6287  0.1907
 6510SOL    HW131166   2.614   1.477   6.112 -0.6114 -0.9098  0.1064
 6510SOL    HW231167   2.700   1.384   6.044 -1.5163 -2.2240 -0.6884
 6511SOL     OW31168   0.404   2.123   6.830  0.0702 -0.2315 -0.2596
 6511SOL    HW131169   0.446   2.039   6.812  0.6372 -0.1878  0.8680
 6511SOL    HW231170   0.473   2.184   6.804  0.0067  0.2528  0.7473
 6512SOL     OW31171   3.285   3.954  16.798 -0.0394 -0.0885  0.0685
 6512SOL    HW131172   3.378   3.952  16.819 -0.0926  1.2742  0.4464
 6512SOL    HW231173   3.287   3.918  16.709 -0.4401 -0.9377  0.4016
 6513SOL     OW31174   2.034   2.806   6.860  0.8987  0.0400 -0.1448
 6513SOL    HW131175   1.954   2.849   6.891  0.6888 -0.6472  0.2862
 6513SOL    HW231176   2.052   2.869   6.791  1.0209  0.2255  0.0589
 6514SOL     OW31177   0.314   4.462   6.804  0.0627  0.4552 -0.3714
 6514SOL    HW131178   0.285   4.380   6.844 -3.4151  1.3260 -1.0789
 6514SOL    HW231179   0.283   4.520   6.874  1.2577  3.2895 -2.2005
 6515SOL     OW31180   1.531   1.642   1.190 -0.5182 -0.1491 -0.3547
 6515SOL    HW131181   1.581   1.624   1.110 -0.5825 -0.6609 -0.2816
 6515SOL    HW231182   1.483   1.721   1.167  1.6760  1.5638  0.9927
 6516SOL     OW31183   3.574   3.170   3.964 -0.3699 -0.4125 -0.3089
 6516SOL    HW131184   3.486   3.200   3.942 -0.3717 -1.4459 -1.7066
 6516SOL    HW231185   3.619   3.187   3.881 -0.2332 -0.6374 -0.2794
 6517SOL     OW31186   2.969   0.085  13.721 -0.3148 -0.2369 -0.8004
 6517SOL    HW131187   3.013   0.004  13.746 -0.3697  0.4296  1.4665
 6517SOL    HW231188   3.022   0.116  13.648 -0.6102  0.4289 -0.7337
 6518SOL     OW31189   0.106   2.415   2.133  0.1528  0.1675 -0.0452
 6518SOL    HW131190   0.185   2.460   2.102  0.4320 -0.8052 -0.7886
 6518SOL    HW231191   0.156   2.358   2.192 -1.6597 -0.0963  1.2225
 6519SOL     OW31192   2.335   2.789   0.504  0.0876 -0.0679  0.6641
 6519SOL    HW131193   2.338   2.710   0.559  4.0082  0.6863  1.5422
 6519SOL    HW231194   2.355   2.748   0.420  0.4640 -0.8926  1.1557
 6520SOL     OW31195   0.618   1.466   8.685  0.4149 -0.2031  0.1078
 6520SOL    HW131196   0.597   1.478   8.778  0.1182 -2.7325  0.3620
 6520SOL    HW231197   0.536   1.497   8.646  0.5485 -1.3244 -1.0867
 6521SOL     OW31198   1.514   0.812   3.328  0.0440 -0.2474  0.1115
 6521SOL    HW131199   1.490   0.850   3.413 -1.5543  1.3076 -1.0358
 6521SOL    HW231200   1.430   0.791   3.289 -0.4694  2.7359 -0.4153
 6522SOL     OW31201   4.253   3.896   8.575 -0.1197  0.4097 -0.2472
 6522SOL    HW131202   4.284   3.844   8.648  1.6981  0.3129 -1.1019
 6522SOL    HW231203   4.159   3.882   8.585 -0.1220 -0.3589 -1.3390
 6523SOL     OW31204   2.518   1.598  15.066  0.1203 -0.0117 -0.1941
 6523SOL    HW131205   2.511   1.645  15.149 -0.8528 -1.4467  0.5352
 6523SOL    HW231206   2.557   1.518  15.101 -2.3545 -1.1898 -0.1775
 6524SOL     OW31207   1.533   0.025   5.422 -0.7849  0.3137 -0.7243
 6524SOL    HW131208   1.556   0.051   5.333 -0.5578  1.2898 -0.3893
 6524SOL    HW231209   1.470   0.093   5.447 -2.3834 -1.4426 -0.0115
 6525SOL     OW31210   0.903   1.493   7.354  0.4113 -0.2219 -0.0773
 6525SOL    HW131211   0.937   1.576   7.389 -0.7742  0.5140 -0.6683
 6525SOL    HW231212   0.869   1.447   7.430 -1.8408  1.3439 -0.1195
 6526SOL     OW31213   3.396   2.864  10.220 -0.5806  0.3723 -0.0652
 6526SOL    HW131214   3.449   2.903  10.289 -0.9602  1.1807 -0.2378
 6526SOL    HW231215   3.464   2.852  10.155 -0.9458 -0.2507 -0.3303
 6527SOL     OW31216   2.687   0.874  17.666 -0.1156  0.0708 -0.0352
 6527SOL    HW131217   2.705   0.780  17.665  0.6321  0.2306 -0.6556
 6527SOL    HW231218   2.591   0.877  17.672 -0.1443 -0.2449 -0.3863
 6528SOL     OW31219   2.361   2.983   6.070 -0.4302  0.3086  0.0296
 6528SOL    HW131220   2.360   3.003   6.163 -0.6218 -2.1707  0.5679
 6528SOL    HW231221   2.266   2.979   6.058 -0.4473 -3.2493  1.2401
 6529SOL     OW31222   0.722   0.992   4.026 -0.4420  0.6613 -0.0674
 6529SOL    HW131223   0.694   1.024   3.940  1.2417  0.9560 -0.5046
 6529SOL    HW231224   0.658   0.923   4.042  0.1752 -0.0052 -0.4736
 6530SOL     OW31225   0.573   1.357   7.511 -0.6708  0.3166  0.1339
 6530SOL    HW131226   0.653   1.305   7.519 -0.3999  0.6141 -0.6016
 6530SOL    HW231227   0.513   1.301   7.560  1.1557 -1.8836 -0.1899
 6531SOL     OW31228   2.779   2.342   4.263 -0.1115 -0.0709  0.5522
 6531SOL    HW131229   2.860   2.365   4.307 -1.1454  2.1038  1.3099
 6531SOL    HW231230   2.731   2.300   4.335  1.3950  2.4342  3.0250
 6532SOL     OW31231   4.727   2.957   6.928  0.3165 -1.0397 -0.3066
 6532SOL    HW131232   0.008   2.866   6.904 -0.2258 -0.7302 -1.9243
 6532SOL    HW231233   4.736   2.957   7.023 -3.0502  0.9048 -0.0010
 6533SOL     OW31234   3.166   2.120  15.071 -0.2659 -0.2113  0.2906
 6533SOL    HW131235   3.093   2.076  15.114  0.0575 -1.3412 -0.3012
 6533SOL    HW231236   3.240   2.064  15.095  1.0893  1.1804 -0.6532
 6534SOL     OW31237   4.672   0.667   2.835  0.5925 -0.1098 -0.1776
 6534SOL    HW131238   4.701   0.633   2.750  0.9873  0.5236 -0.2971
 6534SOL    HW231239   4.641   0.587   2.877 -1.9961  0.0933 -1.7066
 6535SOL     OW31240   1.802   0.283  14.267  0.3145  0.2297 -0.2280
 6535SOL    HW131241   1.777   0.208  14.213 -1.3288  1.7243 -1.5101
 6535SOL    HW231242   1.880   0.310  14.218 -1.4905  0.8795 -2.6915
 6536SOL     OW31243   0.517   2.923   6.741  0.1221  0.2171 -0.3212
 6536SOL    HW131244   0.423   2.916   6.723  0.4686  0.3870 -2.2094
 6536SOL    HW231245   0.517   2.888   6.829  1.9187  0.6717 -0.1439
 6537SOL     OW31246   4.564   3.643   7.728 -0.3219 -0.8199 -0.2670
 6537SOL    HW131247   4.542   3.561   7.684 -0.0792 -1.2281  0.3758
 6537SOL    HW231248   4.495   3.652   7.793  1.7989  1.4113  1.7043
 6538SOL     OW31249   0.706   1.093   5.470  0.1135 -0.2758  0.5251
 6538SOL    HW131250   0.683   1.015   5.420 -0.4467 -0.0058  0.3545
 6538SOL    HW231251   0.801   1.092   5.469  0.0909 -0.2925 -1.0509
 6539SOL     OW31252   4.658   3.744  12.812 -0.5965 -0.2224 -0.0952
 6539SOL    HW131253   4.614   3.659  12.811  1.0473 -1.0913  0.8565
 6539SOL    HW231254   4.623   3.791  12.736 -0.8380  1.0003  0.7661
 6540SOL     OW31255   4.478   4.583  10.382  0.0348  0.4487 -0.0547
 6540SOL    HW131256   4.483   4.491  10.407  1.1623  0.2516 -1.0395
 6540SOL    HW231257   4.542   4.583  10.312  0.0561 -2.3028 -0.0133
 6541SOL     OW31258   4.190   2.579   3.791  0.0256 -0.3689  0.2688
 6541SOL    HW131259   4.121   2.585   3.858 -1.3746 -0.6782 -1.1417
 6541SOL    HW231260   4.158   2.513   3.730  1.3147  0.0590 -0.8523
 6542SOL     OW31261   2.391   0.602  15.831  0.1825 -0.2384 -0.0178
 6542SOL    HW131262   2.309   0.578  15.789  1.0278  0.5640 -2.1096
 6542SOL    HW231263   2.359   0.653  15.906 -1.6958  0.4583 -1.2993
 6543SOL     OW31264   4.277   1.842   3.090 -0.5324  0.3252  0.2234
 6543SOL    HW131265   4.283   1.756   3.048 -2.4080 -1.4188  3.4384
 6543SOL    HW231266   4.365   1.848   3.126 -0.8281  0.2509  0.9683
 6544SOL     OW31267   1.415   4.733   7.108  0.0927 -0.3023  0.3642
 6544SOL    HW131268   1.341   0.056   7.112 -0.2332 -0.5442 -2.4788
 6544SOL    HW231269   1.415   4.685   7.191 -2.0783 -0.3155  0.3420
 6545SOL     OW31270   0.670   3.667   2.886 -0.1231 -0.2765  0.5133
 6545SOL    HW131271   0.617   3.669   2.965  0.7696  0.8724  1.0856
 6545SOL    HW231272   0.668   3.572   2.869 -1.3858 -0.2954  0.8367
 6546SOL     OW31273   1.826   0.973   7.666 -0.1907 -0.0173 -0.1037
 6546SOL    HW131274   1.810   0.894   7.718  1.2951  1.1509  2.0851
 6546SOL    HW231275   1.745   0.969   7.615 -0.3666  1.3678  0.0596
 6547SOL     OW31276   2.098   2.145  13.993 -0.3662 -0.1103 -0.3965
 6547SOL    HW131277   2.178   2.191  14.019 -0.3075  0.5530 -1.7442
 6547SOL    HW231278   2.081   2.079  14.060 -1.2340  0.0408 -0.4618
 6548SOL     OW31279   0.001   3.939   4.490  0.4279  0.1415  0.0325
 6548SOL    HW131280   0.013   4.030   4.464 -0.0533  0.7609  1.9533
 6548SOL    HW231281   0.039   3.936   4.578 -0.5797  2.0258  0.5157
 6549SOL     OW31282   4.276   1.289   8.840 -0.3692  0.4828 -0.4032
 6549SOL    HW131283   4.230   1.244   8.768 -0.2783 -1.6681  0.8824
 6549SOL    HW231284   4.207   1.320   8.898 -1.8434 -1.5431 -1.0353
 6550SOL     OW31285   2.319   0.948  15.800 -0.0971  0.0721  0.0280
 6550SOL    HW131286   2.367   1.030  15.811 -0.3246  0.3114 -0.7612
 6550SOL    HW231287   2.374   0.901  15.737 -1.3115 -0.1985 -0.8322
 6551SOL     OW31288   3.372   4.011  16.521 -0.5582  0.5118  0.6503
 6551SOL    HW131289   3.356   3.976  16.433 -0.3503  1.2091  0.3365
 6551SOL    HW231290   3.314   4.087  16.514 -0.4563  0.4923 -0.4177
 6552SOL     OW31291   0.387   2.099   7.768  0.2151  0.3987  0.6042
 6552SOL    HW131292   0.363   2.023   7.714  0.7373  0.5729  0.1248
 6552SOL    HW231293   0.407   2.060   7.853  3.8791 -2.9169 -1.7563
 6553SOL     OW31294   2.905   2.031   5.178  0.0472  0.9451  0.1270
 6553SOL    HW131295   2.899   2.055   5.086 -0.4243  0.3164 -0.0018
 6553SOL    HW231296   2.811   2.035   5.193 -0.2224 -0.3897 -1.2242
 6554SOL     OW31297   3.292   2.602   7.683  0.1215 -0.0351  0.1549
 6554SOL    HW131298   3.379   2.562   7.687  0.2079  0.1519  0.1324
 6554SOL    HW231299   3.317   2.684   7.641 -0.6503  0.3158  0.3833
 6555SOL     OW31300   3.660   3.664   4.878 -0.1914  0.6263  0.0114
 6555SOL    HW131301   3.671   3.692   4.969 -0.4321  0.6942  0.0183
 6555SOL    HW231302   3.725   3.594   4.873 -1.5259 -0.7521  2.2873
 6556SOL     OW31303   3.145   4.085   9.881  0.6983  0.2208 -0.0551
 6556SOL    HW131304   3.131   4.087   9.786  0.7360  1.9643 -0.0228
 6556SOL    HW231305   3.138   4.180   9.891  0.5600  0.3619 -1.3921
 6557SOL     OW31306   4.185   3.360   5.564 -0.4907  0.1671 -0.4691
 6557SOL    HW131307   4.118   3.295   5.545 -3.7185  2.3892  3.1955
 6557SOL    HW231308   4.136   3.443   5.571  0.1570  0.3701  1.7799
 6558SOL     OW31309   2.199   1.295   1.767 -0.1500 -0.0444  0.4652
 6558SOL    HW131310   2.238   1.271   1.684  2.1486  1.0882  1.2339
 6558SOL    HW231311   2.273   1.278   1.825  1.7431 -1.5973 -2.4391
 6559SOL     OW31312   3.513   0.301   9.677  0.8263  0.4377 -0.1526
 6559SOL    HW131313   3.567   0.260   9.610 -1.8365  0.5609 -2.3291
 6559SOL    HW231314   3.579   0.328   9.742 -0.2071  0.3215  0.9443
 6560SOL     OW31315   4.165   2.060  16.340 -0.0085 -0.1056  0.5511
 6560SOL    HW131316   4.226   2.021  16.403 -0.1711  1.8766  1.9322
 6560SOL    HW231317   4.110   1.984  16.320 -3.2839  1.7552  2.4676
 6561SOL     OW31318   1.876   1.734   6.683 -0.5281 -0.2332  0.3699
 6561SOL    HW131319   1.841   1.649   6.658  0.2277 -0.8060  1.2741
 6561SOL    HW231320   1.796   1.782   6.706  0.3195  1.5034 -0.3520
 6562SOL     OW31321   1.408   4.064   6.358  0.4048  0.6529 -0.1774
 6562SOL    HW131322   1.335   4.122   6.337  1.2837 -0.2530 -5.6725
 6562SOL    HW231323   1.484   4.116   6.332 -0.1442 -0.1050 -3.3135
 6563SOL     OW31324   0.606   2.898   8.832  0.3714 -0.8091 -0.4416
 6563SOL    HW131325   0.552   2.874   8.906  0.9564  0.8662  0.5238
 6563SOL    HW231326   0.549   2.966   8.797 -0.3212 -0.4448  1.4155
 6564SOL     OW31327   4.700   0.200   2.065 -0.5325  0.8982  0.7408
 6564SOL    HW131328   4.643   0.126   2.050  1.1012 -0.2377  0.1358
 6564SOL    HW231329   0.029   0.199   1.996 -0.4636  2.5783  0.7811
 6565SOL     OW31330   2.956   2.747  14.675  0.3187 -0.4936 -0.6598
 6565SOL    HW131331   2.943   2.700  14.594 -0.5219 -0.9158 -0.2812
 6565SOL    HW231332   3.042   2.719  14.707  0.1137  0.4908  0.7743
 6566SOL     OW31333   0.703   1.917   2.608  0.4974 -0.0652 -0.7927
 6566SOL    HW131334   0.715   1.929   2.702  2.7848  0.7799 -1.2014
 6566SOL    HW231335   0.793   1.901   2.580  0.8289 -1.2750  0.9500
 6567SOL     OW31336   3.204   1.059   1.722 -0.0768  0.0726 -0.0859
 6567SOL    HW131337   3.123   1.109   1.730  0.5783  0.8311  1.9363
 6567SOL    HW231338   3.180   1.000   1.651 -0.3509  0.4678 -0.3216
 6568SOL     OW31339   0.633   0.624   7.353 -0.2794 -0.4930 -0.1722
 6568SOL    HW131340   0.623   0.534   7.385 -2.6436  0.0938  0.7863
 6568SOL    HW231341   0.728   0.622   7.348 -0.3636 -1.2085 -1.4238
 6569SOL     OW31342   1.098   2.259   2.177  0.2556 -0.6218 -0.4031
 6569SOL    HW131343   1.065   2.231   2.091  1.4942 -1.6580 -0.5397
 6569SOL    HW231344   1.020   2.232   2.226 -1.4635  0.8750 -2.2917
 6570SOL     OW31345   3.590   0.303   8.926 -0.5842 -0.2091 -0.1381
 6570SOL    HW131346   3.644   0.318   8.848  0.0167 -0.5245  0.2210
 6570SOL    HW231347   3.653   0.326   8.994 -0.5567  0.4559 -0.3824
 6571SOL     OW31348   3.523   2.085   3.665 -0.3048  0.1458 -0.1547
 6571SOL    HW131349   3.534   1.998   3.625  4.1247  0.7254 -0.1704
 6571SOL    HW231350   3.545   2.141   3.591 -2.3958  0.2230 -0.7222
 6572SOL     OW31351   2.045   3.711   4.157 -0.2354  0.1664  0.5146
 6572SOL    HW131352   1.956   3.744   4.145 -1.1876 -0.7012  5.1431
 6572SOL    HW231353   2.032   3.617   4.148  0.7409  0.3986 -3.3927
 6573SOL     OW31354   2.726   3.930   2.395  0.3210 -0.1513  0.2735
 6573SOL    HW131355   2.720   3.948   2.489  1.2104  1.0900  0.0894
 6573SOL    HW231356   2.772   3.999   2.348  1.4992 -0.7368  0.5836
 6574SOL     OW31357   0.273   1.274   6.783 -0.2013 -0.2679  0.3103
 6574SOL    HW131358   0.262   1.210   6.713 -1.3022  0.9774 -0.6406
 6574SOL    HW231359   0.364   1.298   6.766 -0.0990 -1.4097 -0.7271
 6575SOL     OW31360   3.396   0.797   4.510  0.4720 -0.2268 -0.2823
 6575SOL    HW131361   3.440   0.736   4.451  0.7934  0.7834 -1.1067
 6575SOL    HW231362   3.392   0.741   4.587 -0.7219  0.4687  0.1643
 6576SOL     OW31363   1.787   0.966   2.647  0.5015 -0.4006 -0.0657
 6576SOL    HW131364   1.789   1.060   2.629  1.5233 -0.0431  1.8934
 6576SOL    HW231365   1.873   0.960   2.687  1.1517 -1.6206 -1.6593
 6577SOL     OW31366   4.403   4.587   4.080 -0.3806  0.5302  0.3500
 6577SOL    HW131367   4.494   4.560   4.068 -0.5125  1.4014 -2.6955
 6577SOL    HW231368   4.412   4.673   4.039 -0.7816 -0.1076 -1.0707
 6578SOL     OW31369   1.499   1.201  12.342 -0.8502 -0.3811  0.0440
 6578SOL    HW131370   1.512   1.244  12.257  0.2512 -0.9931 -0.0964
 6578SOL    HW231371   1.540   1.269  12.396 -0.5412 -2.4721  2.4432
 6579SOL     OW31372   4.230   1.108   5.767 -0.1594 -0.0042 -0.0801
 6579SOL    HW131373   4.157   1.073   5.717 -0.8357  0.1652  0.7952
 6579SOL    HW231374   4.193   1.108   5.855  0.4988  3.3287  0.1877
 6580SOL     OW31375   2.358   1.671   3.121 -0.7795 -0.1985 -0.2785
 6580SOL    HW131376   2.341   1.755   3.080 -0.2591  0.3139  0.5474
 6580SOL    HW231377   2.415   1.625   3.059 -1.4291 -1.8715  0.3633
 6581SOL     OW31378   2.603   1.475   4.799  0.4750  0.1365 -0.5685
 6581SOL    HW131379   2.513   1.492   4.826  0.8904  1.3365  0.0743
 6581SOL    HW231380   2.605   1.492   4.705  2.2177 -1.3914 -0.7941
 6582SOL     OW31381   3.673   1.737   1.173 -0.3373 -0.2236 -0.1073
 6582SOL    HW131382   3.634   1.825   1.175 -1.7451 -0.8105 -1.7928
 6582SOL    HW231383   3.630   1.696   1.248 -1.6563  1.0418 -0.1741
 6583SOL     OW31384   4.107   3.553   7.435 -0.4150 -0.0698 -0.0942
 6583SOL    HW131385   4.185   3.604   7.414 -0.3679 -0.6228 -1.2902
 6583SOL    HW231386   4.137   3.531   7.523  0.0872  2.7397  0.4482
 6584SOL     OW31387   2.101   4.229   3.376  0.7143  0.3306 -0.3362
 6584SOL    HW131388   2.156   4.210   3.452  1.0576  0.2928 -0.5947
 6584SOL    HW231389   2.077   4.321   3.390  0.0517 -0.0464  1.0998
 6585SOL     OW31390   2.344   4.394   6.129  0.0147  0.3438  0.1495
 6585SOL    HW131391   2.417   4.455   6.137 -0.9876  1.4675  0.6852
 6585SOL    HW231392   2.328   4.385   6.223  2.1630  1.2257  0.6099
 6586SOL     OW31393   0.218   3.969  14.941 -0.6332  0.3303  0.3905
 6586SOL    HW131394   0.239   4.044  14.997  2.0664  0.5672 -0.9246
 6586SOL    HW231395   0.295   3.912  14.947 -0.6490  0.3221  0.5049
 6587SOL     OW31396   0.975   4.305   7.522 -0.0799  0.0025  0.6788
 6587SOL    HW131397   0.955   4.372   7.456  0.3454 -0.7260 -0.1901
 6587SOL    HW231398   1.049   4.257   7.484  0.7524  1.7918  0.0368
 6588SOL     OW31399   3.951   2.926   2.470 -0.0922 -0.1209  0.2807
 6588SOL    HW131400   3.891   2.982   2.520  1.0407  0.7125  0.7132
 6588SOL    HW231401   4.036   2.971   2.473  0.1754 -0.5150 -1.3367
 6589SOL     OW31402   4.709   1.043   7.089  0.5285 -0.0806  0.2179
 6589SOL    HW131403   0.046   1.083   7.134  1.3617 -1.5702  0.1388
 6589SOL    HW231404   0.001   1.012   7.003  0.1886  1.0917 -0.3314
 6590SOL     OW31405   0.936   3.734   8.014 -0.0490 -0.1434  0.4380
 6590SOL    HW131406   1.013   3.698   8.059 -0.6399 -1.5173  0.3694
 6590SOL    HW231407   0.975   3.799   7.956 -1.0234 -0.1210 -0.1845
 6591SOL     OW31408   4.672   4.091   3.169  0.4150 -0.5812  0.0788
 6591SOL    HW131409   4.607   4.154   3.198  2.4673  2.4644 -1.8502
 6591SOL    HW231410   0.007   4.118   3.225 -0.6132  0.5528  0.8601
 6592SOL     OW31411   2.250   2.782  15.387 -0.1240  0.3687  0.4486
 6592SOL    HW131412   2.327   2.796  15.332  0.3481  0.0392  1.0333
 6592SOL    HW231413   2.189   2.839  15.341 -0.8715  1.6804  3.1033
 6593SOL     OW31414   1.488   3.367  10.638  0.2951 -0.5987  0.0985
 6593SOL    HW131415   1.568   3.372  10.586 -0.9019  1.4662 -1.5476
 6593SOL    HW231416   1.416   3.376  10.575 -0.4718  2.0916  1.3645
 6594SOL     OW31417   0.148   4.650  16.953 -0.0047 -0.4891 -0.3758
 6594SOL    HW131418   0.107   4.641  16.867  0.0965  0.5799 -0.5360
 6594SOL    HW231419   0.099   4.718  16.999 -1.0829 -0.4049 -1.6431
 6595SOL     OW31420   4.355   2.229  15.835  0.5194 -0.0880 -0.3679
 6595SOL    HW131421   4.317   2.264  15.915 -0.4223 -1.2241 -0.3346
 6595SOL    HW231422   4.392   2.300  15.782 -1.7889 -0.0266 -1.9008
 6596SOL     OW31423   0.606   4.122  10.612 -0.5253  0.1080  0.0391
 6596SOL    HW131424   0.647   4.046  10.570 -1.5241 -0.6479  0.4141
 6596SOL    HW231425   0.517   4.127  10.579 -1.1884  2.0649  2.1798
 6597SOL     OW31426   4.714   2.404   5.367 -0.6553 -0.2249 -0.2325
 6597SOL    HW131427   4.719   2.499   5.356 -1.2055 -0.1946 -0.2252
 6597SOL    HW231428   4.691   2.380   5.277  1.4066 -1.2366 -0.4844
 6598SOL     OW31429   3.714   0.446   9.810  0.3140  0.5403 -0.1219
 6598SOL    HW131430   3.737   0.452   9.903 -0.8207  2.5761  0.0219
 6598SOL    HW231431   3.708   0.539   9.790 -0.2990  0.3693 -0.7368
 6599SOL     OW31432   1.335   4.543   2.288 -0.2268 -0.1350  0.1001
 6599SOL    HW131433   1.272   4.608   2.318 -0.6401 -1.1598  1.4261
 6599SOL    HW231434   1.310   4.538   2.195 -0.8379  0.0111  0.2609
 6600SOL     OW31435   2.654   3.475   9.974  0.0316  0.0429 -0.7644
 6600SOL    HW131436   2.717   3.542  10.001  0.2789 -0.7408  0.5661
 6600SOL    HW231437   2.713   3.403   9.954 -1.6929 -0.9142 -2.4978
 6601SOL     OW31438   2.829   3.783   6.561  0.1379 -0.2843  0.3826
 6601SOL    HW131439   2.851   3.716   6.497 -2.0535  0.8871 -1.5911
 6601SOL    HW231440   2.861   3.750   6.645 -1.0084 -1.3014  0.4198
 6602SOL     OW31441   0.811   2.740   2.290  0.1276  0.4581 -0.0574
 6602SOL    HW131442   0.777   2.791   2.217  0.6806  0.3698 -0.3775
 6602SOL    HW231443   0.879   2.790   2.335  0.0694  0.2982  0.2091
 6603SOL     OW31444   1.414   3.003   7.294 -0.4086 -0.2108  0.2694
 6603SOL    HW131445   1.322   2.989   7.273 -1.0097  0.4253  2.4228
 6603SOL    HW231446   1.466   3.015   7.215 -0.5494 -1.3352  0.0059
 6604SOL     OW31447   0.496   3.207   6.851 -0.2899  0.4736 -0.0806
 6604SOL    HW131448   0.490   3.209   6.755  1.1248  3.3661 -0.0969
 6604SOL    HW231449   0.511   3.298   6.876 -0.9125  0.4258  0.4557
 6605SOL     OW31450   2.974   1.570   7.047  0.2003  0.0051  0.4020
 6605SOL    HW131451   2.932   1.485   7.062  1.4187 -0.8573 -1.0191
 6605SOL    HW231452   3.047   1.553   6.987  0.1785  1.7134 -0.1257
 6606SOL     OW31453   1.039   2.897  13.527  0.3020  0.6978  0.5693
 6606SOL    HW131454   1.069   2.895  13.618  1.1151  1.4696  0.3134
 6606SOL    HW231455   1.115   2.917  13.472 -0.3596  4.1476  0.8966
 6607SOL     OW31456   4.068   2.136   8.060 -0.1235 -0.1414  0.5318
 6607SOL    HW131457   4.013   2.118   8.136 -1.0627 -1.8121 -0.5571
 6607SOL    HW231458   4.118   2.212   8.091  0.1331 -0.1497  0.1426
 6608SOL     OW31459   4.281   4.130   8.374 -1.0082  0.2770 -0.2533
 6608SOL    HW131460   4.296   4.065   8.305  0.9599 -2.0639  2.3790
 6608SOL    HW231461   4.251   4.069   8.441  0.6096  1.1571  1.2592
 6609SOL     OW31462   0.094   4.512   5.034 -0.0441 -0.8699 -0.2139
 6609SOL    HW131463   0.178   4.559   5.031  0.2975 -1.4503  0.1766
 6609SOL    HW231464   0.129   4.432   5.072 -0.9424 -0.6347  1.0937
 6610SOL     OW31465   2.811   0.948   8.066  0.0608  0.0215  0.5253
 6610SOL    HW131466   2.745   0.945   7.996  0.3124  1.4711  0.2242
 6610SOL    HW231467   2.869   1.022   8.047 -0.4721  0.5276  0.8337
 6611SOL     OW31468   3.880   3.458   4.128 -0.1122 -0.2449 -0.3101
 6611SOL    HW131469   3.808   3.403   4.158  0.5796 -0.1758  1.5320
 6611SOL    HW231470   3.840   3.545   4.127  1.1235  0.3253 -0.1007
 6612SOL     OW31471   0.039   4.329   6.682 -0.5924 -0.7093 -0.3160
 6612SOL    HW131472   4.694   4.334   6.634 -1.1494 -1.3121  0.5768
 6612SOL    HW231473   0.007   4.322   6.772 -1.1186  0.6936 -0.3972
 6613SOL     OW31474   3.831   2.197   3.630  0.1503 -0.1325 -0.2916
 6613SOL    HW131475   3.886   2.137   3.680 -0.5292  0.0069  0.6162
 6613SOL    HW231476   3.844   2.169   3.539  1.9324  1.7193 -0.6200
 6614SOL     OW31477   0.361   0.436  12.468  0.5437 -0.0291 -0.5100
 6614SOL    HW131478   0.414   0.376  12.521  0.7707  1.7622  1.3167
 6614SOL    HW231479   0.300   0.458  12.538  0.1390 -1.0535 -0.5457
 6615SOL     OW31480   0.049   1.500   2.045 -0.2064  0.7089 -0.1427
 6615SOL    HW131481   0.031   1.408   2.024  1.0585 -0.2074  2.8337
 6615SOL    HW231482   0.016   1.549   1.969 -0.1479 -0.2275 -0.7732
 6616SOL     OW31483   2.593   4.031   4.445  0.1213 -0.7438 -0.4895
 6616SOL    HW131484   2.657   3.960   4.440  0.1555 -0.6362 -1.6617
 6616SOL    HW231485   2.580   4.045   4.539  0.1751  2.3341 -0.9265
 6617SOL     OW31486   2.275   0.651   2.106  0.4098  0.2809  0.3448
 6617SOL    HW131487   2.322   0.622   2.028 -1.4787 -1.1102 -0.2810
 6617SOL    HW231488   2.340   0.714   2.135 -0.0982  1.6606 -1.4918
 6618SOL     OW31489   3.261   1.223  11.258  0.2974  0.1707 -0.3535
 6618SOL    HW131490   3.252   1.147  11.201  0.0922  1.7130 -2.3821
 6618SOL    HW231491   3.274   1.179  11.342  1.1980 -0.0474 -0.6095
 6619SOL     OW31492   2.484   0.133  10.574  0.1789  0.1907  0.1853
 6619SOL    HW131493   2.433   0.173  10.644  0.7130  0.6920  0.2893
 6619SOL    HW231494   2.508   0.051  10.617 -2.0580 -0.2402  0.5991
 6620SOL     OW31495   2.772   2.108   5.674 -0.5911 -0.2083  0.4352
 6620SOL    HW131496   2.792   2.173   5.741 -0.1983 -0.7726  0.8641
 6620SOL    HW231497   2.794   2.024   5.714  0.4349 -0.2296 -0.1678
 6621SOL     OW31498   3.513   3.424  17.673  0.0406 -0.2498  0.3604
 6621SOL    HW131499   3.572   3.491  17.639  1.3560 -1.9133 -0.6212
 6621SOL    HW231500   3.456   3.403  17.599 -0.1665  0.2496  0.3732
 6622SOL     OW31501   2.161   1.294   4.127 -0.2396  0.1489 -0.0661
 6622SOL    HW131502   2.123   1.247   4.052  0.6850 -2.6293  1.1874
 6622SOL    HW231503   2.099   1.273   4.196  0.0383  2.5643  0.9069
 6623SOL     OW31504   1.573   1.260   2.780  0.1297 -0.2222  0.7918
 6623SOL    HW131505   1.600   1.178   2.820  1.4580 -1.3606 -2.4920
 6623SOL    HW231506   1.583   1.319   2.855  3.1055 -1.4631  1.3703
 6624SOL     OW31507   1.918   1.467  13.925  0.0965 -0.3986  0.2087
 6624SOL    HW131508   1.928   1.380  13.885 -0.9378  0.0843 -1.0939
 6624SOL    HW231509   1.834   1.497  13.889  0.2423 -0.7379 -0.4253
 6625SOL     OW31510   3.071   4.484   4.617 -0.5903 -0.3624  0.0832
 6625SOL    HW131511   3.036   4.466   4.704 -2.7819 -1.6233 -1.0438
 6625SOL    HW231512   3.105   4.573   4.621  0.7617 -0.8024 -1.4699
 6626SOL     OW31513   3.285   4.105   2.112  0.5427 -0.3072  0.5451
 6626SOL    HW131514   3.238   4.101   2.029 -0.8099  0.0832  1.2821
 6626SOL    HW231515   3.296   4.200   2.122 -0.4456 -0.1195 -0.1441
 6627SOL     OW31516   1.515   0.380   9.876  0.5656 -0.2514 -0.0316
 6627SOL    HW131517   1.481   0.303   9.921  0.9551 -0.0962  0.5174
 6627SOL    HW231518   1.515   0.445   9.946 -2.4087 -0.2090 -0.0553
 6628SOL     OW31519   0.225   0.045   5.363  0.4795  0.0730 -0.5219
 6628SOL    HW131520   0.152   4.723   5.377  0.6991 -0.9092 -3.6795
 6628SOL    HW231521   0.301   0.000   5.401  0.6112  0.8223  0.1067
 6629SOL     OW31522   3.997   4.343  14.634  0.6261  0.0226 -0.6960
 6629SOL    HW131523   3.955   4.429  14.640  2.0590  0.5179  1.7430
 6629SOL    HW231524   4.014   4.332  14.540  1.6481  0.2737 -0.5378
 6630SOL     OW31525   4.657   4.561   7.040 -0.7922 -0.4191 -0.0223
 6630SOL    HW131526   4.587   4.617   7.007 -1.7554 -0.6854  1.5694
 6630SOL    HW231527   4.715   4.628   7.076  0.0176 -0.6959 -0.8250
 6631SOL     OW31528   0.562   2.148   2.480 -0.4000  0.0952  0.9842
 6631SOL    HW131529   0.557   2.081   2.548  0.0497 -0.3555  0.5733
 6631SOL    HW231530   0.588   2.225   2.532 -0.4135 -0.7146  2.1936
 6632SOL     OW31531   0.867   0.933   6.491  0.4348 -0.0098  0.0990
 6632SOL    HW131532   0.847   1.007   6.434  0.7869 -0.0939 -0.1366
 6632SOL    HW231533   0.948   0.910   6.446 -0.6501  2.4208 -3.1009
 6633SOL     OW31534   0.040   0.905   8.973  0.6680 -0.0913 -0.1526
 6633SOL    HW131535   0.129   0.872   8.970  1.2364  1.2624  1.7948
 6633SOL    HW231536   0.063   0.983   8.922 -0.5762  1.1561  1.1774
 6634SOL     OW31537   2.106   2.427  16.978 -0.0327 -0.0674 -0.1651
 6634SOL    HW131538   2.014   2.404  16.967  0.2767 -0.6498 -1.5092
 6634SOL    HW231539   2.091   2.515  17.011  2.8606  0.2229  0.4603
 6635SOL     OW31540   4.248   4.279   2.033 -0.7499 -0.0451  0.5830
 6635SOL    HW131541   4.203   4.198   2.009  0.7625  0.2487 -3.1945
 6635SOL    HW231542   4.187   4.323   2.093 -1.7991  0.6899 -1.0176
 6636SOL     OW31543   2.538   2.702   2.738  0.6254 -0.3268  0.2895
 6636SOL    HW131544   2.499   2.788   2.724 -1.6310 -1.7571 -2.2523
 6636SOL    HW231545   2.603   2.701   2.668 -0.5913 -0.0174 -0.8597
 6637SOL     OW31546   3.802   0.635  16.084  0.0809 -0.1900 -0.0909
 6637SOL    HW131547   3.823   0.705  16.022 -0.4605  1.6904  1.8280
 6637SOL    HW231548   3.708   0.638  16.071  0.3916 -0.8335 -2.4525
 6638SOL     OW31549   4.205   3.217   2.716  0.3059  0.3038  0.2473
 6638SOL    HW131550   4.153   3.292   2.688 -0.4211 -0.3238 -0.0772
 6638SOL    HW231551   4.228   3.257   2.800 -2.4342 -2.4365  2.2805
 6639SOL     OW31552   0.328   1.607   5.222 -0.4467  0.0583  0.8334
 6639SOL    HW131553   0.315   1.588   5.129 -1.3215  1.7659  0.5948
 6639SOL    HW231554   0.364   1.696   5.216  0.5181 -0.3012  1.2188
 6640SOL     OW31555   3.166   4.536   4.234  0.7696  0.4894  0.1552
 6640SOL    HW131556   3.096   4.497   4.285  1.8776 -1.9692 -0.2239
 6640SOL    HW231557   3.102   4.570   4.171 -0.0481  0.1328  0.8012
 6641SOL     OW31558   0.643   0.231   4.353  0.0531  0.1757 -0.5409
 6641SOL    HW131559   0.623   0.312   4.305 -0.4469  0.7362  0.6129
 6641SOL    HW231560   0.622   0.164   4.288 -1.0943  0.4216 -0.4265
 6642SOL     OW31561   0.972   3.178   4.859  0.0024 -0.0972  0.7478
 6642SOL    HW131562   0.977   3.151   4.951  3.3171  0.8700  0.8675
 6642SOL    HW231563   0.898   3.237   4.851  2.0800  2.9186  3.9869
 6643SOL     OW31564   1.816   3.570   3.015 -0.8575  0.3048  0.1957
 6643SOL    HW131565   1.730   3.533   2.994  0.5935 -1.8305 -2.1310
 6643SOL    HW231566   1.792   3.646   3.067 -1.3130  0.5931 -0.4412
 6644SOL     OW31567   1.842   1.739  11.014 -0.7439 -0.5294  0.6279
 6644SOL    HW131568   1.893   1.819  11.008  0.7043 -1.5741 -1.1138
 6644SOL    HW231569   1.753   1.774  11.009 -0.2099  0.9231  1.5394
 6645SOL     OW31570   1.037   1.574   9.132  0.2519 -0.3684 -0.1889
 6645SOL    HW131571   1.127   1.603   9.146  0.3605 -1.5467  1.5296
 6645SOL    HW231572   1.009   1.639   9.068  0.2356 -0.0935  0.0946
 6646SOL     OW31573   0.382   0.596   6.411  0.3518 -0.2438 -0.0006
 6646SOL    HW131574   0.300   0.625   6.451  0.6701 -0.7243  1.0038
 6646SOL    HW231575   0.411   0.678   6.371  1.7883 -1.1399 -0.8126
 6647SOL     OW31576   0.594   1.404  11.205 -0.0321  1.2799  0.0522
 6647SOL    HW131577   0.600   1.314  11.174 -0.2766  1.7183 -1.2482
 6647SOL    HW231578   0.519   1.435  11.155  1.4785 -1.2686 -3.8002
 6648SOL     OW31579   4.161   3.071   4.104 -0.2437 -0.1426 -0.5155
 6648SOL    HW131580   4.149   3.047   4.196  0.4057  0.9076 -0.1608
 6648SOL    HW231581   4.079   3.060   4.056 -0.6292  2.1142 -0.3468
 6649SOL     OW31582   3.614   0.999   4.399  0.5719 -0.4872  0.1134
 6649SOL    HW131583   3.539   0.962   4.447 -1.7284 -0.3422 -3.3780
 6649SOL    HW231584   3.577   1.086   4.387  1.1734 -0.4091 -1.1543
 6650SOL     OW31585   1.815   0.085   5.185 -0.1170  0.0269  0.5820
 6650SOL    HW131586   1.869   0.157   5.151 -1.9677  1.0920 -0.1407
 6650SOL    HW231587   1.769   0.052   5.107 -1.4747 -0.2250  1.4854
 6651SOL     OW31588   1.165   3.685   8.137 -0.5177 -0.3591 -0.2401
 6651SOL    HW131589   1.237   3.675   8.075 -2.4700 -2.3227 -2.1693
 6651SOL    HW231590   1.177   3.780   8.145  0.2028 -0.4435 -0.3373
 6652SOL     OW31591   2.493   2.987   5.525  0.3548 -0.4812 -0.3233
 6652SOL    HW131592   2.581   2.961   5.549 -0.1079 -1.8742 -0.1627
 6652SOL    HW231593   2.446   2.967   5.606  0.3204 -0.9974 -0.4702
 6653SOL     OW31594   2.610   1.485   3.480  0.3695 -0.3146 -0.6641
 6653SOL    HW131595   2.624   1.573   3.446 -0.2659 -0.2207 -0.6679
 6653SOL    HW231596   2.696   1.456   3.513  0.7453  2.4597  0.8515
 6654SOL     OW31597   3.585   3.757   5.223  0.0997  0.3659 -0.2973
 6654SOL    HW131598   3.650   3.824   5.245 -0.9914  0.7685  1.7038
 6654SOL    HW231599   3.509   3.778   5.278  1.3920 -0.9322  2.0075
 6655SOL     OW31600   1.016   4.102   3.415 -0.2270  0.0122 -0.2360
 6655SOL    HW131601   0.976   4.085   3.329 -1.3788  0.6446  0.1660
 6655SOL    HW231602   1.097   4.054   3.401 -1.0077 -1.2594 -0.4342
 6656SOL     OW31603   4.375   2.315   7.440 -0.4024 -0.1989 -0.2270
 6656SOL    HW131604   4.347   2.333   7.529 -0.8362 -0.3217 -0.3407
 6656SOL    HW231605   4.336   2.228   7.438  1.2208 -0.9767  2.9797
 6657SOL     OW31606   2.942   4.408  17.122  0.2920 -0.9177  0.0986
 6657SOL    HW131607   2.976   4.494  17.146 -0.8384 -0.5729  0.4831
 6657SOL    HW231608   2.985   4.364  17.195  1.0896 -1.1314 -0.5085
 6658SOL     OW31609   1.572   3.138   3.579 -0.0109  0.3800 -0.3319
 6658SOL    HW131610   1.590   3.231   3.590 -0.7954  0.6991 -1.7136
 6658SOL    HW231611   1.524   3.128   3.661  0.4932  0.3528 -0.0472
 6659SOL     OW31612   0.257   0.848   6.704  0.0818  1.0399  0.0966
 6659SOL    HW131613   0.237   0.845   6.610  0.9876  1.4044 -0.1080
 6659SOL    HW231614   0.216   0.767   6.734  2.2138  0.6293  1.8773
 6660SOL     OW31615   2.252   3.122   3.397  0.2859  0.2090 -0.0756
 6660SOL    HW131616   2.159   3.143   3.399  0.1111 -0.3907 -1.5893
 6660SOL    HW231617   2.267   3.083   3.483 -1.1449  1.3845  0.6982
 6661SOL     OW31618   3.999   2.502   4.550  0.1095  0.5775 -0.4371
 6661SOL    HW131619   3.949   2.512   4.469 -0.2614  1.0820 -0.1448
 6661SOL    HW231620   3.999   2.591   4.585 -0.9460  0.6031 -0.5068
 6662SOL     OW31621   3.127   2.492   8.815  0.3113  0.1989  0.2416
 6662SOL    HW131622   3.034   2.502   8.791  0.1722  1.8631  1.4757
 6662SOL    HW231623   3.119   2.480   8.910  0.6751  2.2241  0.5361
 6663SOL     OW31624   2.330   3.234   1.509  0.4354  0.0540  0.5230
 6663SOL    HW131625   2.248   3.233   1.559 -0.8662 -0.4449 -1.6546
 6663SOL    HW231626   2.337   3.324   1.479 -3.0245  0.6235  1.4137
 6664SOL     OW31627   2.631   2.746  14.294  0.3212  0.0820 -0.2052
 6664SOL    HW131628   2.698   2.808  14.264 -0.8256  2.1877  1.6433
 6664SOL    HW231629   2.688   2.672  14.314  2.3922  2.1849  1.7883
 6665SOL     OW31630   1.222   1.668   2.811  0.3060 -0.2538 -0.5030
 6665SOL    HW131631   1.130   1.693   2.814  0.0198 -0.8245 -5.1376
 6665SOL    HW231632   1.220   1.572   2.805 -1.9352 -0.1336 -1.4684
 6666SOL     OW31633   4.335   3.643  11.547  0.5333  0.0407 -0.1953
 6666SOL    HW131634   4.240   3.647  11.554  0.5217  1.1140 -0.8821
 6666SOL    HW231635   4.375   3.731  11.553  1.7149 -0.3989 -1.5585
 6667SOL     OW31636   3.402   4.399   2.430 -0.4274  0.3152 -0.2471
 6667SOL    HW131637   3.478   4.421   2.376  0.6329  0.2500  1.2432
 6667SOL    HW231638   3.334   4.460   2.401 -0.9811 -0.8815 -1.4663
 6668SOL     OW31639   0.153   0.917   7.325 -0.1945 -0.0831  0.0920
 6668SOL    HW131640   0.174   1.002   7.286  2.6943 -0.4324  0.9360
 6668SOL    HW231641   0.066   0.928   7.364 -1.1581  1.3550 -2.4427
 6669SOL     OW31642   2.543   1.730   6.203  0.3319  0.3559 -0.0065
 6669SOL    HW131643   2.634   1.715   6.229  0.9155  2.7030 -0.6765
 6669SOL    HW231644   2.534   1.812   6.155 -0.6526  0.5177  0.4525
 6670SOL     OW31645   2.853   4.201  17.400  0.2995 -0.0821  0.2644
 6670SOL    HW131646   2.938   4.208  17.357  0.1448  0.4449  0.0411
 6670SOL    HW231647   2.812   4.139  17.339  1.7532 -0.1749 -0.6052
 6671SOL     OW31648   2.308   3.804  14.530  0.2548 -0.1698 -0.0569
 6671SOL    HW131649   2.297   3.729  14.589 -1.2704  0.9489  1.0533
 6671SOL    HW231650   2.307   3.884  14.582  3.2997 -0.9050  1.1582
 6672SOL     OW31651   0.612   3.698   4.337 -0.7809  0.0321 -0.5005
 6672SOL    HW131652   0.518   3.680   4.327 -0.3687 -2.2352 -0.3025
 6672SOL    HW231653   0.621   3.661   4.425  1.3642  1.2868 -0.2042
 6673SOL     OW31654   4.123   4.694   4.331  0.1352  0.0915 -0.0007
 6673SOL    HW131655   4.166   0.032   4.371  2.5539 -0.1591 -2.1252
 6673SOL    HW231656   4.192   4.633   4.306 -0.5218 -0.9234  0.6373
 6674SOL     OW31657   3.481   3.503   5.430  0.2485 -0.4687 -0.3265
 6674SOL    HW131658   3.493   3.577   5.489  1.7629 -1.7770  1.0170
 6674SOL    HW231659   3.564   3.456   5.435 -0.6621 -1.7620  3.0529
 6675SOL     OW31660   2.412   4.070  15.061  0.3088  0.1309 -0.7388
 6675SOL    HW131661   2.401   4.130  15.135  0.5836 -1.6610  0.7758
 6675SOL    HW231662   2.413   3.985  15.105  0.9327  0.4764 -0.0755
 6676SOL     OW31663   1.998   1.787   2.534  0.6729  0.7724  0.4073
 6676SOL    HW131664   2.013   1.875   2.567  0.5655  1.1094 -0.4519
 6676SOL    HW231665   1.975   1.802   2.442 -1.2268 -2.9140  0.2746
 6677SOL     OW31666   2.222   2.814   2.112 -0.0857 -0.2259  0.2041
 6677SOL    HW131667   2.288   2.881   2.094 -0.6434  0.0751 -0.7510
 6677SOL    HW231668   2.235   2.804   2.206  0.1596  0.9848  0.2976
 6678SOL     OW31669   3.446   1.625   8.701 -0.2819  0.2136 -0.0379
 6678SOL    HW131670   3.393   1.701   8.722 -1.1973 -0.5527  0.3993
 6678SOL    HW231671   3.529   1.670   8.683  0.0013 -0.4959 -0.4796
 6679SOL     OW31672   4.270   2.073   1.166  0.2770 -0.1240 -0.5676
 6679SOL    HW131673   4.279   1.994   1.218 -1.9295  0.3692  0.5949
 6679SOL    HW231674   4.279   2.049   1.074 -1.4950 -1.3287 -0.4241
 6680SOL     OW31675   2.647   4.096  12.071  0.4631 -0.2307  0.8888
 6680SOL    HW131676   2.592   4.144  12.133  0.9587  1.2265  0.2056
 6680SOL    HW231677   2.593   4.023  12.042  0.6206  0.4239 -1.0531
 6681SOL     OW31678   4.688   2.815  15.759  0.1389  0.2330 -0.1162
 6681SOL    HW131679   4.725   2.868  15.830 -0.3121  0.5887 -0.1446
 6681SOL    HW231680   4.614   2.782  15.809  0.4112  0.4917  0.4634
 6682SOL     OW31681   4.387   0.389   7.774 -0.1469 -0.3600 -0.0692
 6682SOL    HW131682   4.388   0.294   7.788 -0.8688 -0.3542 -0.0166
 6682SOL    HW231683   4.392   0.412   7.867  0.8478 -2.5032  0.4064
 6683SOL     OW31684   0.623   2.491  16.633 -0.3462  0.1212  0.3810
 6683SOL    HW131685   0.579   2.437  16.698  2.0479  0.2372  2.1147
 6683SOL    HW231686   0.692   2.430  16.609 -1.4704 -1.0730  0.2231
 6684SOL     OW31687   1.392   2.028   5.641  0.2767 -0.1894  0.2876
 6684SOL    HW131688   1.367   1.986   5.559 -1.7006 -2.4244  2.0175
 6684SOL    HW231689   1.438   2.097   5.594 -0.9079  1.2902  1.2771
 6685SOL     OW31690   2.033   2.126  16.711  0.1993  0.0165  0.4260
 6685SOL    HW131691   1.968   2.193  16.691 -1.0425 -1.8338 -1.7201
 6685SOL    HW231692   2.024   2.059  16.643  0.0207 -0.7998  1.2323
 6686SOL     OW31693   0.856   4.081   7.650  0.4279 -0.7312  0.3564
 6686SOL    HW131694   0.873   4.097   7.743  1.2352  2.1098 -0.2791
 6686SOL    HW231695   0.910   4.150   7.612  1.1616 -0.6114  1.5820
 6687SOL     OW31696   0.296   0.329  13.249 -1.1945 -0.1848 -0.2023
 6687SOL    HW131697   0.289   0.312  13.155  1.5493 -0.8751 -0.2598
 6687SOL    HW231698   0.354   0.258  13.274 -0.0463  0.4586 -1.0413
 6688SOL     OW31699   2.875   3.964   1.010  0.1968 -0.2376 -0.7255
 6688SOL    HW131700   2.868   4.058   0.995 -0.0672 -0.0985  0.2631
 6688SOL    HW231701   2.904   3.973   1.101  0.0613  0.9317 -0.8028
 6689SOL     OW31702   2.074   2.465   4.189 -0.2273 -0.9983  0.6627
 6689SOL    HW131703   2.128   2.407   4.135  2.4810  1.9497  0.2420
 6689SOL    HW231704   2.029   2.406   4.249  1.7462 -0.6661  2.4324
 6690SOL     OW31705   3.559   2.502   4.162 -0.7559 -0.4349  0.6621
 6690SOL    HW131706   3.520   2.415   4.176  1.3871 -1.3712  0.8880
 6690SOL    HW231707   3.524   2.526   4.077  1.5951  1.8492  0.3615
 6691SOL     OW31708   3.629   3.236   6.660  0.7307 -0.5332 -0.1444
 6691SOL    HW131709   3.591   3.296   6.725  0.1075 -1.0643 -0.0157
 6691SOL    HW231710   3.554   3.231   6.600  1.0636 -3.2486 -0.3455
 6692SOL     OW31711   0.332   1.710   9.116  0.4263  0.9168  0.5167
 6692SOL    HW131712   0.300   1.752   9.196 -0.5052 -0.8837  1.0943
 6692SOL    HW231713   0.398   1.656   9.158 -0.0394 -0.3234 -0.3359
 6693SOL     OW31714   2.835   0.700   1.857 -0.0702  0.2060  0.0940
 6693SOL    HW131715   2.817   0.761   1.786 -1.9975 -2.9778 -2.1071
 6693SOL    HW231716   2.858   0.618   1.814  0.3776  1.6158 -2.3520
 6694SOL     OW31717   4.568   0.931   4.739  0.1024  0.4259 -0.5799
 6694SOL    HW131718   4.606   0.997   4.797 -0.7721 -1.1803  1.8661
 6694SOL    HW231719   4.486   0.913   4.787  0.5905  0.5553  0.3041
 6695SOL     OW31720   2.179   0.834  11.112  0.0751  0.1837 -0.0714
 6695SOL    HW131721   2.181   0.801  11.023 -1.5600 -1.5777  0.5194
 6695SOL    HW231722   2.114   0.903  11.099 -1.8659 -1.5754  0.1803
 6696SOL     OW31723   0.597   4.531  16.333  0.4481 -0.2671  0.0532
 6696SOL    HW131724   0.666   4.563  16.391  1.2125 -1.7001 -0.0737
 6696SOL    HW231725   0.518   4.528  16.386 -0.2951 -0.0503 -1.0309
 6697SOL     OW31726   2.024   2.302   7.354  0.0236  0.0370  0.4358
 6697SOL    HW131727   2.014   2.397   7.347 -3.5691 -0.0710  4.3233
 6697SOL    HW231728   1.990   2.278   7.440  1.2871 -2.7178  0.1545
 6698SOL     OW31729   4.088   1.574   6.973 -0.3936 -0.7429 -0.3603
 6698SOL    HW131730   4.018   1.639   6.980  0.7550  0.2776  1.9428
 6698SOL    HW231731   4.129   1.604   6.892 -1.2342  0.1825 -0.4337
 6699SOL     OW31732   1.948   0.923   5.623  0.2434  0.1582 -0.3518
 6699SOL    HW131733   1.916   0.832   5.620  1.6637 -0.3341 -0.2898
 6699SOL    HW231734   2.004   0.911   5.547  1.5671  2.3026  0.3122
 6700SOL     OW31735   1.346   3.389  10.975  0.3243  1.1925  0.1245
 6700SOL    HW131736   1.437   3.360  10.981  0.7461  2.7202  0.8516
 6700SOL    HW231737   1.305   3.304  10.990 -0.6630  1.4701 -0.9361
 6701SOL     OW31738   3.480   1.741   2.205 -1.5966 -0.0615 -1.2192
 6701SOL    HW131739   3.418   1.802   2.243  0.9288  1.7047  0.0072
 6701SOL    HW231740   3.552   1.800   2.181  0.3854 -1.5623  1.0068
 6702SOL     OW31741   1.564   4.505   5.454 -0.6778  0.0845  0.4378
 6702SOL    HW131742   1.549   4.597   5.430 -2.9270 -0.0605  1.3426
 6702SOL    HW231743   1.543   4.469   5.368 -0.8584  1.7404 -0.2144
 6703SOL     OW31744   4.188   3.128   8.048  0.2803  0.2860  0.5841
 6703SOL    HW131745   4.248   3.067   8.006 -0.4936  0.8206 -1.3525
 6703SOL    HW231746   4.127   3.077   8.100 -0.5676  1.3297  0.6119
 6704SOL     OW31747   3.785   4.183   3.941 -0.2903  0.7885  0.4972
 6704SOL    HW131748   3.818   4.093   3.938  1.7115  1.5325 -0.0712
 6704SOL    HW231749   3.712   4.169   4.000  0.9367 -0.1107  1.8173
 6705SOL     OW31750   4.186   2.207   6.882  0.5760 -0.2753 -0.3543
 6705SOL    HW131751   4.141   2.234   6.802  2.0748 -0.1832 -1.1643
 6705SOL    HW231752   4.180   2.286   6.935 -3.0583 -0.3052 -0.7271
 6706SOL     OW31753   1.075   3.299   7.110 -0.2469  0.0157  0.6105
 6706SOL    HW131754   1.146   3.363   7.109 -1.1374  0.9824 -0.0796
 6706SOL    HW231755   1.039   3.297   7.199 -0.3686 -1.1798  0.5432
 6707SOL     OW31756   0.834   1.460  12.451 -0.2323  0.7175 -0.2367
 6707SOL    HW131757   0.780   1.385  12.478 -1.1364  0.9538 -1.3927
 6707SOL    HW231758   0.780   1.526  12.493 -1.0351  0.9099 -1.5896
 6708SOL     OW31759   3.030   4.684  17.133  0.0403  0.1901  0.0747
 6708SOL    HW131760   2.960   4.735  17.172  0.0903 -1.5149  2.4346
 6708SOL    HW231761   3.065   0.019  17.081 -0.2023  0.2121 -0.0557
 6709SOL     OW31762   3.080   1.450   6.526 -0.4365 -0.1016 -0.0139
 6709SOL    HW131763   3.013   1.515   6.505  0.5086  0.7967 -0.2408
 6709SOL    HW231764   3.022   1.374   6.536  0.6421 -0.8757  0.3069
 6710SOL     OW31765   2.338   3.248   0.401 -0.1357  0.4810  0.5279
 6710SOL    HW131766   2.277   3.225   0.331  1.7547  0.4213 -1.0721
 6710SOL    HW231767   2.304   3.208   0.481 -1.6230  2.2350  0.7832
 6711SOL     OW31768   2.327   2.618   3.776 -0.1606  0.0844  0.4328
 6711SOL    HW131769   2.360   2.540   3.821 -0.2191  0.7043  1.5704
 6711SOL    HW231770   2.322   2.682   3.848 -2.3163  0.3077  0.0885
 6712SOL     OW31771   2.122   1.026   8.478 -0.1685  0.0827  0.3387
 6712SOL    HW131772   2.192   1.090   8.471  1.1615 -1.4714 -0.6912
 6712SOL    HW231773   2.141   0.978   8.398 -3.6782 -1.6226  0.5281
 6713SOL     OW31774   0.221   2.629   6.293 -0.4768 -0.6257  0.2920
 6713SOL    HW131775   0.206   2.556   6.353 -0.2425 -1.0953 -0.2208
 6713SOL    HW231776   0.160   2.692   6.331 -0.3032 -1.0814  1.3297
 6714SOL     OW31777   0.414   2.195   5.345  0.9828  0.3450  0.0210
 6714SOL    HW131778   0.365   2.117   5.321  0.8764  0.3519  0.2174
 6714SOL    HW231779   0.490   2.194   5.286  1.4899 -2.1284  0.6998
 6715SOL     OW31780   2.533   1.696   5.446 -0.0120 -0.3461 -0.0229
 6715SOL    HW131781   2.437   1.702   5.444 -0.2352 -4.0548 -0.6621
 6715SOL    HW231782   2.561   1.669   5.358  2.0839  1.6846  0.0333
 6716SOL     OW31783   0.331   3.478  13.789  0.0098 -1.1510 -0.0285
 6716SOL    HW131784   0.310   3.485  13.696 -2.1349  0.5082  0.5794
 6716SOL    HW231785   0.386   3.401  13.802 -0.8022 -1.3284  2.3859
 6717SOL     OW31786   1.236   1.445  12.876  0.0789  0.0954  0.0551
 6717SOL    HW131787   1.170   1.480  12.936  0.0990 -0.1372  0.2128
 6717SOL    HW231788   1.238   1.358  12.916  0.5746  0.0365 -0.0993
 6718SOL     OW31789   1.072   2.436   8.830 -0.1341 -0.2873  0.3747
 6718SOL    HW131790   1.122   2.498   8.884  0.8710  0.1375 -1.0400
 6718SOL    HW231791   0.990   2.480   8.805  1.5139  3.0723  0.8114
 6719SOL     OW31792   4.701   3.209   7.075 -0.3146 -0.0247  0.2600
 6719SOL    HW131793   4.630   3.147   7.061 -2.2444  1.8958  1.6320
 6719SOL    HW231794   0.023   3.153   7.125  0.9024  0.8593 -0.1779
 6720SOL     OW31795   3.812   0.735   8.101 -0.0625 -0.1235  0.4049
 6720SOL    HW131796   3.874   0.795   8.058 -1.3691  1.5461  0.8468
 6720SOL    HW231797   3.834   0.652   8.059 -2.0407 -0.6570  0.4444
 6721SOL     OW31798   0.923   1.208   5.768 -0.5343 -0.2592 -0.2133
 6721SOL    HW131799   0.931   1.285   5.711  2.4315  0.1692  0.7938
 6721SOL    HW231800   0.995   1.156   5.733 -0.2772 -0.4477  0.6094
 6722SOL     OW31801   4.280   1.042   8.037  0.4359  0.8934  0.0899
 6722SOL    HW131802   4.340   1.054   7.964  2.2951  2.3726  1.8385
 6722SOL    HW231803   4.295   0.952   8.065 -0.8871  0.6437  0.0114
 6723SOL     OW31804   0.048   0.847   1.963  0.0370 -0.4042  0.2682
 6723SOL    HW131805   0.109   0.866   1.892 -0.3100 -0.2373  0.0092
 6723SOL    HW231806   0.082   0.760   1.982  1.6041 -0.2956 -2.0866
 6724SOL     OW31807   0.920   3.873  13.273  0.1127 -0.5429  0.7763
 6724SOL    HW131808   0.986   3.930  13.233  1.1921 -2.2677  0.1154
 6724SOL    HW231809   0.958   3.842  13.354  1.2052  0.4500  0.6396
 6725SOL     OW31810   1.144   3.624   0.083  0.2916 -0.0512  0.2042
 6725SOL    HW131811   1.200   3.687   0.037 -1.6900 -0.6421 -3.0580
 6725SOL    HW231812   1.172   3.621   0.174  0.5600  2.4412  0.1993
 6726SOL     OW31813   3.659   2.027   3.299 -0.3348  0.2334 -0.3934
 6726SOL    HW131814   3.683   1.978   3.220  0.2672 -1.5501  0.8882
 6726SOL    HW231815   3.747   2.048   3.331 -1.5268  0.3638  2.7026
 6727SOL     OW31816   0.441   2.770   2.265  0.1359 -0.1503  0.3411
 6727SOL    HW131817   0.358   2.812   2.284 -0.6710 -0.4652 -2.5082
 6727SOL    HW231818   0.429   2.681   2.299  4.1344 -0.8991 -0.1474
 6728SOL     OW31819   4.240   3.504  16.028  0.8669  0.0306  0.3168
 6728SOL    HW131820   4.215   3.538  15.942  0.6037  0.2427  0.4768
 6728SOL    HW231821   4.324   3.550  16.036  0.4296  1.0994 -1.1334
 6729SOL     OW31822   0.572   2.403   7.819  0.6773 -0.5117 -0.4844
 6729SOL    HW131823   0.665   2.408   7.798  0.6604 -0.8114 -0.6264
 6729SOL    HW231824   0.544   2.365   7.735  0.0351  0.0855 -0.5473
 6730SOL     OW31825   0.134   4.243   8.960  0.3099  0.2970 -0.0634
 6730SOL    HW131826   0.115   4.158   8.999  2.2072 -0.4607 -0.7987
 6730SOL    HW231827   0.127   4.225   8.867  0.8694 -0.3638  0.0172
 6731SOL     OW31828   3.945   0.305   0.531  0.1101 -0.2169 -0.2996
 6731SOL    HW131829   3.926   0.329   0.440  0.9738  0.5270 -0.2837
 6731SOL    HW231830   3.952   0.392   0.570 -1.8773 -1.0177  1.8336
 6732SOL     OW31831   0.440   2.401   8.518 -0.1645  0.2096  0.0634
 6732SOL    HW131832   0.421   2.470   8.582 -1.2562  0.6781 -0.7591
 6732SOL    HW231833   0.534   2.416   8.507  0.4034 -1.9541  1.8631
 6733SOL     OW31834   1.980   4.502   7.743 -0.0682 -0.2669 -0.1385
 6733SOL    HW131835   2.027   4.423   7.719 -3.0200 -2.3879  1.0594
 6733SOL    HW231836   1.983   4.496   7.839 -0.1537 -0.4599 -0.1470
 6734SOL     OW31837   3.170   0.202   4.205  0.1177 -0.6747 -0.3102
 6734SOL    HW131838   3.201   0.285   4.242  2.7376 -0.6515 -2.4913
 6734SOL    HW231839   3.121   0.242   4.132  2.0807  0.4643 -1.0066
 6735SOL     OW31840   2.436   4.512   3.170 -0.1658  0.4218  0.1412
 6735SOL    HW131841   2.504   4.453   3.140 -1.7264 -1.1213 -0.3772
 6735SOL    HW231842   2.492   4.572   3.220  0.6035 -0.5790  0.4573
 6736SOL     OW31843   2.254   4.592   5.368 -0.2199  0.0229  0.2337
 6736SOL    HW131844   2.287   4.568   5.281  1.8605 -1.3805  1.4021
 6736SOL    HW231845   2.162   4.617   5.360 -0.5724 -2.2753 -2.8680
 6737SOL     OW31846   2.737   2.697   9.439  0.6397  0.0812  0.8371
 6737SOL    HW131847   2.719   2.603   9.440  0.9637 -0.0188 -1.9981
 6737SOL    HW231848   2.832   2.692   9.448  0.8760 -0.6823 -2.1741
 6738SOL     OW31849   4.634   2.210   2.112 -0.3039 -0.1715 -0.2553
 6738SOL    HW131850   4.580   2.133   2.125  0.2623 -0.6295 -0.5748
 6738SOL    HW231851   4.702   2.194   2.177 -0.9554 -2.1429 -0.0820
 6739SOL     OW31852   3.624   2.650   8.219  0.1804 -0.0258  0.1736
 6739SOL    HW131853   3.711   2.621   8.190  0.4742  0.4680  0.5573
 6739SOL    HW231854   3.575   2.577   8.258 -0.8546 -0.6358 -2.2671
 6740SOL     OW31855   4.415   2.912   7.566 -0.9656 -0.5803 -0.2946
 6740SOL    HW131856   4.375   2.833   7.602 -2.2762  0.6883  1.0640
 6740SOL    HW231857   4.506   2.899   7.593 -0.6059 -1.0495 -1.7366
 6741SOL     OW31858   1.743   2.628   4.365 -0.0299  0.3396 -0.0852
 6741SOL    HW131859   1.806   2.556   4.356 -0.4690 -0.2899  1.8485
 6741SOL    HW231860   1.728   2.623   4.459  0.6180  0.5163  0.0321
 6742SOL     OW31861   2.377   0.493   5.562 -0.9685 -0.3095  0.4020
 6742SOL    HW131862   2.420   0.464   5.642  0.0066 -0.7399 -0.2830
 6742SOL    HW231863   2.283   0.492   5.580 -1.2155  1.5406 -0.7766
 6743SOL     OW31864   2.876   2.899  15.962 -0.9087 -0.0575  0.2454
 6743SOL    HW131865   2.861   2.882  15.869  0.5470  1.3570 -0.2444
 6743SOL    HW231866   2.878   2.808  15.991  0.1659 -0.2553 -0.4551
 6744SOL     OW31867   3.380   4.098   6.989 -0.0501 -0.1906 -0.0628
 6744SOL    HW131868   3.325   4.176   6.995  0.4023  0.2171 -1.1805
 6744SOL    HW231869   3.319   4.026   6.997  0.2541 -0.3094  1.2116
 6745SOL     OW31870   3.611   0.082   5.833 -0.0326 -0.0984  0.7349
 6745SOL    HW131871   3.690   0.038   5.801 -1.5720 -1.6530 -0.9527
 6745SOL    HW231872   3.649   0.117   5.914  0.3051  1.5817 -0.1655
 6746SOL     OW31873   2.982   3.335   9.402  0.0198 -0.8954 -0.2036
 6746SOL    HW131874   3.056   3.377   9.358  1.2204 -2.7833  0.0209
 6746SOL    HW231875   2.950   3.408   9.456  0.4048 -0.3131 -0.7584
 6747SOL     OW31876   4.602   3.805   3.735  0.3899 -0.3184  0.3363
 6747SOL    HW131877   4.640   3.888   3.707  3.6057 -1.9562 -0.1306
 6747SOL    HW231878   4.588   3.764   3.649 -0.8975  0.4566  0.1780
 6748SOL     OW31879   1.857   3.990   1.230 -0.1178  0.1417 -0.1447
 6748SOL    HW131880   1.774   4.034   1.251  0.6755  1.7449 -0.3530
 6748SOL    HW231881   1.914   4.019   1.302 -0.8527  2.2296 -0.3842
 6749SOL     OW31882   2.722   3.024   2.892 -0.0064 -0.2321  0.2703
 6749SOL    HW131883   2.680   3.023   2.806 -0.0999 -0.6779  0.3203
 6749SOL    HW231884   2.710   2.932   2.918 -0.9416 -0.7970 -2.1010
 6750SOL     OW31885   4.337   3.473   2.397 -0.2979  0.3694  0.1167
 6750SOL    HW131886   4.243   3.487   2.407  0.0687  3.4745 -0.8862
 6750SOL    HW231887   4.358   3.455   2.489  0.1949 -0.9332 -0.2427
 6751SOL     OW31888   1.078   1.268   3.184  0.3951  0.1541 -0.3092
 6751SOL    HW131889   1.142   1.247   3.116  1.1585 -2.6300  1.2507
 6751SOL    HW231890   1.105   1.204   3.250  0.5339  1.1706  0.6039
 6752SOL     OW31891   2.231   1.817  11.394  0.2915  0.1367  0.7629
 6752SOL    HW131892   2.203   1.852  11.478 -0.9561  1.1408 -0.0791
 6752SOL    HW231893   2.154   1.798  11.340 -0.2108 -0.6723  1.7686
 6753SOL     OW31894   3.641   3.512   1.086  0.7765  0.4663 -0.2033
 6753SOL    HW131895   3.633   3.522   0.991  0.4907  1.2631 -0.1013
 6753SOL    HW231896   3.720   3.563   1.105  2.2060 -0.7191 -2.9802
 6754SOL     OW31897   1.005   0.315   7.067  0.2966 -0.3616 -0.0083
 6754SOL    HW131898   0.991   0.311   6.972  1.8387  0.8310 -0.2901
 6754SOL    HW231899   1.078   0.254   7.072  0.5763  0.0618  0.9048
 6755SOL     OW31900   2.230   0.662  13.862 -0.2382  0.1432 -0.4520
 6755SOL    HW131901   2.183   0.658  13.945  0.1413 -0.5035 -0.2755
 6755SOL    HW231902   2.316   0.624  13.878 -1.4857 -1.7741  1.6329
 6756SOL     OW31903   3.897   2.680   2.293  0.3051  0.0272 -0.1679
 6756SOL    HW131904   3.893   2.740   2.367 -1.0381 -2.7250  2.0269
 6756SOL    HW231905   3.857   2.610   2.345  1.1949  0.0930  0.6022
 6757SOL     OW31906   0.795   0.297   3.199 -0.6883 -0.3831 -0.5501
 6757SOL    HW131907   0.877   0.280   3.153  0.2951 -0.3893  1.1982
 6757SOL    HW231908   0.758   0.213   3.171 -1.0047 -0.4481  0.0592
 6758SOL     OW31909   3.419   0.861   2.545  0.1544 -0.0478 -0.5466
 6758SOL    HW131910   3.397   0.918   2.471 -0.2804  0.2091 -0.2232
 6758SOL    HW231911   3.365   0.782   2.541  0.4106 -0.2219 -0.5867
 6759SOL     OW31912   3.637   3.332  17.037  0.1466 -0.1954 -0.2321
 6759SOL    HW131913   3.709   3.272  17.018 -1.1174 -1.7323 -0.1397
 6759SOL    HW231914   3.640   3.388  16.959 -0.3603  0.3149  0.1182
 6760SOL     OW31915   2.099   3.039   8.603  0.7316  0.0467 -0.1363
 6760SOL    HW131916   2.175   3.072   8.555 -0.6617  0.7375 -1.8691
 6760SOL    HW231917   2.040   3.106   8.569 -0.8702 -1.8163 -1.0433
 6761SOL     OW31918   0.624   1.384   2.075 -0.5873  0.4888 -0.1142
 6761SOL    HW131919   0.668   1.364   1.992  0.3295 -1.1296  0.7675
 6761SOL    HW231920   0.534   1.356   2.061 -0.5333 -0.4400  1.3940
 6762SOL     OW31921   2.792   1.854   8.899  0.3707 -0.0971  0.3338
 6762SOL    HW131922   2.817   1.762   8.900  1.0861  0.0654 -2.9366
 6762SOL    HW231923   2.789   1.866   8.804  0.8643  0.9161  0.4446
 6763SOL     OW31924   2.455   3.646   6.796  0.1861  0.1443  0.0239
 6763SOL    HW131925   2.478   3.611   6.710  2.4459  1.0239  0.2591
 6763SOL    HW231926   2.378   3.695   6.766 -0.2930 -0.6381 -0.0311
 6764SOL     OW31927   3.076   3.654   3.985 -0.2465 -0.6672  0.2861
 6764SOL    HW131928   2.996   3.603   3.976  0.8296 -2.5297  1.1832
 6764SOL    HW231929   3.043   3.738   4.017  0.3237 -0.5019  0.4339
 6765SOL     OW31930   1.104   4.723  10.872 -0.0348 -0.5328 -0.2960
 6765SOL    HW131931   1.061   4.726  10.958  0.1472 -1.2257 -0.1799
 6765SOL    HW231932   1.157   4.647  10.894 -2.1762 -1.2170  2.4389
 6766SOL     OW31933   2.554   2.398   9.528  0.3066  0.0821 -1.0651
 6766SOL    HW131934   2.593   2.407   9.441  0.6544 -1.8727 -1.1278
 6766SOL    HW231935   2.571   2.306   9.551 -1.4654 -0.6264 -2.6333
 6767SOL     OW31936   3.504   4.324   6.393  0.5394 -0.2913 -0.4031
 6767SOL    HW131937   3.575   4.296   6.452 -0.6576 -1.0769  0.6602
 6767SOL    HW231938   3.443   4.255   6.416  0.6963 -0.9920 -2.1089
 6768SOL     OW31939   3.352   0.137   8.920 -0.3499  0.0698  0.4080
 6768SOL    HW131940   3.438   0.177   8.938 -0.1455  0.2877 -1.1239
 6768SOL    HW231941   3.320   0.207   8.865  0.0063 -1.6863 -2.0282
 6769SOL     OW31942   3.889   1.783   4.825 -0.1666  0.2838 -0.6109
 6769SOL    HW131943   3.896   1.714   4.891 -0.6959  0.0435 -0.8081
 6769SOL    HW231944   3.936   1.737   4.755  2.3286  0.3395  1.0411
 6770SOL     OW31945   3.943   1.302   9.574 -0.7905  0.6256 -0.0560
 6770SOL    HW131946   3.950   1.206   9.571  0.7461  0.7244  0.3168
 6770SOL    HW231947   3.866   1.305   9.630 -0.4643 -1.0565  0.5001
 6771SOL     OW31948   3.205   2.879   0.461 -0.7350  0.5165 -0.4353
 6771SOL    HW131949   3.112   2.879   0.437 -0.3643 -2.4164 -1.8783
 6771SOL    HW231950   3.204   2.927   0.544  1.0068  3.0746 -1.8830
 6772SOL     OW31951   1.380   4.248   9.602  0.7346  0.6064 -0.0436
 6772SOL    HW131952   1.315   4.318   9.603  1.7132  1.5328 -0.5092
 6772SOL    HW231953   1.404   4.243   9.695  0.9588  0.5054 -0.1074
 6773SOL     OW31954   1.279   3.035   9.735 -0.6039  0.1766  0.2637
 6773SOL    HW131955   1.365   2.997   9.751  0.1111  1.4489 -0.5076
 6773SOL    HW231956   1.244   3.041   9.824  0.5886 -0.9581  0.8095
 6774SOL     OW31957   2.520   2.393   3.978  0.5632  0.0914 -0.5223
 6774SOL    HW131958   2.598   2.444   3.956  0.9254 -1.4948 -2.8855
 6774SOL    HW231959   2.552   2.322   4.034  1.6804  0.0813 -1.1708
 6775SOL     OW31960   2.274   2.023   6.873  0.5004  0.1124 -0.1046
 6775SOL    HW131961   2.364   1.996   6.859 -0.1572 -0.4594 -3.4275
 6775SOL    HW231962   2.240   1.974   6.798  0.8826  1.0073 -0.8726
 6776SOL     OW31963   3.394   1.810   8.173  1.3031  0.1861  0.3174
 6776SOL    HW131964   3.417   1.722   8.143  0.7434 -1.4752  4.6675
 6776SOL    HW231965   3.317   1.829   8.119  0.2937 -0.3177  1.5637
 6777SOL     OW31966   4.658   3.435   2.532  0.2871 -0.0264  0.1426
 6777SOL    HW131967   4.565   3.439   2.555  0.0665 -1.4585 -0.4488
 6777SOL    HW231968   4.651   3.383   2.452 -2.1147  1.6884 -0.7570
 6778SOL     OW31969   1.493   2.472   1.778  0.3616  0.0177 -0.2018
 6778SOL    HW131970   1.440   2.465   1.698  0.6439  1.0210 -0.4735
 6778SOL    HW231971   1.581   2.445   1.751  1.2048  3.1702 -0.6270
 6779SOL     OW31972   0.171   0.892   7.858  0.1037 -0.0395 -0.1518
 6779SOL    HW131973   0.231   0.917   7.929  2.0996 -1.4386 -1.3459
 6779SOL    HW231974   0.138   0.807   7.885  1.7394  0.0894  2.3177
 6780SOL     OW31975   2.099   0.834  17.125  0.1686 -1.1997  0.1198
 6780SOL    HW131976   2.057   0.883  17.196  0.9665 -0.1614 -0.1239
 6780SOL    HW231977   2.163   0.896  17.091 -3.6643  1.7612 -1.6297
 6781SOL     OW31978   0.694   4.135   9.507 -0.5388  0.2143  0.4289
 6781SOL    HW131979   0.660   4.140   9.418  1.9893  2.2012 -0.4394
 6781SOL    HW231980   0.736   4.050   9.516 -0.3360  0.3406  0.6824
 6782SOL     OW31981   1.588   0.607   5.178 -0.0252 -0.3248  0.5496
 6782SOL    HW131982   1.563   0.529   5.228 -1.2905 -0.0397  0.3665
 6782SOL    HW231983   1.667   0.567   5.143 -0.7355  1.4127 -3.0376
 6783SOL     OW31984   2.541   0.106   5.829  0.1227  0.2501 -0.6331
 6783SOL    HW131985   2.525   0.114   5.923  1.6276  0.1741 -0.3708
 6783SOL    HW231986   2.570   0.015   5.832  1.0082  0.4520 -3.3327
 6784SOL     OW31987   1.227   0.757  12.264 -0.1615 -0.8840  0.3567
 6784SOL    HW131988   1.179   0.835  12.237 -0.6025 -1.6688 -1.1828
 6784SOL    HW231989   1.266   0.723  12.183 -0.8386  0.0749 -0.3647
 6785SOL     OW31990   0.292   2.871  15.082  0.1158  0.1266 -0.1521
 6785SOL    HW131991   0.242   2.939  15.037  0.9856  2.4995  2.4855
 6785SOL    HW231992   0.377   2.915  15.084  0.0910  0.2317 -2.2114
 6786SOL     OW31993   1.592   2.710   8.407  0.1595 -0.2743 -0.0718
 6786SOL    HW131994   1.498   2.704   8.425  0.2133 -1.6655 -0.2249
 6786SOL    HW231995   1.622   2.763   8.480  0.4251  0.1555 -0.4999
 6787SOL     OW31996   1.613   1.224  15.965 -0.7600 -0.0083 -0.3743
 6787SOL    HW131997   1.631   1.261  15.879  0.1466  0.7977  0.1700
 6787SOL    HW231998   1.577   1.301  16.010 -0.6835  0.2146 -0.6969
 6788SOL     OW31999   1.430   2.150   4.318 -0.4971  0.1299 -0.4296
 6788SOL    HW132000   1.356   2.184   4.267 -2.2338  1.1788  2.7937
 6788SOL    HW232001   1.441   2.225   4.376  0.9189  0.2716 -0.8835
 6789SOL     OW32002   3.774   2.409  17.392 -0.3067 -0.5263 -0.3491
 6789SOL    HW132003   3.868   2.409  17.377 -0.2442  0.1527  0.0399
 6789SOL    HW232004   3.764   2.489  17.341 -0.2647  0.0298  0.5198
 6790SOL     OW32005   4.178   4.121   5.053 -0.0355 -0.1502 -0.0135
 6790SOL    HW132006   4.085   4.135   5.035  0.9036  3.2592 -2.2027
 6790SOL    HW232007   4.175   4.092   5.144  3.0483  0.9986  0.4280
 6791SOL     OW32008   4.418   3.760   0.497 -0.2634 -0.3953  0.1053
 6791SOL    HW132009   4.500   3.720   0.469  1.3504  2.1307  1.2764
 6791SOL    HW232010   4.376   3.682   0.534 -1.1187  0.2216  0.4396
 6792SOL     OW32011   2.187   0.102   9.955 -0.4612 -0.2165 -0.3447
 6792SOL    HW132012   2.277   0.108   9.925 -0.3363 -0.0857  0.0551
 6792SOL    HW232013   2.202   0.110  10.050 -0.4563 -1.3531 -0.2508
 6793SOL     OW32014   4.379   0.580  17.181  0.0426  0.3185 -0.7006
 6793SOL    HW132015   4.441   0.640  17.139 -0.1369  1.6016  0.8515
 6793SOL    HW232016   4.386   0.589  17.276  0.6549  0.2427 -0.7392
 6794SOL     OW32017   3.241   1.770  14.972  0.3800  0.3328  0.3198
 6794SOL    HW132018   3.154   1.789  14.935  1.8572  3.4023 -1.6068
 6794SOL    HW232019   3.288   1.733  14.898 -0.9223  1.8639 -1.2788
 6795SOL     OW32020   3.168   2.403  12.692  0.1224  0.4777 -0.5567
 6795SOL    HW132021   3.225   2.469  12.653 -0.1192  0.9928 -0.0389
 6795SOL    HW232022   3.166   2.427  12.784 -2.8467  0.3529 -0.5979
 6796SOL     OW32023   0.383   1.254   5.686  0.2660 -0.4733  0.4963
 6796SOL    HW132024   0.372   1.213   5.600 -0.3190 -0.3278  0.5009
 6796SOL    HW232025   0.479   1.253   5.692  0.1702  1.7869  2.7217
 6797SOL     OW32026   4.128   2.435  11.286 -0.6529  0.0695  0.1075
 6797SOL    HW132027   4.096   2.511  11.335 -4.4062 -1.0608 -0.5856
 6797SOL    HW232028   4.143   2.480  11.203 -1.2496 -2.2593 -1.2552
 6798SOL     OW32029   0.488   0.112   5.575  0.1665 -0.1036  0.3663
 6798SOL    HW132030   0.578   0.115   5.607 -0.1218 -0.8869  1.2613
 6798SOL    HW232031   0.484   0.024   5.537  0.1512  0.4551 -0.9283
 6799SOL     OW32032   0.931   3.626   2.808  0.1570  0.6763 -0.3482
 6799SOL    HW132033   0.838   3.613   2.826  0.3187 -0.5650 -0.3578
 6799SOL    HW232034   0.938   3.717   2.837  1.1150 -0.1157  1.8537
 6800SOL     OW32035   3.137   3.631   7.294  0.1606  0.0821 -0.3316
 6800SOL    HW132036   3.054   3.658   7.333 -0.5393  0.2452 -1.9336
 6800SOL    HW232037   3.167   3.575   7.366 -0.3493 -1.1992 -1.1224
 6801SOL     OW32038   3.218   2.872   8.329 -0.4625 -0.0681  0.2529
 6801SOL    HW132039   3.133   2.851   8.369 -0.2427 -1.4359  0.0100
 6801SOL    HW232040   3.240   2.800   8.270 -0.2248 -0.7394  1.1583
 6802SOL     OW32041   0.898   2.447   4.120 -0.2145 -0.1124  0.2661
 6802SOL    HW132042   0.814   2.463   4.077  0.5037 -0.3837 -1.2332
 6802SOL    HW232043   0.873   2.369   4.170 -1.8747 -0.7916 -1.6315
 6803SOL     OW32044   3.888   0.334  16.925  0.7627 -0.3591 -0.0858
 6803SOL    HW132045   3.873   0.240  16.936  1.1962 -0.5560 -1.2379
 6803SOL    HW232046   3.982   0.346  16.933  0.7804 -0.6128  0.0699
 6804SOL     OW32047   4.139   0.190   8.921  0.1922 -0.6821  0.5280
 6804SOL    HW132048   4.126   0.240   8.841  0.4871 -1.4872 -0.0290
 6804SOL    HW232049   4.151   0.104   8.881 -0.8306 -1.2417  1.4224
 6805SOL     OW32050   2.841   3.162   4.429  0.2566  0.2501  0.2045
 6805SOL    HW132051   2.837   3.114   4.512  3.1157  2.2642  1.5035
 6805SOL    HW232052   2.766   3.221   4.438 -0.3973 -0.5489  0.0009
 6806SOL     OW32053   2.981   3.636   8.339 -0.5464 -0.4007 -0.8470
 6806SOL    HW132054   3.032   3.670   8.412 -1.3839  2.0693 -1.4402
 6806SOL    HW232055   3.036   3.628   8.261  0.4538 -1.6193 -0.0266
 6807SOL     OW32056   1.736   1.827  16.043 -0.2698 -0.4578 -0.2015
 6807SOL    HW132057   1.687   1.869  15.972 -0.4747 -0.3100  0.0294
 6807SOL    HW232058   1.769   1.755  15.989  0.9269  0.4147 -0.6614
 6808SOL     OW32059   2.197   1.504   8.465 -0.3631  0.1312  0.3622
 6808SOL    HW132060   2.143   1.516   8.543  0.6082 -0.0238  1.0664
 6808SOL    HW232061   2.249   1.584   8.474 -0.2258 -0.0147  0.8957
 6809SOL     OW32062   4.253   0.997  11.382 -0.0260 -0.9063 -0.2723
 6809SOL    HW132063   4.182   1.054  11.413  0.3491 -0.4537 -0.2356
 6809SOL    HW232064   4.204   0.927  11.339  0.7050 -0.8081 -1.2566
 6810SOL     OW32065   2.239   3.847  14.256 -0.0427  0.3134 -0.7594
 6810SOL    HW132066   2.193   3.926  14.285  1.1965  0.4599  0.8311
 6810SOL    HW232067   2.285   3.821  14.337 -2.6958  0.0485  0.6707
 6811SOL     OW32068   4.014   2.634   2.588 -0.0261  0.5607 -0.2252
 6811SOL    HW132069   4.064   2.708   2.554  0.7872 -0.4083 -1.1284
 6811SOL    HW232070   3.962   2.674   2.658 -0.8695 -0.8606 -0.0533
 6812SOL     OW32071   0.806   4.695   5.285 -0.5859  0.2645  0.1407
 6812SOL    HW132072   0.815   0.001   5.200  0.6133 -2.0627 -0.9216
 6812SOL    HW232073   0.810   0.029   5.348  2.5400  0.9313 -0.8611
 6813SOL     OW32074   4.112   1.819   7.576 -0.0381 -0.1745  0.7415
 6813SOL    HW132075   4.205   1.818   7.598 -0.1972  1.7937  1.5213
 6813SOL    HW232076   4.092   1.726   7.582  1.0119 -0.2473  2.8695
 6814SOL     OW32077   0.325   1.619   5.614 -0.5021 -0.0665 -0.7336
 6814SOL    HW132078   0.266   1.583   5.548  0.4341 -0.4403 -1.3587
 6814SOL    HW232079   0.317   1.713   5.600  0.5090 -0.2615 -2.6449
 6815SOL     OW32080   0.030   2.469   8.233  0.2548  0.6110 -0.6248
 6815SOL    HW132081   0.084   2.498   8.160  0.8233 -1.6156 -1.0779
 6815SOL    HW232082   0.105   2.469   8.292 -0.9553 -0.0657  0.9293
 6816SOL     OW32083   2.985   0.585   8.179 -0.1712  0.0920 -0.3378
 6816SOL    HW132084   2.928   0.623   8.246  1.2397 -0.2898  1.0922
 6816SOL    HW232085   3.076   0.592   8.209 -0.0185 -0.8069 -0.6033
 6817SOL     OW32086   0.990   2.341  12.694  0.3480 -0.7254  0.2802
 6817SOL    HW132087   1.077   2.382  12.702 -1.1051  2.1556  1.5745
 6817SOL    HW232088   1.006   2.253  12.726 -3.3148 -0.5969  2.5242
 6818SOL     OW32089   2.916   2.688   4.317  0.0318 -0.0180  0.0808
 6818SOL    HW132090   2.995   2.638   4.339 -0.0210 -0.3582 -0.4997
 6818SOL    HW232091   2.957   2.771   4.291 -0.2223 -0.1305 -0.6858
 6819SOL     OW32092   2.563   3.604   9.691  0.2505 -0.6614 -0.2188
 6819SOL    HW132093   2.576   3.633   9.781 -0.1113  0.5790 -0.5590
 6819SOL    HW232094   2.570   3.510   9.708  2.3440 -0.3682  0.5687
 6820SOL     OW32095   1.131   4.482  16.610  0.3565  0.5892 -0.3246
 6820SOL    HW132096   1.136   4.577  16.600  0.6578  0.3626 -2.3129
 6820SOL    HW232097   1.099   4.455  16.524 -1.7749 -2.2142  1.3528
 6821SOL     OW32098   4.180   3.834   7.073 -0.2504 -0.3424 -0.0545
 6821SOL    HW132099   4.106   3.797   7.122  0.9746 -0.7743  1.4724
 6821SOL    HW232100   4.229   3.761   7.035  3.5382  1.5548  1.1892
 6822SOL     OW32101   1.163   2.204   5.281 -1.1946 -0.7899 -0.2127
 6822SOL    HW132102   1.208   2.149   5.218 -1.5810 -0.2416 -0.9636
 6822SOL    HW232103   1.223   2.278   5.283  0.4033 -2.1009  0.9973
 6823SOL     OW32104   1.933   0.116   2.420  0.6899 -0.2741  0.4619
 6823SOL    HW132105   1.870   0.051   2.389 -0.1151  0.6735  0.1277
 6823SOL    HW232106   1.880   0.191   2.448  1.0657 -0.8623  2.7237
 6824SOL     OW32107   1.044   2.013   1.919  0.6286 -0.4915 -0.1578
 6824SOL    HW132108   1.033   1.918   1.909 -1.2583 -0.3018  0.0733
 6824SOL    HW232109   0.988   2.049   1.987  0.2012  0.4382 -1.0047
 6825SOL     OW32110   2.217   3.436  13.664 -0.1859 -0.4688  0.7255
 6825SOL    HW132111   2.269   3.356  13.664 -0.9781 -0.9768 -0.7529
 6825SOL    HW232112   2.233   3.479  13.748  1.5880 -0.8908  0.5983
 6826SOL     OW32113   0.372   4.594   1.638 -0.1870 -0.2238  0.2315
 6826SOL    HW132114   0.335   4.619   1.553 -0.9060  2.4930  1.3292
 6826SOL    HW232115   0.302   4.549   1.686 -0.8364 -0.4294 -0.9024
 6827SOL     OW32116   0.363   0.448   6.651  0.4421 -0.0679 -0.3105
 6827SOL    HW132117   0.407   0.370   6.616 -0.0587 -0.1050 -0.8549
 6827SOL    HW232118   0.364   0.508   6.577  3.0074 -1.4255 -1.3979
 6828SOL     OW32119   0.231   1.260  15.820 -0.6033  0.4625  0.2233
 6828SOL    HW132120   0.145   1.218  15.825 -1.0698  1.3850 -0.1618
 6828SOL    HW232121   0.274   1.243  15.904 -1.1409  0.0037  0.4067
 6829SOL     OW32122   0.295   3.596   8.144 -0.1669 -0.3890  0.1004
 6829SOL    HW132123   0.313   3.665   8.080 -2.3840 -2.2249 -2.5169
 6829SOL    HW232124   0.202   3.604   8.165  0.1922  1.2885  1.0661
 6830SOL     OW32125   2.862   3.478   4.256  0.4174 -0.2161  0.1365
 6830SOL    HW132126   2.791   3.480   4.192 -0.9835 -2.0729  1.6280
 6830SOL    HW232127   2.853   3.569   4.285  3.5475 -0.0897  0.7112
 6831SOL     OW32128   4.491   3.876  12.287  0.5160  0.4407 -0.0560
 6831SOL    HW132129   4.510   3.967  12.267 -2.0898  1.1360  0.5666
 6831SOL    HW232130   4.396   3.875  12.274  0.7398  2.3524 -1.7967
 6832SOL     OW32131   1.916   1.232   0.836 -0.1306 -0.4996 -0.3010
 6832SOL    HW132132   1.982   1.293   0.868 -1.3265  1.1403 -0.9646
 6832SOL    HW232133   1.950   1.150   0.871 -0.7235 -2.0737 -3.4280
 6833SOL     OW32134   1.764   4.685   7.904 -0.4345  0.2692 -0.0912
 6833SOL    HW132135   1.836   4.731   7.861  0.0400 -1.6554 -1.3350
 6833SOL    HW232136   1.807   4.603   7.927 -1.7566  0.2846  2.4548
 6834SOL     OW32137   1.534   2.001   5.163  0.1686 -0.2475  0.0413
 6834SOL    HW132138   1.498   2.031   5.080  3.7944  1.7878 -0.8138
 6834SOL    HW232139   1.498   1.912   5.159 -2.2663  0.9455 -3.7170
 6835SOL     OW32140   0.982   1.174   2.455  0.3319 -0.0186  0.0059
 6835SOL    HW132141   0.924   1.145   2.385 -1.1887  0.1057  1.2116
 6835SOL    HW232142   0.949   1.129   2.533  0.4632 -0.1456 -0.0125
 6836SOL     OW32143   1.322   1.764   3.727 -0.0838 -0.0714 -0.0274
 6836SOL    HW132144   1.398   1.759   3.668  0.2765  1.8168  0.2917
 6836SOL    HW232145   1.277   1.681   3.710  1.4287 -0.8244 -0.3955
 6837SOL     OW32146   2.172   2.054  16.068 -0.1460 -0.0583 -0.3991
 6837SOL    HW132147   2.104   2.101  16.116 -0.4319 -1.8108  0.8936
 6837SOL    HW232148   2.125   2.018  15.993 -1.4059 -2.1661  1.4019
 6838SOL     OW32149   3.439   2.355   5.998  0.4319  0.1280  0.5146
 6838SOL    HW132150   3.432   2.280   6.057  1.2811  0.1782  0.6755
 6838SOL    HW232151   3.352   2.396   6.008 -0.1564 -0.1228 -3.9310
 6839SOL     OW32152   1.741   3.720  15.510 -0.1832 -0.1371  0.4382
 6839SOL    HW132153   1.735   3.632  15.472 -1.7453  0.8446 -1.5543
 6839SOL    HW232154   1.835   3.733  15.527 -0.1550 -0.5526  0.6081
 6840SOL     OW32155   2.111   2.185  15.724 -0.1605  0.1278 -0.1322
 6840SOL    HW132156   2.058   2.135  15.785  0.1288 -1.1183 -0.9146
 6840SOL    HW232157   2.058   2.261  15.698  0.7583  1.9285  3.2961
 6841SOL     OW32158   4.123   1.417   9.011 -0.4784 -0.6746 -0.0423
 6841SOL    HW132159   4.028   1.408   9.011 -0.5459  0.0269  0.2055
 6841SOL    HW232160   4.132   1.492   8.953  1.5315 -0.8696  0.0031
 6842SOL     OW32161   0.720   2.199   8.953  0.6878 -0.2012  0.2175
 6842SOL    HW132162   0.678   2.114   8.970 -1.8826  1.1468  0.5457
 6842SOL    HW232163   0.743   2.224   9.042  1.6467  0.5373 -0.2421
 6843SOL     OW32164   4.687   3.570   3.903 -0.3056  0.1961 -0.2794
 6843SOL    HW132165   4.646   3.623   3.835  0.4889  1.6275  0.3684
 6843SOL    HW232166   4.676   3.634   3.973  0.2523  0.1766 -0.1751
 6844SOL     OW32167   2.998   4.311   8.591  0.1222  0.1292  0.8403
 6844SOL    HW132168   2.985   4.229   8.639  0.7388 -0.5344 -0.1211
 6844SOL    HW232169   2.955   4.284   8.511  0.3739 -1.7309  1.3120
 6845SOL     OW32170   2.468   2.515   2.915 -0.0876 -0.2204  0.6653
 6845SOL    HW132171   2.510   2.442   2.870 -0.1283  0.3275 -0.2718
 6845SOL    HW232172   2.501   2.585   2.859 -0.8491 -1.1051 -0.8773
 6846SOL     OW32173   2.803   2.124  16.016  0.3333 -0.0707  0.0549
 6846SOL    HW132174   2.722   2.111  15.966  0.2043 -0.7283  0.4386
 6846SOL    HW232175   2.847   2.040  16.008 -0.5847 -0.5818  0.3507
 6847SOL     OW32176   3.912   1.005  14.485 -0.5956  0.3773 -0.0307
 6847SOL    HW132177   3.942   1.095  14.498  1.3406 -0.5861  2.0545
 6847SOL    HW232178   3.863   0.986  14.564  0.7188  0.4405  0.7987
 6848SOL     OW32179   3.723   2.834   5.702  0.6374 -0.3888 -0.3099
 6848SOL    HW132180   3.694   2.902   5.642  0.5722 -0.2754 -0.1492
 6848SOL    HW232181   3.679   2.860   5.783 -2.1182 -2.0488 -1.2674
 6849SOL     OW32182   0.964   2.451  10.145  0.0123  0.2525 -0.2764
 6849SOL    HW132183   0.896   2.395  10.107  0.8445 -0.3970 -0.8068
 6849SOL    HW232184   0.912   2.501  10.208  0.2205  0.6339 -0.4074
 6850SOL     OW32185   1.149   2.173   4.240  0.0999 -0.4463  0.1944
 6850SOL    HW132186   1.123   2.162   4.149  1.7506  0.1044 -0.3446
 6850SOL    HW232187   1.194   2.257   4.230 -1.6709  0.4938  0.1292
 6851SOL     OW32188   3.863   0.035   5.721  0.0937 -0.2319 -0.0389
 6851SOL    HW132189   3.932   4.707   5.728  2.7479  2.2059 -3.2298
 6851SOL    HW232190   3.884   0.077   5.637 -0.2472 -1.6920 -0.8444
 6852SOL     OW32191   4.520   0.430   1.492 -0.7271  0.1453  0.1967
 6852SOL    HW132192   4.428   0.408   1.475 -0.4594 -0.0651 -1.0065
 6852SOL    HW232193   4.529   0.412   1.586 -1.5416 -0.6119  0.1367
 6853SOL     OW32194   2.912   0.808   5.026 -0.0922  0.8620 -0.1761
 6853SOL    HW132195   2.932   0.806   5.120  1.2182 -0.5352 -0.4689
 6853SOL    HW232196   2.996   0.797   4.981 -0.8912  0.7850 -1.6390
 6854SOL     OW32197   0.096   4.471  16.618 -0.2098 -0.1937 -0.0644
 6854SOL    HW132198   0.109   4.562  16.643 -1.4655 -0.5724  1.9496
 6854SOL    HW232199   0.004   4.473  16.646 -0.1386 -0.3641  0.1803
 6855SOL     OW32200   0.844   4.510  14.259 -0.2993  0.2957  0.3192
 6855SOL    HW132201   0.801   4.531  14.342  0.3502 -0.8198  0.9293
 6855SOL    HW232202   0.923   4.560  14.280  0.5758 -0.0201 -2.1771
 6856SOL     OW32203   2.527   1.977   6.075  0.3112 -0.1165  0.1583
 6856SOL    HW132204   2.557   1.951   5.988  2.2907 -0.0046  0.8135
 6856SOL    HW232205   2.488   2.062   6.052  0.4563  0.3242  1.5648
 6857SOL     OW32206   0.143   3.842  16.393 -0.0230  0.2028  0.2720
 6857SOL    HW132207   0.170   3.823  16.303 -0.9072 -2.1116  0.4797
 6857SOL    HW232208   0.048   3.828  16.403 -0.1141  0.0780 -0.8287
 6858SOL     OW32209   1.689   4.436   3.830  0.1163  0.4506 -0.2684
 6858SOL    HW132210   1.667   4.507   3.890 -0.0825 -1.3784  1.7942
 6858SOL    HW232211   1.617   4.445   3.767 -0.2092  0.4297  0.1052
 6859SOL     OW32212   2.778   1.590   2.373 -0.5555 -0.4376 -0.4350
 6859SOL    HW132213   2.739   1.513   2.331 -0.1395 -1.0105  0.2208
 6859SOL    HW232214   2.696   1.635   2.393 -0.1109 -0.8983  2.5816
 6860SOL     OW32215   4.225   4.261  16.942 -0.0591 -0.0632 -0.3079
 6860SOL    HW132216   4.175   4.184  16.968  0.4737 -0.2791  0.0904
 6860SOL    HW232217   4.213   4.256  16.847  0.2111 -0.4426 -0.3243
 6861SOL     OW32218   3.693   4.308   4.709 -0.0804 -0.3715 -0.0690
 6861SOL    HW132219   3.662   4.351   4.789 -0.0362 -0.6690  0.1065
 6861SOL    HW232220   3.686   4.383   4.649 -1.5572 -0.9194 -0.5754
 6862SOL     OW32221   4.315   0.640   7.252  0.2010  0.6943 -0.1951
 6862SOL    HW132222   4.308   0.735   7.257 -2.6294  0.4383  0.6460
 6862SOL    HW232223   4.387   0.620   7.312  0.1261  1.1593  0.0429
 6863SOL     OW32224   1.099   0.116   1.821  0.3834  0.1389 -0.5248
 6863SOL    HW132225   1.004   0.133   1.817  0.5400  0.9854 -0.6927
 6863SOL    HW232226   1.118   0.187   1.882 -2.1359 -0.3612  0.8304
 6864SOL     OW32227   3.111   2.803  15.278  0.0035 -0.0475  0.1672
 6864SOL    HW132228   3.085   2.893  15.297  0.6070 -0.0207  0.8611
 6864SOL    HW232229   3.051   2.749  15.330  1.8803  0.2626  2.6701
 6865SOL     OW32230   2.066   0.935   6.826  0.1799 -0.3085 -0.4496
 6865SOL    HW132231   2.061   0.852   6.873 -1.6594 -0.2926 -0.6355
 6865SOL    HW232232   2.089   0.999   6.894  0.1695  0.3079 -1.0186
 6866SOL     OW32233   2.125   0.412  11.983  0.1742  1.0803 -0.1994
 6866SOL    HW132234   2.054   0.474  11.999  0.9030  1.5093  1.2762
 6866SOL    HW232235   2.079   0.362  11.915  0.1121 -1.4275  1.6830
 6867SOL     OW32236   0.886   0.975  15.744 -0.0900 -0.2203 -0.0118
 6867SOL    HW132237   0.909   0.887  15.773  1.3337  0.2388  0.2413
 6867SOL    HW232238   0.851   0.954  15.657 -0.1876  1.5794 -0.4145
 6868SOL     OW32239   0.112   4.160   5.479  0.3312  0.2785 -0.2082
 6868SOL    HW132240   0.158   4.244   5.479 -0.6620  0.8150 -0.2073
 6868SOL    HW232241   0.024   4.189   5.456  1.5816  1.8898 -2.9975
 6869SOL     OW32242   1.926   3.044   1.124 -0.2378 -0.6927  0.2625
 6869SOL    HW132243   1.920   3.028   1.030 -0.9204  0.2198  0.1439
 6869SOL    HW232244   1.867   2.985   1.172 -1.2020 -0.5501 -0.7470
 6870SOL     OW32245   3.226   4.216   8.914  0.0140  0.0151  0.4411
 6870SOL    HW132246   3.219   4.145   8.850 -0.0710  0.4966 -0.0950
 6870SOL    HW232247   3.182   4.168   8.984  1.5864 -0.0541  1.3671
 6871SOL     OW32248   3.945   1.106  11.198 -0.6289 -0.2107  0.2810
 6871SOL    HW132249   4.034   1.129  11.227 -0.8847 -0.4377  1.2298
 6871SOL    HW232250   3.963   1.036  11.135 -0.2803 -0.0191  0.1651
 6872SOL     OW32251   3.911   4.052   4.296 -0.6974 -0.3212 -0.0111
 6872SOL    HW132252   3.841   4.060   4.230  0.2256  0.0267 -0.9584
 6872SOL    HW232253   3.899   4.124   4.357 -1.5839 -1.0788  0.7231
 6873SOL     OW32254   0.068   2.660   9.183 -0.1617  0.1663 -0.0003
 6873SOL    HW132255   4.719   2.640   9.217  0.6078 -1.0737  1.2404
 6873SOL    HW232256   0.062   2.755   9.172 -0.4405 -0.1339 -2.5077
 6874SOL     OW32257   3.479   3.570  10.161 -0.5034  0.0988 -0.0277
 6874SOL    HW132258   3.555   3.551  10.215 -1.6199 -2.0956  0.7526
 6874SOL    HW232259   3.520   3.576  10.075 -1.6234  1.6651 -0.4502
 6875SOL     OW32260   1.473   0.706   4.308 -0.0535  0.4317 -0.5013
 6875SOL    HW132261   1.469   0.766   4.234  2.1290  1.5964  0.3418
 6875SOL    HW232262   1.541   0.738   4.367  1.1951  0.8031 -2.1607
 6876SOL     OW32263   1.984   3.217   7.522  0.1638 -0.4499  0.7461
 6876SOL    HW132264   1.898   3.251   7.497  0.5789 -1.1607 -1.6850
 6876SOL    HW232265   1.971   3.122   7.513 -1.5009 -0.1496 -0.1763
 6877SOL     OW32266   1.543   0.162   1.819  0.2466 -0.5360 -0.0516
 6877SOL    HW132267   1.493   0.085   1.791 -0.4642  0.2625 -0.9874
 6877SOL    HW232268   1.630   0.122   1.815  0.0020 -0.9199 -1.6194
 6878SOL     OW32269   4.016   3.039  11.982  0.1808 -0.5254 -0.5745
 6878SOL    HW132270   4.014   3.040  11.886  0.4653 -1.4573 -0.5966
 6878SOL    HW232271   4.111   3.038  11.985  0.0828  0.3505  3.4507
 6879SOL     OW32272   0.361   1.224   3.984 -0.1896  0.5268  0.3634
 6879SOL    HW132273   0.416   1.195   3.911 -1.0652 -1.4987  0.5013
 6879SOL    HW232274   0.379   1.160   4.054  1.6655 -2.0258 -2.4358
 6880SOL     OW32275   2.357   0.493  11.684 -0.1921 -0.1263  0.0500
 6880SOL    HW132276   2.376   0.410  11.729 -1.6346 -0.0624  0.7894
 6880SOL    HW232277   2.277   0.473  11.635 -0.1908 -0.4181  0.1674
 6881SOL     OW32278   3.437   2.473   7.159  0.3812 -0.3176  0.3208
 6881SOL    HW132279   3.427   2.467   7.064  0.0002 -1.1557  0.4185
 6881SOL    HW232280   3.429   2.567   7.176 -0.2940  0.1602 -2.5614
 6882SOL     OW32281   3.630   3.887   1.714 -0.3998  0.6035  0.1074
 6882SOL    HW132282   3.624   3.935   1.796 -1.5494 -0.3736  0.5859
 6882SOL    HW232283   3.556   3.914   1.661 -0.1255  0.4479 -0.3580
 6883SOL     OW32284   0.541   0.614  12.382  0.0676  0.3044 -0.3900
 6883SOL    HW132285   0.471   0.561  12.420 -0.8434  0.8560 -1.3019
 6883SOL    HW232286   0.606   0.549  12.408 -0.1945  0.5330  0.8123
 6884SOL     OW32287   4.702   3.671   2.188  0.2131 -0.1594 -0.4668
 6884SOL    HW132288   4.714   3.744   2.127 -0.5761 -1.4348 -2.1426
 6884SOL    HW232289   4.695   3.598   2.127 -0.0055 -2.1476  1.9584
 6885SOL     OW32290   3.664   1.963   9.228  0.5281 -0.0719 -0.0314
 6885SOL    HW132291   3.657   1.893   9.293  1.9511 -0.3967 -0.2159
 6885SOL    HW232292   3.666   1.911   9.148 -1.1353  0.3889 -0.3682
 6886SOL     OW32293   2.665   0.398   0.574  0.0036  0.0518 -0.9763
 6886SOL    HW132294   2.662   0.303   0.559  3.6185  0.1298 -2.2901
 6886SOL    HW232295   2.754   0.409   0.608 -0.3311 -1.1487  0.3257
 6887SOL     OW32296   2.845   0.824   3.976  0.0785 -0.3794  0.2488
 6887SOL    HW132297   2.758   0.862   3.988 -1.0772 -2.3507 -1.9963
 6887SOL    HW232298   2.891   0.900   3.941  0.8458  0.4692  3.1081
 6888SOL     OW32299   2.381   3.195   7.447  0.4881 -0.5197 -0.0645
 6888SOL    HW132300   2.399   3.273   7.395 -1.5186 -1.2871 -1.9006
 6888SOL    HW232301   2.365   3.134   7.375  1.2146 -0.5900 -0.1743
 6889SOL     OW32302   1.467   1.608  14.420 -0.5142 -0.8880 -0.1429
 6889SOL    HW132303   1.532   1.664  14.380 -1.5213  0.6733  0.4232
 6889SOL    HW232304   1.522   1.556  14.479  0.0669  1.5803  1.4795
 6890SOL     OW32305   4.285   2.799   8.957 -0.1261  0.6238  0.4848
 6890SOL    HW132306   4.270   2.737   8.885  0.6247 -0.6174  1.3954
 6890SOL    HW232307   4.355   2.753   9.004 -0.9390 -0.9797  0.1389
 6891SOL     OW32308   2.870   1.297   4.562 -0.4506  0.3946  0.2327
 6891SOL    HW132309   2.787   1.265   4.597 -0.0968 -1.6437 -0.8448
 6891SOL    HW232310   2.883   1.364   4.630 -1.3799 -0.3569  1.1324
 6892SOL     OW32311   0.686   0.320  16.287 -0.1295  0.2321  0.5918
 6892SOL    HW132312   0.777   0.302  16.310 -0.2464 -0.2987  0.6228
 6892SOL    HW232313   0.695   0.415  16.286 -1.9176  0.4006  0.9182
 6893SOL     OW32314   1.913   3.902   7.571 -0.3985 -0.6360 -0.4412
 6893SOL    HW132315   1.836   3.935   7.617  0.1041  0.6530 -0.5207
 6893SOL    HW232316   1.877   3.890   7.483  0.2184 -1.2174 -0.6131
 6894SOL     OW32317   3.651   2.005   6.050 -0.1888 -0.7002  0.6092
 6894SOL    HW132318   3.662   2.080   5.993  2.0109 -0.6545  1.0901
 6894SOL    HW232319   3.734   2.000   6.098 -0.8878 -0.4367  1.8377
 6895SOL     OW32320   1.407   1.034   2.068  0.2484 -0.1071  0.0663
 6895SOL    HW132321   1.323   1.010   2.107  1.5553 -0.9862  2.3446
 6895SOL    HW232322   1.413   0.982   1.988  0.0753  2.2222 -1.4630
 6896SOL     OW32323   0.746   1.786   8.556  0.0065 -0.1925 -0.5205
 6896SOL    HW132324   0.706   1.767   8.472 -0.2110  0.2171 -0.5059
 6896SOL    HW232325   0.670   1.793   8.614  0.7691 -0.8567  0.5797
 6897SOL     OW32326   0.708   2.728  16.783  0.4637 -0.3439 -0.4217
 6897SOL    HW132327   0.672   2.711  16.870  0.7200  2.1060  0.1727
 6897SOL    HW232328   0.676   2.661  16.723  1.2904 -0.2378 -0.9873
 6898SOL     OW32329   4.281   4.277   7.557  0.5253 -0.4004  0.2663
 6898SOL    HW132330   4.192   4.250   7.538  0.9035 -0.6361 -1.2130
 6898SOL    HW232331   4.284   4.279   7.653 -1.6579  0.5365  0.3133
 6899SOL     OW32332   2.316   1.678   8.189 -0.0593  0.1617  0.0983
 6899SOL    HW132333   2.298   1.762   8.230  0.4194  0.0609  0.5120
 6899SOL    HW232334   2.237   1.667   8.136 -0.4967  0.7767  0.6310
 6900SOL     OW32335   4.135   4.171   5.990  0.1309 -0.4761  0.2043
 6900SOL    HW132336   4.178   4.257   5.985 -0.2903 -0.1967  1.5291
 6900SOL    HW232337   4.051   4.203   6.022 -0.1285 -0.1452 -0.7855
 6901SOL     OW32338   3.469   3.676   8.748 -0.1870 -0.3144  0.3815
 6901SOL    HW132339   3.457   3.730   8.669 -2.1810  0.4581  1.1950
 6901SOL    HW232340   3.430   3.736   8.812 -0.9229  1.8779 -2.0927
 6902SOL     OW32341   2.857   0.912   1.405  0.0083 -0.5335 -0.1288
 6902SOL    HW132342   2.860   0.860   1.325  0.5555  2.9646 -2.3645
 6902SOL    HW232343   2.856   1.002   1.372  0.8577 -0.1601  0.9028
 6903SOL     OW32344   4.276   1.304   5.136 -0.7114  0.0909 -0.1851
 6903SOL    HW132345   4.193   1.351   5.145  0.4537  1.7194  2.0014
 6903SOL    HW232346   4.328   1.327   5.212 -0.4177 -2.1045  0.2537
 6904SOL     OW32347   0.625   0.699   2.607 -0.2279 -0.2171  0.3121
 6904SOL    HW132348   0.549   0.684   2.663 -1.0507 -0.2824 -0.8227
 6904SOL    HW232349   0.584   0.736   2.529  1.8634  0.0650 -0.6753
 6905SOL     OW32350   3.071   4.580   3.858 -0.0936 -0.1283 -0.3824
 6905SOL    HW132351   3.107   4.668   3.868  0.5662 -0.4747  0.2329
 6905SOL    HW232352   3.141   4.523   3.890 -0.9494 -0.6371  0.5804
 6906SOL     OW32353   1.364   4.689   3.059  0.0303  0.7398 -0.2701
 6906SOL    HW132354   1.394   0.041   3.042 -0.0184 -0.2106 -5.3174
 6906SOL    HW232355   1.275   4.711   3.087 -0.4491  0.8102 -1.8461
 6907SOL     OW32356   3.586   0.852   8.784 -0.0700  0.5557 -0.3306
 6907SOL    HW132357   3.642   0.878   8.857 -0.1241 -1.0470  0.2756
 6907SOL    HW232358   3.617   0.903   8.709 -1.2570  2.3909  0.4264
 6908SOL     OW32359   3.369   3.798   7.314  0.0486 -0.5644  0.8683
 6908SOL    HW132360   3.279   3.770   7.298  1.3064 -2.2789 -3.1964
 6908SOL    HW232361   3.410   3.771   7.232  0.4684 -0.5940  1.0911
 6909SOL     OW32362   3.814   1.688   5.163  0.1059  0.1020  0.2387
 6909SOL    HW132363   3.763   1.653   5.090  0.4239  0.6698 -0.2619
 6909SOL    HW232364   3.740   1.731   5.206 -0.1497 -1.3281  1.2251
 6910SOL     OW32365   2.226   0.361   6.846 -0.1770 -0.2024  0.6061
 6910SOL    HW132366   2.178   0.390   6.768 -0.6640  0.7378  1.2570
 6910SOL    HW232367   2.259   0.445   6.877 -2.9136  0.3914  1.9137
 6911SOL     OW32368   2.901   4.271   1.436  0.7216 -0.3339 -0.3023
 6911SOL    HW132369   2.931   4.361   1.422 -0.3428 -0.0354 -0.6887
 6911SOL    HW232370   2.966   4.231   1.492 -0.5791  0.3602  1.7154
 6912SOL     OW32371   2.455   4.480   4.336 -0.3323  0.5458 -0.1975
 6912SOL    HW132372   2.423   4.392   4.356  0.5022  0.3689  0.3919
 6912SOL    HW232373   2.526   4.468   4.273 -0.9188  0.8688 -0.9047
 6913SOL     OW32374   1.065   3.978   9.725  0.1598  0.2735 -0.4050
 6913SOL    HW132375   1.088   4.020   9.807 -0.2385  0.2278 -0.2702
 6913SOL    HW232376   1.052   4.059   9.675  1.1806  1.7672  1.7686
 6914SOL     OW32377   3.580   3.285  10.541 -0.1538  0.4032  0.1358
 6914SOL    HW132378   3.518   3.333  10.596 -0.2299  0.5918 -0.1180
 6914SOL    HW232379   3.525   3.271  10.464 -0.1069 -3.3627  0.7946
 6915SOL     OW32380   3.893   3.045   8.477  0.0915  0.5177 -0.2420
 6915SOL    HW132381   3.824   2.989   8.442 -1.8457  2.1552  1.0211
 6915SOL    HW232382   3.930   2.983   8.540 -0.5633  0.7366  0.3498
 6916SOL     OW32383   3.082   2.588   2.661  0.0267  0.1606 -0.1168
 6916SOL    HW132384   3.158   2.646   2.658  0.3656 -0.3141 -0.5455
 6916SOL    HW232385   3.027   2.636   2.723  0.7400  0.3767  0.3504
 6917SOL     OW32386   2.622   2.937   4.264 -0.3388  0.1323  0.4636
 6917SOL    HW132387   2.693   2.984   4.221 -0.3020 -0.1722  0.1832
 6917SOL    HW232388   2.618   2.859   4.209 -2.2670  2.4508 -2.6629
 6918SOL     OW32389   1.405   1.033   3.646 -0.2174 -0.0133 -0.5096
 6918SOL    HW132390   1.343   1.104   3.663 -0.7445 -0.3672 -0.9783
 6918SOL    HW232391   1.445   1.071   3.568 -3.7667  1.8375 -1.4381
 6919SOL     OW32392   1.754   2.667  11.659 -0.4541 -0.5591 -0.0619
 6919SOL    HW132393   1.732   2.760  11.662  0.9959 -0.2227  0.3722
 6919SOL    HW232394   1.834   2.673  11.606 -0.1360  1.2717  0.6488
 6920SOL     OW32395   0.613   0.422   3.043  0.5697 -0.4657  0.2105
 6920SOL    HW132396   0.635   0.400   3.133  3.3101 -2.7287 -1.0242
 6920SOL    HW232397   0.697   0.458   3.015  0.8449 -0.6088  0.8629
 6921SOL     OW32398   4.082   0.014  10.266  0.0232  0.3487 -0.2713
 6921SOL    HW132399   3.996   0.054  10.251  0.0894  0.6895  0.2662
 6921SOL    HW232400   4.066   4.659  10.248  1.7823 -0.3768  1.9157
 6922SOL     OW32401   3.890   1.981  14.891  0.1256 -0.4978  0.3758
 6922SOL    HW132402   3.910   2.061  14.842 -1.9682  0.1432  0.5671
 6922SOL    HW232403   3.976   1.939  14.885  1.6874  2.8215 -0.8191
 6923SOL     OW32404   2.577   4.638  10.658  0.1999 -0.3368  0.1580
 6923SOL    HW132405   2.616   4.627  10.745  0.0174  2.4060  0.5975
 6923SOL    HW232406   2.654   4.662  10.608 -0.2493  1.5669  0.3917
 6924SOL     OW32407   1.636   0.800   8.094  0.1425 -0.1328 -0.4794
 6924SOL    HW132408   1.674   0.780   8.180 -3.4870 -1.1408  0.8793
 6924SOL    HW232409   1.546   0.802   8.124  0.0897  1.3216 -0.7314
 6925SOL     OW32410   2.223   1.485   3.390  0.0637  0.0590  0.3726
 6925SOL    HW132411   2.277   1.439   3.327 -1.0646  1.4601 -1.6355
 6925SOL    HW232412   2.205   1.419   3.457  1.9203 -1.0876 -0.2660
 6926SOL     OW32413   1.833   4.135   7.928  0.5938  0.2637 -0.4704
 6926SOL    HW132414   1.896   4.162   7.862  0.1345  2.6271  0.0719
 6926SOL    HW232415   1.898   4.108   7.993 -0.7355 -0.1841  0.6738
 6927SOL     OW32416   2.501   2.383  15.639 -0.2028  0.3566  0.9615
 6927SOL    HW132417   2.519   2.445  15.569 -1.9905 -1.1940 -0.8782
 6927SOL    HW232418   2.472   2.438  15.712  0.9887  1.9197  0.2551
 6928SOL     OW32419   1.088   3.891   4.113 -0.4464 -0.4302  0.2469
 6928SOL    HW132420   1.032   3.849   4.178  2.3145 -0.3484  2.7206
 6928SOL    HW232421   1.155   3.932   4.168 -0.6205  0.5260 -0.2508
 6929SOL     OW32422   1.309   3.813   9.197  0.3171 -0.0812 -0.0538
 6929SOL    HW132423   1.348   3.731   9.226  0.6772  0.0880 -0.0582
 6929SOL    HW232424   1.221   3.819   9.235 -0.5559 -1.1190 -1.9100
 6930SOL     OW32425   4.304   2.970  13.416 -0.0663 -0.5890 -0.4504
 6930SOL    HW132426   4.381   2.977  13.473  0.5520  1.0104 -1.4774
 6930SOL    HW232427   4.241   2.908  13.453 -1.2619  1.5579  1.0646
 6931SOL     OW32428   3.933   3.601   8.702  0.4857  0.7024 -0.5248
 6931SOL    HW132429   3.940   3.684   8.653  3.0878 -0.3671 -1.9836
 6931SOL    HW232430   3.991   3.536   8.661  1.1029  0.5165  0.6578
 6932SOL     OW32431   0.073   3.799  13.713 -0.6079  0.2034  0.0394
 6932SOL    HW132432   0.139   3.764  13.773  1.2292 -0.7064 -2.5365
 6932SOL    HW232433   0.087   3.744  13.636 -0.2728 -0.9094  0.8894
 6933SOL     OW32434   3.179   0.800   4.899  0.2122 -0.0090  0.0256
 6933SOL    HW132435   3.166   0.882   4.850 -2.4234 -0.6511 -0.3503
 6933SOL    HW232436   3.163   0.745   4.822 -2.1222 -1.0556  1.2469
 6934SOL     OW32437   4.028   0.328  10.024  0.4556 -0.0578 -0.0245
 6934SOL    HW132438   4.012   0.262   9.956 -0.5697  0.5636 -0.3868
 6934SOL    HW232439   4.122   0.339  10.010  0.3094 -1.0567 -1.7696
 6935SOL     OW32440   0.979   0.675   0.771 -0.1066 -0.1274  0.1256
 6935SOL    HW132441   1.047   0.640   0.714 -1.3618 -0.1446 -1.3779
 6935SOL    HW232442   1.030   0.748   0.806  0.8332 -0.0851 -1.3561
 6936SOL     OW32443   1.819   4.691   3.293  0.0933 -0.6259 -0.2174
 6936SOL    HW132444   1.904   4.651   3.271  0.7590  1.8128 -2.0769
 6936SOL    HW232445   1.767   4.665   3.217 -0.6821 -1.6284  0.6574
 6937SOL     OW32446   3.877   0.035   1.991 -0.3743 -0.0231 -0.4987
 6937SOL    HW132447   3.933   4.719   1.935  0.9424  0.4121  0.4240
 6937SOL    HW232448   3.797   0.038   1.937 -0.3465 -0.2349 -0.5536
 6938SOL     OW32449   2.510   3.901  11.948  0.0794  0.7511  0.6734
 6938SOL    HW132450   2.582   3.867  11.894 -1.1198 -0.7407  0.0353
 6938SOL    HW232451   2.456   3.927  11.873 -0.8636  0.6911  1.3324
 6939SOL     OW32452   1.356   3.245  12.686  0.2824 -0.0169  0.4331
 6939SOL    HW132453   1.363   3.152  12.708  1.1622 -0.0864 -0.1110
 6939SOL    HW232454   1.417   3.249  12.612  1.2086  0.4436  1.2137
 6940SOL     OW32455   0.605   0.178   3.751 -0.6029  0.1816  0.9048
 6940SOL    HW132456   0.600   0.105   3.814  1.1802  0.4413  1.3385
 6940SOL    HW232457   0.564   0.136   3.675 -1.0341  0.6364  0.8857
 6941SOL     OW32458   3.695   2.726   8.994  0.6333  0.2392 -0.0268
 6941SOL    HW132459   3.728   2.807   9.033  0.6110 -0.8325  2.2138
 6941SOL    HW232460   3.777   2.703   8.949  2.3509  1.9653  2.2121
 6942SOL     OW32461   2.601   0.767  14.244  0.0807 -0.4424 -0.4966
 6942SOL    HW132462   2.647   0.835  14.293  0.0338 -0.1816 -0.8192
 6942SOL    HW232463   2.639   0.777  14.157  1.3433 -0.2684  0.0756
 6943SOL     OW32464   1.596   1.173   3.827 -0.2802 -0.0425  0.3634
 6943SOL    HW132465   1.531   1.243   3.824 -1.4087 -1.0601  1.2752
 6943SOL    HW232466   1.543   1.101   3.792 -2.2855  0.9777  1.3273
 6944SOL     OW32467   4.644   1.112   5.165 -0.2130  1.0864  0.2548
 6944SOL    HW132468   4.650   1.016   5.163  0.7648  1.1040  2.2826
 6944SOL    HW232469   4.637   1.122   5.070  2.3810  2.1855  0.1769
 6945SOL     OW32470   1.585   3.789   7.111  0.0085 -0.3971  0.4070
 6945SOL    HW132471   1.517   3.834   7.060  0.6929 -0.1894 -0.3166
 6945SOL    HW232472   1.568   3.822   7.199 -0.4967 -0.1414  0.2182
 6946SOL     OW32473   2.792   2.280   2.672 -0.1118  0.1890 -0.1419
 6946SOL    HW132474   2.787   2.202   2.617  0.7848  0.7427 -1.0217
 6946SOL    HW232475   2.747   2.257   2.753  2.6935 -3.9154  0.2282
 6947SOL     OW32476   0.750   3.139   3.995  0.3657  0.0569  0.0423
 6947SOL    HW132477   0.655   3.146   4.007 -0.1116 -3.3080 -1.7618
 6947SOL    HW232478   0.757   3.062   3.939 -1.2280 -0.5461  0.6736
 6948SOL     OW32479   2.845   0.588   4.508 -0.3881 -0.5657 -0.5091
 6948SOL    HW132480   2.938   0.590   4.533 -1.0144  0.2528  1.7101
 6948SOL    HW232481   2.831   0.540   4.427  0.1700  1.8135 -2.0200
 6949SOL     OW32482   3.965   1.642   2.879  0.0084  0.8281  0.3257
 6949SOL    HW132483   3.874   1.636   2.907  0.0652  0.0609  0.3484
 6949SOL    HW232484   3.959   1.695   2.800  0.2311 -0.0452 -0.2747
 6950SOL     OW32485   3.915   1.587  16.766  0.1686 -0.1431  0.4974
 6950SOL    HW132486   3.946   1.516  16.823 -0.4232  0.0292  1.0381
 6950SOL    HW232487   3.829   1.558  16.739  1.2639 -1.5494 -1.4730
 6951SOL     OW32488   0.858   0.568  10.837 -0.3874 -0.3308  0.3738
 6951SOL    HW132489   0.850   0.474  10.851 -0.5108  0.1351  3.4105
 6951SOL    HW232490   0.950   0.581  10.860  0.0357 -0.7793 -1.0686
 6952SOL     OW32491   2.624   0.310  14.533  0.1008  0.4271  0.5054
 6952SOL    HW132492   2.681   0.242  14.568 -2.4482 -1.9506  0.0309
 6952SOL    HW232493   2.687   0.380  14.516 -0.6729  0.7692 -0.9642
 6953SOL     OW32494   1.210   3.115  12.400  0.7846  0.1198 -0.5125
 6953SOL    HW132495   1.269   3.156  12.462 -0.8945  1.6680  0.0485
 6953SOL    HW232496   1.134   3.103  12.457  2.2815  2.6533  1.9659
 6954SOL     OW32497   2.926   3.404   1.504 -0.3405  0.5734 -0.7678
 6954SOL    HW132498   2.910   3.365   1.590  0.2219 -0.3504 -1.0858
 6954SOL    HW232499   3.004   3.362   1.469 -0.2565  0.7978 -0.8533
 6955SOL     OW32500   3.966   0.709   5.075  0.6226 -0.7469 -0.1487
 6955SOL    HW132501   4.010   0.780   5.123 -0.5176 -0.9686  1.2364
 6955SOL    HW232502   3.914   0.669   5.145  2.5211 -1.0218  1.1056
 6956SOL     OW32503   3.679   2.423  13.798  0.3411 -0.4598  0.0744
 6956SOL    HW132504   3.639   2.377  13.724  0.3098 -1.8357  0.9613
 6956SOL    HW232505   3.617   2.494  13.817 -1.7761 -2.0532 -0.9495
 6957SOL     OW32506   0.661   3.379   2.353 -0.0608 -0.1137 -0.0830
 6957SOL    HW132507   0.750   3.349   2.373 -0.3923 -0.9943  0.1066
 6957SOL    HW232508   0.662   3.465   2.393  0.2141  0.2073 -0.7875
 6958SOL     OW32509   3.246   3.721   2.841 -0.2163 -0.1985  0.2085
 6958SOL    HW132510   3.285   3.807   2.824 -1.5055  0.1620 -0.9575
 6958SOL    HW232511   3.257   3.710   2.935  2.2327 -1.1501 -0.2052
 6959SOL     OW32512   0.920   1.982   9.102 -0.3948  0.1472  0.2779
 6959SOL    HW132513   0.937   2.002   9.010 -4.2122  0.2625 -0.4031
 6959SOL    HW232514   0.872   1.901   9.081  0.1213 -0.3411  0.9998
 6960SOL     OW32515   0.735   3.303   7.880 -0.0229  0.4124 -0.5186
 6960SOL    HW132516   0.741   3.250   7.959 -0.3985  1.7487  0.4186
 6960SOL    HW232517   0.764   3.229   7.826  1.7447 -0.4310  1.6144
 6961SOL     OW32518   2.942   3.479   5.439  0.4786  0.0298  0.4747
 6961SOL    HW132519   3.030   3.517   5.443  0.5561  0.2874 -3.2441
 6961SOL    HW232520   2.958   3.421   5.364 -0.6121  0.4439 -0.0819
 6962SOL     OW32521   4.647   3.377  11.587  0.1328 -0.5614 -0.1956
 6962SOL    HW132522   4.660   3.355  11.494  1.1456  1.5013 -0.5453
 6962SOL    HW232523   4.716   3.327  11.632 -0.0229 -0.5821  0.0190
 6963SOL     OW32524   3.006   2.860   6.356 -0.0605  0.4219  0.3901
 6963SOL    HW132525   2.982   2.953   6.366  2.0951  0.9256  0.9248
 6963SOL    HW232526   3.027   2.834   6.446 -0.2288 -0.6644  0.1066
 6964SOL     OW32527   2.374   2.890  17.665 -0.6424  0.3128  0.0345
 6964SOL    HW132528   2.456   2.899  17.712 -0.7516  0.6824  0.1558
 6964SOL    HW232529   2.394   2.873  17.573 -0.8422  3.5378 -0.6083
 6965SOL     OW32530   1.543   3.239  17.070  0.0281 -0.0554  0.4119
 6965SOL    HW132531   1.630   3.266  17.042 -0.3208  0.9045  0.2446
 6965SOL    HW232532   1.504   3.326  17.084  3.2482  1.2025  1.5509
 6966SOL     OW32533   2.673   0.441  13.274 -0.0048 -0.2531  0.5477
 6966SOL    HW132534   2.661   0.392  13.355 -1.5838  0.6452  0.8533
 6966SOL    HW232535   2.608   0.392  13.224 -1.9221 -0.6537  3.4571
 6967SOL     OW32536   0.886   3.590   0.137 -0.4331 -0.1073  0.8316
 6967SOL    HW132537   0.977   3.617   0.131 -0.5081 -0.2533 -0.9392
 6967SOL    HW232538   0.890   3.516   0.077  0.8055  0.1966  0.5496
 6968SOL     OW32539   1.015   0.016   3.597  0.2514  0.8275  0.1112
 6968SOL    HW132540   1.004   0.092   3.654  0.2457 -0.0054  1.2215
 6968SOL    HW232541   0.950   4.689   3.624  1.0333  1.0902  2.6271
 6969SOL     OW32542   0.898   0.333   2.513  0.2436  0.2902 -0.5798
 6969SOL    HW132543   0.869   0.370   2.430 -0.8423  3.0830  1.0340
 6969SOL    HW232544   0.868   0.408   2.566  0.6602  0.0740 -0.0352
 6970SOL     OW32545   4.226   3.039  12.952  0.0018  0.2065 -0.4300
 6970SOL    HW132546   4.159   3.092  12.996  0.3890  1.8890 -1.8955
 6970SOL    HW232547   4.289   3.062  13.020 -1.6986  2.0235  0.5363
 6971SOL     OW32548   2.880   2.202   7.874 -0.4405 -0.4093  1.1820
 6971SOL    HW132549   2.946   2.183   7.941  1.6088 -0.4930 -0.8613
 6971SOL    HW232550   2.859   2.292   7.898  1.0205  1.4052 -4.4057
 6972SOL     OW32551   1.503   2.853   0.770  0.0429  0.2417 -0.4341
 6972SOL    HW132552   1.527   2.815   0.685  3.3577 -0.3523  0.7804
 6972SOL    HW232553   1.582   2.833   0.819 -0.6570 -1.2065  0.1055
 6973SOL     OW32554   1.277   4.618   9.875 -0.3808 -0.4587 -0.0899
 6973SOL    HW132555   1.242   4.703   9.847  0.5224 -0.6545 -1.8026
 6973SOL    HW232556   1.369   4.636   9.892  0.1266 -2.1336 -1.0528
 6974SOL     OW32557   3.928   2.458  12.951 -0.8218  0.6460  0.0852
 6974SOL    HW132558   3.856   2.452  13.014 -0.2344  1.7533  0.8686
 6974SOL    HW232559   3.927   2.364  12.935  2.0518  0.5627  0.4675
 6975SOL     OW32560   2.193   3.203   0.171  0.5474  0.1761  0.0771
 6975SOL    HW132561   2.255   3.182   0.101  1.0490 -1.2410  0.9420
 6975SOL    HW232562   2.129   3.258   0.125 -0.0406  1.8444  2.8913
 6976SOL     OW32563   4.645   2.557   8.839 -0.2255 -0.2032 -0.7067
 6976SOL    HW132564   4.706   2.527   8.908 -0.4963  0.2769 -0.2598
 6976SOL    HW232565   4.567   2.591   8.883  0.6322  2.4236 -1.2437
 6977SOL     OW32566   0.874   2.489   2.011  0.1090  0.2148 -0.0390
 6977SOL    HW132567   0.910   2.481   2.099 -0.6985 -2.5288  0.0503
 6977SOL    HW232568   0.909   2.416   1.961  1.1907 -0.2585  1.4166
 6978SOL     OW32569   2.292   1.388   6.453 -0.1365  0.0551 -0.3601
 6978SOL    HW132570   2.198   1.396   6.473 -0.9762 -4.0266 -2.6701
 6978SOL    HW232571   2.309   1.438   6.373 -1.4537  3.1095  1.2643
 6979SOL     OW32572   1.977   2.655  12.056  0.2757  0.6523  0.8255
 6979SOL    HW132573   2.038   2.604  12.108 -0.4076  0.0376  1.0155
 6979SOL    HW232574   1.913   2.669  12.126 -0.9542  0.6736 -0.3109
 6980SOL     OW32575   1.404   4.290   4.915 -0.0206 -0.5669  0.1291
 6980SOL    HW132576   1.376   4.363   4.859 -2.0398  0.8213  2.9174
 6980SOL    HW232577   1.321   4.262   4.954 -1.2148  0.9050 -1.3275
 6981SOL     OW32578   0.261   1.208   2.473  0.4173 -0.0003 -0.4331
 6981SOL    HW132579   0.335   1.174   2.524  0.9894 -1.0620 -1.9464
 6981SOL    HW232580   0.312   1.256   2.408 -1.3018  0.1228 -1.6777
 6982SOL     OW32581   2.967   0.380   7.469  0.1338  1.0664 -0.2034
 6982SOL    HW132582   2.953   0.286   7.475  0.6287  0.8955 -1.6944
 6982SOL    HW232583   2.971   0.403   7.561 -1.9083  2.7268 -0.5168
 6983SOL     OW32584   0.463   1.797   2.939  0.1022 -0.0177 -0.4275
 6983SOL    HW132585   0.501   1.734   2.878 -1.8211 -2.6553  1.0710
 6983SOL    HW232586   0.479   1.750   3.022 -0.1584  0.2121 -0.2471
 6984SOL     OW32587   2.718   1.023   7.807 -0.1463 -0.2880  0.5983
 6984SOL    HW132588   2.706   0.942   7.757  0.5529 -0.8411  1.3269
 6984SOL    HW232589   2.808   1.051   7.794  0.2246 -0.7134  2.1799
 6985SOL     OW32590   1.234   3.107   5.120  0.2432  0.0603 -0.6268
 6985SOL    HW132591   1.286   3.186   5.111 -1.1929  0.9531 -0.9540
 6985SOL    HW232592   1.300   3.046   5.153 -0.2688 -1.7256 -2.9004
 6986SOL     OW32593   1.178   2.361   8.592 -0.9556 -0.1050 -0.2034
 6986SOL    HW132594   1.169   2.394   8.682 -1.6140  1.6043 -0.9070
 6986SOL    HW232595   1.264   2.318   8.589 -1.9382 -2.1364  0.5863
 6987SOL     OW32596   0.938   3.773   2.361 -0.4539 -0.2033 -0.4325
 6987SOL    HW132597   0.955   3.758   2.268 -0.1660  1.5176 -0.6655
 6987SOL    HW232598   0.966   3.861   2.386  1.4543 -0.1873 -2.6749
 6988SOL     OW32599   0.147   3.318   8.319 -0.0617  0.3317 -0.5581
 6988SOL    HW132600   0.180   3.259   8.387  1.7594 -0.4499 -2.1198
 6988SOL    HW232601   0.227   3.324   8.267 -0.3756 -0.6750 -1.1608
 6989SOL     OW32602   3.918   2.562  14.322  0.2911 -0.0938  0.3044
 6989SOL    HW132603   3.947   2.482  14.278 -1.5203 -1.0276  0.8297
 6989SOL    HW232604   3.997   2.607  14.292 -0.6914  1.1499 -0.4350
 6990SOL     OW32605   1.903   1.275   4.558  0.3131 -0.4765 -0.3306
 6990SOL    HW132606   1.867   1.360   4.532 -3.0951 -2.2618 -1.5441
 6990SOL    HW232607   1.947   1.255   4.475  1.1995 -0.6147  0.1745
 6991SOL     OW32608   0.701   3.247   9.401  0.1141  0.3578  0.7671
 6991SOL    HW132609   0.757   3.291   9.336 -0.4138 -1.5853 -1.0168
 6991SOL    HW232610   0.747   3.268   9.482  1.5652  0.1983 -0.0046
 6992SOL     OW32611   2.291   1.706   1.265  0.0008 -0.2466 -0.1991
 6992SOL    HW132612   2.336   1.657   1.196 -1.3543  0.0557 -1.3029
 6992SOL    HW232613   2.339   1.788   1.270 -1.4260  0.6596 -1.0855
 6993SOL     OW32614   4.083   0.056   8.076  0.2945  0.4107  0.5330
 6993SOL    HW132615   4.130   4.733   8.133 -1.3680 -1.4859 -0.1081
 6993SOL    HW232616   4.021   4.737   8.030 -0.0889  1.7068 -0.5286
 6994SOL     OW32617   2.851   1.127   0.312  0.1091  0.3699 -0.0487
 6994SOL    HW132618   2.896   1.079   0.243 -4.2072 -0.1024 -2.5818
 6994SOL    HW232619   2.856   1.074   0.391 -0.0259 -2.2082 -1.7699
 6995SOL     OW32620   3.251   1.277   4.447  0.4597 -0.0149  0.0585
 6995SOL    HW132621   3.225   1.326   4.370  1.7367  1.7727  0.7606
 6995SOL    HW232622   3.249   1.348   4.511 -0.6780  2.6821 -2.9697
 6996SOL     OW32623   2.250   4.196   0.537 -0.5629  0.1109 -0.1732
 6996SOL    HW132624   2.182   4.251   0.576 -1.1742 -1.0416  0.3953
 6996SOL    HW232625   2.252   4.218   0.444 -1.0369 -0.9874 -0.4429
 6997SOL     OW32626   2.981   1.033  13.066  0.3727  0.2149  0.2625
 6997SOL    HW132627   3.075   1.037  13.087 -0.1534  1.4335  2.4109
 6997SOL    HW232628   2.981   1.011  12.972 -1.0982 -0.0450  0.3244
 6998SOL     OW32629   4.473   3.080   6.266 -0.3989 -0.5566  0.5781
 6998SOL    HW132630   4.388   3.094   6.226  0.1278  0.7870 -0.0676
 6998SOL    HW232631   4.503   2.999   6.223  2.9191  1.1034 -0.2396
 6999SOL     OW32632   3.859   2.043   8.788  0.0804 -0.1986  0.6115
 6999SOL    HW132633   3.877   2.045   8.882  2.4172 -0.6515  0.1874
 6999SOL    HW232634   3.889   2.127   8.753  2.0475 -1.5580 -0.9657
 7000SOL     OW32635   3.756   2.850   3.952 -0.8600 -0.3849 -1.2430
 7000SOL    HW132636   3.795   2.799   3.881 -0.2675 -1.1525 -0.3626
 7000SOL    HW232637   3.815   2.925   3.955 -0.9840 -0.3526  0.6036
 7001SOL     OW32638   4.605   1.914   2.905  0.1011 -0.3865 -0.4695
 7001SOL    HW132639   4.582   1.895   2.996 -0.2578 -1.0816 -0.7042
 7001SOL    HW232640   4.698   1.935   2.912  0.2079 -0.7191 -0.9256
 7002SOL     OW32641   3.241   1.091   6.864  0.0034  0.4567 -0.2376
 7002SOL    HW132642   3.268   1.149   6.936  1.7653  1.0298 -1.3683
 7002SOL    HW232643   3.186   1.028   6.910 -0.2747  1.0150  0.2059
 7003SOL     OW32644   3.502   4.211  13.170  0.0040  0.1349 -0.6947
 7003SOL    HW132645   3.424   4.193  13.223 -1.5638  2.2314 -2.2923
 7003SOL    HW232646   3.566   4.231  13.238  0.3859  1.8042 -1.5495
 7004SOL     OW32647   4.171   3.991   7.858 -0.4464  0.3189 -0.3648
 7004SOL    HW132648   4.088   3.955   7.828  0.9244 -1.7313 -1.6849
 7004SOL    HW232649   4.179   4.081   7.825 -2.5415  0.3514 -0.7663
 7005SOL     OW32650   4.412   1.075   1.381  0.5435 -0.5571 -0.5969
 7005SOL    HW132651   4.329   1.120   1.398  0.9808  0.8836 -2.2771
 7005SOL    HW232652   4.431   1.026   1.461 -0.3432  0.1439  0.0386
 7006SOL     OW32653   0.086   4.328   7.441  0.6032 -0.1989  0.5162
 7006SOL    HW132654   0.038   4.318   7.523 -0.7123  1.4488 -0.0729
 7006SOL    HW232655   0.021   4.291   7.381  1.9807 -1.4871 -0.1859
 7007SOL     OW32656   4.707   1.260  17.742  0.3322  0.0924  0.4059
 7007SOL    HW132657   4.733   1.264   0.086  0.8360  2.0165  0.1791
 7007SOL    HW232658   4.654   1.338  17.730 -1.7226 -1.1928  1.2060
 7008SOL     OW32659   0.809   2.894   6.688  0.2963 -0.0850  0.3447
 7008SOL    HW132660   0.727   2.940   6.705 -0.8625 -2.7883  2.0516
 7008SOL    HW232661   0.803   2.891   6.593 -1.9880  1.4628  0.4336
 7009SOL     OW32662   1.380   2.395  14.504 -0.2362 -0.1881 -0.1465
 7009SOL    HW132663   1.422   2.446  14.573 -1.0566  2.9626 -1.9706
 7009SOL    HW232664   1.314   2.460  14.478 -0.1127  0.1165  0.3073
 7010SOL     OW32665   0.587   0.167   1.671 -0.1096  0.0585  0.5769
 7010SOL    HW132666   0.566   0.245   1.620  2.8092 -0.6782 -1.7676
 7010SOL    HW232667   0.593   0.106   1.598 -0.6044 -0.7184  1.1874
 7011SOL     OW32668   2.243   3.669   8.654  0.2609 -0.0164  0.0007
 7011SOL    HW132669   2.256   3.609   8.728  2.9774  1.9239  1.1106
 7011SOL    HW232670   2.253   3.755   8.695  2.4765 -1.1364  1.8372
 7012SOL     OW32671   1.342   1.949   9.746  0.1074  0.4666  0.0494
 7012SOL    HW132672   1.364   1.857   9.760 -0.5925  0.1726 -0.7343
 7012SOL    HW232673   1.274   1.946   9.679 -0.9828  0.0557  1.1815
 7013SOL     OW32674   1.566   3.894   5.799  0.1341 -0.0889  0.5136
 7013SOL    HW132675   1.538   3.962   5.736  0.5528 -1.2434 -0.9133
 7013SOL    HW232676   1.482   3.863   5.834 -1.0672  0.7533 -1.5624
 7014SOL     OW32677   0.506   1.178   8.990  0.4213  0.3970 -0.7249
 7014SOL    HW132678   0.420   1.178   9.032  1.0421 -0.0667  0.5144
 7014SOL    HW232679   0.494   1.249   8.927 -2.5413  1.5317  1.0984
 7015SOL     OW32680   4.710   0.248   1.397 -0.0247 -0.3889  0.2231
 7015SOL    HW132681   4.626   0.293   1.407  0.9630  1.2943  0.9387
 7015SOL    HW232682   0.016   0.280   1.476 -1.3315  1.7334  0.0876
 7016SOL     OW32683   2.751   0.178   2.644  0.1044  0.0632  0.3432
 7016SOL    HW132684   2.758   0.244   2.574 -0.9136  1.6603  1.7242
 7016SOL    HW232685   2.785   0.225   2.719 -1.5679  1.9432 -0.0529
 7017SOL     OW32686   1.995   4.181   6.306  0.0246 -0.2588 -0.3360
 7017SOL    HW132687   1.909   4.141   6.298 -0.1967 -0.1925  1.6164
 7017SOL    HW232688   2.019   4.155   6.395  1.4260  0.3855 -0.5215
 7018SOL     OW32689   4.666   0.398   3.205  0.1517 -0.2766 -0.0036
 7018SOL    HW132690   4.722   0.464   3.164 -2.9346  4.5621  3.6597
 7018SOL    HW232691   4.730   0.343   3.249  1.1601  1.6843  0.9447
 7019SOL     OW32692   1.396   0.628   7.877 -0.2055 -0.0722  0.2888
 7019SOL    HW132693   1.301   0.622   7.863 -0.1987  2.8961 -1.0452
 7019SOL    HW232694   1.403   0.723   7.884  4.2786 -0.3498 -0.6694
 7020SOL     OW32695   0.542   1.951   4.246 -0.0826  0.7456 -0.1687
 7020SOL    HW132696   0.581   2.038   4.255  2.8947 -0.7211  0.9253
 7020SOL    HW232697   0.623   1.901   4.252  0.4892  2.1314  3.6030
 7021SOL     OW32698   4.560   0.184   4.142  0.7447 -0.0009  0.1955
 7021SOL    HW132699   4.546   0.118   4.075  2.4045  0.2241 -0.3606
 7021SOL    HW232700   4.588   0.132   4.218  0.4136  0.3908  0.5829
 7022SOL     OW32701   2.813   3.379   1.253  0.0379  0.4255  0.0280
 7022SOL    HW132702   2.753   3.304   1.260 -0.3288  0.6490 -0.7073
 7022SOL    HW232703   2.834   3.388   1.345 -1.1321  0.9881  0.2330
 7023SOL     OW32704   0.953   3.388  17.437 -0.4537 -0.7270 -0.6167
 7023SOL    HW132705   0.943   3.454  17.369 -2.3041 -0.4129 -0.0301
 7023SOL    HW232706   0.982   3.317  17.379 -0.6285 -1.5220  0.2600
 7024SOL     OW32707   2.386   0.649   3.940 -0.1856  0.9351 -0.1909
 7024SOL    HW132708   2.422   0.560   3.937  0.2535  1.1654 -1.6686
 7024SOL    HW232709   2.299   0.632   3.904 -0.1134  2.7808 -1.2134
 7025SOL     OW32710   4.064   1.342   1.670  0.1218  0.3926  0.1125
 7025SOL    HW132711   4.075   1.298   1.754  1.1549  2.1535  0.8907
 7025SOL    HW232712   3.969   1.353   1.664 -0.3369 -2.7096  1.7260
 7026SOL     OW32713   3.430   4.244   3.761  0.1881 -0.6901 -0.2198
 7026SOL    HW132714   3.391   4.329   3.739  1.8212 -0.3770 -1.8381
 7026SOL    HW232715   3.428   4.248   3.857 -0.0625 -0.8639 -0.2177
 7027SOL     OW32716   3.943   2.283   1.896 -0.3850 -0.0062 -0.3445
 7027SOL    HW132717   3.872   2.247   1.948  0.6730 -0.4950  0.7658
 7027SOL    HW232718   3.997   2.318   1.967 -1.9577  0.6614  0.5267
 7028SOL     OW32719   2.679   0.717  13.273  0.2877 -0.6124 -0.0147
 7028SOL    HW132720   2.594   0.685  13.304  0.7041 -0.3394  1.3724
 7028SOL    HW232721   2.712   0.631  13.250 -1.8716 -1.9333  1.8446
 7029SOL     OW32722   0.722   2.598   2.570  0.0514 -0.5910  0.3586
 7029SOL    HW132723   0.736   2.633   2.481 -0.5694 -1.2733 -0.0031
 7029SOL    HW232724   0.664   2.664   2.608 -0.0784 -1.0494  0.9463
 7030SOL     OW32725   2.828   1.427   5.086 -1.1818  0.0471  0.7588
 7030SOL    HW132726   2.795   1.495   5.027  1.2260  0.3771 -0.1760
 7030SOL    HW232727   2.871   1.367   5.025 -2.0336  1.1143 -0.9059
 7031SOL     OW32728   2.156   2.006   6.402 -0.4206 -0.5355  0.7136
 7031SOL    HW132729   2.175   1.913   6.388 -0.4242 -0.9331  3.3756
 7031SOL    HW232730   2.069   2.000   6.443  0.2872 -0.3630  2.2511
 7032SOL     OW32731   2.652   1.674  12.017  0.1939 -0.6684  0.8771
 7032SOL    HW132732   2.738   1.654  12.052  0.9648  2.2564  0.7109
 7032SOL    HW232733   2.616   1.586  12.015 -0.8521 -0.2532  1.5292
 7033SOL     OW32734   3.678   4.717  13.491 -0.5883  0.5209  0.0884
 7033SOL    HW132735   3.702   0.070  13.510 -0.3738  0.5636 -0.3879
 7033SOL    HW232736   3.597   4.721  13.440 -1.0624  1.7091  0.9238
 7034SOL     OW32737   4.675   1.317   3.818  0.0303  0.4792 -0.4805
 7034SOL    HW132738   4.658   1.250   3.752  1.6613 -0.6398  0.2433
 7034SOL    HW232739   0.004   1.273   3.871 -1.8627 -0.5123  1.0629
 7035SOL     OW32740   4.336   1.152   4.329  0.4910 -0.1394 -0.3308
 7035SOL    HW132741   4.291   1.132   4.411  0.2381  0.9276 -0.2043
 7035SOL    HW232742   4.386   1.073   4.310 -0.2672 -0.9969  1.2419
 7036SOL     OW32743   1.839   2.180  13.734  0.0060  0.0180  0.3770
 7036SOL    HW132744   1.776   2.184  13.806  1.4554  0.6897  1.5928
 7036SOL    HW232745   1.830   2.274  13.714  3.2486 -0.0556 -1.3140
 7037SOL     OW32746   4.463   4.198   8.954  0.0837  0.6125 -0.0241
 7037SOL    HW132747   4.472   4.210   8.859  1.6913 -1.4852 -0.1493
 7037SOL    HW232748   4.527   4.129   8.972 -1.3077 -0.6262  0.1936
 7038SOL     OW32749   4.424   2.657   5.377 -0.8993 -0.8460  0.3218
 7038SOL    HW132750   4.465   2.629   5.459 -3.0650 -0.3442  1.5525
 7038SOL    HW232751   4.335   2.637   5.404 -1.7240 -0.0696 -1.8712
 7039SOL     OW32752   2.543   2.066   7.415 -0.2353 -0.0883 -0.0767
 7039SOL    HW132753   2.513   2.157   7.409 -3.8554 -1.3407 -1.2987
 7039SOL    HW232754   2.613   2.073   7.351 -0.8670  0.9786 -0.6566
 7040SOL     OW32755   0.064   4.657   5.699 -0.0486 -0.3695 -0.1055
 7040SOL    HW132756   0.157   4.656   5.721  0.2207  1.9423 -1.2043
 7040SOL    HW232757   0.022   4.610   5.771 -0.0652  0.2209  0.2707
 7041SOL     OW32758   3.645   0.921   3.788 -0.1348  0.3181 -0.1738
 7041SOL    HW132759   3.698   0.904   3.710  1.0406 -2.1051  1.1792
 7041SOL    HW232760   3.679   1.005   3.818 -0.7891 -0.0182  1.5073
 7042SOL     OW32761   0.084   2.495   7.292  0.1168 -0.2636  0.2648
 7042SOL    HW132762   0.010   2.471   7.349 -0.6237  1.0664 -0.1295
 7042SOL    HW232763   0.149   2.438   7.333  1.2020  1.3283  0.7599
 7043SOL     OW32764   0.430   3.572   5.168  0.4202  0.3402 -0.0261
 7043SOL    HW132765   0.359   3.541   5.223 -0.6010 -1.2028 -2.2167
 7043SOL    HW232766   0.508   3.540   5.214  2.6385  2.5919 -2.1697
 7044SOL     OW32767   4.318   3.474   4.880  0.3179 -0.4301 -0.3487
 7044SOL    HW132768   4.407   3.509   4.874  1.0898 -2.4804 -0.9215
 7044SOL    HW232769   4.297   3.487   4.973 -0.0880 -0.6556 -0.4100
 7045SOL     OW32770   1.222   0.162   9.874  0.5820  0.2397 -0.3688
 7045SOL    HW132771   1.307   0.164   9.919  0.1603 -2.3217  0.5283
 7045SOL    HW232772   1.155   0.159   9.942 -0.4350  0.4086 -1.3710
 7046SOL     OW32773   2.691   4.034   0.317 -0.0758  0.6720  0.1583
 7046SOL    HW132774   2.753   3.995   0.379 -0.2763  1.8072  1.0849
 7046SOL    HW232775   2.710   4.127   0.334  0.1436  0.8809 -1.2289
 7047SOL     OW32776   3.212   0.326   8.749 -0.4297 -0.0130 -0.5344
 7047SOL    HW132777   3.186   0.381   8.675 -1.0005  2.0859  1.2405
 7047SOL    HW232778   3.132   0.300   8.793 -0.9904  0.3897 -1.3177
 7048SOL     OW32779   4.656   1.422   6.718 -0.5764  0.1280  0.0708
 7048SOL    HW132780   4.643   1.514   6.696  1.3881  0.0135 -1.5778
 7048SOL    HW232781   4.632   1.383   6.633  0.9179 -1.5667  0.4271
 7049SOL     OW32782   0.706   3.828   6.309  0.4034  0.0967  0.3714
 7049SOL    HW132783   0.624   3.781   6.298  0.9001 -0.6859  0.0624
 7049SOL    HW232784   0.677   3.907   6.355  0.5092  0.6101 -0.4557
 7050SOL     OW32785   0.427   2.918   7.710  0.0121  0.0186 -0.8012
 7050SOL    HW132786   0.501   2.979   7.706 -1.4191  1.9530  2.3332
 7050SOL    HW232787   0.471   2.835   7.690  2.5644  1.2680 -0.2953
 7051SOL     OW32788   4.521   2.117  16.504  0.2500  0.2384  0.0377
 7051SOL    HW132789   4.603   2.070  16.518 -0.2703 -0.6120  0.2737
 7051SOL    HW232790   4.458   2.062  16.550 -0.3868 -1.3331 -2.6613
 7052SOL     OW32791   2.470   2.331   2.665 -0.0300 -0.0530  0.3088
 7052SOL    HW132792   2.398   2.304   2.608 -1.3279  2.7736  0.5852
 7052SOL    HW232793   2.549   2.301   2.620 -1.6049 -1.5507 -1.4504
 7053SOL     OW32794   0.455   1.163   7.656  0.4003 -0.2070  0.0901
 7053SOL    HW132795   0.439   1.075   7.622  1.9676 -0.0516 -1.0383
 7053SOL    HW232796   0.485   1.138   7.744 -2.7882  0.0792  1.2588
 7054SOL     OW32797   0.177   3.689   1.951 -0.8436  0.8763 -0.1877
 7054SOL    HW132798   0.178   3.616   1.889  1.4214 -0.0194  0.8834
 7054SOL    HW232799   0.213   3.653   2.032 -0.0607 -0.1947 -1.0079
 7055SOL     OW32800   3.362   2.221   9.691 -0.5106 -0.3693 -0.6279
 7055SOL    HW132801   3.364   2.146   9.632 -2.9085  1.6298 -3.2694
 7055SOL    HW232802   3.448   2.257   9.670  0.5063 -1.5223  1.5861
 7056SOL     OW32803   4.068   2.059  14.061  0.0621 -0.0927  0.1079
 7056SOL    HW132804   4.106   1.991  14.005 -0.7355 -1.4714  1.2537
 7056SOL    HW232805   4.099   2.035  14.148  1.7359  1.1165 -0.1521
 7057SOL     OW32806   2.287   4.600   5.954  0.0023 -0.2576 -0.4264
 7057SOL    HW132807   2.378   4.623   5.974 -0.2675 -0.6402  1.2285
 7057SOL    HW232808   2.275   4.531   6.020 -2.3714  2.9184  2.4667
 7058SOL     OW32809   0.518   1.520   9.198 -0.2131  0.4777 -0.1805
 7058SOL    HW132810   0.571   1.530   9.277 -0.6844 -0.7963  0.2885
 7058SOL    HW232811   0.462   1.450   9.230 -0.3169  1.9023  2.8413
 7059SOL     OW32812   4.603   4.651  10.718 -0.6702 -0.6741  0.1694
 7059SOL    HW132813   4.579   0.000  10.685 -1.3970 -1.5975 -1.7630
 7059SOL    HW232814   4.669   4.679  10.781 -1.7659  0.6646  0.7242
 7060SOL     OW32815   1.530   2.562   9.343 -0.5184  0.6061  0.2512
 7060SOL    HW132816   1.566   2.616   9.274  0.8898  1.2493  1.4854
 7060SOL    HW232817   1.600   2.562   9.408 -0.3708 -1.6798  0.1159
 7061SOL     OW32818   2.050   3.278   5.516  0.1842  0.0103  0.0578
 7061SOL    HW132819   2.103   3.335   5.460  0.7308 -0.9147 -0.3676
 7061SOL    HW232820   2.095   3.198   5.488  1.1396  0.5682 -0.0098
 7062SOL     OW32821   4.711   2.286   2.895 -0.4561  0.3079 -0.0389
 7062SOL    HW132822   0.008   2.250   2.977 -0.3381  0.5510  0.0175
 7062SOL    HW232823   4.706   2.379   2.915  2.0890  0.3554  0.3295
 7063SOL     OW32824   0.521   1.082  14.651  0.1398 -0.0650  0.7153
 7063SOL    HW132825   0.435   1.082  14.610  0.6097  3.1608 -0.2615
 7063SOL    HW232826   0.560   0.998  14.629  0.2992  0.1102  0.3267
 7064SOL     OW32827   3.471   4.566   7.023 -0.0717 -0.0434  0.2886
 7064SOL    HW132828   3.399   4.571   7.085 -0.2851  1.3515 -0.0725
 7064SOL    HW232829   3.540   4.531   7.080  0.1599 -2.6378 -1.5807
 7065SOL     OW32830   1.870   1.320   4.973  0.2198  0.1616  0.2772
 7065SOL    HW132831   1.924   1.345   5.048  2.3029 -2.5499 -0.3340
 7065SOL    HW232832   1.878   1.402   4.924 -1.8363 -0.5950 -1.3397
 7066SOL     OW32833   2.560   0.446   9.052 -0.3624  0.7776 -0.3996
 7066SOL    HW132834   2.553   0.415   9.142  1.5913 -1.3402 -0.9857
 7066SOL    HW232835   2.530   0.536   9.068  1.2870  0.8300  2.3246
 7067SOL     OW32836   4.538   4.735   8.611 -0.1350  0.3622  0.0675
 7067SOL    HW132837   4.543   4.652   8.565 -1.0432 -0.2208  1.0162
 7067SOL    HW232838   4.625   0.029   8.586 -1.0271  2.1257 -0.8940
 7068SOL     OW32839   2.469   3.113  14.504  0.2212 -0.7416  0.7663
 7068SOL    HW132840   2.497   3.116  14.413  1.0934 -0.8260  1.0360
 7068SOL    HW232841   2.497   3.025  14.528 -0.0944 -1.3089 -0.9417
 7069SOL     OW32842   1.209   0.291   6.408  0.0059  0.3297 -0.4480
 7069SOL    HW132843   1.210   0.351   6.482 -1.9978 -2.4943  1.8376
 7069SOL    HW232844   1.125   0.316   6.371 -0.2598 -0.3619 -0.3118
 7070SOL     OW32845   1.141   3.922   3.720  0.0988  0.4653  0.6932
 7070SOL    HW132846   1.141   3.889   3.630  1.5575 -0.3135  0.9863
 7070SOL    HW232847   1.059   3.972   3.725 -0.8933 -1.2525  1.3966
 7071SOL     OW32848   3.539   2.421   8.636  0.2985  0.1484 -0.0807
 7071SOL    HW132849   3.499   2.336   8.651 -0.0227  0.7782  2.5717
 7071SOL    HW232850   3.490   2.469   8.703 -0.8399 -1.4216  0.2100
 7072SOL     OW32851   4.655   0.900   7.465 -0.3729 -0.0358 -0.0715
 7072SOL    HW132852   4.613   0.814   7.461  1.6751 -1.1314  1.7471
 7072SOL    HW232853   4.640   0.929   7.556  1.4248 -1.9737  0.8433
 7073SOL     OW32854   3.347   0.604   4.711  0.0315 -0.5907  0.5059
 7073SOL    HW132855   3.257   0.584   4.738 -0.1289 -0.1357  0.2967
 7073SOL    HW232856   3.388   0.611   4.797  1.2485 -0.7823 -0.0651
 7074SOL     OW32857   2.801   3.449   4.750  0.1266 -0.8923 -0.1367
 7074SOL    HW132858   2.768   3.488   4.669 -1.3534 -2.1367 -0.1200
 7074SOL    HW232859   2.866   3.394   4.706 -0.1563  0.2566 -2.0180
 7075SOL     OW32860   1.986   3.463   3.239 -0.1862 -0.1153 -0.4891
 7075SOL    HW132861   2.030   3.382   3.212 -0.8321 -0.1276 -1.4682
 7075SOL    HW232862   1.913   3.487   3.182 -2.1170 -0.2623  1.9244
 7076SOL     OW32863   3.422   4.241  17.118  0.1489 -0.2351  0.0055
 7076SOL    HW132864   3.454   4.240  17.209  1.2705 -1.7780 -0.4011
 7076SOL    HW232865   3.464   4.314  17.073  0.6103 -0.9488 -0.7197
 7077SOL     OW32866   0.715   0.272  17.448  0.0320  0.4574  0.2649
 7077SOL    HW132867   0.762   0.350  17.479 -0.0688  0.7895 -0.4157
 7077SOL    HW232868   0.626   0.294  17.476 -0.6246 -1.5131 -0.3070
 7078SOL     OW32869   1.442   2.189   3.923 -0.4877  0.1213 -0.0218
 7078SOL    HW132870   1.379   2.252   3.889 -0.0497 -0.3657 -1.7418
 7078SOL    HW232871   1.433   2.122   3.855 -1.0956  1.0546 -0.8661
 7079SOL     OW32872   3.273   4.640   7.919  0.2967 -0.7794  0.1045
 7079SOL    HW132873   3.310   4.711   7.866 -0.1453 -1.4297 -1.0767
 7079SOL    HW232874   3.247   4.577   7.852 -1.5386  1.5018 -1.3526
 7080SOL     OW32875   1.462   1.959   5.894 -0.0690 -0.1529 -0.3469
 7080SOL    HW132876   1.446   1.984   5.803  0.6674 -2.3150 -1.0677
 7080SOL    HW232877   1.526   1.888   5.885  0.0374  0.0425 -1.0903
 7081SOL     OW32878   0.154   2.076   6.578 -0.0987 -0.6232  0.1687
 7081SOL    HW132879   0.121   2.132   6.649  1.4081  0.2889  0.1416
 7081SOL    HW232880   0.168   1.992   6.620 -0.2522 -1.6224 -1.7884
 7082SOL     OW32881   0.149   3.253  17.652  0.3137  0.3195  0.4583
 7082SOL    HW132882   0.214   3.312  17.615  0.7060  0.5420  1.5311
 7082SOL    HW232883   0.075   3.273  17.594 -0.9194  0.5740  2.1234
 7083SOL     OW32884   3.924   3.602   3.170  0.3255 -0.0241  0.0234
 7083SOL    HW132885   3.870   3.629   3.245 -2.1675 -0.5198 -1.5794
 7083SOL    HW232886   3.914   3.508   3.181 -1.3620 -0.0776 -1.8442
 7084SOL     OW32887   0.328   1.958   9.981 -0.1933  0.0927  0.2793
 7084SOL    HW132888   0.309   1.875  10.024  1.6632  0.5396  1.9349
 7084SOL    HW232889   0.242   2.000   9.992 -1.7051 -2.2585 -2.4335
 7085SOL     OW32890   0.858   0.920   7.621 -0.1217 -0.3823  0.5060
 7085SOL    HW132891   0.912   0.965   7.556 -0.5390 -0.6652 -0.0393
 7085SOL    HW232892   0.909   0.934   7.700 -2.6397 -0.6673  2.1820
 7086SOL     OW32893   4.133   3.050  16.538  0.6182 -0.5417 -0.3150
 7086SOL    HW132894   4.223   3.043  16.567  0.6885  1.9080  0.0732
 7086SOL    HW232895   4.134   3.049  16.442  2.4557 -1.1182 -0.2692
 7087SOL     OW32896   2.187   0.821  10.818 -0.3872 -0.2296 -0.6648
 7087SOL    HW132897   2.137   0.796  10.740 -2.5862  2.8591 -0.2318
 7087SOL    HW232898   2.188   0.731  10.850 -1.0413 -0.2207 -0.6312
 7088SOL     OW32899   2.298   2.269   9.786  0.4268 -0.4813 -0.2607
 7088SOL    HW132900   2.294   2.290   9.692  1.4110  0.8114 -0.0104
 7088SOL    HW232901   2.276   2.354   9.824 -0.2445 -0.1862 -1.3081
 7089SOL     OW32902   0.134   1.522   9.206  0.4153  0.1085  0.5406
 7089SOL    HW132903   0.198   1.587   9.177  0.5937 -1.7606 -3.3197
 7089SOL    HW232904   0.070   1.515   9.135  0.5668 -0.8180  0.4944
 7090SOL     OW32905   2.733   0.838   9.140 -0.1314  0.1772 -0.5428
 7090SOL    HW132906   2.805   0.899   9.129  0.1743 -0.1704 -0.4779
 7090SOL    HW232907   2.769   0.750   9.130  0.4672  0.7857 -3.7019
 7091SOL     OW32908   3.799   0.631   2.284  0.2989 -0.0088  0.0436
 7091SOL    HW132909   3.736   0.676   2.340  1.7730  1.1485  0.7413
 7091SOL    HW232910   3.776   0.685   2.208 -0.6896  1.4029  1.3499
 7092SOL     OW32911   4.387   3.865  16.571 -0.0385  0.7499  0.4711
 7092SOL    HW132912   4.474   3.894  16.601  0.5951 -2.8008  2.1551
 7092SOL    HW232913   4.409   3.804  16.501 -1.5048  0.3958  0.3393
 7093SOL     OW32914   1.483   2.394   2.062 -0.0661  0.0456  0.1060
 7093SOL    HW132915   1.488   2.425   1.972 -1.1367  0.9660  0.3713
 7093SOL    HW232916   1.572   2.372   2.088 -0.7487 -3.1892 -0.3132
 7094SOL     OW32917   4.529   0.411  15.332 -0.8369 -0.2840 -0.1560
 7094SOL    HW132918   4.611   0.390  15.378  0.2478 -1.6611 -2.7116
 7094SOL    HW232919   4.469   0.389  15.403 -1.4695 -0.7375 -0.8329
 7095SOL     OW32920   4.074   0.908   4.693  0.3289  0.0492 -0.3632
 7095SOL    HW132921   4.087   0.825   4.739  0.3755 -0.1182 -0.6827
 7095SOL    HW232922   3.989   0.892   4.651  0.0458  1.5606 -0.3677
 7096SOL     OW32923   0.141   2.180   2.521  0.2203  0.4482  0.4242
 7096SOL    HW132924   0.118   2.088   2.538  0.3765  0.2281 -0.5847
 7096SOL    HW232925   0.169   2.218   2.604 -1.3742  4.5127 -0.8981
 7097SOL     OW32926   0.040   1.641   5.955 -0.1203  0.0963  0.4218
 7097SOL    HW132927   0.112   1.581   5.934 -0.2736  0.3804 -0.9370
 7097SOL    HW232928   0.029   1.608   6.044  0.5648 -0.3547  0.3505
 7098SOL     OW32929   2.195   4.254   4.578  0.4828  0.0470 -0.0918
 7098SOL    HW132930   2.130   4.199   4.621 -0.2491  3.2497  2.8355
 7098SOL    HW232931   2.220   4.312   4.649 -0.4536  2.8000 -2.0359
 7099SOL     OW32932   0.923   3.156   4.421  0.1420  0.0896 -0.0172
 7099SOL    HW132933   0.961   3.236   4.386  1.5685 -0.6588 -0.1689
 7099SOL    HW232934   0.833   3.154   4.388 -0.0318 -1.9216  0.5471
 7100SOL     OW32935   4.052   3.046  16.781  0.2458  0.5557  0.0216
 7100SOL    HW132936   4.097   3.054  16.697 -2.0859  2.2077 -1.0516
 7100SOL    HW232937   4.092   2.986  16.844 -1.5818 -3.5272 -2.7186
 7101SOL     OW32938   3.904   3.597   1.158  0.3891  0.3568 -0.8373
 7101SOL    HW132939   3.917   3.670   1.098 -0.7010  0.9552 -0.3481
 7101SOL    HW232940   3.925   3.634   1.244  0.7005  0.5046 -0.9807
 7102SOL     OW32941   2.573   1.370  11.605 -0.5954 -0.0229  0.2317
 7102SOL    HW132942   2.644   1.314  11.573  0.3072  0.4962  1.3211
 7102SOL    HW232943   2.498   1.312  11.591 -1.2916  1.2630 -1.2950
 7103SOL     OW32944   2.210   3.107  11.290 -0.0905  0.2172  0.7411
 7103SOL    HW132945   2.276   3.109  11.360 -1.5695 -0.8658  2.1706
 7103SOL    HW232946   2.240   3.029  11.243 -1.9770 -0.1434  0.1509
 7104SOL     OW32947   1.445   3.480  13.661  0.0064  0.2541 -0.4115
 7104SOL    HW132948   1.520   3.451  13.609  0.6541 -0.3133  0.8476
 7104SOL    HW232949   1.464   3.437  13.745 -0.3696  1.1884  0.1458
 7105SOL     OW32950   1.420   0.414   6.286  0.0418  0.3216  0.2515
 7105SOL    HW132951   1.337   0.378   6.316 -0.6404  2.4435  0.9450
 7105SOL    HW232952   1.413   0.406   6.191 -1.7706  2.2096  0.2235
 7106SOL     OW32953   0.012   3.755  10.302  0.1912  0.7179  0.1913
 7106SOL    HW132954   0.062   3.677  10.277  2.5598  2.1910  0.2688
 7106SOL    HW232955   4.707   3.772  10.218  1.6212 -1.8526 -1.0826
 7107SOL     OW32956   2.727   2.335   5.871  0.0812  0.1236 -0.2726
 7107SOL    HW132957   2.644   2.329   5.825 -0.1155  2.8630 -0.2819
 7107SOL    HW232958   2.786   2.364   5.802 -0.1831 -1.2320 -1.0682
 7108SOL     OW32959   3.021   0.432  16.904 -0.1415 -0.2721 -0.2188
 7108SOL    HW132960   3.080   0.448  16.977 -1.1518 -1.7334  0.9197
 7108SOL    HW232961   3.041   0.509  16.851  1.4203  1.2122  2.5318
 7109SOL     OW32962   3.250   4.561   9.164 -0.2146  0.2336 -0.3383
 7109SOL    HW132963   3.284   4.474   9.144  2.3162  0.9945  0.6114
 7109SOL    HW232964   3.230   4.593   9.077 -0.0503  0.0764 -0.4327
 7110SOL     OW32965   4.702   0.517   4.219  0.1200 -0.7321  0.0919
 7110SOL    HW132966   4.724   0.522   4.312  0.6903 -0.4276 -0.0576
 7110SOL    HW232967   4.695   0.423   4.207 -0.5966 -0.8694  1.6413
 7111SOL     OW32968   2.262   4.400   1.093  0.2813 -0.1551 -0.2971
 7111SOL    HW132969   2.321   4.417   1.166  0.6383 -3.7502  0.2347
 7111SOL    HW232970   2.197   4.335   1.118 -0.2702  1.2850  1.9713
 7112SOL     OW32971   3.511   1.604   4.723 -0.2164 -0.1406 -1.1210
 7112SOL    HW132972   3.485   1.519   4.688 -2.8032  0.2391 -0.0840
 7112SOL    HW232973   3.567   1.583   4.798 -3.4768 -1.0390  1.0283
 7113SOL     OW32974   3.921   2.654   5.022  0.2370  0.3134 -0.4093
 7113SOL    HW132975   3.840   2.650   4.971 -0.1605 -0.0853  0.2453
 7113SOL    HW232976   3.949   2.562   5.017  0.3040  0.1663  2.6605
 7114SOL     OW32977   2.290   3.368   1.238 -0.2326 -0.0598 -0.9067
 7114SOL    HW132978   2.259   3.278   1.250 -0.7545  0.4328  1.2968
 7114SOL    HW232979   2.298   3.370   1.142 -0.4832 -2.1621 -0.9811
 7115SOL     OW32980   0.934   0.844   3.788  0.4037  0.1145  0.3485
 7115SOL    HW132981   0.963   0.878   3.873 -0.8298 -0.4264  0.9816
 7115SOL    HW232982   0.841   0.832   3.805  0.3908  1.3443  1.1583
 7116SOL     OW32983   1.697   4.061  17.610 -0.0241  0.1380 -0.4912
 7116SOL    HW132984   1.728   4.106  17.531  1.8884 -0.4217 -0.0634
 7116SOL    HW232985   1.734   3.975  17.592  0.6378  0.9067 -2.7756
 7117SOL     OW32986   0.486   0.562   4.807 -0.0313 -0.1637 -0.0468
 7117SOL    HW132987   0.504   0.520   4.723 -1.9360  1.5759 -1.3222
 7117SOL    HW232988   0.538   0.510   4.869  0.5715  1.1037  0.5053
 7118SOL     OW32989   0.039   3.339   4.034 -0.2758  0.6556  0.0281
 7118SOL    HW132990   0.084   3.386   4.105  0.1665  1.7129 -0.9508
 7118SOL    HW232991   0.004   3.410   3.981 -0.8276 -2.4672 -3.7798
 7119SOL     OW32992   0.379   0.909   7.576 -0.2907 -0.4142 -0.1015
 7119SOL    HW132993   0.436   0.914   7.499  0.6355 -0.3992  0.5944
 7119SOL    HW232994   0.321   0.843   7.538 -2.6765  1.0403  1.0225
 7120SOL     OW32995   3.692   1.850   6.927  0.4441  0.3099  0.1284
 7120SOL    HW132996   3.709   1.944   6.916  2.7248  0.0166  1.2604
 7120SOL    HW232997   3.773   1.823   6.884 -0.3483 -0.1250 -1.0884
 7121SOL     OW32998   2.096   0.373  14.834 -0.3359 -0.0216  0.5055
 7121SOL    HW132999   2.188   0.387  14.857  0.0192  0.0271 -0.9362
 7121SOL    HW233000   2.110   0.297  14.777  0.0350  0.9627 -0.7002
 7122SOL     OW33001   2.846   3.456  13.624  0.3980  0.1773  0.0885
 7122SOL    HW133002   2.875   3.530  13.677  0.6861 -1.4444  2.2151
 7122SOL    HW233003   2.771   3.498  13.584  1.1974  1.8845  0.3910
 7123SOL     OW33004   2.369   2.126  16.474  0.3655  0.6992  0.3250
 7123SOL    HW133005   2.306   2.187  16.438  0.0302 -0.5703 -1.2577
 7123SOL    HW233006   2.365   2.128  16.570 -1.0333  1.9982  0.2294
 7124SOL     OW33007   2.592   0.542   2.083 -0.7793  0.2056  0.0769
 7124SOL    HW133008   2.503   0.535   2.047 -1.6276 -0.0533  2.2078
 7124SOL    HW233009   2.647   0.512   2.011  1.1779  1.9661  0.8513
 7125SOL     OW33010   1.000   1.170   4.953  0.2460 -0.5465  0.4757
 7125SOL    HW133011   1.016   1.157   4.859 -0.2067  1.3865  0.1383
 7125SOL    HW233012   0.933   1.104   4.972 -2.3486  1.0390 -3.2481
 7126SOL     OW33013   3.455   2.194   2.805 -0.2661 -0.0916 -0.0335
 7126SOL    HW133014   3.533   2.192   2.862 -0.4466 -0.5415  0.1982
 7126SOL    HW233015   3.434   2.287   2.806 -2.0715 -0.5059  0.9477
 7127SOL     OW33016   0.107   4.058   3.804 -0.0143 -0.6246  0.5101
 7127SOL    HW133017   0.101   3.987   3.739 -0.5981 -1.0062  0.9720
 7127SOL    HW233018   0.099   4.013   3.889  2.1442 -0.0020  1.0380
 7128SOL     OW33019   0.119   2.815   5.843 -0.2677 -0.2084 -0.2764
 7128SOL    HW133020   0.109   2.744   5.779  0.1327 -0.8807  0.4030
 7128SOL    HW233021   0.143   2.885   5.782 -2.7571  1.8362  1.0942
 7129SOL     OW33022   1.749   0.742  11.466  0.1043 -0.2279  0.1750
 7129SOL    HW133023   1.818   0.794  11.424 -2.5106  1.3624 -2.1423
 7129SOL    HW233024   1.746   0.790  11.549 -0.9148 -0.0859  0.0497
 7130SOL     OW33025   1.656   2.459  13.566  0.2738  0.2083 -0.3435
 7130SOL    HW133026   1.656   2.367  13.538  1.1909  0.8207 -2.3203
 7130SOL    HW233027   1.750   2.459  13.583  0.1331 -1.4035  0.4375
 7131SOL     OW33028   4.691   3.158   4.246 -0.0238  0.1490  0.4181
 7131SOL    HW133029   4.723   3.223   4.184  2.4156 -0.6866  0.7577
 7131SOL    HW233030   4.729   3.078   4.208  0.7207  1.9106 -2.5628
 7132SOL     OW33031   0.008   2.009   3.347 -0.1990 -0.0948  0.1557
 7132SOL    HW133032   0.024   1.986   3.439 -0.6883  0.3693  0.3571
 7132SOL    HW233033   0.052   1.936   3.304  0.6696  0.6276 -0.1650
 7133SOL     OW33034   0.361   4.038   2.775  0.1874 -0.4541 -0.8164
 7133SOL    HW133035   0.287   4.072   2.725 -0.3721  0.4650  0.6431
 7133SOL    HW233036   0.420   4.020   2.702  1.2631 -3.8716  0.9098
 7134SOL     OW33037   1.029   2.458   0.131  0.2812 -0.3128  0.3383
 7134SOL    HW133038   1.000   2.370   0.156  0.3654 -1.3332 -3.1352
 7134SOL    HW233039   1.122   2.441   0.120  0.0166 -1.1354 -0.6109
 7135SOL     OW33040   3.872   0.870   6.072 -0.3187  0.1628  0.1410
 7135SOL    HW133041   3.797   0.919   6.036 -0.6459  0.3604  1.0982
 7135SOL    HW233042   3.847   0.779   6.087 -1.0829  0.3462  0.0212
 7136SOL     OW33043   2.412   4.035  13.844 -0.1380 -0.2843  0.4418
 7136SOL    HW133044   2.342   3.992  13.893 -1.9921  2.1451 -0.0266
 7136SOL    HW233045   2.377   4.042  13.755 -0.3423  0.4345  0.5731
 7137SOL     OW33046   4.315   0.191   9.248  0.0087  0.0904 -0.5184
 7137SOL    HW133047   4.365   0.219   9.172 -0.2822 -0.9023 -1.0667
 7137SOL    HW233048   4.299   0.098   9.231 -0.4711 -0.3441  2.2066
 7138SOL     OW33049   1.516   0.161  14.331  0.1179 -0.2692 -0.2188
 7138SOL    HW133050   1.571   0.237  14.312 -2.7577  1.6276 -1.0556
 7138SOL    HW233051   1.535   0.100  14.260  0.1026  0.5566 -0.9375
 7139SOL     OW33052   3.804   4.124   4.561 -0.0833  0.1244  0.1461
 7139SOL    HW133053   3.765   4.196   4.610 -0.3309 -0.5413  0.9210
 7139SOL    HW233054   3.793   4.049   4.620 -0.6921  1.0685  1.2157
 7140SOL     OW33055   2.808   0.939   4.314 -0.0971  0.2379 -0.3283
 7140SOL    HW133056   2.815   0.991   4.233  0.1092 -0.8730 -1.0271
 7140SOL    HW233057   2.877   0.980   4.366  0.0726 -0.9665  0.3749
 7141SOL     OW33058   1.215   3.943   2.015 -0.2730  0.4581  0.2613
 7141SOL    HW133059   1.127   3.980   2.013  0.2225  1.5079 -1.9372
 7141SOL    HW233060   1.225   3.898   1.931 -1.2905  0.7527 -0.0065
 7142SOL     OW33061   4.713   0.709   4.640 -0.6959 -0.0280 -0.1736
 7142SOL    HW133062   4.634   0.655   4.635 -0.4399 -0.2361 -1.9160
 7142SOL    HW233063   4.678   0.798   4.648 -0.5586 -0.1088  1.2805
 7143SOL     OW33064   1.501   3.397   2.204 -0.5121  0.6139  0.1924
 7143SOL    HW133065   1.412   3.411   2.170  0.3742  1.3783 -1.8487
 7143SOL    HW233066   1.479   3.346   2.282  0.8920  0.7185  0.6493
 7144SOL     OW33067   0.977   1.723   1.988 -0.6832 -0.8481 -0.1711
 7144SOL    HW133068   1.059   1.710   1.942 -0.2742  0.3280  0.2129
 7144SOL    HW233069   1.006   1.693   2.074 -0.5068  1.2556  0.5071
 7145SOL     OW33070   1.791   0.171   5.628  0.1198  0.1729 -0.0520
 7145SOL    HW133071   1.748   0.085   5.627  2.1938 -0.8875  1.0367
 7145SOL    HW233072   1.867   0.155   5.684 -0.4303 -0.4884  0.5098
 7146SOL     OW33073   4.324   4.089  15.813  0.0396 -0.2635  0.3002
 7146SOL    HW133074   4.255   4.033  15.847  0.8715 -2.6915 -2.0075
 7146SOL    HW233075   4.291   4.124  15.730 -0.0309  0.7054  0.7305
 7147SOL     OW33076   3.680   1.991   3.885  0.0362  0.4586  0.2492
 7147SOL    HW133077   3.615   2.053   3.853 -0.0968  0.4965  0.5995
 7147SOL    HW233078   3.750   2.014   3.824  0.0908 -0.4272 -0.0307
 7148SOL     OW33079   2.636   3.463   2.145 -0.2433  0.1315 -0.3078
 7148SOL    HW133080   2.694   3.529   2.182 -0.0939  1.0916 -2.2181
 7148SOL    HW233081   2.645   3.400   2.216 -0.7854 -2.1122 -2.1968
 7149SOL     OW33082   2.124   2.159   7.614  0.3264 -0.5456 -0.0545
 7149SOL    HW133083   2.058   2.225   7.637 -1.3384 -2.1483 -0.2550
 7149SOL    HW233084   2.175   2.205   7.546 -0.3749  0.9544  0.4205
 7150SOL     OW33085   3.090   0.040   4.871 -0.0270  0.1182  0.0808
 7150SOL    HW133086   3.114   0.031   4.779 -1.2291  0.7304 -0.2907
 7150SOL    HW233087   3.047   0.125   4.872  2.6195  1.4305  1.3902
 7151SOL     OW33088   3.469   3.556   8.394 -0.3957 -0.0578 -0.0035
 7151SOL    HW133089   3.550   3.559   8.444 -0.0393  0.2269 -0.6012
 7151SOL    HW233090   3.506   3.574   8.307  0.1745 -0.1247  0.2315
 7152SOL     OW33091   0.079   1.351  11.577  0.0005 -0.5324  0.3253
 7152SOL    HW133092   0.074   1.446  11.583  1.0230 -0.3170 -2.1494
 7152SOL    HW233093   0.013   1.340  11.508 -0.0112  1.0152  0.0818
 7153SOL     OW33094   0.718   0.537   5.378  0.4493  0.5060  0.4365
 7153SOL    HW133095   0.641   0.547   5.434  0.1346  0.4260  0.0236
 7153SOL    HW233096   0.704   0.447   5.348 -1.3809  0.5372  1.2167
 7154SOL     OW33097   2.248   1.525   5.969 -0.1364  0.1749  0.4038
 7154SOL    HW133098   2.253   1.442   5.922  2.1468  1.4605 -1.6874
 7154SOL    HW233099   2.308   1.572   5.910  1.4344 -0.7460  1.2827
 7155SOL     OW33100   2.591   3.393   7.186  0.1458 -0.0717 -0.8501
 7155SOL    HW133101   2.588   3.299   7.201 -0.2347 -0.5086 -3.5798
 7155SOL    HW233102   2.497   3.403   7.177 -0.1786 -3.1171 -0.9381
 7156SOL     OW33103   2.443   2.912  11.926 -0.2376 -0.1235 -0.7691
 7156SOL    HW133104   2.464   2.821  11.945  1.3509  0.6609  1.2044
 7156SOL    HW233105   2.357   2.931  11.964 -0.1482 -2.4376  0.5720
 7157SOL     OW33106   2.023   4.461   4.386 -0.5544 -0.0585  0.2902
 7157SOL    HW133107   2.019   4.550   4.420 -1.5150 -0.2482  0.6641
 7157SOL    HW233108   2.092   4.418   4.435  0.9837  0.3881 -1.4790
 7158SOL     OW33109   3.626   2.741   1.120 -0.1986 -0.1118 -0.5547
 7158SOL    HW133110   3.631   2.791   1.038 -0.3522  1.1248  0.1876
 7158SOL    HW233111   3.659   2.810   1.177  0.2265 -0.3068 -0.5639
 7159SOL     OW33112   2.573   4.680   6.782  0.1076 -0.0410 -0.2061
 7159SOL    HW133113   2.509   4.627   6.733  1.5793 -0.2855 -1.8538
 7159SOL    HW233114   2.507   4.732   6.829  0.3714 -0.9027  1.0947
 7160SOL     OW33115   3.717   3.319   5.394 -0.2434  0.6092 -0.1628
 7160SOL    HW133116   3.735   3.386   5.329  0.6392 -0.1134 -0.6675
 7160SOL    HW233117   3.687   3.250   5.335  0.8774  0.5941 -0.7127
 7161SOL     OW33118   0.176   3.174   1.359 -0.3770  0.3859 -0.0434
 7161SOL    HW133119   0.123   3.205   1.432  2.0926 -0.2203  1.9883
 7161SOL    HW233120   0.200   3.256   1.316 -0.7577 -0.2155 -1.4146
 7162SOL     OW33121   2.534   4.163   1.526  0.3356  0.2966  0.0720
 7162SOL    HW133122   2.548   4.253   1.495  0.4719 -0.2557 -1.4463
 7162SOL    HW233123   2.609   4.118   1.486  0.5690  1.7440 -1.1446
 7163SOL     OW33124   1.472   3.752   8.302 -0.3473 -0.2242 -0.0967
 7163SOL    HW133125   1.562   3.780   8.283 -0.4573 -0.5900 -1.1598
 7163SOL    HW233126   1.426   3.836   8.309  2.0210  1.2795 -2.3940
 7164SOL     OW33127   3.028   0.340   6.561  0.0019  0.4398  0.1320
 7164SOL    HW133128   2.972   0.397   6.509 -1.0693 -0.0130  0.7772
 7164SOL    HW233129   2.976   0.325   6.640  0.5358  0.1833  0.4324
 7165SOL     OW33130   3.578   2.515  12.209  0.1909  0.2028 -0.1236
 7165SOL    HW133131   3.561   2.428  12.245  0.6204  0.2023  0.0762
 7165SOL    HW233132   3.673   2.517  12.202  0.3318 -1.5328  1.3467
 7166SOL     OW33133   0.817   0.662   6.980  0.5107  0.3945  0.3912
 7166SOL    HW133134   0.727   0.639   6.956  0.3273  0.7205  0.7640
 7166SOL    HW233135   0.805   0.747   7.022  1.1727  0.4811  0.3943
 7167SOL     OW33136   2.882   1.922   2.018  0.1863 -0.2203 -0.1385
 7167SOL    HW133137   2.923   2.008   2.010  0.4797  0.1620  5.3235
 7167SOL    HW233138   2.910   1.874   1.940  0.0675 -0.5999  0.0527
 7168SOL     OW33139   2.005   0.590   2.634  0.2351  0.0460 -0.3631
 7168SOL    HW133140   1.917   0.627   2.623  0.0876  0.0947  0.9812
 7168SOL    HW233141   2.029   0.560   2.546 -0.7516  0.1299 -0.6641
 7169SOL     OW33142   1.147   4.655   3.991 -0.1532  0.0728  0.8799
 7169SOL    HW133143   1.168   4.587   3.927 -0.9694  0.7235 -0.0857
 7169SOL    HW233144   1.114   4.596   4.059 -1.3029  1.1768  1.2801
 7170SOL     OW33145   2.512   1.193   9.083  0.7789 -0.2257 -0.3156
 7170SOL    HW133146   2.548   1.256   9.021  0.5953 -0.4705 -0.6761
 7170SOL    HW233147   2.507   1.112   9.032  0.1379 -0.5614  0.2803
 7171SOL     OW33148   1.574   0.425   6.744 -0.1478  0.1068  0.4503
 7171SOL    HW133149   1.616   0.355   6.793 -1.5914  0.0376  1.5968
 7171SOL    HW233150   1.499   0.377   6.710  0.8096 -1.3488  0.4411
 7172SOL     OW33151   1.801   4.724   4.106 -0.1286  0.4729  0.0385
 7172SOL    HW133152   1.860   0.039   4.160  1.0481  1.0181 -1.7834
 7172SOL    HW233153   1.840   0.003   4.020 -0.9412  0.6498 -0.2900
 7173SOL     OW33154   0.370   4.588  16.467  0.4650 -0.1741 -0.4937
 7173SOL    HW133155   0.294   4.532  16.482 -0.8177  1.6820 -0.0332
 7173SOL    HW233156   0.346   4.642  16.392 -1.5717 -1.1934 -0.5665
 7174SOL     OW33157   2.991   3.051  17.239  0.2376  0.4950 -0.1806
 7174SOL    HW133158   2.979   3.068  17.145 -0.3149 -1.8727 -0.5312
 7174SOL    HW233159   3.086   3.056  17.245  0.3685 -1.7323 -0.5714
 7175SOL     OW33160   0.550   2.817   4.010  0.6619  0.3780 -0.8921
 7175SOL    HW133161   0.588   2.851   3.929  1.7868  0.1615 -0.4571
 7175SOL    HW233162   0.609   2.747   4.037  0.6772  0.8937  0.3753
 7176SOL     OW33163   2.867   0.277  17.692 -0.3755  0.3823  0.5814
 7176SOL    HW133164   2.890   0.212  17.626 -0.1975  0.6190  0.4115
 7176SOL    HW233165   2.916   0.250   0.021  0.1858 -0.7029 -0.1615
 7177SOL     OW33166   2.270   0.606  13.609  0.5482  0.0350  0.0410
 7177SOL    HW133167   2.195   0.664  13.594  0.0952 -0.8069 -0.9005
 7177SOL    HW233168   2.267   0.619  13.704  3.2022 -1.1395  0.2867
 7178SOL     OW33169   0.959   0.819  12.586 -0.5931 -0.3967  0.2632
 7178SOL    HW133170   0.915   0.834  12.670 -0.8467  1.2045 -0.1390
 7178SOL    HW233171   1.036   0.768  12.609 -1.1138 -1.3821 -0.2170
 7179SOL     OW33172   2.006   3.665   8.509  0.0340  0.6385 -0.2631
 7179SOL    HW133173   1.971   3.591   8.560 -0.4970  1.5197  0.6351
 7179SOL    HW233174   2.091   3.666   8.552 -0.3748  1.0247  0.5234
 7180SOL     OW33175   4.133   0.360   9.148 -0.0108  0.1570  0.6201
 7180SOL    HW133176   4.132   0.312   9.065  0.8385  1.0275  0.1217
 7180SOL    HW233177   4.210   0.326   9.194  0.7193  0.8854 -0.0726
 7181SOL     OW33178   1.025   1.676  14.838  0.1089 -0.1096  0.1112
 7181SOL    HW133179   0.982   1.725  14.767 -1.5738 -0.6440  0.7793
 7181SOL    HW233180   0.998   1.585  14.828 -2.1620  0.9961 -3.8802
 7182SOL     OW33181   3.035   2.712   4.865 -0.2908 -0.1598 -0.4312
 7182SOL    HW133182   2.982   2.731   4.787 -1.1894 -0.1395  0.1811
 7182SOL    HW233183   3.086   2.792   4.869 -0.8265  0.1557  0.1222
 7183SOL     OW33184   1.118   2.084  12.835  0.1720 -0.6423 -0.1862
 7183SOL    HW133185   1.167   2.087  12.917 -1.7058 -1.2387  0.9626
 7183SOL    HW233186   1.149   2.003  12.795  0.2428 -1.3259  1.2552
 7184SOL     OW33187   1.356   0.234   5.481  0.0454  0.3421 -0.4123
 7184SOL    HW133188   1.322   0.313   5.523  0.3211  1.7359 -2.8654
 7184SOL    HW233189   1.335   0.168   5.548  0.8568 -1.1268 -1.6203
 7185SOL     OW33190   0.976   3.092   2.391 -0.1576 -0.0437 -0.0842
 7185SOL    HW133191   0.996   3.176   2.349 -0.4840 -0.8695 -1.8602
 7185SOL    HW233192   0.890   3.067   2.356 -0.5800  1.0200  0.1912
 7186SOL     OW33193   4.723   1.057  13.705  0.2604 -0.2445 -0.9260
 7186SOL    HW133194   4.676   1.047  13.622 -1.7087  0.6154  0.0871
 7186SOL    HW233195   4.653   1.070  13.769  0.9674 -1.6765  0.1144
 7187SOL     OW33196   1.702   4.174   3.824  0.0924  0.0612 -0.1254
 7187SOL    HW133197   1.688   4.269   3.833 -1.3471 -0.0657 -0.9849
 7187SOL    HW233198   1.728   4.166   3.732 -1.5670 -0.4242 -0.5462
 7188SOL     OW33199   4.322   0.442   9.391 -0.3514 -0.8343  0.0448
 7188SOL    HW133200   4.328   0.353   9.356 -1.6787 -0.6136 -0.7345
 7188SOL    HW233201   4.306   0.420   9.483  2.1987 -2.8473  0.0409
 7189SOL     OW33202   1.181   3.405   3.845 -0.3804  0.1774 -0.5937
 7189SOL    HW133203   1.123   3.329   3.847  0.0096 -0.0896  1.1477
 7189SOL    HW233204   1.189   3.401   3.750  0.0748 -0.7998 -0.5150
 7190SOL     OW33205   2.692   2.444  17.216 -0.1800  0.2646 -0.0540
 7190SOL    HW133206   2.767   2.420  17.163  0.9025  3.4624  0.0251
 7190SOL    HW233207   2.629   2.392  17.167 -0.3063 -2.3178  2.8335
 7191SOL     OW33208   2.677   0.727   7.927  0.4117 -0.1303 -0.0379
 7191SOL    HW133209   2.619   0.763   7.860 -0.0449 -3.1287 -1.2898
 7191SOL    HW233210   2.647   0.636   7.925  0.9034 -0.2233 -4.2866
 7192SOL     OW33211   0.461   0.787   7.791 -0.6189 -0.0081  0.0720
 7192SOL    HW133212   0.422   0.839   7.722 -1.8333  0.5244  1.1684
 7192SOL    HW233213   0.543   0.767   7.746 -1.2001  1.6602 -1.6857
 7193SOL     OW33214   3.318   0.169   5.317  0.2693 -0.9731 -0.6999
 7193SOL    HW133215   3.352   0.089   5.276  1.1740  0.5183 -2.8411
 7193SOL    HW233216   3.240   0.138   5.362 -0.1373  0.3608 -0.4824
 7194SOL     OW33217   0.687   3.289   4.967 -0.1867  0.2730  0.4162
 7194SOL    HW133218   0.690   3.273   4.872 -2.8579 -0.0562  0.3854
 7194SOL    HW233219   0.632   3.222   5.009  0.6390 -1.6639 -1.5724
 7195SOL     OW33220   4.551   4.488   0.190  0.4848 -0.5119 -0.0410
 7195SOL    HW133221   4.502   4.414   0.156 -0.3063  0.5852 -1.2859
 7195SOL    HW233222   4.604   4.439   0.253  1.4963  1.3190  0.5492
 7196SOL     OW33223   0.259   2.435   9.377 -0.1544  0.7697 -0.0665
 7196SOL    HW133224   0.285   2.350   9.412 -1.7338  1.3807  2.5373
 7196SOL    HW233225   0.345   2.466   9.346  0.7444 -1.0226  0.6256
 7197SOL     OW33226   0.922   0.468   1.750 -0.4820  0.8136 -0.5524
 7197SOL    HW133227   0.923   0.541   1.688  2.6290  0.4074 -0.9884
 7197SOL    HW233228   1.001   0.484   1.803 -0.9414 -2.5593  1.1386
 7198SOL     OW33229   2.216   3.590   3.374  0.1436 -0.2465  0.1182
 7198SOL    HW133230   2.144   3.549   3.326  0.2081 -0.3274  0.0930
 7198SOL    HW233231   2.164   3.630   3.444  0.7779 -0.1895  0.5533
 7199SOL     OW33232   0.842   4.214   4.057  0.6229 -0.0948  0.2614
 7199SOL    HW133233   0.769   4.166   4.096  0.6645 -1.6948 -1.6465
 7199SOL    HW233234   0.921   4.161   4.055  0.6098 -0.1718  1.9603
 7200SOL     OW33235   4.622   3.203  16.041 -0.8526  0.0087 -0.6107
 7200SOL    HW133236   4.614   3.164  16.128  0.9522 -1.1182 -0.9319
 7200SOL    HW233237   4.560   3.142  16.001  1.3660 -1.6181 -1.6407
 7201SOL     OW33238   3.560   3.151   4.455 -0.1396  0.6556  0.2710
 7201SOL    HW133239   3.568   3.187   4.367  1.4212  0.4970  0.3368
 7201SOL    HW233240   3.510   3.071   4.436 -0.2232  0.7608  0.0513
 7202SOL     OW33241   0.027   2.584   0.224  0.3459  0.3967 -0.0488
 7202SOL    HW133242   4.684   2.572   0.275  0.4764 -0.5086 -0.0516
 7202SOL    HW233243   0.034   2.678   0.240 -1.2460  0.3417  0.9564
 7203SOL     OW33244   3.731   0.459  11.068 -0.1793 -0.1249 -0.1014
 7203SOL    HW133245   3.741   0.413  10.985 -1.3106 -2.6981  1.1765
 7203SOL    HW233246   3.725   0.381  11.124 -0.0071 -0.1742 -0.1515
 7204SOL     OW33247   4.039   4.268   4.073 -0.2426 -0.6710 -0.0468
 7204SOL    HW133248   3.951   4.248   4.041  0.3886 -0.8781 -1.6436
 7204SOL    HW233249   4.026   4.312   4.157 -0.0984 -0.6764 -0.0213
 7205SOL     OW33250   2.035   2.209   4.306 -0.2299  0.0182  0.2607
 7205SOL    HW133251   1.980   2.135   4.330 -0.0291  0.4151  1.9861
 7205SOL    HW233252   2.113   2.166   4.341 -1.5032 -1.3937  1.3533
 7206SOL     OW33253   1.298   4.545   6.780 -0.5582 -0.5217 -0.5000
 7206SOL    HW133254   1.359   4.554   6.853 -3.0692 -2.7979  1.8904
 7206SOL    HW233255   1.235   4.615   6.796 -2.8942 -2.2175 -2.2165
 7207SOL     OW33256   0.607   2.771  11.642  0.0432 -0.2614  0.1453
 7207SOL    HW133257   0.527   2.720  11.629 -0.6170  1.2933 -1.8865
 7207SOL    HW233258   0.629   2.736  11.729  1.1887  0.4930  0.1632
 7208SOL     OW33259   3.642   0.649   6.884  0.1228 -0.2316 -0.5164
 7208SOL    HW133260   3.596   0.647   6.800  1.4669  1.2822 -1.2910
 7208SOL    HW233261   3.625   0.741   6.904  1.3200  0.0962 -1.0312
 7209SOL     OW33262   2.983   4.594   2.766  0.1803 -0.6918  0.0783
 7209SOL    HW133263   2.955   4.610   2.676  0.5971  1.1475  0.2961
 7209SOL    HW233264   3.026   4.677   2.784 -1.6776  0.1630  0.5450
 7210SOL     OW33265   3.167   0.022   3.192  0.2439  0.3580  0.1288
 7210SOL    HW133266   3.186   0.106   3.234 -1.2632  0.8069 -0.0896
 7210SOL    HW233267   3.189   0.038   3.100 -0.4323  4.3381  0.6281
 7211SOL     OW33268   4.363   3.079  13.193  0.2571 -0.0964  0.1161
 7211SOL    HW133269   4.375   3.162  13.239  2.7225  1.3678 -3.1648
 7211SOL    HW233270   4.347   3.019  13.266  1.3118 -0.5888 -0.0468
 7212SOL     OW33271   3.929   0.936   2.895 -0.3206 -0.6940 -0.4025
 7212SOL    HW133272   3.849   0.988   2.884  1.8137  1.9457 -3.2719
 7212SOL    HW233273   3.995   0.994   2.932 -1.5274 -0.2878  1.0965
 7213SOL     OW33274   3.266   1.961   9.991 -0.0353  0.2666  0.0377
 7213SOL    HW133275   3.333   1.920  10.045 -0.8224 -1.7874 -0.5173
 7213SOL    HW233276   3.300   2.050   9.996 -0.0600  0.2896 -0.1982
 7214SOL     OW33277   2.899   0.355   5.125  0.2610 -0.0168 -0.5105
 7214SOL    HW133278   2.855   0.275   5.155  2.3441 -0.9451  0.0646
 7214SOL    HW233279   2.987   0.339   5.158  0.7811  3.2057 -0.3967
 7215SOL     OW33280   4.266   2.320   6.583  0.2483 -0.6210 -0.3735
 7215SOL    HW133281   4.297   2.402   6.621  0.0653 -0.8300  0.2231
 7215SOL    HW233282   4.191   2.342   6.527 -0.5009  1.6644  1.5184
 7216SOL     OW33283   3.038   3.706  17.099 -0.5971  0.2581 -0.0019
 7216SOL    HW133284   2.990   3.716  17.181 -2.5376 -2.0338 -0.8772
 7216SOL    HW233285   2.963   3.710  17.039 -0.4273 -2.0152 -0.3385
 7217SOL     OW33286   2.402   3.486   7.816 -0.2254 -0.3792 -0.1815
 7217SOL    HW133287   2.363   3.411   7.771  0.0333 -0.8375  0.3552
 7217SOL    HW233288   2.331   3.533   7.861  0.5677 -0.7458  1.4754
 7218SOL     OW33289   2.958   3.861   4.094 -0.3720  0.2319  0.3874
 7218SOL    HW133290   2.953   3.947   4.053  0.4847 -0.3971 -1.0236
 7218SOL    HW233291   3.021   3.883   4.164  0.2986 -1.3987  0.3021
 7219SOL     OW33292   3.193   0.490   4.219 -0.1293 -0.5890  0.0725
 7219SOL    HW133293   3.138   0.559   4.181  0.8339 -0.1991 -0.5992
 7219SOL    HW233294   3.281   0.521   4.200 -0.1012 -1.3808 -1.0806
 7220SOL     OW33295   0.030   0.151   6.339 -0.2158 -0.1154  0.0275
 7220SOL    HW133296   0.102   0.102   6.299  0.4212 -1.5229  2.9212
 7220SOL    HW233297   0.049   0.235   6.297  1.0393 -1.0393 -1.2548
 7221SOL     OW33298   2.647   2.007   9.072  0.1927  0.4171 -0.4416
 7221SOL    HW133299   2.699   1.962   9.005  0.2656 -0.6449  0.3256
 7221SOL    HW233300   2.679   2.095   9.055 -0.3581  0.2734 -2.2272
 7222SOL     OW33301   0.967   2.225  15.551 -0.0141 -0.1919  0.4336
 7222SOL    HW133302   1.046   2.218  15.498 -1.3020 -0.8020 -1.3918
 7222SOL    HW233303   0.998   2.283  15.622 -1.6058  1.5223 -0.2786
 7223SOL     OW33304   3.461   2.189   7.745 -0.0423  0.4207  0.5361
 7223SOL    HW133305   3.541   2.168   7.698 -1.1340 -0.7715 -0.7759
 7223SOL    HW233306   3.405   2.113   7.732  4.0808 -2.7965  1.8252
 7224SOL     OW33307   3.823   3.052   3.528  0.1907  0.1280  0.2983
 7224SOL    HW133308   3.742   3.014   3.563  1.5440 -0.1669  3.1097
 7224SOL    HW233309   3.883   2.984   3.559 -0.4152  0.2392  1.7466
 7225SOL     OW33310   4.278   2.790  15.479  0.5907  0.3165  0.3579
 7225SOL    HW133311   4.219   2.731  15.431 -0.3288  0.5632  1.1836
 7225SOL    HW233312   4.354   2.781  15.421  0.0663 -0.1491 -0.2631
 7226SOL     OW33313   2.502   0.896   3.680  0.1557 -0.0905 -0.2570
 7226SOL    HW133314   2.504   0.805   3.650 -0.8298 -1.0038  2.4571
 7226SOL    HW233315   2.474   0.937   3.598  1.1272 -0.3808 -0.7433
 7227SOL     OW33316   2.222   0.220   0.583 -0.0234 -0.2333 -0.3431
 7227SOL    HW133317   2.312   0.187   0.575  1.1618  2.4017  2.1055
 7227SOL    HW233318   2.186   0.154   0.642 -0.0171  1.1431  1.2052
 7228SOL     OW33319   2.231   0.378  17.280 -0.0666  0.6670  0.0965
 7228SOL    HW133320   2.199   0.411  17.196 -1.6392  0.2301  0.5103
 7228SOL    HW233321   2.195   0.446  17.338  0.5372  0.0432  1.2005
 7229SOL     OW33322   2.067   3.393  16.918  0.1612 -0.0984  0.0119
 7229SOL    HW133323   2.153   3.432  16.930  0.9451 -1.0004 -2.7067
 7229SOL    HW233324   2.097   3.302  16.917 -0.2369 -0.2581  2.2444
 7230SOL     OW33325   4.057   4.041   0.099 -0.3065  0.4972  0.2046
 7230SOL    HW133326   3.986   4.063   0.160 -0.1159 -0.5376  0.8000
 7230SOL    HW233327   4.010   3.988   0.035  3.0019 -1.7326 -0.4053
 7231SOL     OW33328   3.709   1.327  10.632 -0.0476 -0.0422  0.0759
 7231SOL    HW133329   3.752   1.411  10.615 -0.4689 -0.0814 -1.2285
 7231SOL    HW233330   3.619   1.346  10.605 -0.0723 -1.4799 -0.8712
 7232SOL     OW33331   2.009   1.343   5.195  0.0111 -0.0814 -0.2785
 7232SOL    HW133332   2.098   1.311   5.187 -0.8042 -2.0571 -1.3116
 7232SOL    HW233333   2.016   1.436   5.219 -0.8216  1.2280 -5.0562
 7233SOL     OW33334   2.221   1.263   4.991 -0.2427  0.2317 -0.3171
 7233SOL    HW133335   2.213   1.358   4.986  1.1856  0.3248 -0.7644
 7233SOL    HW233336   2.208   1.232   4.902  2.1662 -2.3295  0.2056
 7234SOL     OW33337   4.584   1.353  12.471  0.1486 -0.5381 -0.2376
 7234SOL    HW133338   4.540   1.287  12.524  1.7760 -3.0361 -1.9843
 7234SOL    HW233339   4.534   1.433  12.485  0.5296 -0.1331 -1.1712
 7235SOL     OW33340   2.321   0.312  14.155 -0.4164  0.1493 -0.9724
 7235SOL    HW133341   2.342   0.268  14.238  0.6796 -0.7386 -1.7305
 7235SOL    HW233342   2.348   0.398  14.187 -2.7970  0.0956  1.2068
 7236SOL     OW33343   1.889   0.644  11.737  0.1387 -0.1676 -0.0482
 7236SOL    HW133344   1.930   0.584  11.675 -1.5255 -0.9095 -0.4249
 7236SOL    HW233345   1.795   0.629  11.729 -0.1056  2.2949 -1.7432
 7237SOL     OW33346   0.162   3.285  16.080  0.1221  0.0025 -0.1108
 7237SOL    HW133347   0.072   3.255  16.074  0.3704 -0.6595 -0.4915
 7237SOL    HW233348   0.201   3.224  16.018  1.2282 -1.4876  2.0493
 7238SOL     OW33349   0.360   2.945   6.456  0.2825 -0.0264  0.1837
 7238SOL    HW133350   0.292   2.911   6.398  1.6869  0.4216 -1.7372
 7238SOL    HW233351   0.315   2.925   6.538  0.7551  1.4263  0.7975
 7239SOL     OW33352   1.316   1.864   5.445 -0.9744 -0.3457  0.2338
 7239SOL    HW133353   1.254   1.815   5.391 -1.3597 -1.3391  1.5782
 7239SOL    HW233354   1.399   1.826   5.417 -0.1888  0.4297  1.5481
 7240SOL     OW33355   4.480   4.497   8.945 -0.2482 -0.1223 -0.2930
 7240SOL    HW133356   4.555   4.459   8.898  0.8872  0.8332  0.7497
 7240SOL    HW233357   4.413   4.429   8.952  0.2617 -0.1105  4.7700
 7241SOL     OW33358   3.720   2.884   4.855  0.2406  0.5065  0.1636
 7241SOL    HW133359   3.648   2.919   4.908  0.2005  0.1970  0.3151
 7241SOL    HW233360   3.719   2.793   4.886 -2.1426  1.0484  1.7031
 7242SOL     OW33361   2.350   3.151  13.091 -0.2039  0.0535 -0.3724
 7242SOL    HW133362   2.311   3.077  13.136 -2.4279  1.8273  0.6387
 7242SOL    HW233363   2.278   3.178  13.033 -1.3206  0.1076  1.0504
 7243SOL     OW33364   2.145   2.478   5.491  0.6636  0.5746 -0.0147
 7243SOL    HW133365   2.052   2.492   5.503  0.8994  1.5559  0.6101
 7243SOL    HW233366   2.180   2.537   5.558 -1.2426 -1.1988  2.5487
 7244SOL     OW33367   2.425   2.146   0.061 -0.4231  0.2943 -0.1441
 7244SOL    HW133368   2.475   2.093  17.748 -1.9110 -1.6545  0.2997
 7244SOL    HW233369   2.380   2.212   0.009  1.4112  1.8213  0.1847
 7245SOL     OW33370   3.585   2.036   2.635  0.2759  0.2549  0.2981
 7245SOL    HW133371   3.655   2.008   2.693 -0.7841 -2.5301  0.2132
 7245SOL    HW233372   3.531   2.101   2.680 -1.7951 -0.6181 -0.9172
 7246SOL     OW33373   0.904   3.054   3.658 -0.0439  0.0573  0.0864
 7246SOL    HW133374   0.867   3.109   3.589  0.7284  0.8474  0.3035
 7246SOL    HW233375   0.998   3.075   3.654  0.0626 -0.4138  0.1247
 7247SOL     OW33376   3.191   4.580   3.462  0.4558  0.3009 -0.5992
 7247SOL    HW133377   3.202   4.634   3.384  1.4943 -1.2416 -1.5214
 7247SOL    HW233378   3.281   4.587   3.495  0.6902  0.4046 -1.2703
 7248SOL     OW33379   1.232   0.464   2.628  0.6675  0.4237 -0.0320
 7248SOL    HW133380   1.215   0.517   2.707 -0.6804 -2.5219  1.6535
 7248SOL    HW233381   1.327   0.455   2.624  0.4315 -3.1667  2.0765
 7249SOL     OW33382   2.794   0.740   3.669  0.1839 -0.6266  0.1619
 7249SOL    HW133383   2.823   0.807   3.730  0.1288 -0.0828 -0.4134
 7249SOL    HW233384   2.712   0.705   3.705  0.4317 -1.3605  0.0206
 7250SOL     OW33385   1.859   1.558   9.761 -0.4344 -0.3285  0.0224
 7250SOL    HW133386   1.813   1.615   9.822  0.3657  1.8504 -1.4037
 7250SOL    HW233387   1.944   1.600   9.749 -0.0521 -1.0411  0.2536
 7251SOL     OW33388   3.251   3.057  17.339  0.0509  0.3266  0.0591
 7251SOL    HW133389   3.313   3.125  17.313 -0.0581  0.8236  1.1005
 7251SOL    HW233390   3.236   3.103  17.421 -0.8776  0.3690 -0.1339
 7252SOL     OW33391   4.103   0.651   8.151  0.1785 -0.1731 -0.4441
 7252SOL    HW133392   4.087   0.581   8.215  1.0111 -0.1290 -0.1901
 7252SOL    HW233393   4.084   0.611   8.066  0.8101 -1.0576 -0.1748
 7253SOL     OW33394   3.217   2.732   5.407  0.2158 -0.0248 -0.1201
 7253SOL    HW133395   3.215   2.787   5.486 -0.6579  0.2523 -0.3336
 7253SOL    HW233396   3.143   2.764   5.355 -0.1041  1.4009  1.2087
 7254SOL     OW33397   1.086   1.371   6.787 -0.0897 -0.3642 -0.1435
 7254SOL    HW133398   1.116   1.398   6.874  0.7126 -0.4855 -0.3848
 7254SOL    HW233399   1.015   1.311   6.813 -0.0296 -0.3223  0.1212
 7255SOL     OW33400   4.283   4.400  11.543 -0.0450 -0.0579  0.0742
 7255SOL    HW133401   4.254   4.348  11.618  0.6739 -1.4059 -0.5681
 7255SOL    HW233402   4.196   4.420  11.509  0.5415  2.2217 -0.0698
 7256SOL     OW33403   4.493   3.343   2.897 -0.1319  0.5792  0.2662
 7256SOL    HW133404   4.552   3.270   2.876 -0.2345 -0.0314  2.0754
 7256SOL    HW233405   4.431   3.304   2.959 -1.8057  2.2293 -0.3881
 7257SOL     OW33406   0.559   4.211  12.817 -0.7631 -0.3036  0.6274
 7257SOL    HW133407   0.638   4.189  12.867  0.0775  0.0491 -0.5630
 7257SOL    HW233408   0.601   4.237  12.735 -0.4542 -1.8992  0.2868
 7258SOL     OW33409   2.197   0.420   6.261 -0.0292  0.0900 -0.1092
 7258SOL    HW133410   2.190   0.406   6.167 -3.9431  1.3240  0.0215
 7258SOL    HW233411   2.152   0.504   6.275 -0.4461 -0.3811  1.3707
 7259SOL     OW33412   2.748   4.099   8.666  0.3125  0.4790 -0.5045
 7259SOL    HW133413   2.731   4.139   8.580 -2.2747  0.5348  0.0395
 7259SOL    HW233414   2.691   4.151   8.722 -0.0940  0.3382 -0.7845
 7260SOL     OW33415   3.408   3.784   9.741  0.2336 -0.3728  0.4461
 7260SOL    HW133416   3.351   3.767   9.816 -0.2642 -1.9170 -0.2866
 7260SOL    HW233417   3.431   3.693   9.723  0.2416 -0.4154  0.6745
 7261SOL     OW33418   2.259   0.927   5.823  0.0868 -0.5105 -0.6684
 7261SOL    HW133419   2.270   0.866   5.750  1.6235 -0.8636 -0.1511
 7261SOL    HW233420   2.168   0.955   5.812  0.9524  1.6526 -2.2216
 7262SOL     OW33421   2.684   3.599   4.542 -0.7310 -0.0787  0.6983
 7262SOL    HW133422   2.593   3.588   4.569 -0.6765 -1.4257  0.2852
 7262SOL    HW233423   2.685   3.600   4.447 -1.3073  1.5390  0.7073
 7263SOL     OW33424   3.161   3.371   4.776  0.7944 -0.4536 -0.3246
 7263SOL    HW133425   3.165   3.463   4.802  1.0757 -0.7378  0.6245
 7263SOL    HW233426   3.121   3.383   4.690 -1.3801  0.3482  0.7716
 7264SOL     OW33427   0.381   4.678  11.560  0.2901 -0.2757 -0.7847
 7264SOL    HW133428   0.391   4.689  11.654  1.1205  0.1033 -0.9142
 7264SOL    HW233429   0.292   4.642  11.552 -0.4467  1.4373 -0.3260
 7265SOL     OW33430   0.596   4.134   9.259  0.0279 -1.0411 -0.2532
 7265SOL    HW133431   0.528   4.075   9.227 -1.4590 -0.8267  2.4512
 7265SOL    HW233432   0.540   4.212   9.263 -1.3810 -2.1321  1.1118
 7266SOL     OW33433   2.346   3.586   1.588  0.5341 -0.1926 -0.3815
 7266SOL    HW133434   2.325   3.676   1.565 -1.0627 -0.4637  0.0011
 7266SOL    HW233435   2.404   3.562   1.516  0.0805 -1.1583 -0.4181
 7267SOL     OW33436   1.443   2.615   3.428  0.5599 -0.0231 -0.0021
 7267SOL    HW133437   1.395   2.697   3.421  3.2627  1.3623 -1.8180
 7267SOL    HW233438   1.404   2.559   3.361  2.1976  0.2708 -1.1702
 7268SOL     OW33439   2.976   2.231   7.224 -0.6874 -0.7755  0.1286
 7268SOL    HW133440   3.069   2.242   7.244 -0.6986 -0.9744  0.2933
 7268SOL    HW233441   2.967   2.294   7.152  0.6195  0.3339  0.9369
 7269SOL     OW33442   3.252   2.010   8.935  0.0885 -0.7430  0.9386
 7269SOL    HW133443   3.296   1.946   8.879 -0.8237 -0.3516 -0.2231
 7269SOL    HW233444   3.319   2.021   9.003 -0.1709 -1.7504  1.3606
 7270SOL     OW33445   2.161   0.732   2.803  0.2571  0.2952 -0.0122
 7270SOL    HW133446   2.121   0.694   2.725  2.3540 -2.5313  0.2994
 7270SOL    HW233447   2.149   0.655   2.860  2.9514  1.4547  2.1250
 7271SOL     OW33448   3.359   3.906   1.569 -0.2016  0.3387  0.1890
 7271SOL    HW133449   3.360   3.871   1.480  0.8017 -0.7547  0.6343
 7271SOL    HW233450   3.265   3.908   1.586 -0.4065 -0.1321 -0.8674
 7272SOL     OW33451   1.061   3.445  14.908  0.3244  0.2853  0.2205
 7272SOL    HW133452   1.043   3.387  14.834  0.2347 -2.9424  2.7659
 7272SOL    HW233453   1.003   3.517  14.884 -1.1437 -1.0279 -0.1244
 7273SOL     OW33454   3.370   2.455   2.836 -0.6781  0.1971 -0.1428
 7273SOL    HW133455   3.353   2.537   2.790  1.8801  0.6117 -0.3868
 7273SOL    HW233456   3.459   2.481   2.859 -1.2022  1.3789  0.5548
 7274SOL     OW33457   1.281   3.483  16.163  0.4237  0.4456  0.4972
 7274SOL    HW133458   1.329   3.480  16.080 -0.6509  0.3207 -0.1251
 7274SOL    HW233459   1.212   3.419  16.143  1.6147 -0.1161 -1.8213
 7275SOL     OW33460   0.379   2.494   7.500 -0.7300 -0.4588  0.4221
 7275SOL    HW133461   0.455   2.532   7.456 -1.2166 -2.2390 -1.9321
 7275SOL    HW233462   0.352   2.423   7.443  1.7490 -0.7669 -0.3634
 7276SOL     OW33463   4.271   0.198   3.160  0.7091  0.3106  0.1297
 7276SOL    HW133464   4.332   0.203   3.087  0.2145  2.0955 -0.1527
 7276SOL    HW233465   4.260   0.293   3.163  0.2136  0.2829 -0.9214
 7277SOL     OW33466   4.732   4.649   6.013 -0.5016  0.1001 -0.0678
 7277SOL    HW133467   0.026   4.561   6.034  1.6493  1.5677  2.7833
 7277SOL    HW233468   0.028   4.698   6.089  0.4159  0.3357 -0.6213
 7278SOL     OW33469   4.373   3.737   8.285  0.0037 -0.2443  0.2164
 7278SOL    HW133470   4.289   3.731   8.239  0.5197  2.4319 -1.0575
 7278SOL    HW233471   4.391   3.824   8.250  0.4374  0.2348  1.6151
 7279SOL     OW33472   0.715   1.314   1.821 -0.0104 -0.7027  0.7229
 7279SOL    HW133473   0.638   1.278   1.779  0.7422 -0.7076 -0.6543
 7279SOL    HW233474   0.786   1.284   1.765 -0.5745  1.6740 -1.2598
 7280SOL     OW33475   3.468   2.589  11.277 -0.2934  0.1923 -0.5566
 7280SOL    HW133476   3.551   2.586  11.229  0.2514  2.3655  0.2285
 7280SOL    HW233477   3.486   2.677  11.310  2.6937 -0.1850 -1.2165
 7281SOL     OW33478   0.604   2.960   2.844  0.2541  0.2882 -0.0907
 7281SOL    HW133479   0.577   2.980   2.934  0.3421 -0.4366  0.0977
 7281SOL    HW233480   0.616   3.049   2.812 -0.2990  0.4165  0.0612
 7282SOL     OW33481   4.473   4.313   7.960  0.1240  0.3702 -0.4735
 7282SOL    HW133482   4.491   4.399   7.922 -0.2979  0.8424  0.3948
 7282SOL    HW233483   4.559   4.299   8.001  0.5814  2.0600 -0.8432
 7283SOL     OW33484   3.687   3.864   3.810  0.5599  0.6152  0.0021
 7283SOL    HW133485   3.607   3.816   3.789 -0.0028  0.5116  2.3513
 7283SOL    HW233486   3.734   3.834   3.732 -0.8974  0.4894 -0.8345
 7284SOL     OW33487   1.158   0.422  14.470  0.4426  0.0008  0.6491
 7284SOL    HW133488   1.129   0.398  14.558 -0.2589  1.5773  0.8503
 7284SOL    HW233489   1.132   0.344  14.421 -0.0727  0.3989  0.2832
 7285SOL     OW33490   3.482   4.316   7.805 -0.4269 -0.1907 -0.5502
 7285SOL    HW133491   3.415   4.333   7.738 -0.3662 -1.0643 -0.8274
 7285SOL    HW233492   3.430   4.294   7.882 -0.5218 -0.0973 -0.5876
 7286SOL     OW33493   1.455   3.472   5.555 -0.7138  0.3254 -0.0456
 7286SOL    HW133494   1.499   3.505   5.633 -0.4570  0.7275 -0.3612
 7286SOL    HW233495   1.503   3.503   5.478 -1.8237  0.5062 -0.6691
 7287SOL     OW33496   0.244   0.870   5.278 -0.3994  0.9563 -0.3193
 7287SOL    HW133497   0.183   0.898   5.346 -0.4473  0.3120 -0.0891
 7287SOL    HW233498   0.227   0.776   5.269 -1.2838  0.9235  1.6262
 7288SOL     OW33499   0.414   4.496   3.705 -0.3113 -0.2130 -0.2203
 7288SOL    HW133500   0.443   4.413   3.743  2.6973 -0.1001 -2.2647
 7288SOL    HW233501   0.385   4.535   3.788 -0.4454  1.9705 -1.3079
 7289SOL     OW33502   1.273   3.592  11.157 -0.2388 -0.2007  0.0289
 7289SOL    HW133503   1.352   3.573  11.208 -0.3575  0.0599  0.3064
 7289SOL    HW233504   1.292   3.543  11.077  1.0959  0.5558 -0.1209
 7290SOL     OW33505   0.921   1.413   5.604 -0.4657 -0.1803  0.3839
 7290SOL    HW133506   0.830   1.403   5.575  0.3769 -3.2291 -1.3083
 7290SOL    HW233507   0.926   1.501   5.641  0.8700 -1.1215  2.4544
 7291SOL     OW33508   4.154   2.013   3.306 -0.6656 -0.0093 -0.0687
 7291SOL    HW133509   4.178   1.942   3.245  1.9254 -0.4138  1.4053
 7291SOL    HW233510   4.228   2.074   3.305  0.2967 -1.0404  5.7295
 7292SOL     OW33511   4.519   2.255   6.468 -0.4167  0.0363  0.2351
 7292SOL    HW133512   4.454   2.299   6.522  1.4761  0.3226  2.2947
 7292SOL    HW233513   4.534   2.322   6.400 -1.5883  1.4017  1.3198
 7293SOL     OW33514   4.282   1.320   9.203  0.9469 -0.5586 -0.3010
 7293SOL    HW133515   4.234   1.349   9.280  1.4888  0.4670 -0.3533
 7293SOL    HW233516   4.224   1.355   9.135 -1.8844  1.1854  2.9922
 7294SOL     OW33517   2.284   3.719  17.164 -0.1662  0.3897 -0.5236
 7294SOL    HW133518   2.361   3.724  17.108 -0.2744 -0.2168 -0.7359
 7294SOL    HW233519   2.246   3.639  17.128  0.4975  0.4084 -1.2613
 7295SOL     OW33520   4.100   2.950   3.346 -0.2639  0.3889  0.0424
 7295SOL    HW133521   4.064   2.866   3.315  2.2035 -0.7030  0.1100
 7295SOL    HW233522   4.122   2.980   3.258 -0.0499  1.4672  0.4725
 7296SOL     OW33523   0.033   2.369  12.909 -0.2631  0.3339  0.4012
 7296SOL    HW133524   4.712   2.300  12.943 -1.6167  1.1424 -0.2767
 7296SOL    HW233525   0.092   2.335  12.842 -0.4115 -2.7529  1.8200
 7297SOL     OW33526   0.923   3.929   6.049 -0.0583 -0.0997  0.3630
 7297SOL    HW133527   0.845   3.873   6.053 -0.2991  0.3355  1.6267
 7297SOL    HW233528   0.957   3.913   5.961 -3.4492  0.6161 -1.1000
 7298SOL     OW33529   1.750   0.845  16.194  0.0769 -0.0680  0.0104
 7298SOL    HW133530   1.672   0.875  16.146  1.1675 -0.6956 -2.1838
 7298SOL    HW233531   1.756   0.909  16.265 -0.2687 -1.4502  1.2663
 7299SOL     OW33532   3.899   2.348  13.973 -0.2839  0.0744 -0.1074
 7299SOL    HW133533   3.936   2.424  14.018  0.1540  0.7503 -1.5989
 7299SOL    HW233534   3.830   2.389  13.922  1.3614  1.2539 -1.3950
 7300SOL     OW33535   3.184   1.249   3.583  0.5275  0.4121  0.0053
 7300SOL    HW133536   3.252   1.273   3.520 -0.0480  1.5866 -0.1716
 7300SOL    HW233537   3.112   1.300   3.547  1.0723  0.6936 -0.6804
 7301SOL     OW33538   3.147   4.423  13.425  0.3106  0.0684  0.3634
 7301SOL    HW133539   3.209   4.451  13.358 -1.3647  1.1042 -0.7738
 7301SOL    HW233540   3.163   4.330  13.441  0.0472  0.0366  0.4338
 7302SOL     OW33541   1.120   3.306   1.534  0.3387  0.1765 -0.4966
 7302SOL    HW133542   1.212   3.300   1.561  0.3653 -0.5724 -0.7420
 7302SOL    HW233543   1.122   3.384   1.479  1.6962  0.1525 -0.4941
 7303SOL     OW33544   0.400   0.913   2.837 -0.6299 -0.2375  0.4128
 7303SOL    HW133545   0.397   0.854   2.912  1.1256  0.8424  1.3449
 7303SOL    HW233546   0.312   0.894   2.805  1.0087 -5.4539 -1.0176
 7304SOL     OW33547   4.711   3.552   7.133 -1.0775 -0.5086  0.2804
 7304SOL    HW133548   4.715   3.490   7.060  0.9501  0.8240 -0.7438
 7304SOL    HW233549   4.651   3.521   7.201 -1.4729  1.6882  0.9361
 7305SOL     OW33550   0.006   2.901  11.350 -0.2205 -0.4707  0.0962
 7305SOL    HW133551   4.688   2.895  11.272 -3.3779 -1.7833  2.4404
 7305SOL    HW233552   0.074   2.963  11.323 -2.3299 -0.0773 -4.2643
 7306SOL     OW33553   2.071   3.696   8.958  0.0156  0.2148 -0.4350
 7306SOL    HW133554   2.126   3.631   8.913 -1.4858 -1.1565 -0.3064
 7306SOL    HW233555   2.111   3.706   9.045 -2.6963  3.0567  0.4542
 7307SOL     OW33556   0.839   0.656   1.565  0.0639  0.5604 -0.3686
 7307SOL    HW133557   0.744   0.657   1.555 -0.1091 -1.1536  1.0725
 7307SOL    HW233558   0.866   0.653   1.473  1.1087  1.1744 -0.0882
 7308SOL     OW33559   4.579   1.206   6.852 -0.0431  0.3021 -0.3433
 7308SOL    HW133560   4.612   1.277   6.796 -0.5534 -0.0857 -1.1267
 7308SOL    HW233561   4.642   1.137   6.832  2.6914  2.5972  0.4438
 7309SOL     OW33562   0.926   3.063   8.532  0.2667 -0.0042  0.2788
 7309SOL    HW133563   0.923   3.128   8.462  2.5253 -2.3329 -1.9799
 7309SOL    HW233564   1.005   3.016   8.506  0.8382  1.1365 -0.0443
 7310SOL     OW33565   0.093   2.128   6.069  0.4776  0.0274  0.1504
 7310SOL    HW133566   0.008   2.166   6.089  0.7458  0.7569 -0.0900
 7310SOL    HW233567   0.055   2.042   6.050  1.1924 -0.2083 -0.2492
 7311SOL     OW33568   2.048   1.875   5.194  0.0864 -0.5697 -0.4841
 7311SOL    HW133569   2.056   1.939   5.124 -0.1453 -0.3151 -0.2782
 7311SOL    HW233570   1.966   1.903   5.235 -0.6869 -0.2262 -2.2655
 7312SOL     OW33571   1.138   3.933   4.885  0.0334 -0.2834  0.0048
 7312SOL    HW133572   1.137   3.845   4.848 -0.5495 -0.3110  0.0868
 7312SOL    HW233573   1.230   3.934   4.913 -0.5948 -3.8897  2.0542
 7313SOL     OW33574   1.092   1.664   7.443 -0.2921 -0.1968  0.0648
 7313SOL    HW133575   1.097   1.704   7.529 -0.4586 -2.8883  1.3347
 7313SOL    HW233576   1.183   1.664   7.413 -0.3479  0.9054 -0.1074
 7314SOL     OW33577   1.324   2.260  14.117 -0.3245 -0.2044 -0.0720
 7314SOL    HW133578   1.263   2.188  14.101 -1.1757  0.2916  0.9594
 7314SOL    HW233579   1.414   2.230  14.105 -1.2290 -2.6148 -0.8227
 7315SOL     OW33580   3.842   0.357  12.624 -0.1279 -0.0983 -0.4955
 7315SOL    HW133581   3.823   0.427  12.562  0.7852  0.5274 -0.0788
 7315SOL    HW233582   3.903   0.400  12.684 -1.1320  1.0821 -0.3229
 7316SOL     OW33583   3.385   2.381   3.787 -0.3738 -0.0558  0.3570
 7316SOL    HW133584   3.428   2.380   3.873  2.0560 -1.3419 -0.8583
 7316SOL    HW233585   3.403   2.295   3.747  2.3157 -0.1731  1.8079
 7317SOL     OW33586   0.105   3.510  10.199  0.4390 -0.0172  0.3444
 7317SOL    HW133587   0.167   3.468  10.258 -0.3969 -2.0363 -0.2232
 7317SOL    HW233588   0.154   3.550  10.127  0.3202 -0.1152  0.2064
 7318SOL     OW33589   2.461   1.446   5.139 -0.2696 -0.0632 -0.0826
 7318SOL    HW133590   2.465   1.355   5.109 -1.1056 -0.2622  0.4383
 7318SOL    HW233591   2.418   1.487   5.064  3.0282  2.5135 -0.6042
 7319SOL     OW33592   3.312   1.572  15.825 -0.2719  0.0146  0.3597
 7319SOL    HW133593   3.228   1.530  15.844  1.7344 -2.6099  3.3619
 7319SOL    HW233594   3.319   1.579  15.730 -0.1087  0.6122  0.4166
 7320SOL     OW33595   2.897   3.101   0.038 -0.4075  0.1354  0.4708
 7320SOL    HW133596   2.920   3.192   0.019  0.1079 -0.2293 -0.6688
 7320SOL    HW233597   2.910   3.063  17.699 -1.7233 -2.8541  1.5837
 7321SOL     OW33598   0.162   2.753   7.232  0.4476 -0.9477  0.3878
 7321SOL    HW133599   0.130   2.667   7.257 -0.9829 -1.1084 -1.9884
 7321SOL    HW233600   0.254   2.735   7.214  1.5564  4.0548  0.9085
 7322SOL     OW33601   4.244   2.109   9.187  0.4669  0.0583 -0.2724
 7322SOL    HW133602   4.248   2.051   9.111 -1.7315  0.5318 -0.7527
 7322SOL    HW233603   4.283   2.067   9.263 -0.6241 -0.8297 -0.2010
 7323SOL     OW33604   0.066   1.892  10.123 -0.0459 -0.5089 -0.3768
 7323SOL    HW133605   0.041   1.805  10.093 -2.0466 -0.1472  0.2255
 7323SOL    HW233606   0.013   1.892  10.202 -0.2206 -1.1674 -0.4955
 7324SOL     OW33607   3.383   2.784  13.719 -0.1070 -0.3030  0.8630
 7324SOL    HW133608   3.297   2.742  13.717 -0.7337  1.0273 -0.4887
 7324SOL    HW233609   3.439   2.713  13.750 -0.7134 -1.5745 -0.9359
 7325SOL     OW33610   1.801   4.528  17.192  0.1476 -0.4554  0.5802
 7325SOL    HW133611   1.766   4.611  17.225 -2.9270 -0.8171 -1.8347
 7325SOL    HW233612   1.741   4.508  17.121 -1.0806 -1.0260  1.7893
 7326SOL     OW33613   2.493   0.089   3.745 -0.0992 -0.2720 -0.4868
 7326SOL    HW133614   2.454   0.005   3.721 -1.5065  0.3391 -0.3883
 7326SOL    HW233615   2.435   0.118   3.816 -0.3089  0.1509 -0.8324
 7327SOL     OW33616   3.089   4.247   1.881 -0.6124 -0.0564  0.1907
 7327SOL    HW133617   3.021   4.182   1.860  0.3642 -1.0697  0.1616
 7327SOL    HW233618   3.066   4.328   1.836 -1.5554 -0.4503 -0.0600
 7328SOL     OW33619   0.904   4.024   2.680 -0.1481 -0.1527  0.5908
 7328SOL    HW133620   0.822   3.977   2.696  0.6851 -1.7190  0.2449
 7328SOL    HW233621   0.957   3.975   2.743 -0.7340  1.1074  2.0575
 7329SOL     OW33622   4.627   2.819  16.841 -0.4239 -0.2320 -0.2499
 7329SOL    HW133623   4.648   2.746  16.783  1.3241 -0.5248  0.7423
 7329SOL    HW233624   4.650   2.783  16.927  1.4609  1.8456  0.1309
 7330SOL     OW33625   2.839   2.236   2.069 -0.1079 -0.6351 -0.4343
 7330SOL    HW133626   2.820   2.268   1.981  1.4569 -2.4519 -1.4441
 7330SOL    HW233627   2.892   2.304   2.110 -1.9033 -1.6247  3.6153
 7331SOL     OW33628   3.955   3.207   2.924  0.0347 -0.2357 -0.1090
 7331SOL    HW133629   3.875   3.154   2.934 -0.6032  0.8722  0.6926
 7331SOL    HW233630   3.982   3.179   2.837 -2.5299  1.7663 -1.5535
 7332SOL     OW33631   0.159   1.161   2.905 -0.6352  0.1085  0.2301
 7332SOL    HW133632   0.117   1.147   2.821 -1.4628  0.6531  0.5555
 7332SOL    HW233633   0.170   1.068   2.927  0.1948  0.0398 -0.4643
 7333SOL     OW33634   2.377   1.592   6.786  0.0833  0.0477  0.0516
 7333SOL    HW133635   2.288   1.619   6.764 -0.3211  0.2427  1.8944
 7333SOL    HW233636   2.350   1.514   6.834  1.8834 -0.9549 -0.5673
 7334SOL     OW33637   2.845   1.237  13.280 -0.2309 -0.1588 -0.2517
 7334SOL    HW133638   2.839   1.142  13.280  0.7614 -0.2238 -0.3685
 7334SOL    HW233639   2.831   1.266  13.190 -0.4026  1.3833  0.2706
 7335SOL     OW33640   3.920   4.276  16.238 -0.5657 -0.2324  0.4053
 7335SOL    HW133641   3.937   4.190  16.201  0.2821 -0.4800  1.3806
 7335SOL    HW233642   4.010   4.293  16.264 -1.0089  1.5721  0.7545
 7336SOL     OW33643   1.094   3.978   8.102  0.0870 -0.2340 -0.0575
 7336SOL    HW133644   1.004   4.004   8.079 -0.1086 -0.2287  0.7338
 7336SOL    HW233645   1.145   4.047   8.060  1.0413 -2.1810 -2.1122
 7337SOL     OW33646   0.725   0.062  11.421  0.5562  0.2309 -0.0489
 7337SOL    HW133647   0.776   4.728  11.460  1.8910  1.0418 -0.3153
 7337SOL    HW233648   0.770   0.138  11.459  1.7155 -0.1574 -0.6577
 7338SOL     OW33649   1.802   1.526  16.021 -0.1562 -0.0234 -0.1852
 7338SOL    HW133650   1.757   1.506  16.103 -1.5638  2.0683 -0.4456
 7338SOL    HW233651   1.749   1.497  15.947 -0.0834 -0.2091 -0.1627
 7339SOL     OW33652   1.085   4.136   3.912 -0.1406 -0.4075 -0.0042
 7339SOL    HW133653   1.171   4.098   3.892 -0.5017 -2.2968  2.0112
 7339SOL    HW233654   1.066   4.159   3.821 -0.2768  2.2100  0.7080
 7340SOL     OW33655   2.279   3.662   7.507  0.0760  0.4039  0.0117
 7340SOL    HW133656   2.192   3.621   7.508  0.7776 -1.0527  0.8151
 7340SOL    HW233657   2.248   3.722   7.574  1.8745  2.3064 -0.8615
 7341SOL     OW33658   2.245   3.950  17.677 -0.6535 -0.5788  0.0861
 7341SOL    HW133659   2.206   3.918  17.595  1.1185  0.9767 -1.3765
 7341SOL    HW233660   2.226   3.879  17.738 -1.8845  0.6362  1.1034
 7342SOL     OW33661   3.260   2.283  13.985  0.7044 -0.0019 -1.0883
 7342SOL    HW133662   3.315   2.301  13.909  0.4186 -1.0508 -1.5483
 7342SOL    HW233663   3.172   2.275  13.949  0.4132  0.8047 -0.5585
 7343SOL     OW33664   3.037   3.578   2.503  0.2667  0.1970  0.2197
 7343SOL    HW133665   3.042   3.621   2.417 -1.6636  0.3903  0.1971
 7343SOL    HW233666   3.002   3.651   2.554  0.0883  0.3499 -0.1156
 7344SOL     OW33667   3.093   4.226   4.183 -0.0330  0.0851 -0.5360
 7344SOL    HW133668   3.074   4.305   4.232 -1.1309 -0.8292  0.5181
 7344SOL    HW233669   3.008   4.195   4.151  1.2288 -1.5108 -2.3659
 7345SOL     OW33670   2.018   4.242   1.187 -0.1492  0.2837  0.4375
 7345SOL    HW133671   1.995   4.204   1.103  1.0062 -0.0308  0.2597
 7345SOL    HW233672   1.935   4.243   1.233 -0.4049  1.6295 -0.0502
 7346SOL     OW33673   3.501   4.038   7.344 -0.5034  0.5566  0.5605
 7346SOL    HW133674   3.446   3.960   7.356 -0.5600  0.1401 -2.2130
 7346SOL    HW233675   3.429   4.090   7.308  0.7079  1.0608 -1.1530
 7347SOL     OW33676   4.287   2.812   3.609 -0.6956 -0.1373 -0.4791
 7347SOL    HW133677   4.290   2.879   3.678 -0.4468 -1.2290  0.5742
 7347SOL    HW233678   4.259   2.739   3.664  2.6483  2.2323  4.3340
 7348SOL     OW33679   0.525   0.407   1.567  0.0260  0.0425 -0.0504
 7348SOL    HW133680   0.542   0.501   1.561  2.2125 -0.3614 -0.2808
 7348SOL    HW233681   0.433   0.411   1.542 -0.2459  1.5769  1.1926
 7349SOL     OW33682   3.347   4.509  10.641  0.3341  0.5924 -0.6393
 7349SOL    HW133683   3.338   4.474  10.730 -0.8405  0.6234 -0.7458
 7349SOL    HW233684   3.259   4.547  10.638 -0.5272 -1.0798  2.6944
 7350SOL     OW33685   1.704   1.988   7.803 -0.5948  0.0757  0.2099
 7350SOL    HW133686   1.780   2.045   7.813 -0.1634 -0.3344 -0.7216
 7350SOL    HW233687   1.744   1.930   7.738 -0.7423  0.9733 -0.6740
 7351SOL     OW33688   0.185   2.032   3.817 -0.2520  0.5568 -0.0288
 7351SOL    HW133689   0.161   2.077   3.898 -0.1318 -0.7959  0.7520
 7351SOL    HW233690   0.273   2.070   3.812  0.4647 -1.1308 -0.3993
 7352SOL     OW33691   4.457   1.603   8.027  0.6855  0.2250  0.4934
 7352SOL    HW133692   4.508   1.525   8.004  0.4249  0.2720 -0.2212
 7352SOL    HW233693   4.455   1.644   7.941 -2.4509 -0.2704  0.3157
 7353SOL     OW33694   1.723   4.369   5.063  0.5395  0.2201  0.8026
 7353SOL    HW133695   1.693   4.319   5.140 -0.6939 -2.4300 -1.3826
 7353SOL    HW233696   1.645   4.381   5.009  1.3339 -0.8090 -0.5805
 7354SOL     OW33697   2.681   3.101  14.830 -1.3217 -0.4783  0.7023
 7354SOL    HW133698   2.752   3.056  14.784  0.6356  0.4871  2.7557
 7354SOL    HW233699   2.699   3.192  14.807 -0.4358 -0.6623  0.6545
 7355SOL     OW33700   2.532   0.288   4.865 -0.2311  0.2489  0.4191
 7355SOL    HW133701   2.563   0.362   4.917  0.7582 -0.1110  0.3304
 7355SOL    HW233702   2.611   0.235   4.872 -0.7907 -0.6243  0.1510
 7356SOL     OW33703   0.666   4.106   8.648 -1.1719 -0.3574 -0.5817
 7356SOL    HW133704   0.604   4.033   8.642 -2.4344  0.6266  0.4335
 7356SOL    HW233705   0.745   4.053   8.661 -0.7474  0.6058  0.6908
 7357SOL     OW33706   1.090   3.665   6.009  1.1632 -0.3400 -0.1970
 7357SOL    HW133707   1.000   3.664   6.041  0.9545  0.5913 -0.7594
 7357SOL    HW233708   1.092   3.587   5.953  2.9521 -1.8653  1.9808
 7358SOL     OW33709   3.168   2.537   3.774 -0.4664 -0.6681  0.1553
 7358SOL    HW133710   3.252   2.496   3.795  1.6559  1.9743 -3.4273
 7358SOL    HW233711   3.119   2.464   3.735 -1.8112  2.3489 -3.6898
 7359SOL     OW33712   0.498   1.345   4.391  0.1855  0.1257  0.0375
 7359SOL    HW133713   0.411   1.318   4.423  0.4493 -1.7778 -0.9040
 7359SOL    HW233714   0.485   1.387   4.306 -1.5842 -1.0980 -0.2932
 7360SOL     OW33715   3.250   0.581   7.731 -0.5561  0.2764 -0.0158
 7360SOL    HW133716   3.325   0.612   7.782 -0.1412 -0.4520 -0.1857
 7360SOL    HW233717   3.235   0.489   7.752  0.5542  0.1672  0.2864
 7361SOL     OW33718   2.337   2.712   3.387  0.3862  0.0824 -0.1205
 7361SOL    HW133719   2.293   2.795   3.404  0.5889  0.0834  0.3984
 7361SOL    HW233720   2.416   2.721   3.440  0.3405 -0.2790  0.0159
 7362SOL     OW33721   0.156   4.274   4.813  0.4554 -0.4960  0.0793
 7362SOL    HW133722   0.099   4.199   4.831 -1.0593  1.2829  2.5509
 7362SOL    HW233723   0.181   4.282   4.905 -1.5320  0.2380  0.5354
 7363SOL     OW33724   1.830   2.303   6.300 -0.2627 -0.0222  0.8374
 7363SOL    HW133725   1.819   2.250   6.221  1.1975  0.3896  0.3605
 7363SOL    HW233726   1.915   2.339   6.275 -0.9880  2.4419  1.9284
 7364SOL     OW33727   0.131   0.879   2.775 -0.6404 -0.3215  0.1703
 7364SOL    HW133728   0.096   0.790   2.783 -0.5554 -0.5202 -1.6160
 7364SOL    HW233729   0.105   0.893   2.684  0.3804  0.0391 -0.0551
 7365SOL     OW33730   2.668   1.683  16.806  0.5095  0.7405 -0.6467
 7365SOL    HW133731   2.746   1.660  16.856 -2.0867 -2.5137  1.9110
 7365SOL    HW233732   2.622   1.600  16.793  0.2239  0.4799  2.1412
 7366SOL     OW33733   0.799   1.049   9.224  0.3635 -0.7680  0.2604
 7366SOL    HW133734   0.728   1.053   9.288 -0.8721 -1.4398 -1.0916
 7366SOL    HW233735   0.878   1.044   9.278 -0.3181  2.8943  1.6073
 7367SOL     OW33736   1.966   2.449  15.711  0.5820 -0.3486  0.2316
 7367SOL    HW133737   1.896   2.514  15.714  2.0111  1.0925  1.9734
 7367SOL    HW233738   2.026   2.489  15.648 -1.3070  1.1336 -0.6148
 7368SOL     OW33739   2.727   3.822  17.657 -0.4701 -0.0244  0.2927
 7368SOL    HW133740   2.661   3.890  17.670  0.7005  0.9237  1.1764
 7368SOL    HW233741   2.724   3.806  17.563  1.1119 -2.6947  0.6859
 7369SOL     OW33742   1.395   2.358   9.180  0.1325  0.0616 -0.0282
 7369SOL    HW133743   1.434   2.420   9.242 -1.0402 -0.8778  1.6815
 7369SOL    HW233744   1.427   2.270   9.202 -1.6877 -0.7219 -0.4818
 7370SOL     OW33745   0.969   0.258  12.154  0.2890 -0.0974  0.5451
 7370SOL    HW133746   0.984   0.306  12.073 -0.4609 -1.0989 -0.1837
 7370SOL    HW233747   1.014   0.309  12.221 -2.0923  0.8974  1.3706
 7371SOL     OW33748   1.389   2.539  16.757 -0.4102 -0.8433  0.0563
 7371SOL    HW133749   1.434   2.598  16.817 -1.5681  1.8939 -1.7828
 7371SOL    HW233750   1.326   2.498  16.816  1.4028 -1.8293  1.3200
 7372SOL     OW33751   2.511   4.546   8.394 -0.1936  0.2147  0.3869
 7372SOL    HW133752   2.488   4.520   8.305 -0.0615 -1.1144  0.7449
 7372SOL    HW233753   2.433   4.598   8.416 -0.5126 -0.2783  0.4248
 7373SOL     OW33754   3.616   0.539   8.443  0.6983  0.4692  0.2499
 7373SOL    HW133755   3.602   0.572   8.354 -1.0011  1.3582  0.8479
 7373SOL    HW233756   3.681   0.470   8.427  1.1428  0.6823  1.1646
 7374SOL     OW33757   2.400   4.018  11.152  0.1596  0.1341 -0.5970
 7374SOL    HW133758   2.418   4.051  11.240  0.2881 -0.7957 -0.2788
 7374SOL    HW233759   2.490   3.988  11.143  0.1926 -0.0170  0.2831
 7375SOL     OW33760   3.030   0.644  16.722 -0.4196 -0.1153 -0.2534
 7375SOL    HW133761   2.965   0.703  16.761  0.2960  1.2000 -1.0932
 7375SOL    HW233762   2.985   0.617  16.642 -1.0953 -0.8040  0.3527
 7376SOL     OW33763   4.421   1.332  16.902  1.0496 -0.0802  0.3094
 7376SOL    HW133764   4.335   1.300  16.875  1.7001 -1.1798 -0.4282
 7376SOL    HW233765   4.461   1.250  16.932 -1.0816 -1.3526 -0.3486
 7377SOL     OW33766   1.469   3.615   4.402 -0.1983  0.1918 -0.0684
 7377SOL    HW133767   1.557   3.651   4.409  0.1832 -1.0211  1.2394
 7377SOL    HW233768   1.432   3.660   4.326 -0.3846  0.1995  0.0277
 7378SOL     OW33769   0.242   0.869   1.745 -0.1821 -0.2840  0.1433
 7378SOL    HW133770   0.165   0.913   1.708  0.1922 -0.2484 -0.5906
 7378SOL    HW233771   0.314   0.921   1.711 -0.1311 -1.4058 -1.4763
 7379SOL     OW33772   2.969   1.143  12.665  0.5351 -0.2767  0.2080
 7379SOL    HW133773   2.903   1.191  12.617 -0.3629  0.5228  2.2422
 7379SOL    HW233774   3.051   1.132  12.615 -0.0426 -3.4190 -0.0752
 7380SOL     OW33775   1.897   0.513   7.761  0.0516  0.7248 -0.4233
 7380SOL    HW133776   1.883   0.419   7.768 -1.2319  0.7920 -2.1948
 7380SOL    HW233777   1.838   0.544   7.693  0.3367  2.9635  0.3461
 7381SOL     OW33778   1.796   0.930   3.175 -0.2837 -0.1943 -0.2341
 7381SOL    HW133779   1.856   0.858   3.157  0.4622  0.3779 -0.0293
 7381SOL    HW233780   1.725   0.884   3.220 -0.5381  2.3956  1.9827
 7382SOL     OW33781   2.036   2.630   8.923 -0.0330  0.0916  0.2814
 7382SOL    HW133782   2.074   2.557   8.875  0.3328  2.0558 -2.3685
 7382SOL    HW233783   2.011   2.682   8.847  0.7830 -1.5723 -1.1082
 7383SOL     OW33784   0.195   3.939  10.799 -0.2082 -0.2721 -0.4143
 7383SOL    HW133785   0.194   3.847  10.826  1.2685  0.2166  1.3021
 7383SOL    HW233786   0.285   3.944  10.767 -0.0913 -0.4916 -0.1149
 7384SOL     OW33787   0.675   3.724   5.205 -0.6971  0.0974 -0.0287
 7384SOL    HW133788   0.688   3.644   5.257  0.0640  0.9127  1.0452
 7384SOL    HW233789   0.641   3.767   5.284 -4.5173 -1.6721 -0.7159
 7385SOL     OW33790   1.411   2.466   6.341  0.7186  0.2761 -0.2080
 7385SOL    HW133791   1.321   2.495   6.326  0.4544 -0.5041 -0.1353
 7385SOL    HW233792   1.406   2.371   6.330 -0.5768 -0.0272  2.9921
 7386SOL     OW33793   4.196   3.955  17.056 -0.1505  0.5595 -0.1227
 7386SOL    HW133794   4.279   3.983  17.095  0.1387  0.1825 -0.4667
 7386SOL    HW233795   4.177   3.883  17.116 -2.0975  1.7852  0.7356
 7387SOL     OW33796   0.545   1.178  15.760  0.6038 -0.1669  0.3710
 7387SOL    HW133797   0.535   1.152  15.668  0.1389 -0.4517  0.5036
 7387SOL    HW233798   0.455   1.171  15.790 -0.5503  1.3246 -2.7385
 7388SOL     OW33799   2.915   0.324   8.162 -0.0866 -0.1472  0.6221
 7388SOL    HW133800   2.925   0.280   8.246  2.4545 -3.1612 -1.2603
 7388SOL    HW233801   2.936   0.415   8.183 -0.0297 -0.1060  0.3959
 7389SOL     OW33802   4.589   0.283   8.474 -0.0884 -0.1882  0.0510
 7389SOL    HW133803   4.673   0.238   8.462 -0.9818 -2.0434  0.7119
 7389SOL    HW233804   4.616   0.366   8.512 -2.6752  1.1980 -1.1110
 7390SOL     OW33805   0.017   4.031   8.818  0.1621 -0.3941  0.3195
 7390SOL    HW133806   0.008   4.035   8.722 -0.6148  0.1125  0.4116
 7390SOL    HW233807   0.022   3.935   8.823  0.4312 -0.4140 -0.2636
 7391SOL     OW33808   0.831   2.180   4.183 -0.5354  0.2456  0.1885
 7391SOL    HW133809   0.776   2.172   4.262  2.2541  0.3486  2.1497
 7391SOL    HW233810   0.850   2.088   4.166 -1.8234  0.0792 -0.3143
 7392SOL     OW33811   4.688   1.670   5.071  1.1145  0.4330  0.4062
 7392SOL    HW133812   4.607   1.712   5.101 -0.9702 -0.9237 -3.2615
 7392SOL    HW233813   4.653   1.582   5.076  2.0391  0.0232 -0.3722
 7393SOL     OW33814   4.248   4.027   4.510  0.0319  0.0989  0.0174
 7393SOL    HW133815   4.251   3.992   4.421 -0.2844  0.6220 -0.1964
 7393SOL    HW233816   4.171   3.988   4.553  2.2005 -2.5794  1.4878
 7394SOL     OW33817   4.608   4.654   4.662 -0.2303  0.1114 -0.4569
 7394SOL    HW133818   4.586   4.579   4.717  1.4435  2.5868  3.5785
 7394SOL    HW233819   4.654   4.610   4.590  1.1464  0.5528  0.1551
 7395SOL     OW33820   2.695   2.302   7.411 -0.2869 -0.4610  0.2651
 7395SOL    HW133821   2.745   2.265   7.484  0.0453 -1.5809 -0.5243
 7395SOL    HW233822   2.761   2.291   7.343  1.1735 -0.0199  1.6113
 7396SOL     OW33823   0.970   4.160   6.539 -0.0998 -0.1679  0.8658
 7396SOL    HW133824   1.053   4.204   6.519 -0.7806  0.3119 -0.9048
 7396SOL    HW233825   0.946   4.110   6.461  0.8933  2.4509 -1.1140
 7397SOL     OW33826   1.988   3.391   1.469 -0.1301  0.3924  0.1107
 7397SOL    HW133827   1.937   3.310   1.462  1.3766 -0.5889  0.5871
 7397SOL    HW233828   1.952   3.443   1.541  0.1545  1.5365 -0.5787
 7398SOL     OW33829   4.593   4.254   4.611  0.7471 -0.5153  0.0124
 7398SOL    HW133830   4.651   4.318   4.568 -2.5390  0.9073 -2.3512
 7398SOL    HW233831   4.619   4.276   4.700  0.5323 -1.1204  0.2252
 7399SOL     OW33832   0.964   3.165   3.414 -0.1350 -0.5113 -0.4365
 7399SOL    HW133833   0.942   3.205   3.330  2.1673  3.9050  1.0776
 7399SOL    HW233834   0.993   3.077   3.390  0.7024 -0.2758 -0.2901
 7400SOL     OW33835   4.235   4.028  10.066 -0.3086  0.3065 -0.5514
 7400SOL    HW133836   4.169   4.044  10.133  0.5745 -0.5670  0.5192
 7400SOL    HW233837   4.288   3.967  10.117 -1.7125 -0.2694  0.2010
 7401SOL     OW33838   3.002   3.400  10.081 -0.8084  0.1421  0.2033
 7401SOL    HW133839   3.011   3.310  10.049  0.2803  0.1888  0.3832
 7401SOL    HW233840   3.092   3.419  10.054 -0.0838 -1.1392  1.7118
 7402SOL     OW33841   2.585   1.036   4.443  0.2418 -0.1930 -0.3339
 7402SOL    HW133842   2.545   0.954   4.471 -0.0645  1.1259  3.0105
 7402SOL    HW233843   2.668   1.011   4.402 -1.2858 -2.4551 -2.0682
 7403SOL     OW33844   3.465   3.265   7.209  0.3310 -0.1247 -0.6354
 7403SOL    HW133845   3.409   3.196   7.244 -0.1122  0.8686  0.6057
 7403SOL    HW233846   3.461   3.326   7.282  1.0589 -2.0484  0.9996
 7404SOL     OW33847   3.422   0.616  17.221  0.1853  0.3982 -0.1688
 7404SOL    HW133848   3.410   0.591  17.312  0.5381  0.6470 -0.0560
 7404SOL    HW233849   3.451   0.704  17.243  0.1508  0.3695 -0.0089
 7405SOL     OW33850   1.258   4.047   2.701  0.1715 -0.2393 -0.1066
 7405SOL    HW133851   1.270   4.036   2.796  1.5412 -0.8552 -0.3368
 7405SOL    HW233852   1.285   3.958   2.677 -0.0776 -0.4510  0.3979
 7406SOL     OW33853   4.138   1.399   5.845  0.0388 -0.4636  0.2424
 7406SOL    HW133854   4.128   1.333   5.914 -0.1174  0.1195  0.7849
 7406SOL    HW233855   4.132   1.474   5.904 -0.5196  1.5631 -2.4038
 7407SOL     OW33856   4.274   1.661   4.195 -0.4315  0.2997 -0.0121
 7407SOL    HW133857   4.317   1.576   4.209 -0.5431  0.3950  0.8977
 7407SOL    HW233858   4.233   1.663   4.108 -1.6436  1.2544  0.5903
 7408SOL     OW33859   1.424   0.877  16.268  0.0477 -0.2717  0.3539
 7408SOL    HW133860   1.469   0.909  16.347 -1.6419 -0.3473  1.3550
 7408SOL    HW233861   1.469   0.915  16.193  1.1288 -3.1934 -0.4705
 7409SOL     OW33862   4.263   2.584   8.009 -0.1262 -0.2128 -0.0653
 7409SOL    HW133863   4.255   2.511   8.070  1.9247 -1.2229 -0.9999
 7409SOL    HW233864   4.285   2.658   8.065  2.0282 -1.2066  0.4028
 7410SOL     OW33865   4.225   2.792   8.220 -0.2560  0.2825 -0.1004
 7410SOL    HW133866   4.152   2.852   8.206 -0.2987 -0.1718 -1.8545
 7410SOL    HW233867   4.188   2.752   8.299 -1.7707  0.5256 -0.6782
 7411SOL     OW33868   4.728   0.412   0.197  0.5082 -0.3842  0.0971
 7411SOL    HW133869   0.070   0.361   0.184 -0.1362 -1.3839  0.0085
 7411SOL    HW233870   4.669   0.348   0.237  1.5732 -1.8940 -0.7288
 7412SOL     OW33871   4.677   3.665   8.654 -0.6726 -0.5230  0.1999
 7412SOL    HW133872   0.002   3.706   8.713 -0.3103 -0.1257 -0.4576
 7412SOL    HW233873   4.633   3.739   8.613 -0.9621 -0.2130  1.0765
 7413SOL     OW33874   2.175   2.905   1.434  0.2517  0.5371  0.5207
 7413SOL    HW133875   2.088   2.919   1.471 -1.2182 -2.9289 -1.6326
 7413SOL    HW233876   2.165   2.813   1.407  3.2164  0.8998 -1.7355
 7414SOL     OW33877   4.332   0.378   7.136  0.1387  0.3034 -0.3212
 7414SOL    HW133878   4.327   0.410   7.046  0.2341 -1.7133 -1.0595
 7414SOL    HW233879   4.319   0.463   7.178  1.8752  0.3347  0.1744
 7415SOL     OW33880   3.360   2.344   0.548 -0.0095  0.4633  0.2020
 7415SOL    HW133881   3.401   2.360   0.463  3.4114  1.4580  2.0655
 7415SOL    HW233882   3.407   2.404   0.606 -0.5238 -0.8094  1.9045
 7416SOL     OW33883   3.331   3.363   5.245  0.4034 -0.2121 -0.4255
 7416SOL    HW133884   3.392   3.401   5.308  0.9526 -1.4267 -0.2178
 7416SOL    HW233885   3.340   3.414   5.165 -0.0075  0.0926 -0.2751
 7417SOL     OW33886   0.855   3.673   9.309 -0.3740  0.1821  0.7816
 7417SOL    HW133887   0.862   3.582   9.281  0.5428  0.1051  1.2618
 7417SOL    HW233888   0.795   3.710   9.244  0.4872 -2.8227 -1.6884
 7418SOL     OW33889   2.037   1.722   5.577  0.0895  0.7452 -0.2063
 7418SOL    HW133890   1.993   1.769   5.648  0.2198 -0.5673  0.7280
 7418SOL    HW233891   1.963   1.744   5.520  2.0287  1.5901 -2.3776
 7419SOL     OW33892   2.443   0.926   8.452 -0.1173 -0.5414 -0.3948
 7419SOL    HW133893   2.472   0.903   8.540 -1.8226  0.2389  0.3782
 7419SOL    HW233894   2.442   0.837   8.416 -0.9983  0.0738 -1.9071
 7420SOL     OW33895   3.477   0.819   2.169  0.2442  0.0772  0.0056
 7420SOL    HW133896   3.382   0.820   2.169  0.2367  0.9028 -2.5334
 7420SOL    HW233897   3.486   0.742   2.112  1.9900  1.8053 -2.0555
 7421SOL     OW33898   4.091   1.146   6.350  0.2436 -0.2756 -0.2442
 7421SOL    HW133899   4.004   1.125   6.383  0.3222 -2.6381 -1.5436
 7421SOL    HW233900   4.087   1.238   6.322  0.4898 -0.5694 -1.2568
 7422SOL     OW33901   3.776   2.339   8.492 -0.3902  0.4927 -0.4007
 7422SOL    HW133902   3.712   2.270   8.473 -0.9365  0.2756  2.2157
 7422SOL    HW233903   3.717   2.402   8.532 -0.2864 -1.1196  2.3199
 7423SOL     OW33904   3.898   4.236   2.017 -0.5252 -0.2877 -0.1123
 7423SOL    HW133905   3.880   4.233   2.111  4.9103  0.8202  0.9400
 7423SOL    HW233906   3.967   4.171   2.008 -2.0515 -1.9894  0.5622
 7424SOL     OW33907   2.097   0.090   2.030  0.1798 -0.2751 -0.3541
 7424SOL    HW133908   2.064   0.179   2.046  1.5803  0.2442 -0.4210
 7424SOL    HW233909   2.078   0.089   1.936  0.1357  1.4127 -0.3588
 7425SOL     OW33910   3.427   2.516  14.596 -1.0626  0.0172 -0.2894
 7425SOL    HW133911   3.388   2.464  14.526  0.6779 -0.4560 -0.8900
 7425SOL    HW233912   3.487   2.455  14.639  0.4443  0.7504 -1.3666
 7426SOL     OW33913   2.401   1.232  17.546 -0.5334  0.0304  0.2332
 7426SOL    HW133914   2.480   1.181  17.526 -0.0360  0.4915  1.0119
 7426SOL    HW233915   2.437   1.273  17.625  0.7341 -1.6815  0.5464
 7427SOL     OW33916   4.420   3.692  16.938 -0.4947  0.3669  0.2499
 7427SOL    HW133917   4.397   3.639  17.014 -0.6717 -0.7193 -0.5770
 7427SOL    HW233918   4.461   3.626  16.883 -1.2587  1.5413 -1.7270
 7428SOL     OW33919   3.303   3.727   9.998 -0.5866  0.5591  0.2341
 7428SOL    HW133920   3.338   3.660  10.057  0.4221  0.8988  0.0203
 7428SOL    HW233921   3.289   3.798  10.060  1.9314 -0.1856  1.6217
 7429SOL     OW33922   0.369   4.330   5.298  0.0103  0.6243 -0.2091
 7429SOL    HW133923   0.347   4.397   5.363 -1.5166 -0.6102  0.5691
 7429SOL    HW233924   0.461   4.317   5.320 -0.1619 -1.3384 -0.5688
 7430SOL     OW33925   4.575   0.694   3.569 -0.7114 -0.2709  0.1016
 7430SOL    HW133926   4.522   0.679   3.491  3.3639 -1.4861 -2.4246
 7430SOL    HW233927   4.532   0.649   3.642  0.4206 -1.2691  0.1328
 7431SOL     OW33928   2.660   3.953  11.123  0.8285  0.1923  0.0192
 7431SOL    HW133929   2.740   3.983  11.166  0.5280  0.5423  0.3226
 7431SOL    HW233930   2.637   3.872  11.168  0.4496 -0.1659 -0.8027
 7432SOL     OW33931   1.479   0.326  16.477 -0.7026  0.0211 -0.0092
 7432SOL    HW133932   1.538   0.280  16.536 -0.1340  0.1811 -0.4531
 7432SOL    HW233933   1.451   0.390  16.543  2.3212  0.3723  0.8918
 7433SOL     OW33934   4.065   0.915   9.169  0.0700 -0.2006 -0.0221
 7433SOL    HW133935   4.101   0.941   9.084 -0.2551  2.6260  0.7141
 7433SOL    HW233936   4.070   0.820   9.160  0.7561 -0.3299  1.7962
 7434SOL     OW33937   0.869   2.533  14.817 -0.1216 -0.2214 -0.2907
 7434SOL    HW133938   0.927   2.474  14.866 -1.0244  1.5264  2.8568
 7434SOL    HW233939   0.936   2.577  14.764  0.2639 -1.3194 -0.7203
 7435SOL     OW33940   0.248   4.713   6.942 -0.2959  0.6573  0.4720
 7435SOL    HW133941   0.165   0.022   6.930 -1.2347 -1.8672 -2.8023
 7435SOL    HW233942   0.260   4.708   7.037 -0.5265 -1.5529  0.4002
 7436SOL     OW33943   1.583   1.799  15.031  0.3606 -0.4206  0.2647
 7436SOL    HW133944   1.611   1.856  15.103 -0.0171 -0.5635  0.5221
 7436SOL    HW233945   1.588   1.865  14.961  1.1110  0.7072  1.3723
 7437SOL     OW33946   3.258   4.441  17.679 -0.6169  0.1612 -0.0135
 7437SOL    HW133947   3.288   4.448  17.589  0.1443 -0.9900  0.1427
 7437SOL    HW233948   3.171   4.403  17.666 -0.4513 -0.2124 -0.0440
 7438SOL     OW33949   4.654   0.523   7.979  0.2981  0.0692 -0.3859
 7438SOL    HW133950   4.588   0.516   7.910 -0.3404  1.6031  0.0681
 7438SOL    HW233951   4.640   0.447   8.035  1.7348  0.5643  0.6350
 7439SOL     OW33952   3.503   2.821   5.356 -0.2974  0.4176 -0.2305
 7439SOL    HW133953   3.413   2.793   5.340 -0.4354  1.4994 -1.2982
 7439SOL    HW233954   3.560   2.764   5.305 -0.1376 -0.6274  1.1113
 7440SOL     OW33955   2.165   4.103   4.950 -0.0842 -0.0662  0.2193
 7440SOL    HW133956   2.094   4.120   5.012 -1.2003  0.8816 -1.3209
 7440SOL    HW233957   2.109   4.118   4.874 -1.3200 -1.3006  0.8689
 7441SOL     OW33958   3.284   3.041   5.480 -0.2244  0.7459 -0.3091
 7441SOL    HW133959   3.213   3.105   5.481 -2.0491 -1.3085  1.7111
 7441SOL    HW233960   3.331   3.060   5.399  0.3257  0.9311  0.0526
 7442SOL     OW33961   1.146   2.869   6.949 -0.2544 -0.2085  0.2748
 7442SOL    HW133962   1.068   2.865   6.894  0.0597  1.7313 -0.3380
 7442SOL    HW233963   1.173   2.960   6.935 -1.9029  0.0697 -1.0926
 7443SOL     OW33964   1.949   3.355   7.037 -0.3305  0.4705 -0.0585
 7443SOL    HW133965   1.955   3.316   6.950  1.4320 -0.4562  0.4762
 7443SOL    HW233966   2.002   3.434   7.030 -1.1040  1.0112  0.2017
 7444SOL     OW33967   4.559   4.297  11.599  0.5683 -0.1139  0.4993
 7444SOL    HW133968   4.551   4.229  11.666  4.7830  0.9206  2.1126
 7444SOL    HW233969   4.474   4.341  11.603  0.3970 -0.3787 -0.2931
 7445SOL     OW33970   4.006   1.339   8.157  0.4470 -0.2021  0.1615
 7445SOL    HW133971   4.000   1.358   8.064 -1.0622  0.8963  0.4731
 7445SOL    HW233972   3.937   1.275   8.176  0.0591 -0.2542 -1.4960
 7446SOL     OW33973   4.407   0.400   1.967  0.4555  0.1248  0.1192
 7446SOL    HW133974   4.437   0.490   1.959  1.3089 -0.3789 -2.6235
 7446SOL    HW233975   4.465   0.362   1.901 -0.7252 -0.3340 -0.6437
 7447SOL     OW33976   4.238   4.319  16.259  0.1826  0.3296 -0.0403
 7447SOL    HW133977   4.294   4.284  16.190  1.4920  0.0606  1.1559
 7447SOL    HW233978   4.223   4.252  16.325 -0.7849  1.3371  0.7638
 7448SOL     OW33979   3.041   0.766   8.957  0.1119 -0.3383  0.0640
 7448SOL    HW133980   3.125   0.726   8.978 -0.1095 -0.3094  0.9670
 7448SOL    HW233981   3.057   0.847   9.004  2.9033 -1.3652  0.8957
 7449SOL     OW33982   3.357   1.260   2.561 -0.2664 -0.0273 -0.5009
 7449SOL    HW133983   3.306   1.330   2.602 -0.7798 -1.5201  1.4608
 7449SOL    HW233984   3.396   1.229   2.643 -1.9568  1.1926  0.7824
 7450SOL     OW33985   1.016   0.126   0.553 -0.6121 -0.8938 -0.0261
 7450SOL    HW133986   1.079   0.121   0.625 -0.9087 -0.3033  0.2682
 7450SOL    HW233987   1.010   0.036   0.521 -0.4955 -0.1439 -2.1247
 7451SOL     OW33988   2.661   3.379   9.101 -0.2544 -0.1435 -0.2171
 7451SOL    HW133989   2.616   3.384   9.017  0.0415 -0.1279 -0.3765
 7451SOL    HW233990   2.756   3.390   9.092 -0.2569  1.3109  1.5155
 7452SOL     OW33991   3.736   4.414   1.844 -0.0396 -0.2647 -0.0117
 7452SOL    HW133992   3.785   4.360   1.906 -2.4906 -2.1347  0.2982
 7452SOL    HW233993   3.799   4.475   1.806 -0.1221 -0.2704 -0.1625
 7453SOL     OW33994   2.883   3.496   8.046  0.1077  0.7638  0.3381
 7453SOL    HW133995   2.933   3.424   8.008 -0.4122  1.7588 -2.2983
 7453SOL    HW233996   2.798   3.452   8.053 -0.1482  1.1046 -0.5072
 7454SOL     OW33997   1.306   1.058   2.874  0.0636  0.4635 -0.5208
 7454SOL    HW133998   1.345   1.098   2.951 -0.5822 -1.4674  0.8320
 7454SOL    HW233999   1.385   1.025   2.832 -1.1243  1.0222 -3.2576
 7455SOL     OW34000   4.369   4.628   4.511 -0.0964 -0.7878  0.0799
 7455SOL    HW134001   4.339   4.571   4.440 -0.4150  0.7794 -1.0418
 7455SOL    HW234002   4.458   4.645   4.480  0.0068 -1.5479 -0.0336
 7456SOL     OW34003   1.468   4.216   7.953  0.1828  0.1767 -0.7091
 7456SOL    HW134004   1.389   4.270   7.951 -0.0635 -0.1145  1.3121
 7456SOL    HW234005   1.535   4.271   7.912  1.2709 -0.7409 -0.1425
 7457SOL     OW34006   4.010   3.922  13.951 -0.6205  0.7084  0.1379
 7457SOL    HW134007   4.059   3.866  13.891 -0.3661  1.1283 -0.0438
 7457SOL    HW234008   4.051   4.001  13.916  1.0865  0.0532  0.6947
 7458SOL     OW34009   4.663   2.358   7.466  0.2875  0.0792  0.6446
 7458SOL    HW134010   4.684   2.285   7.524 -0.2856 -0.4651  0.1638
 7458SOL    HW234011   4.568   2.348   7.460  0.4898 -1.9512  1.0121
 7459SOL     OW34012   3.286   3.477  10.326 -0.3246  0.0405 -0.0819
 7459SOL    HW134013   3.335   3.496  10.246  0.3500  2.3153  0.8872
 7459SOL    HW234014   3.332   3.518  10.399 -0.1878 -2.0619  1.0230
 7460SOL     OW34015   3.964   3.021   1.389 -0.4670  0.3377 -0.3464
 7460SOL    HW134016   3.971   3.110   1.425 -1.8135 -0.4868  1.9184
 7460SOL    HW234017   3.966   2.973   1.472 -1.0965 -0.6279 -0.8875
 7461SOL     OW34018   1.554   1.240   0.618 -0.1882 -0.6572 -0.2513
 7461SOL    HW134019   1.545   1.293   0.538  1.0649  2.1336  1.4791
 7461SOL    HW234020   1.466   1.245   0.655  0.1686  1.2895  0.3614
 7462SOL     OW34021   1.126   1.105  13.504 -0.0428  0.2165 -0.4415
 7462SOL    HW134022   1.155   1.189  13.541 -1.5428  1.3930 -1.9099
 7462SOL    HW234023   1.032   1.125  13.511 -0.1861 -0.6905  0.1769
 7463SOL     OW34024   3.119   1.241   9.935  0.1056 -0.4618 -0.0455
 7463SOL    HW134025   3.141   1.151   9.958  0.5880 -0.4855 -0.5776
 7463SOL    HW234026   3.135   1.290  10.015 -1.4125 -0.4473  0.2548
 7464SOL     OW34027   3.059   0.053   1.648  0.5468 -0.3888 -0.3300
 7464SOL    HW134028   3.050   0.130   1.704  0.5236 -1.4815  1.1683
 7464SOL    HW234029   2.980   0.052   1.595  0.5183 -0.6562 -0.2838
 7465SOL     OW34030   4.116   4.100   7.221  0.3022 -0.0806  0.1609
 7465SOL    HW134031   4.130   4.194   7.214  0.3953  0.0756  2.4641
 7465SOL    HW234032   4.145   4.062   7.137 -1.2353 -0.2532 -0.2920
 7466SOL     OW34033   0.906   3.052   7.846 -0.0629 -0.4735 -0.4134
 7466SOL    HW134034   0.854   2.973   7.855 -2.7889  1.4982  1.0281
 7466SOL    HW234035   0.963   3.027   7.920 -0.9802 -0.3381  0.3403
 7467SOL     OW34036   2.095   0.863   4.072 -0.1845 -0.0339 -0.2681
 7467SOL    HW134037   2.148   0.895   3.999  0.2553 -0.0908  0.0299
 7467SOL    HW234038   2.105   0.935   4.133  1.0510 -2.2962  2.1754
 7468SOL     OW34039   4.731   1.161   7.967  0.0152 -0.2120 -0.3585
 7468SOL    HW134040   0.070   1.166   8.025  0.0520  1.3938 -0.5466
 7468SOL    HW234041   4.687   1.081   7.996  0.9699 -1.0988 -1.3866
 7469SOL     OW34042   2.062   4.326  14.630 -0.6567  0.3496 -0.1836
 7469SOL    HW134043   2.027   4.314  14.541  0.4213 -0.9661 -0.4167
 7469SOL    HW234044   2.002   4.280  14.688  0.4463 -1.4188 -0.4735
 7470SOL     OW34045   0.229   0.715   5.577  0.5923  0.1836 -0.6758
 7470SOL    HW134046   0.173   0.679   5.508  0.0990  0.7305 -0.5601
 7470SOL    HW234047   0.165   0.781   5.602 -1.4236 -2.0758  0.1790
 7471SOL     OW34048   3.519   0.333   3.363  0.2726 -0.7906  0.3304
 7471SOL    HW134049   3.572   0.309   3.287  0.9921 -3.6130  1.7023
 7471SOL    HW234050   3.552   0.269   3.427 -1.2733 -0.8961  1.0184
 7472SOL     OW34051   3.435   2.121   6.455  0.2264  0.4196 -0.0593
 7472SOL    HW134052   3.455   2.159   6.540 -3.8016  1.4528  0.4431
 7472SOL    HW234053   3.422   2.028   6.475 -0.7545  0.8216  1.1946
 7473SOL     OW34054   0.231   4.602   8.031  0.7845 -0.0622  0.2423
 7473SOL    HW134055   0.227   4.507   8.023  1.3493  0.0948 -1.9379
 7473SOL    HW234056   0.264   4.616   7.942  0.4114 -1.2946 -0.0909
 7474SOL     OW34057   4.689   0.021   5.078  0.1430 -0.3937 -0.3229
 7474SOL    HW134058   4.731   4.674   5.089  2.9717  1.0673 -0.0674
 7474SOL    HW234059   4.692   0.056   5.167  0.3161 -0.9382 -0.1204
 7475SOL     OW34060   2.268   1.671   5.452 -0.5729 -0.4470 -0.2957
 7475SOL    HW134061   2.195   1.705   5.505  1.4779  1.4265  1.3519
 7475SOL    HW234062   2.225   1.642   5.372 -1.7338  1.2216 -0.2844
 7476SOL     OW34063   0.813   0.119   1.817 -0.2097  0.2397  0.2468
 7476SOL    HW134064   0.730   0.130   1.770  0.0860  1.6416  0.0570
 7476SOL    HW234065   0.790   0.052   1.881 -1.5925  0.0125 -0.4871
 7477SOL     OW34066   4.142   4.369   0.458  0.2586 -0.2930  0.1405
 7477SOL    HW134067   4.084   4.403   0.526  0.9189 -0.5064  0.8193
 7477SOL    HW234068   4.222   4.405   0.496  0.5661 -0.3154 -0.4850
 7478SOL     OW34069   3.885   1.341   8.615  0.4933  0.1798 -0.4575
 7478SOL    HW134070   3.808   1.346   8.558  1.4631  1.2441 -1.6469
 7478SOL    HW234071   3.958   1.305   8.565 -0.0010 -1.1609 -0.2310
 7479SOL     OW34072   2.590   1.671   5.169  1.7275 -0.0218  0.1915
 7479SOL    HW134073   2.566   1.578   5.176  2.8714 -0.3656 -0.4828
 7479SOL    HW234074   2.509   1.712   5.139  0.9155 -0.3798  1.8643
 7480SOL     OW34075   1.729   0.369   5.893  0.5124 -0.1764  0.6477
 7480SOL    HW134076   1.704   0.279   5.914  1.8498 -0.4247  1.1825
 7480SOL    HW234077   1.771   0.403   5.972 -2.5701  2.8558  1.0077
 7481SOL     OW34078   1.623   1.430  14.098 -0.0128 -0.1777 -0.5010
 7481SOL    HW134079   1.653   1.393  14.015 -1.4588 -2.3699 -0.0582
 7481SOL    HW234080   1.709   1.453  14.133  0.8914  0.5259 -3.2268
 7482SOL     OW34081   1.894   4.678   6.631 -0.0603  0.0890  0.5393
 7482SOL    HW134082   1.818   4.729   6.603  1.0349  2.4444  1.9063
 7482SOL    HW234083   1.856   4.624   6.701  1.9054 -2.8520 -0.6853
 7483SOL     OW34084   2.276   0.317  13.601 -1.2658  0.2643 -0.4818
 7483SOL    HW134085   2.263   0.318  13.696 -3.2237  0.5758 -0.7518
 7483SOL    HW234086   2.257   0.406  13.572 -0.3863  1.0317  1.2840
 7484SOL     OW34087   3.844   2.967   9.019  0.3165 -0.4658  0.3404
 7484SOL    HW134088   3.930   2.975   8.978  0.8794 -0.0514  1.6076
 7484SOL    HW234089   3.804   3.047   8.986  1.5592  0.6424  1.5204
 7485SOL     OW34090   4.308   0.201  15.798 -0.5964 -0.2255  0.0445
 7485SOL    HW134091   4.355   0.131  15.844  0.8406  2.2283  2.3071
 7485SOL    HW234092   4.219   0.164  15.801 -0.5247 -0.7167 -3.8194
 7486SOL     OW34093   4.152   4.709   9.439 -0.4263 -0.1537 -0.4746
 7486SOL    HW134094   4.128   4.621   9.410 -1.8663 -0.2492  1.0114
 7486SOL    HW234095   4.127   4.716   9.531  1.4401  1.6841 -0.1134
 7487SOL     OW34096   1.174   4.528   0.764  0.3201 -0.1788  0.5568
 7487SOL    HW134097   1.187   4.575   0.847  1.2018  0.4589  0.0541
 7487SOL    HW234098   1.092   4.561   0.729  1.2478  1.0439 -0.4766
 7488SOL     OW34099   3.751   1.793  13.577  0.4400 -0.4239 -0.0642
 7488SOL    HW134100   3.718   1.756  13.495 -0.1699  0.0608 -0.0412
 7488SOL    HW234101   3.792   1.875  13.548  0.9973  0.0665  2.0517
 7489SOL     OW34102   0.316   1.453   1.712  0.1685 -0.3331  0.5810
 7489SOL    HW134103   0.286   1.539   1.683  1.2871 -0.0793  0.1935
 7489SOL    HW234104   0.309   1.454   1.808  3.9068  1.3583  0.8350
 7490SOL     OW34105   2.879   0.938  10.723 -0.1828  0.2251 -0.3412
 7490SOL    HW134106   2.949   0.971  10.666  0.1572 -3.2464 -1.9170
 7490SOL    HW234107   2.820   1.013  10.730  0.3761  0.7266 -0.9278
 7491SOL     OW34108   1.060   0.283   6.799 -0.2659  0.1144  0.6480
 7491SOL    HW134109   1.145   0.312   6.767 -0.5763  1.1857  0.7736
 7491SOL    HW234110   1.003   0.335   6.743  0.6530  1.9640  1.4195
 7492SOL     OW34111   2.000   3.331   2.533  0.0105  0.5839 -0.3841
 7492SOL    HW134112   1.919   3.376   2.509 -1.1962 -3.0605 -3.1534
 7492SOL    HW234113   1.966   3.252   2.576  0.1744  0.9142  0.3509
 7493SOL     OW34114   2.128   1.210   7.455 -0.1509 -0.1473  0.1944
 7493SOL    HW134115   2.170   1.139   7.504  1.8459  3.0209  3.0581
 7493SOL    HW234116   2.041   1.216   7.496 -0.6381  0.0851 -0.8778
 7494SOL     OW34117   4.020   1.037   5.629 -0.4201  0.2874 -0.0049
 7494SOL    HW134118   3.949   1.101   5.621 -0.3169  0.5104  0.8125
 7494SOL    HW234119   3.968   0.958   5.644 -0.7992  0.7078  0.9037
 7495SOL     OW34120   3.751   4.008   5.241  0.1651 -0.1765 -0.1116
 7495SOL    HW134121   3.722   4.027   5.152 -0.7648 -0.8476  0.0462
 7495SOL    HW234122   3.677   4.039   5.292  1.4742  0.1074  1.6009
 7496SOL     OW34123   2.625   0.590   6.348  0.3369 -0.8830 -0.7530
 7496SOL    HW134124   2.615   0.587   6.253 -3.3719  1.3286 -0.4063
 7496SOL    HW234125   2.546   0.541   6.369  0.4138 -0.7552 -0.1641
 7497SOL     OW34126   3.797   3.050   6.754 -0.1214 -0.0384  0.0089
 7497SOL    HW134127   3.810   3.085   6.843  0.4212 -0.0780 -0.0531
 7497SOL    HW234128   3.743   3.116   6.711 -0.3365  0.1375  0.5439
 7498SOL     OW34129   0.580   2.885   2.064  0.3078  0.0280 -0.2735
 7498SOL    HW134130   0.588   2.802   2.018  1.0106  0.4919 -0.9873
 7498SOL    HW234131   0.544   2.855   2.147 -1.6225 -2.4765 -2.0133
 7499SOL     OW34132   0.541   2.719  13.006 -0.7464  0.0525 -0.3758
 7499SOL    HW134133   0.517   2.751  13.093 -2.2442 -1.6582 -0.1486
 7499SOL    HW234134   0.453   2.695  12.977 -2.2508  2.4814  2.2192
 7500SOL     OW34135   2.300   2.777   8.362 -0.7293  0.0105  0.4890
 7500SOL    HW134136   2.328   2.690   8.336  0.5140 -0.1703  2.3749
 7500SOL    HW234137   2.205   2.769   8.356 -0.6109 -0.8756 -0.2303
 7501SOL     OW34138   1.856   4.570   2.565  0.6428  0.0894  0.0741
 7501SOL    HW134139   1.914   4.643   2.544  0.8469  0.4130  1.7485
 7501SOL    HW234140   1.775   4.621   2.571  0.4980  0.0141 -1.1017
 7502SOL     OW34141   2.429   4.552  10.369 -0.5034 -0.2518 -0.3229
 7502SOL    HW134142   2.347   4.516  10.335 -1.6665  1.8436  0.2798
 7502SOL    HW234143   2.430   4.503  10.451 -1.4625 -1.9556 -1.3335
 7503SOL     OW34144   0.324   3.205  14.606  0.3287 -0.4594 -0.2332
 7503SOL    HW134145   0.265   3.131  14.616  1.5497 -1.0533  2.6975
 7503SOL    HW234146   0.405   3.156  14.591 -0.0609 -0.9404 -0.7326
 7504SOL     OW34147   0.870   0.489   7.875  0.1594  0.7594 -0.2603
 7504SOL    HW134148   0.873   0.502   7.780 -1.8666 -0.0601 -0.4341
 7504SOL    HW234149   0.776   0.478   7.886  0.1635  2.2366  1.1783
 7505SOL     OW34150   3.276   3.630   4.157 -0.5039  0.5156 -0.2025
 7505SOL    HW134151   3.203   3.619   4.096 -0.7438 -1.0831  0.3716
 7505SOL    HW234152   3.328   3.697   4.113 -1.1837  2.0361  1.3133
 7506SOL     OW34153   3.328   3.574  16.994  0.0960 -0.1951  0.1140
 7506SOL    HW134154   3.258   3.639  16.997 -0.1069 -0.3907 -0.3758
 7506SOL    HW234155   3.389   3.616  16.933  1.2337  2.1961  2.8981
 7507SOL     OW34156   3.041   2.260  13.837 -0.3197 -0.0301  0.1824
 7507SOL    HW134157   2.954   2.221  13.835  0.0187 -0.8829  1.8093
 7507SOL    HW234158   3.061   2.287  13.748  1.6434 -1.3725  0.2122
 7508SOL     OW34159   2.726   2.992   0.232 -0.4859 -0.0575  0.0095
 7508SOL    HW134160   2.774   2.997   0.149 -2.0950  2.0295 -0.7849
 7508SOL    HW234161   2.684   3.078   0.233 -1.2783 -0.4730  1.6712
 7509SOL     OW34162   2.667   2.928  17.530 -0.2629 -0.2146 -0.6963
 7509SOL    HW134163   2.744   2.979  17.503 -0.3529  0.1726 -0.2136
 7509SOL    HW234164   2.597   2.976  17.487 -2.1488 -0.8027  1.7467
 7510SOL     OW34165   4.336   1.408   4.240  0.0918  0.1293 -0.5510
 7510SOL    HW134166   4.429   1.410   4.263  0.3917 -1.4740 -1.6337
 7510SOL    HW234167   4.321   1.320   4.275 -0.7578  1.3304  2.0842
 7511SOL     OW34168   0.715   1.260  14.751 -0.4271  0.2824  0.1175
 7511SOL    HW134169   0.651   1.203  14.709 -0.3257  0.6607 -0.5471
 7511SOL    HW234170   0.752   1.309  14.677 -0.0331 -1.6914 -0.9959
 7512SOL     OW34171   1.848   3.466   1.728 -0.4969 -0.2403 -0.2873
 7512SOL    HW134172   1.827   3.537   1.789 -1.8724 -0.8899  0.0074
 7512SOL    HW234173   1.778   3.407   1.756 -1.6722  2.0034  1.5345
 7513SOL     OW34174   1.763   0.504   2.877  0.0744 -0.5899 -0.1633
 7513SOL    HW134175   1.770   0.412   2.853  0.5131 -0.4292 -0.6500
 7513SOL    HW234176   1.820   0.539   2.809 -1.9340  1.4172 -0.8024
 7514SOL     OW34177   3.677   0.454   0.636 -0.3476 -0.1452  0.0323
 7514SOL    HW134178   3.740   0.384   0.618 -0.1480 -0.0603  0.4004
 7514SOL    HW234179   3.681   0.519   0.566  0.7600 -0.8765 -0.5832
 7515SOL     OW34180   3.765   3.530   5.243  0.4278  0.3764 -0.6827
 7515SOL    HW134181   3.795   3.485   5.164  0.4391  0.7249 -0.8813
 7515SOL    HW234182   3.694   3.589   5.217 -0.3401  0.2353  1.1102
 7516SOL     OW34183   0.308   2.802  10.692 -0.2813  0.5207 -0.2212
 7516SOL    HW134184   0.343   2.740  10.628 -1.5219  0.5687 -0.9536
 7516SOL    HW234185   0.326   2.753  10.772  1.1534  1.9521  0.3391
 7517SOL     OW34186   0.208   2.928   3.229 -0.2017 -0.0233  0.0964
 7517SOL    HW134187   0.134   2.878   3.263 -1.6388  1.1693 -1.2978
 7517SOL    HW234188   0.277   2.880   3.275 -2.1775 -0.8440  2.2335
 7518SOL     OW34189   3.367   3.544  10.595  0.2846 -0.1189  0.2864
 7518SOL    HW134190   3.375   3.619  10.653  0.5326 -0.0583  0.1739
 7518SOL    HW234191   3.279   3.507  10.603 -0.1899  1.6009  2.6223
 7519SOL     OW34192   4.449   3.480  11.728  0.2248 -0.0512  0.8284
 7519SOL    HW134193   4.522   3.447  11.676 -1.5814 -2.2841 -0.2962
 7519SOL    HW234194   4.403   3.532  11.662  1.3287 -1.5333 -1.0990
 7520SOL     OW34195   2.610   1.711  15.973  0.1198  0.2467  0.3615
 7520SOL    HW134196   2.641   1.780  15.914  1.0928  0.9685  1.7323
 7520SOL    HW234197   2.523   1.682  15.944  0.3932  0.0490 -0.2706
 7521SOL     OW34198   0.036   0.577   4.906  0.0221 -0.3348  0.6586
 7521SOL    HW134199   0.074   0.511   4.848 -0.8909  0.1540 -0.4911
 7521SOL    HW234200   0.021   0.650   4.846 -1.4771 -0.8757  0.3865
 7522SOL     OW34201   3.279   3.210  17.567  0.4030  0.2280  0.7175
 7522SOL    HW134202   3.247   3.300  17.561  0.8211  0.3121 -0.1454
 7522SOL    HW234203   3.250   3.183  17.654 -1.0957  2.6728  0.9854
 7523SOL     OW34204   1.877   0.631   2.204 -0.3311 -0.0633  0.3483
 7523SOL    HW134205   1.799   0.609   2.153 -0.2223 -0.2449  0.2605
 7523SOL    HW234206   1.843   0.715   2.236  1.3009  1.2782 -1.3839
 7524SOL     OW34207   0.765   0.609   0.659 -0.2121  0.4494  0.5222
 7524SOL    HW134208   0.831   0.657   0.709  0.5780  0.0284 -0.1305
 7524SOL    HW234209   0.781   0.519   0.686  0.8028  0.4868  0.0479
 7525SOL     OW34210   0.469   1.067   0.382  0.2315  0.3322  0.4367
 7525SOL    HW134211   0.474   1.043   0.289 -0.7349 -2.2042  1.0502
 7525SOL    HW234212   0.485   0.986   0.431  1.4167  1.8156  2.5011
 7526SOL     OW34213   2.561   1.210   3.785  0.2041 -0.3020  0.0795
 7526SOL    HW134214   2.495   1.278   3.801  0.5789 -0.0857  0.7192
 7526SOL    HW234215   2.568   1.174   3.874 -0.3186 -0.2298  0.1499
 7527SOL     OW34216   2.504   2.963   2.644 -0.6498 -0.5039 -0.5190
 7527SOL    HW134217   2.425   3.013   2.627 -1.0548 -1.0644 -0.3005
 7527SOL    HW234218   2.558   2.981   2.567  2.3842 -1.0821  1.4731
 7528SOL     OW34219   4.210   0.650   2.132 -0.3370  0.6218 -0.8190
 7528SOL    HW134220   4.157   0.723   2.163 -1.1945 -0.4066  0.1441
 7528SOL    HW234221   4.143   0.591   2.098  0.6584 -0.8598 -0.2291
 7529SOL     OW34222   1.281   0.356  14.196  0.0255 -0.4699  0.1502
 7529SOL    HW134223   1.198   0.322  14.230  0.1596 -1.1036 -0.1591
 7529SOL    HW234224   1.334   0.365  14.275  0.8090  0.9342 -0.5412
 7530SOL     OW34225   2.520   3.541   1.168  0.1344  0.0765  0.1413
 7530SOL    HW134226   2.450   3.586   1.120 -1.2417 -1.1399  1.0353
 7530SOL    HW234227   2.474   3.471   1.214  0.1561  0.8299  1.3038
 7531SOL     OW34228   4.230   0.906   2.782  0.5697 -0.0011  0.0565
 7531SOL    HW134229   4.181   0.964   2.839 -1.2697  0.6944 -2.2436
 7531SOL    HW234230   4.314   0.951   2.777  0.8976 -0.7926 -1.8261
 7532SOL     OW34231   2.018   0.757   7.576  0.1054 -0.2160 -0.2370
 7532SOL    HW134232   2.026   0.668   7.542 -1.4626  0.9489 -3.6499
 7532SOL    HW234233   2.056   0.810   7.506 -1.5156  2.8816  1.2532
 7533SOL     OW34234   1.600   1.745   7.288  0.0522 -0.2956  0.5216
 7533SOL    HW134235   1.652   1.810   7.334 -0.3504  0.0670  0.4586
 7533SOL    HW234236   1.519   1.740   7.338 -0.0701 -0.7297  0.2867
 7534SOL     OW34237   2.377   2.522  16.942 -0.4185  0.0351  0.8976
 7534SOL    HW134238   2.302   2.468  16.916 -0.0838  0.2330 -0.4503
 7534SOL    HW234239   2.342   2.551  17.026 -2.8058  0.0066 -0.0644
 7535SOL     OW34240   3.823   2.277   4.051 -0.3383  0.5646 -0.0794
 7535SOL    HW134241   3.822   2.354   4.108 -1.5538  0.0369  0.6034
 7535SOL    HW234242   3.885   2.230   4.107  0.2880 -0.1650 -1.3936
 7536SOL     OW34243   2.932   1.907  15.463 -0.3177  0.5150 -0.1749
 7536SOL    HW134244   2.936   1.811  15.469 -2.8185  0.4329  0.2894
 7536SOL    HW234245   2.862   1.919  15.527  0.0562 -0.8970  0.4916
 7537SOL     OW34246   0.085   0.552   9.372  0.2002  0.5433 -0.0300
 7537SOL    HW134247   0.075   0.496   9.295  2.8317 -0.8190  0.6169
 7537SOL    HW234248   0.003   0.600   9.364 -1.9697 -3.0447  1.0395
 7538SOL     OW34249   1.227   4.247   4.147 -0.7552  0.1101  0.0327
 7538SOL    HW134250   1.271   4.332   4.146  1.9007 -1.2341  0.7511
 7538SOL    HW234251   1.155   4.253   4.084  1.1137 -1.6037 -2.3056
 7539SOL     OW34252   3.004   3.317   4.097 -0.6153  0.3476  0.0479
 7539SOL    HW134253   3.005   3.371   4.018 -0.2570 -0.0591 -0.2316
 7539SOL    HW234254   2.963   3.376   4.160 -1.5893 -3.1982  2.7927
 7540SOL     OW34255   3.099   0.968  10.590  0.0489 -0.6293 -0.0811
 7540SOL    HW134256   3.139   0.996  10.508 -0.3166 -0.8108 -0.3243
 7540SOL    HW234257   3.164   0.986  10.657  0.2894 -0.3809 -0.3866
 7541SOL     OW34258   2.315   0.744  14.141 -0.4415 -0.3475  0.3719
 7541SOL    HW134259   2.359   0.780  14.063  0.1631 -1.0987  0.3650
 7541SOL    HW234260   2.390   0.724  14.197 -1.6864 -0.2803  2.0623
 7542SOL     OW34261   2.535   3.204   8.181 -0.2051  0.3579  0.1259
 7542SOL    HW134262   2.581   3.275   8.135 -0.1468  0.9321  1.0697
 7542SOL    HW234263   2.464   3.176   8.124  0.5763 -0.0016 -0.6870
 7543SOL     OW34264   4.429   2.560   3.545 -0.3804 -0.5634 -0.4399
 7543SOL    HW134265   4.391   2.648   3.554  1.7062  0.3056 -0.1680
 7543SOL    HW234266   4.504   2.572   3.486 -0.0689 -2.5110 -0.4260
 7544SOL     OW34267   2.573   3.287   2.355  0.0840  0.2008  0.1634
 7544SOL    HW134268   2.611   3.207   2.390  3.1308  1.1974 -0.8764
 7544SOL    HW234269   2.583   3.340   2.435  1.5350  0.0251  0.0960
 7545SOL     OW34270   1.687   3.452  17.719 -0.5363 -0.3550 -0.2833
 7545SOL    HW134271   1.713   3.378   0.025 -0.0000 -1.5862 -2.2708
 7545SOL    HW234272   1.744   3.521   0.004 -1.7962 -0.1898  1.5935
 7546SOL     OW34273   2.001   0.090  14.424  0.2693 -0.5134  0.1638
 7546SOL    HW134274   1.993   0.113  14.331 -0.0463 -0.7796  0.1252
 7546SOL    HW234275   1.913   0.064  14.448  0.8861 -2.7094  0.0008
 7547SOL     OW34276   0.617   3.330   7.390 -0.1232 -0.1836  0.0430
 7547SOL    HW134277   0.653   3.242   7.403 -2.2116 -1.2793 -1.5930
 7547SOL    HW234278   0.611   3.369   7.477  1.3844  1.4179 -0.5518
 7548SOL     OW34279   1.388   0.630   6.474 -1.0834  0.2970 -0.4094
 7548SOL    HW134280   1.318   0.664   6.418 -1.0621  2.7022  1.0339
 7548SOL    HW234281   1.423   0.563   6.415 -1.7868 -1.7824  1.5177
 7549SOL     OW34282   0.658   3.191   0.211 -0.4354  0.3334 -0.2426
 7549SOL    HW134283   0.598   3.198   0.286  0.0835  1.2193  0.0950
 7549SOL    HW234284   0.634   3.269   0.160  0.3501  0.9202  0.2773
 7550SOL     OW34285   4.436   0.746  11.095  0.2121  0.6955 -0.6154
 7550SOL    HW134286   4.453   0.829  11.140  0.9740  0.5414 -0.6149
 7550SOL    HW234287   4.387   0.698  11.162  1.5551 -0.7054 -0.6337
 7551SOL     OW34288   4.265   1.106   3.552 -0.2168 -0.2333 -0.3851
 7551SOL    HW134289   4.247   1.095   3.646  0.3960  1.0149 -0.1286
 7551SOL    HW234290   4.341   1.050   3.535  2.3216  1.9708  3.6925
 7552SOL     OW34291   0.787   3.197   8.117 -0.3027  0.1088 -0.0664
 7552SOL    HW134292   0.847   3.124   8.105  0.6256  1.0723 -1.2572
 7552SOL    HW234293   0.839   3.277   8.108 -0.0820  0.0915  1.1926
 7553SOL     OW34294   1.630   0.945  11.214 -0.0010  0.2302 -0.1550
 7553SOL    HW134295   1.660   0.981  11.130 -0.7120 -1.5395 -1.1489
 7553SOL    HW234296   1.557   1.003  11.236 -1.7231 -1.9568 -0.2086
 7554SOL     OW34297   3.821   0.892   8.373  0.2617 -0.7551  0.2941
 7554SOL    HW134298   3.869   0.821   8.416  1.9707 -0.6568 -1.4377
 7554SOL    HW234299   3.829   0.846   8.290  0.4752  0.0239 -0.1189
 7555SOL     OW34300   1.668   0.868   4.441 -0.7600 -0.4410  0.8082
 7555SOL    HW134301   1.673   0.963   4.452  2.4688 -0.6564  1.1128
 7555SOL    HW234302   1.751   0.839   4.479  1.1637  2.2844 -1.3114
 7556SOL     OW34303   1.532   2.831   8.975  0.4335  0.8095 -0.3939
 7556SOL    HW134304   1.589   2.825   9.051 -2.6678 -1.5363  1.7770
 7556SOL    HW234305   1.541   2.926   8.969  1.0029  0.7188 -0.8955
 7557SOL     OW34306   4.515   0.235  17.536 -0.5042  0.1998  0.3256
 7557SOL    HW134307   4.495   0.183  17.458 -1.5035  0.1642  0.6034
 7557SOL    HW234308   4.457   0.307  17.510  0.2777 -0.2528 -2.5818
 7558SOL     OW34309   4.185   2.184   8.847  0.4408  0.4884 -0.2700
 7558SOL    HW134310   4.217   2.184   8.757 -0.7342 -0.1447 -0.6860
 7558SOL    HW234311   4.213   2.095   8.870 -0.6066  0.8915  2.6187
 7559SOL     OW34312   2.624   3.882   8.816  0.0929  0.2089  0.3777
 7559SOL    HW134313   2.670   3.965   8.805  0.6118 -0.0855  0.3078
 7559SOL    HW234314   2.632   3.841   8.730 -0.4649 -0.0254  0.4381
 7560SOL     OW34315   4.679   2.640  16.639  0.2199  0.1620 -0.3208
 7560SOL    HW134316   4.648   2.554  16.611  0.0727 -0.9705  3.3764
 7560SOL    HW234317   0.036   2.623  16.639  0.6815  2.7469  2.4118
 7561SOL     OW34318   2.317   3.476  16.958 -0.2621  0.4460 -1.0317
 7561SOL    HW134319   2.409   3.503  16.961  0.2205 -1.4502  1.2708
 7561SOL    HW234320   2.324   3.385  16.989 -0.5723  0.6491 -0.3683
 7562SOL     OW34321   1.727   3.764   1.130 -0.5068  0.3059 -1.3309
 7562SOL    HW134322   1.724   3.781   1.035 -3.4061  1.2020 -1.0730
 7562SOL    HW234323   1.787   3.837   1.147 -1.3802  0.6342  0.3108
 7563SOL     OW34324   2.727   3.339  14.381 -0.1352  0.2806 -0.0317
 7563SOL    HW134325   2.807   3.340  14.328 -0.1141 -3.0965 -0.0748
 7563SOL    HW234326   2.663   3.347  14.311 -2.2193  1.9794  2.0853
 7564SOL     OW34327   2.192   4.499   7.364 -0.5851  0.2681 -0.6059
 7564SOL    HW134328   2.168   4.455   7.282 -1.6993 -2.1270  1.0067
 7564SOL    HW234329   2.287   4.506   7.354 -0.1988 -1.6781  1.5592
 7565SOL     OW34330   2.132   3.527  14.997 -0.0339 -0.0785 -0.2224
 7565SOL    HW134331   2.078   3.597  15.033  2.7654  0.9035  2.0822
 7565SOL    HW234332   2.088   3.514  14.913  0.0132  1.3966 -0.4879
 7566SOL     OW34333   2.370   0.205   6.564  0.5390  0.8839  0.1670
 7566SOL    HW134334   2.392   0.146   6.636  0.2864  3.2753  2.2282
 7566SOL    HW234335   2.275   0.193   6.560  0.3904  2.4057 -1.1445
 7567SOL     OW34336   1.242   1.712   1.241 -0.1122 -0.8922 -0.0091
 7567SOL    HW134337   1.269   1.781   1.301  2.7468 -2.8866  1.0298
 7567SOL    HW234338   1.236   1.743   1.151 -2.0698  2.3466  1.2712
 7568SOL     OW34339   3.506   4.080   2.279 -0.1187 -0.1010 -0.5298
 7568SOL    HW134340   3.447   4.064   2.205  1.5695 -2.5849 -1.3464
 7568SOL    HW234341   3.454   4.149   2.321  0.3089  0.1056 -0.3386
 7569SOL     OW34342   2.071   0.842  15.873 -0.9644 -0.2319  0.0582
 7569SOL    HW134343   2.144   0.882  15.827  0.1839 -1.9787  0.3699
 7569SOL    HW234344   2.117   0.781  15.931  1.0924  0.0672 -1.2450
 7570SOL     OW34345   2.882   1.549   2.648  0.6011 -0.3533  0.1871
 7570SOL    HW134346   2.828   1.553   2.569 -0.8652  2.1323  1.3456
 7570SOL    HW234347   2.866   1.461   2.684  1.5900 -0.2771  0.8111
 7571SOL     OW34348   4.494   1.100   9.678  0.0201 -0.5343 -0.3958
 7571SOL    HW134349   4.401   1.118   9.663  0.3719  1.0907 -0.5420
 7571SOL    HW234350   4.511   1.023   9.623 -0.0379 -1.2132  0.5174
 7572SOL     OW34351   4.587   0.503  14.708 -0.6112  0.6944  0.2057
 7572SOL    HW134352   4.669   0.458  14.691 -0.0261  1.7630  0.1687
 7572SOL    HW234353   4.593   0.577  14.646 -1.4549  0.3284 -0.3182
 7573SOL     OW34354   1.325   3.059   0.674  0.8034  0.1130 -0.5134
 7573SOL    HW134355   1.373   3.088   0.597  0.5223  3.0851  0.4414
 7573SOL    HW234356   1.395   3.019   0.725  0.9416  2.2470  0.9507
 7574SOL     OW34357   1.923   2.364  16.668  0.3991  0.0736 -0.1967
 7574SOL    HW134358   1.840   2.409  16.685 -0.0849 -1.6356  2.0064
 7574SOL    HW234359   1.908   2.339  16.577  2.4936 -1.3711 -0.1326
 7575SOL     OW34360   0.332   4.436  11.971  0.0898 -0.0258 -0.1609
 7575SOL    HW134361   0.356   4.417  11.880 -3.2800  1.3178 -1.3452
 7575SOL    HW234362   0.307   4.528  11.968  0.8878  0.2300  1.3597
 7576SOL     OW34363   4.570   4.120  12.641 -0.4547 -0.0927 -0.0009
 7576SOL    HW134364   4.633   4.158  12.702  1.5172 -0.2663 -1.9188
 7576SOL    HW234365   4.517   4.197  12.620  1.3127  0.6115 -1.8963
 7577SOL     OW34366   0.951   4.413   5.775 -0.2146 -0.3324 -0.3869
 7577SOL    HW134367   1.045   4.426   5.786 -0.3316  0.9548 -0.9599
 7577SOL    HW234368   0.925   4.501   5.800 -0.3347 -0.4028 -0.2621
 7578SOL     OW34369   1.885   2.199   8.436 -0.0885 -0.3382 -0.5663
 7578SOL    HW134370   1.822   2.142   8.481 -1.2784  0.7388 -0.8798
 7578SOL    HW234371   1.964   2.171   8.482 -0.1639 -0.3161 -0.4200
 7579SOL     OW34372   3.637   3.465   6.853 -0.8462  0.0023 -0.1794
 7579SOL    HW134373   3.551   3.502   6.871 -0.1630  1.2701  0.5186
 7579SOL    HW234374   3.683   3.480   6.936 -0.8778  0.3764 -0.2307
 7580SOL     OW34375   0.827   2.190   4.767  0.4854  0.0652 -0.7586
 7580SOL    HW134376   0.888   2.137   4.819 -1.8775 -0.2083  1.7399
 7580SOL    HW234377   0.887   2.213   4.696 -0.1310  0.0279 -1.2864
 7581SOL     OW34378   2.976   2.261   5.976  0.5503  0.3847 -0.9217
 7581SOL    HW134379   2.956   2.197   6.045  0.9408 -0.8924 -2.0037
 7581SOL    HW234380   2.890   2.301   5.961  1.4244  1.9875 -1.6392
 7582SOL     OW34381   2.253   4.347   6.369  0.2220  0.2333  0.6810
 7582SOL    HW134382   2.171   4.377   6.407  0.8840  1.7437  0.9134
 7582SOL    HW234383   2.249   4.251   6.368  0.8607  0.2684 -3.1041
 7583SOL     OW34384   2.046   4.375   5.097  0.5863  0.3583  0.4974
 7583SOL    HW134385   2.011   4.404   5.013  2.1556  0.5133 -0.0994
 7583SOL    HW234386   1.996   4.294   5.108 -0.2451  0.5313 -1.9028
 7584SOL     OW34387   2.391   4.021   1.711 -0.3489 -0.9027 -0.3297
 7584SOL    HW134388   2.446   4.057   1.642  0.4266 -0.2013  0.6417
 7584SOL    HW234389   2.459   3.985   1.769 -1.9735 -1.4050  1.2718
 7585SOL     OW34390   4.013   3.648  15.986  0.1913 -0.6268 -0.2006
 7585SOL    HW134391   4.036   3.600  15.906 -1.9540  3.0406 -2.9745
 7585SOL    HW234392   4.033   3.579  16.050 -0.5248  0.4018  1.1109
 7586SOL     OW34393   0.932   1.850  10.677  0.0960 -0.5617  0.1543
 7586SOL    HW134394   0.909   1.760  10.655 -1.9802  0.5661 -2.3024
 7586SOL    HW234395   1.007   1.836  10.735 -0.2533  1.6756  1.1486
 7587SOL     OW34396   2.138   3.243   3.119  0.0690  0.4627 -0.2731
 7587SOL    HW134397   2.049   3.216   3.096  0.1343  0.6057 -0.6792
 7587SOL    HW234398   2.170   3.156   3.145  0.8565  0.5937 -0.8312
 7588SOL     OW34399   4.502   3.420   8.517  0.1990 -0.3737  0.7371
 7588SOL    HW134400   4.535   3.505   8.547  2.3598 -0.9990  0.1112
 7588SOL    HW234401   4.571   3.360   8.545 -1.3915 -1.7584  1.6912
 7589SOL     OW34402   3.303   4.045   3.064 -0.5290  0.2419  0.1401
 7589SOL    HW134403   3.344   4.021   2.981  1.9980 -0.4350  1.5773
 7589SOL    HW234404   3.360   4.119   3.084  0.0120 -0.4821  1.2804
 7590SOL     OW34405   1.079   1.093   7.091 -0.0603 -0.1780  0.1964
 7590SOL    HW134406   1.021   1.034   7.043  1.4039  0.2035 -2.0707
 7590SOL    HW234407   1.020   1.169   7.088 -2.1883 -1.7577  2.0986
 7591SOL     OW34408   4.121   1.255   5.440  0.6865 -0.3944 -0.4088
 7591SOL    HW134409   4.143   1.194   5.510 -0.6258  0.6226  0.8825
 7591SOL    HW234410   4.208   1.280   5.408 -0.4194  2.9291 -0.7928
 7592SOL     OW34411   0.519   3.863   2.335 -0.1407  0.2237  0.0318
 7592SOL    HW134412   0.450   3.798   2.336 -1.5006  1.6680 -0.2919
 7592SOL    HW234413   0.525   3.878   2.429 -0.9488 -0.6798  0.2191
 7593SOL     OW34414   4.596   2.790  15.417  0.1520  0.0005  0.3802
 7593SOL    HW134415   4.548   2.755  15.342 -0.2780 -1.3648  1.2949
 7593SOL    HW234416   4.558   2.877  15.430 -0.1850 -0.3096  1.5157
 7594SOL     OW34417   1.205   1.725   1.858 -0.0806  0.5033  0.4124
 7594SOL    HW134418   1.279   1.695   1.806  0.8988  0.5567  1.7827
 7594SOL    HW234419   1.234   1.814   1.878 -1.4508  0.7879  1.1287
 7595SOL     OW34420   3.073   4.570   5.086 -0.4513 -0.0984  0.6213
 7595SOL    HW134421   3.076   4.498   5.023 -0.3506 -2.0428  2.8457
 7595SOL    HW234422   3.072   4.644   5.025 -1.3777  0.2390  1.0467
 7596SOL     OW34423   0.553   2.814   2.616 -0.1530 -0.2308  0.0160
 7596SOL    HW134424   0.459   2.831   2.608 -0.3790 -1.6546 -0.3227
 7596SOL    HW234425   0.572   2.863   2.696  0.7115  1.1450 -1.0437
 7597SOL     OW34426   3.115   2.202  15.324 -0.4352 -0.4379  0.1307
 7597SOL    HW134427   3.117   2.114  15.362  0.9336  0.0934  1.2733
 7597SOL    HW234428   3.163   2.209  15.241  0.8131 -0.8369  0.8378
 7598SOL     OW34429   1.536   0.975  16.052 -0.8825 -0.3688  0.0625
 7598SOL    HW134430   1.531   0.921  15.973 -0.4830 -1.2750  0.6571
 7598SOL    HW234431   1.571   1.057  16.015 -1.3223 -0.1743  0.0802
 7599SOL     OW34432   1.909   2.803   9.838 -0.2067 -0.2487 -0.6366
 7599SOL    HW134433   1.851   2.857   9.785  1.3500  0.1222 -1.9261
 7599SOL    HW234434   1.996   2.838   9.823  0.9830 -2.3316  1.2961
 7600SOL     OW34435   2.851   0.075   5.235 -0.6130  1.4412 -0.6246
 7600SOL    HW134436   2.844   4.719   5.216 -2.0756  1.6037 -0.8808
 7600SOL    HW234437   2.760   0.106   5.238 -0.9704  0.2430  1.1694
 7601SOL     OW34438   3.845   1.668   5.851 -0.2249 -0.2883  0.3961
 7601SOL    HW134439   3.924   1.723   5.854  0.5852 -1.4465  0.1478
 7601SOL    HW234440   3.806   1.685   5.936 -0.4990 -1.9905  0.6081
 7602SOL     OW34441   1.487   4.151  10.796  0.8964 -0.1158 -0.0387
 7602SOL    HW134442   1.515   4.112  10.879  1.5633  1.5077  0.4834
 7602SOL    HW234443   1.572   4.144  10.753  1.3702  0.0911  0.8837
 7603SOL     OW34444   1.821   1.370   9.260 -0.2903 -0.3798  0.2702
 7603SOL    HW134445   1.750   1.323   9.217 -1.7230  0.5649  1.6069
 7603SOL    HW234446   1.877   1.363   9.182 -0.4511 -2.2102  0.3259
 7604SOL     OW34447   4.526   4.710   5.491  0.1246  0.2827  0.0662
 7604SOL    HW134448   4.487   0.060   5.501 -2.0283 -0.6574  0.0112
 7604SOL    HW234449   4.457   4.663   5.538 -2.1461  2.0409 -1.4756
 7605SOL     OW34450   3.526   3.769  16.600 -0.0433  0.0972  0.2394
 7605SOL    HW134451   3.508   3.853  16.558 -3.0810 -0.6556  0.0662
 7605SOL    HW234452   3.578   3.729  16.531 -0.3568  0.6139 -0.2939
 7606SOL     OW34453   4.291   0.400   3.916 -0.6924  0.6623  0.2549
 7606SOL    HW134454   4.339   0.404   3.999  0.6303  2.5098 -0.6226
 7606SOL    HW234455   4.269   0.306   3.913 -0.0592  0.5185  0.0747
 7607SOL     OW34456   2.790   0.447   6.729 -0.5263  0.0666  0.0440
 7607SOL    HW134457   2.867   0.498   6.753  0.1954 -0.7583 -0.5368
 7607SOL    HW234458   2.788   0.422   6.636  0.8882 -0.8167  0.2574
 7608SOL     OW34459   4.376   4.233  16.044 -0.1374 -0.4400  0.5450
 7608SOL    HW134460   4.436   4.180  16.096 -1.5679  0.4870  3.1351
 7608SOL    HW234461   4.368   4.177  15.968  1.4300  0.7277 -0.4889
 7609SOL     OW34462   1.363   3.409   7.191 -0.4689 -0.6980  0.5163
 7609SOL    HW134463   1.369   3.320   7.157  0.0556 -0.5953  0.3544
 7609SOL    HW234464   1.441   3.450   7.156 -1.0087 -0.7109 -0.7007
 7610SOL     OW34465   0.651   0.099   9.136 -0.4601  0.9874 -0.2306
 7610SOL    HW134466   0.743   0.121   9.149 -0.5312  0.4275  1.2206
 7610SOL    HW234467   0.616   0.142   9.058 -1.2566  0.8390  0.0437
 7611SOL     OW34468   0.639   4.318   5.326 -0.2317  0.2956  0.3140
 7611SOL    HW134469   0.675   4.229   5.318  2.2030  1.2091  0.9601
 7611SOL    HW234470   0.663   4.336   5.417  1.8662 -0.7376 -0.0245
 7612SOL     OW34471   3.256   4.041  15.247 -0.0914  0.1187 -0.2960
 7612SOL    HW134472   3.327   4.008  15.192  2.9257  1.5629  2.6529
 7612SOL    HW234473   3.298   4.061  15.331  1.5661  0.2351 -1.1439
 7613SOL     OW34474   0.431   1.345  14.553 -0.3300 -0.3831  0.3199
 7613SOL    HW134475   0.521   1.377  14.543 -0.0124 -1.7536 -1.1050
 7613SOL    HW234476   0.436   1.250  14.564 -1.8612 -0.4330  0.5681
 7614SOL     OW34477   2.118   2.463   0.008 -0.1106  0.1695 -0.6662
 7614SOL    HW134478   2.167   2.406   0.066 -0.4301 -0.1733 -0.7398
 7614SOL    HW234479   2.028   2.440   0.030  0.5717 -0.2910  1.5726
 7615SOL     OW34480   2.793   0.652   8.386  0.3468  0.0128 -0.3947
 7615SOL    HW134481   2.832   0.591   8.448 -1.9620 -0.1126  0.9241
 7615SOL    HW234482   2.756   0.712   8.450  3.2256  0.2033  1.0723
 7616SOL     OW34483   3.770   2.853  10.913 -0.0790 -0.0413  0.5474
 7616SOL    HW134484   3.798   2.819  10.828  0.2475 -0.9268  1.0088
 7616SOL    HW234485   3.840   2.916  10.929  1.5652 -1.7665  0.1286
 7617SOL     OW34486   2.556   2.022   9.993  0.5168  0.1556 -0.1204
 7617SOL    HW134487   2.605   1.948   9.957  0.7508 -0.1432  0.8279
 7617SOL    HW234488   2.491   1.976  10.045  0.1913  0.1406 -0.5364
 7618SOL     OW34489   1.430   0.325   4.188 -0.0269  0.2861 -0.0712
 7618SOL    HW134490   1.486   0.318   4.266  1.2964 -1.6282 -1.1939
 7618SOL    HW234491   1.377   0.245   4.196  1.9323 -1.2294 -2.1654
 7619SOL     OW34492   3.569   4.035   4.381  0.0669 -0.4745  0.5849
 7619SOL    HW134493   3.522   3.959   4.415 -0.0899 -0.4048  0.5248
 7619SOL    HW234494   3.621   4.071   4.454 -1.1171 -1.0298  1.7015
 7620SOL     OW34495   0.015   2.875   2.856  0.1891 -0.3671 -0.1172
 7620SOL    HW134496   4.701   2.949   2.889  1.0579  2.1940 -4.4781
 7620SOL    HW234497   0.017   2.892   2.762 -1.2272 -1.4482 -0.3529
 7621SOL     OW34498   2.320   0.443  12.165  0.3180  0.1462 -0.4926
 7621SOL    HW134499   2.379   0.395  12.107 -1.0146 -1.9902 -0.0922
 7621SOL    HW234500   2.240   0.443  12.113 -0.1492 -0.5397  0.2327
 7622SOL     OW34501   0.499   3.900   5.060 -0.3932  0.0189 -0.4214
 7622SOL    HW134502   0.423   3.920   5.114 -0.3721 -0.4752 -0.2149
 7622SOL    HW234503   0.557   3.847   5.113  0.0067  0.0973 -0.7777
 7623SOL     OW34504   0.908   0.635  10.574  0.4484 -0.7801  0.0275
 7623SOL    HW134505   0.830   0.603  10.527 -0.3249  3.0315 -1.3300
 7623SOL    HW234506   0.906   0.581  10.653  0.7938 -2.3296 -1.0138
 7624SOL     OW34507   3.577   0.030  16.891  0.3854  0.0198  0.1161
 7624SOL    HW134508   3.497   0.063  16.848  0.7803  1.9962  0.8900
 7624SOL    HW234509   3.548   0.044  16.981  3.1720 -0.3263  1.0666
 7625SOL     OW34510   3.021   0.559   6.845  0.7937  0.3313 -0.4904
 7625SOL    HW134511   3.106   0.526   6.874  0.8211  0.9261  0.1131
 7625SOL    HW234512   2.991   0.599   6.926  0.5083  1.0375 -0.9404
 7626SOL     OW34513   2.506   2.933  11.002  0.2166 -0.5344 -0.4305
 7626SOL    HW134514   2.457   2.888  10.934  0.7750 -1.4271 -0.2378
 7626SOL    HW234515   2.443   2.936  11.074 -1.1928 -1.3598 -1.6443
 7627SOL     OW34516   2.480   3.011   9.215  0.0237  0.1400 -0.3300
 7627SOL    HW134517   2.543   2.971   9.274 -1.6280 -3.0999 -0.7499
 7627SOL    HW234518   2.435   2.929   9.196 -0.8486  0.7300 -0.8182
 7628SOL     OW34519   4.516   1.132   5.852 -0.0487  0.5834  0.2734
 7628SOL    HW134520   4.435   1.094   5.818  0.4982 -0.1744 -0.1923
 7628SOL    HW234521   4.558   1.161   5.770  0.9438  0.8633  0.8793
 7629SOL     OW34522   3.925   1.723  14.384 -0.2684  0.2191  0.4622
 7629SOL    HW134523   3.959   1.785  14.448  0.4509  2.2438 -1.8377
 7629SOL    HW234524   4.000   1.693  14.333 -0.4643  0.1419  0.2200
 7630SOL     OW34525   0.414   2.248   4.194  0.1979 -0.0441 -0.2250
 7630SOL    HW134526   0.360   2.321   4.224 -0.5858  0.0419 -1.8477
 7630SOL    HW234527   0.481   2.250   4.262  0.6459  2.2440 -0.7167
 7631SOL     OW34528   0.698   3.020   0.849  0.5723 -0.6056 -0.3902
 7631SOL    HW134529   0.747   2.938   0.839  0.3804 -0.4893 -2.2217
 7631SOL    HW234530   0.610   2.986   0.837  0.3276 -1.2476  3.2308
 7632SOL     OW34531   2.847   1.217  17.695  0.0556 -0.3553  0.5974
 7632SOL    HW134532   2.908   1.167   0.002 -0.0798 -0.9407  0.2112
 7632SOL    HW234533   2.896   1.241  17.617  0.3932  0.6113  1.0960
 7633SOL     OW34534   2.178   3.903   3.603  0.3170  0.0560 -0.0609
 7633SOL    HW134535   2.107   3.965   3.616 -0.5531 -1.2672  1.5191
 7633SOL    HW234536   2.233   3.962   3.551  2.3585 -0.7713  1.1683
 7634SOL     OW34537   2.472   4.696  13.728 -0.0962  0.1819 -0.7222
 7634SOL    HW134538   2.451   4.737  13.644 -1.4305  2.2967  0.6226
 7634SOL    HW234539   2.419   4.618  13.711  0.4335 -0.1403 -0.8708
 7635SOL     OW34540   3.576   0.526   5.605  0.5311 -0.1956  0.3363
 7635SOL    HW134541   3.589   0.488   5.692 -0.6780  2.4060  1.6724
 7635SOL    HW234542   3.573   0.449   5.549  0.5053 -0.3098  0.4959
 7636SOL     OW34543   3.479   4.590   7.430 -0.2902  0.4192  0.2364
 7636SOL    HW134544   3.506   4.513   7.380 -2.0092  1.3204 -2.0914
 7636SOL    HW234545   3.529   4.577   7.511 -0.6169  1.6351  0.6378
 7637SOL     OW34546   1.143   0.621  12.732 -0.0095  0.4729 -0.1980
 7637SOL    HW134547   1.223   0.625  12.785 -0.6678 -0.1238  0.8391
 7637SOL    HW234548   1.178   0.590  12.648  0.1867  1.1770 -0.3709
 7638SOL     OW34549   4.541   3.568   4.293  0.5180 -0.3704  0.2385
 7638SOL    HW134550   4.492   3.487   4.308 -0.0572  0.3989  2.5785
 7638SOL    HW234551   4.476   3.620   4.246  1.0809 -1.2310 -1.4825
 7639SOL     OW34552   2.245   0.497  10.626 -0.5384  0.2684 -0.5996
 7639SOL    HW134553   2.314   0.542  10.675  0.4522 -1.9903  0.0729
 7639SOL    HW234554   2.215   0.433  10.690 -0.2230 -0.4170 -1.1428
 7640SOL     OW34555   2.103   3.259   1.689  0.1287 -0.2853 -0.0973
 7640SOL    HW134556   2.034   3.272   1.754  1.3506 -4.0290  1.9415
 7640SOL    HW234557   2.083   3.322   1.619  0.0434  1.0539  1.1317
 7641SOL     OW34558   0.665   1.182   8.732  0.0571 -0.4732  0.1669
 7641SOL    HW134559   0.615   1.262   8.715 -0.7736 -1.3153 -1.4237
 7641SOL    HW234560   0.618   1.139   8.803 -2.1456 -0.8532 -1.5031
 7642SOL     OW34561   3.710   4.433   6.136 -0.1362  0.1990 -0.0430
 7642SOL    HW134562   3.644   4.365   6.150 -1.0556  1.0739 -0.0459
 7642SOL    HW234563   3.705   4.489   6.214 -1.7052 -1.3326  0.9594
 7643SOL     OW34564   3.557   3.277  11.947 -0.0079  0.4801  0.3697
 7643SOL    HW134565   3.567   3.365  11.984 -2.1927  0.7418  0.3465
 7643SOL    HW234566   3.601   3.228  12.016  0.9140 -0.9876 -1.2651
 7644SOL     OW34567   2.663   3.246  12.921 -0.0830 -0.2493 -0.1260
 7644SOL    HW134568   2.661   3.158  12.958  1.4339  0.3629  1.4062
 7644SOL    HW234569   2.750   3.254  12.883  0.8630 -1.5437  1.8163
 7645SOL     OW34570   1.670   3.190   9.309  0.1120  0.8212  0.1459
 7645SOL    HW134571   1.695   3.194   9.401  0.7618  0.2147 -0.0053
 7645SOL    HW234572   1.755   3.176   9.266 -0.6781  0.3501 -1.2826
 7646SOL     OW34573   1.070   3.745   7.755  0.5095 -0.0312 -0.6502
 7646SOL    HW134574   1.068   3.738   7.659 -1.3245 -0.4482 -0.5802
 7646SOL    HW234575   1.137   3.813   7.768 -0.5915  0.9332 -0.0040
 7647SOL     OW34576   4.527   4.230   2.179  0.2802  0.0714  0.5446
 7647SOL    HW134577   4.530   4.325   2.189  3.1068 -0.1580  1.8076
 7647SOL    HW234578   4.449   4.221   2.125 -0.6171 -0.1835  1.8936
 7648SOL     OW34579   3.453   2.786   7.528 -0.5957 -0.2325 -0.3590
 7648SOL    HW134580   3.530   2.730   7.537  0.8218  2.0905  2.1083
 7648SOL    HW234581   3.493   2.869   7.501 -0.6781 -1.2973 -3.7073
 7649SOL     OW34582   3.780   4.277  13.777 -0.3358 -0.3383 -0.0160
 7649SOL    HW134583   3.849   4.241  13.720 -0.8627  2.3727 -2.4052
 7649SOL    HW234584   3.767   4.358  13.726 -2.0003  1.0105  2.5635
 7650SOL     OW34585   1.630   2.341   1.481 -0.0786  0.6612  0.1235
 7650SOL    HW134586   1.538   2.351   1.502 -0.3697 -1.3417 -0.1419
 7650SOL    HW234587   1.638   2.245   1.475  0.8008  0.8741 -2.0996
 7651SOL     OW34588   1.220   1.397   7.046 -0.3181  0.8277 -0.1326
 7651SOL    HW134589   1.265   1.324   7.002  0.1089  1.0730 -0.1018
 7651SOL    HW234590   1.287   1.451   7.088 -1.5432  0.9575  1.6425
 7652SOL     OW34591   1.701   3.477   0.642  0.2418  0.8418  0.0585
 7652SOL    HW134592   1.753   3.410   0.598  0.4778  0.5651  0.7428
 7652SOL    HW234593   1.613   3.439   0.648  0.4279  0.1564 -1.7699
 7653SOL     OW34594   3.773   0.313   3.513  0.5985  0.6260  0.1069
 7653SOL    HW134595   3.760   0.232   3.562 -2.0561 -0.0510 -1.7799
 7653SOL    HW234596   3.812   0.369   3.581  0.5549 -0.3988  0.9806
 7654SOL     OW34597   2.400   2.856  10.233 -0.1769  0.2397 -0.1062
 7654SOL    HW134598   2.333   2.827  10.171 -0.5403 -0.4957  0.6325
 7654SOL    HW234599   2.478   2.805  10.213  0.0014  0.6881 -0.5332
 7655SOL     OW34600   1.340   0.060   4.197 -0.8512  0.0437 -0.0322
 7655SOL    HW134601   1.375   0.002   4.264 -0.0290 -1.1961 -1.5360
 7655SOL    HW234602   1.320   0.004   4.122 -0.5217  1.4751 -1.2021
 7656SOL     OW34603   1.927   1.786  16.235  0.0106  0.3185  0.1259
 7656SOL    HW134604   1.898   1.702  16.271 -0.6145 -1.2846 -4.0842
 7656SOL    HW234605   1.855   1.803  16.174  1.2686  1.7031 -0.9741
 7657SOL     OW34606   1.613   3.070   6.048 -0.1312  0.4220  0.0671
 7657SOL    HW134607   1.534   3.116   6.073 -0.6664 -1.5973  2.1066
 7657SOL    HW234608   1.628   3.016   6.126 -0.1786 -0.9438 -0.8593
 7658SOL     OW34609   1.719   2.360   3.625  0.5330 -0.5722 -0.0581
 7658SOL    HW134610   1.755   2.277   3.655  1.9714  0.8105  2.0259
 7658SOL    HW234611   1.786   2.407   3.575 -0.2855 -0.7779 -1.3377
 7659SOL     OW34612   1.611   1.747   3.336  0.6461 -0.1200  0.3766
 7659SOL    HW134613   1.566   1.810   3.279 -0.9818 -3.3798 -1.9214
 7659SOL    HW234614   1.598   1.671   3.280 -1.6235  0.4062  0.1911
 7660SOL     OW34615   0.652   1.078   6.977  0.1534  0.1448 -0.2198
 7660SOL    HW134616   0.588   1.129   7.027  0.7536  0.4207  0.2608
 7660SOL    HW234617   0.588   1.023   6.932 -0.6774 -0.8615  2.1744
 7661SOL     OW34618   2.642   2.247   3.636  0.1639 -0.3580  0.1960
 7661SOL    HW134619   2.672   2.204   3.716  0.6562 -0.9175 -0.2932
 7661SOL    HW234620   2.661   2.176   3.575 -2.3180 -0.5627 -0.3425
 7662SOL     OW34621   2.402   0.447   6.440  0.5600 -0.8359  0.2187
 7662SOL    HW134622   2.412   0.362   6.483 -0.9632 -0.7734  0.6955
 7662SOL    HW234623   2.337   0.423   6.374 -2.3266  0.1572  2.6919
 7663SOL     OW34624   4.650   0.246  13.315 -0.2299 -0.2596 -0.0339
 7663SOL    HW134625   4.636   0.339  13.330  1.2700 -0.3367  1.8651
 7663SOL    HW234626   4.687   0.246  13.227 -0.8164  1.5067 -0.2748
 7664SOL     OW34627   3.378   0.526   8.890 -0.8721 -0.5061 -0.1018
 7664SOL    HW134628   3.458   0.478   8.867 -1.2612 -1.7430  1.1443
 7664SOL    HW234629   3.311   0.477   8.843  0.7187 -2.0372 -0.7780
 7665SOL     OW34630   2.791   4.671   4.487  0.2262  0.1821 -0.1479
 7665SOL    HW134631   2.784   4.640   4.397  1.7397 -0.2316 -0.1203
 7665SOL    HW234632   2.873   4.720   4.477 -0.1747  0.6564 -1.0382
 7666SOL     OW34633   1.535   3.684   2.472  0.0734 -0.0833 -0.4471
 7666SOL    HW134634   1.507   3.594   2.489 -0.2501 -0.0864 -0.9813
 7666SOL    HW234635   1.548   3.674   2.377 -1.9831 -1.9948 -0.5392
 7667SOL     OW34636   2.000   1.949  15.863  0.0824 -0.8546 -1.1518
 7667SOL    HW134637   2.015   1.901  15.782  0.9038 -1.7083 -0.4903
 7667SOL    HW234638   1.904   1.951  15.869  0.2010  0.3937  0.4465
 7668SOL     OW34639   3.496   4.205  17.383  0.4100  0.2012  0.2584
 7668SOL    HW134640   3.430   4.140  17.359  2.2619 -2.0863  1.3484
 7668SOL    HW234641   3.545   4.169  17.457  0.1824  0.1115  0.3674
 7669SOL     OW34642   2.255   4.691   8.371 -0.5828  0.3474  0.5503
 7669SOL    HW134643   2.244   4.663   8.280 -0.0473  2.3255 -0.1061
 7669SOL    HW234644   2.163   4.712   8.389 -0.8324 -1.6346  1.6442
 7670SOL     OW34645   3.112   3.791   5.726 -0.1105  0.5374  0.0976
 7670SOL    HW134646   3.114   3.752   5.639 -0.1438 -2.3758  1.4196
 7670SOL    HW234647   3.107   3.884   5.704  0.3230  0.3702 -0.7045
 7671SOL     OW34648   1.421   0.598   2.215  0.1234  0.4852  0.2776
 7671SOL    HW134649   1.489   0.593   2.147  0.1414  3.1560  0.0790
 7671SOL    HW234650   1.356   0.649   2.166 -0.3625 -1.8885 -1.5682
 7672SOL     OW34651   0.412   2.628   7.781  0.0029  0.7594 -0.0364
 7672SOL    HW134652   0.463   2.549   7.799 -3.0214 -1.0679  0.5487
 7672SOL    HW234653   0.380   2.605   7.694  0.7341 -0.3535 -0.0107
 7673SOL     OW34654   2.745   2.326  13.946 -0.0161 -0.3361 -0.3389
 7673SOL    HW134655   2.664   2.374  13.929 -0.5552 -1.0047  0.2780
 7673SOL    HW234656   2.737   2.268  13.870  0.4364 -1.4731  0.4855
 7674SOL     OW34657   1.216   2.499   2.118  0.5202  0.4285  0.2726
 7674SOL    HW134658   1.177   2.413   2.134  1.9637 -0.2766  0.0346
 7674SOL    HW234659   1.308   2.473   2.117  0.2088 -0.6988  0.3104
 7675SOL     OW34660   4.227   0.917   9.422 -0.3233 -0.5929 -0.4115
 7675SOL    HW134661   4.179   0.918   9.339 -1.7841  0.6087  0.4499
 7675SOL    HW234662   4.218   0.824   9.442 -0.8108 -0.4651 -0.0369
 7676SOL     OW34663   2.673   2.861  16.749 -0.1949  0.2346  0.1233
 7676SOL    HW134664   2.722   2.780  16.762 -0.5335  0.0320  0.1639
 7676SOL    HW234665   2.584   2.828  16.763  1.3637 -4.2510 -0.6271
 7677SOL     OW34666   1.906   3.988   2.112 -0.6043  0.0149 -0.0481
 7677SOL    HW134667   1.985   3.943   2.083  0.0059 -0.6692  2.6727
 7677SOL    HW234668   1.920   4.081   2.094  1.6072 -0.2880  0.1817
 7678SOL     OW34669   1.594   0.347   3.688 -0.0756  0.1637  0.6797
 7678SOL    HW134670   1.537   0.423   3.677 -0.4215 -0.3496 -1.0180
 7678SOL    HW234671   1.648   0.352   3.609  0.1827  2.9282  1.0476
 7679SOL     OW34672   0.988   2.502   7.474 -0.1175 -0.1504 -0.8644
 7679SOL    HW134673   1.045   2.433   7.509 -0.4940  0.8066  1.6590
 7679SOL    HW234674   0.970   2.463   7.389 -1.3160  1.3151 -1.2765
 7680SOL     OW34675   2.253   2.196   3.466 -0.2821 -0.1826  0.0694
 7680SOL    HW134676   2.309   2.267   3.435  0.5869 -0.4245  1.0729
 7680SOL    HW234677   2.284   2.186   3.556  0.6067 -1.9110 -0.4101
 7681SOL     OW34678   3.186   1.169  10.395 -0.5537  0.0815 -0.4499
 7681SOL    HW134679   3.171   1.224  10.472 -2.7176 -1.3118  0.1435
 7681SOL    HW234680   3.152   1.220  10.322 -1.2043 -0.7877 -0.7591
 7682SOL     OW34681   0.623   4.593  11.955 -0.1669 -0.1993  0.5892
 7682SOL    HW134682   0.630   4.501  11.929 -0.8452  0.3765 -1.6562
 7682SOL    HW234683   0.531   4.601  11.980  0.0153 -1.2823  1.5975
 7683SOL     OW34684   0.743   3.823   3.538  0.0412 -0.3966 -0.2503
 7683SOL    HW134685   0.802   3.761   3.579  1.2043  1.1846  0.4707
 7683SOL    HW234686   0.655   3.801   3.568  0.3775  0.4767  1.4127
 7684SOL     OW34687   3.652   3.306   4.212  0.2270 -0.1928 -0.1112
 7684SOL    HW134688   3.644   3.269   4.125 -0.0674 -2.5332  0.9160
 7684SOL    HW234689   3.566   3.343   4.233 -0.7469 -1.5538 -1.7912
 7685SOL     OW34690   3.005   2.700   6.127  0.0317  0.0323  0.5450
 7685SOL    HW134691   3.014   2.759   6.202 -1.9601 -0.8326  1.4459
 7685SOL    HW234692   2.965   2.763   6.068 -0.0666 -2.3113 -1.8811
 7686SOL     OW34693   2.590   3.822   5.430  0.2190  0.5113 -0.4771
 7686SOL    HW134694   2.670   3.773   5.450  1.1564  3.5395  2.9808
 7686SOL    HW234695   2.625   3.873   5.357  0.6332 -0.0228 -0.6548
 7687SOL     OW34696   0.890   3.371   8.384 -0.2138  0.6025 -0.4003
 7687SOL    HW134697   0.941   3.443   8.421  0.0533 -0.1502  0.6942
 7687SOL    HW234698   0.912   3.372   8.291 -1.7886  3.2756 -0.7564
 7688SOL     OW34699   2.550   0.342  13.875  0.7261 -0.2313  0.3201
 7688SOL    HW134700   2.552   0.294  13.958  1.0294 -0.9832 -0.1204
 7688SOL    HW234701   2.640   0.328  13.845 -0.2931 -1.3686 -2.1847
 7689SOL     OW34702   2.332   4.253   6.968  0.9458 -0.4853  0.4117
 7689SOL    HW134703   2.417   4.292   6.987  1.9236 -2.3066 -0.3106
 7689SOL    HW234704   2.331   4.171   7.016 -0.1768 -0.3365  0.6567
 7690SOL     OW34705   3.369   3.354   2.047  0.2934  0.4400  0.4865
 7690SOL    HW134706   3.343   3.267   2.078 -0.1021  0.8750  1.3818
 7690SOL    HW234707   3.398   3.386   2.133  0.4516 -0.0582  0.6140
 7691SOL     OW34708   2.398   2.791   9.825  0.0072  0.2069  0.1159
 7691SOL    HW134709   2.467   2.856   9.818  1.5811 -1.4884 -0.2172
 7691SOL    HW234710   2.397   2.754   9.737  1.2956  0.6527 -0.0875
 7692SOL     OW34711   0.086   0.180  11.168 -0.2125  0.1506  0.2350
 7692SOL    HW134712   0.130   0.184  11.083  2.9817  0.9360  1.9278
 7692SOL    HW234713   0.059   0.088  11.166 -0.2214  0.1697 -0.6646
 7693SOL     OW34714   4.472   4.309  10.492  0.4401 -0.2562  0.5153
 7693SOL    HW134715   4.542   4.247  10.512  0.6135  0.3552  1.8562
 7693SOL    HW234716   4.435   4.261  10.418  1.5983 -0.1536 -0.1338
 7694SOL     OW34717   1.847   0.653   5.607 -0.9615  0.0559 -0.1689
 7694SOL    HW134718   1.795   0.692   5.536  0.0874  1.2383 -0.2857
 7694SOL    HW234719   1.801   0.571   5.621 -1.1941  0.0852 -0.7366
 7695SOL     OW34720   2.230   2.163   8.136 -0.7073 -0.1100  0.6482
 7695SOL    HW134721   2.281   2.184   8.214 -1.0525  0.1999  0.7916
 7695SOL    HW234722   2.193   2.077   8.157 -0.1161  0.0408  2.3278
 7696SOL     OW34723   1.195   1.785   8.976 -0.2492  0.5406 -0.1099
 7696SOL    HW134724   1.256   1.854   8.950  0.6276  0.3909  1.5585
 7696SOL    HW234725   1.190   1.743   8.890  1.5662  0.9039 -0.3918
 7697SOL     OW34726   3.930   0.861   7.081  0.1868  0.0890  0.3820
 7697SOL    HW134727   3.919   0.767   7.069 -3.5195  0.5270  0.2766
 7697SOL    HW234728   4.000   0.877   7.144 -0.2714  1.7192  0.4993
 7698SOL     OW34729   0.436   1.296  13.430  0.0914 -0.1125  0.0990
 7698SOL    HW134730   0.379   1.366  13.463  0.1764  0.2541 -0.5178
 7698SOL    HW234731   0.401   1.292  13.341 -1.1561 -0.3967  0.6003
 7699SOL     OW34732   4.048   3.864  16.287 -0.1818 -0.0777  0.1294
 7699SOL    HW134733   4.030   3.923  16.214  0.4361  0.6509  0.5764
 7699SOL    HW234734   4.076   3.790  16.233 -1.3911  1.6522 -2.8713
 7700SOL     OW34735   0.213   1.476  15.680 -0.1453  0.1779 -0.3238
 7700SOL    HW134736   0.220   1.407  15.747  0.4008 -0.4988 -1.0875
 7700SOL    HW234737   0.128   1.509  15.711  0.4228  0.9113  0.4459
 7701SOL     OW34738   1.637   1.943   1.636  0.0645  0.0636 -0.4473
 7701SOL    HW134739   1.704   1.893   1.590  0.6767  0.8952 -0.4591
 7701SOL    HW234740   1.641   1.910   1.725  3.5019 -0.6122 -0.8601
 7702SOL     OW34741   0.861   1.376   7.605  0.0552 -0.1629  0.3945
 7702SOL    HW134742   0.838   1.424   7.684 -0.2876  0.9037 -0.3443
 7702SOL    HW234743   0.921   1.315   7.647  0.3037  1.9691  3.1550
 7703SOL     OW34744   3.435   3.233  17.280 -0.2488  0.1566 -0.3132
 7703SOL    HW134745   3.466   3.298  17.343 -1.0156 -0.5301  0.7605
 7703SOL    HW234746   3.456   3.275  17.196  1.7418 -2.1231 -0.9630
 7704SOL     OW34747   3.977   3.000  10.975 -0.7264  0.3113  0.4325
 7704SOL    HW134748   4.002   3.046  11.056  3.6247 -1.7686  0.2637
 7704SOL    HW234749   4.062   2.966  10.946 -1.3760 -0.5433 -0.4310
 7705SOL     OW34750   1.283   4.675   5.232  0.4561 -0.6828 -0.2005
 7705SOL    HW134751   1.359   4.724   5.201  2.1326 -2.1086  1.7010
 7705SOL    HW234752   1.216   0.004   5.250 -0.6842 -1.4638 -1.5675
 7706SOL     OW34753   2.470   0.708   9.056  0.1770 -0.9048 -0.0783
 7706SOL    HW134754   2.375   0.709   9.043  0.2621 -0.0234 -0.6530
 7706SOL    HW234755   2.491   0.801   9.060  0.8302 -0.8833 -4.5049
 7707SOL     OW34756   4.397   4.286   3.445  0.0605 -0.2595  0.6194
 7707SOL    HW134757   4.431   4.304   3.358  0.0587  1.5673  0.9869
 7707SOL    HW234758   4.367   4.373   3.471 -0.4143  0.2473 -1.6587
 7708SOL     OW34759   3.051   3.119   9.071 -0.1904 -0.1035  0.2768
 7708SOL    HW134760   3.066   3.042   9.126  2.9061 -1.8146 -2.9704
 7708SOL    HW234761   3.129   3.127   9.016  1.2520 -1.2480  2.1589
 7709SOL     OW34762   1.990   3.888   5.598 -0.0882 -0.6555  0.2281
 7709SOL    HW134763   2.078   3.924   5.611  0.1572 -0.7561 -1.1701
 7709SOL    HW234764   2.000   3.810   5.544 -1.8849 -0.2264 -0.7066
 7710SOL     OW34765   0.869   0.721   9.569  0.6807  0.0694  0.4660
 7710SOL    HW134766   0.961   0.706   9.592  0.2317 -0.0941  2.1934
 7710SOL    HW234767   0.865   0.813   9.594  2.3103  0.3720 -0.3927
 7711SOL     OW34768   4.399   3.363   5.379 -0.5738  0.5989 -0.1039
 7711SOL    HW134769   4.454   3.433   5.415 -0.9953  1.0118 -0.2620
 7711SOL    HW234770   4.337   3.342   5.449 -0.3722  1.5633  0.3712
 7712SOL     OW34771   1.903   1.930   3.199  0.1098  0.1173  0.5616
 7712SOL    HW134772   1.935   2.020   3.197 -1.6575  0.7258 -0.8675
 7712SOL    HW234773   1.893   1.905   3.291  2.5992 -0.7071  0.6100
 7713SOL     OW34774   3.928   4.699   2.257 -0.0612  0.6268  0.6124
 7713SOL    HW134775   3.889   4.722   2.172  0.2879  0.4730  0.4123
 7713SOL    HW234776   3.965   0.050   2.268  0.5756  0.3503  0.6782
 7714SOL     OW34777   0.793   2.364   6.152  0.5098 -0.5396 -0.2935
 7714SOL    HW134778   0.853   2.416   6.206  0.0779  0.2321 -0.5410
 7714SOL    HW234779   0.715   2.415   6.176 -0.0243 -1.3883 -0.2486
 7715SOL     OW34780   3.651   2.532   2.847  0.7549  0.1723 -0.4828
 7715SOL    HW134781   3.720   2.467   2.834 -1.1192 -2.1974  1.5180
 7715SOL    HW234782   3.641   2.552   2.754 -0.0011  1.4371 -0.1369
 7716SOL     OW34783   4.077   2.447  17.428  0.0704 -0.4692  0.3403
 7716SOL    HW134784   4.129   2.403  17.495  1.1567 -0.7511 -0.6944
 7716SOL    HW234785   4.102   2.537  17.448  0.4720 -0.7507  1.1314
 7717SOL     OW34786   1.990   0.484   0.294 -0.3707  0.1040 -0.1040
 7717SOL    HW134787   1.957   0.401   0.260 -0.2478  0.0768 -0.1562
 7717SOL    HW234788   2.053   0.516   0.229  1.0408 -0.0944  1.1828
 7718SOL     OW34789   4.639   3.063  16.272 -0.4202 -0.2720  0.1747
 7718SOL    HW134790   4.605   3.057  16.361  1.0724  1.2084  0.8601
 7718SOL    HW234791   4.728   3.029  16.283 -0.2155  0.3869  0.5174
 7719SOL     OW34792   0.011   3.109   1.000  0.2078 -0.1693 -0.1477
 7719SOL    HW134793   4.678   3.065   0.952  1.6686 -1.0792 -1.4468
 7719SOL    HW234794   0.038   3.037   1.056  0.1401  1.0850  1.4908
 7720SOL     OW34795   3.682   4.330   3.723  0.0107 -0.5650  0.4319
 7720SOL    HW134796   3.716   4.283   3.800 -0.1938 -1.0176  0.2470
 7720SOL    HW234797   3.598   4.289   3.705  0.0478 -0.7848  0.7497
 7721SOL     OW34798   1.374   2.814   6.625  0.3520  0.2163 -0.3255
 7721SOL    HW134799   1.456   2.799   6.577 -0.8217  0.8667 -2.5451
 7721SOL    HW234800   1.406   2.828   6.714  0.5543  0.9087 -0.5077
 7722SOL     OW34801   1.354   2.169   2.015 -0.0162 -0.2102 -0.1896
 7722SOL    HW134802   1.330   2.135   2.102  0.6380  1.2629  0.5783
 7722SOL    HW234803   1.394   2.252   2.039 -1.8156  0.2751  1.1833
 7723SOL     OW34804   4.227   4.530  12.968  0.0295 -0.0524 -0.3203
 7723SOL    HW134805   4.159   4.528  13.035 -1.7634 -0.8272 -2.1640
 7723SOL    HW234806   4.213   4.622  12.946  2.4082  0.7087  1.3503
 7724SOL     OW34807   1.396   3.556   9.318  0.1008  0.2816  0.4163
 7724SOL    HW134808   1.491   3.566   9.325  0.3547 -1.4845 -0.3935
 7724SOL    HW234809   1.376   3.573   9.410 -2.6170 -0.2272 -0.0719
 7725SOL     OW34810   0.523   4.263  10.363  0.1454 -0.1922 -0.3436
 7725SOL    HW134811   0.610   4.225  10.367 -0.0790 -0.7947 -1.1295
 7725SOL    HW234812   0.474   4.226  10.289  0.8542 -0.1970 -0.8128
 7726SOL     OW34813   2.767   0.968  13.229  0.5564  0.0197  0.4084
 7726SOL    HW134814   2.830   0.952  13.158  1.8419 -0.2916  1.6333
 7726SOL    HW234815   2.721   0.884  13.233  3.2563 -1.4349  0.9875
 7727SOL     OW34816   1.142   1.678   6.617 -0.6599 -0.0549 -0.2235
 7727SOL    HW134817   1.074   1.709   6.677 -0.0084 -0.8712  0.9446
 7727SOL    HW234818   1.221   1.699   6.668 -0.5138  0.4638 -0.6690
 7728SOL     OW34819   1.661   3.126   6.828 -0.7857 -0.4124 -0.6163
 7728SOL    HW134820   1.747   3.161   6.808 -1.6957  2.0532 -0.1804
 7728SOL    HW234821   1.608   3.151   6.753 -1.4667  5.4482  1.8395
 7729SOL     OW34822   3.460   4.424   5.500 -0.2107  0.3515  0.1496
 7729SOL    HW134823   3.452   4.495   5.564  0.9429 -0.5818  1.3410
 7729SOL    HW234824   3.540   4.455   5.458  0.3251 -0.8583  0.2574
 7730SOL     OW34825   3.976   3.359   9.731  0.5872  0.0886  0.6522
 7730SOL    HW134826   4.064   3.396   9.734  0.3311  0.8321 -0.7883
 7730SOL    HW234827   3.975   3.267   9.705  2.2735 -0.0070  0.9443
 7731SOL     OW34828   2.101   3.211   7.232 -0.4676 -0.0275 -0.0598
 7731SOL    HW134829   2.060   3.206   7.319 -0.4470 -0.0645 -0.0524
 7731SOL    HW234830   2.026   3.196   7.175  0.8575  1.3375 -2.1546
 7732SOL     OW34831   2.985   3.667   0.108 -0.0886  0.2897  0.3628
 7732SOL    HW134832   2.962   3.749   0.151  1.9873  1.6050 -1.0067
 7732SOL    HW234833   3.021   3.703   0.026 -1.2557  0.5488 -0.0317
 7733SOL     OW34834   3.890   4.188   9.120  0.4033 -0.1984  0.1508
 7733SOL    HW134835   3.902   4.264   9.063 -0.4597 -1.2239 -1.3911
 7733SOL    HW234836   3.978   4.190   9.157  0.1177 -1.8161  0.9113
 7734SOL     OW34837   2.872   2.002   0.263 -0.6790 -0.3481 -0.2131
 7734SOL    HW134838   2.846   1.947   0.189  1.0471 -1.2753 -0.1178
 7734SOL    HW234839   2.790   2.041   0.294  0.1454  0.3964  1.0256
 7735SOL     OW34840   1.250   2.425  12.698 -0.1628  0.3836  0.3973
 7735SOL    HW134841   1.306   2.351  12.674  0.4106  1.4592 -1.5536
 7735SOL    HW234842   1.227   2.406  12.789  1.2655  0.5959  0.8170
 7736SOL     OW34843   3.671   0.265   3.162 -0.2561  0.0531 -0.2404
 7736SOL    HW134844   3.666   0.279   3.067  2.5223  2.8472  0.0236
 7736SOL    HW234845   3.766   0.274   3.165 -0.2368  0.3956 -1.7777
 7737SOL     OW34846   2.041   1.543   6.472  0.0564 -0.2367 -0.3344
 7737SOL    HW134847   1.982   1.514   6.542  0.1404  1.1024  0.2906
 7737SOL    HW234848   1.972   1.553   6.406 -1.3472 -1.1619  0.9706
 7738SOL     OW34849   1.394   2.612   7.846 -0.3406 -0.2786  0.3136
 7738SOL    HW134850   1.358   2.524   7.844 -2.3589  0.5224  0.7142
 7738SOL    HW234851   1.398   2.636   7.939 -0.1631 -0.3413  0.3220
 7739SOL     OW34852   1.417   4.119   2.386 -0.4261  0.1847 -0.2849
 7739SOL    HW134853   1.485   4.126   2.452  0.7263  0.6964 -1.5361
 7739SOL    HW234854   1.455   4.088   2.304  0.2723 -2.0562  0.8866
 7740SOL     OW34855   3.442   3.143   3.572  0.2788  0.6491 -0.3970
 7740SOL    HW134856   3.347   3.151   3.584  0.2847 -0.7134  0.4451
 7740SOL    HW234857   3.453   3.233   3.541  1.4223  0.4751 -0.4799
 7741SOL     OW34858   1.805   1.218   2.437 -0.0186  0.4345  0.0606
 7741SOL    HW134859   1.710   1.229   2.441  0.1199  2.0784 -1.4831
 7741SOL    HW234860   1.829   1.310   2.447 -0.8438  0.7329 -0.7565
 7742SOL     OW34861   1.965   2.984  16.092 -0.2587 -0.2051  1.0030
 7742SOL    HW134862   1.928   3.017  16.174 -1.8652 -1.4596  0.7731
 7742SOL    HW234863   2.034   2.926  16.126  0.2193  0.1452  0.6291
 7743SOL     OW34864   1.201   2.401  17.057 -0.1136 -0.0027  0.3492
 7743SOL    HW134865   1.157   2.345  16.992  0.2658  0.0420  0.0586
 7743SOL    HW234866   1.171   2.488  17.030  1.1680  0.4357  0.3682
 7744SOL     OW34867   4.459   4.731   6.969 -0.0566 -0.2074 -0.1973
 7744SOL    HW134868   4.466   0.022   7.061 -1.1780  0.6113 -0.3662
 7744SOL    HW234869   4.490   0.073   6.925  2.8056 -0.5763  1.1486
 7745SOL     OW34870   4.089   4.410  13.573  0.1754 -0.1654  0.6050
 7745SOL    HW134871   4.042   4.326  13.572  2.0963 -1.2160 -0.2248
 7745SOL    HW234872   4.133   4.412  13.657  1.1166  2.0183  0.0578
 7746SOL     OW34873   3.621   0.290   2.068 -0.4357  0.0083  0.0368
 7746SOL    HW134874   3.605   0.320   1.978  1.5646  1.5884  0.1947
 7746SOL    HW234875   3.578   0.205   2.064  3.0322 -1.6720 -1.4901
 7747SOL     OW34876   3.407   1.189   5.006 -0.1603 -0.4261 -0.2977
 7747SOL    HW134877   3.367   1.275   5.020 -0.2481 -0.2912 -1.3646
 7747SOL    HW234878   3.361   1.163   4.927 -0.2815 -1.8112  0.2308
 7748SOL     OW34879   0.633   4.481   2.087 -0.4300  0.4640 -0.1526
 7748SOL    HW134880   0.606   4.429   2.163  0.7046  1.1021  0.7036
 7748SOL    HW234881   0.544   4.489   2.053 -2.1778 -1.3926  4.0210
 7749SOL     OW34882   3.585   4.509  15.076  0.4948  0.3768 -0.1539
 7749SOL    HW134883   3.561   4.445  15.009  0.6777  0.1829 -0.0318
 7749SOL    HW234884   3.537   4.470  15.149  0.3673  1.8222  0.5352
 7750SOL     OW34885   1.763   2.086   3.498 -0.1235 -0.2235  0.2012
 7750SOL    HW134886   1.743   2.036   3.577  0.9649  0.8062  1.1391
 7750SOL    HW234887   1.852   2.112   3.523 -0.0482 -1.0615  0.7876
 7751SOL     OW34888   1.237   3.006  13.377  0.3793  0.4123  0.7848
 7751SOL    HW134889   1.291   3.084  13.368  0.1679  0.4677  0.0441
 7751SOL    HW234890   1.307   2.941  13.370  1.2536  1.4896 -0.4647
 7752SOL     OW34891   1.790   0.496   4.423 -0.0287 -0.0114  0.3264
 7752SOL    HW134892   1.864   0.439   4.440  0.7863  0.4388 -1.7048
 7752SOL    HW234893   1.804   0.568   4.484  2.8501 -0.1946 -0.1105
 7753SOL     OW34894   3.954   2.250   4.700  0.6345  0.1907  0.6296
 7753SOL    HW134895   3.866   2.264   4.666  1.6225 -0.7575 -2.2798
 7753SOL    HW234896   3.997   2.322   4.655  1.1126 -0.6809 -0.3012
 7754SOL     OW34897   2.273   2.462   4.831 -0.4239  0.2726 -0.1034
 7754SOL    HW134898   2.223   2.486   4.754 -1.7662  0.1021  0.7099
 7754SOL    HW234899   2.338   2.532   4.826 -1.2656  1.0489 -0.3011
 7755SOL     OW34900   4.043   3.438   3.419  0.0527  0.0678  0.5127
 7755SOL    HW134901   4.079   3.401   3.339 -0.9502  0.0119  0.0887
 7755SOL    HW234902   3.955   3.403   3.432  0.2467  0.1945  2.2567
 7756SOL     OW34903   3.350   4.381   4.386  0.3785 -0.5640 -0.3754
 7756SOL    HW134904   3.415   4.411   4.322  0.0605 -1.3791 -1.0911
 7756SOL    HW234905   3.267   4.412   4.349  0.3447  0.8001  0.8622
 7757SOL     OW34906   1.548   4.175   0.042  0.0720 -0.8410 -0.2009
 7757SOL    HW134907   1.581   4.168  17.701 -0.3311  0.5848 -0.4740
 7757SOL    HW234908   1.510   4.088   0.050 -1.5190 -0.3387 -2.0879
 7758SOL     OW34909   1.612   4.114   4.891 -0.5539 -0.0068 -0.4720
 7758SOL    HW134910   1.683   4.169   4.856 -0.6165  2.1047  2.7083
 7758SOL    HW234911   1.546   4.183   4.887  0.0768  0.6357  0.1101
 7759SOL     OW34912   3.511   2.369   6.586  0.0786  0.2454  0.8170
 7759SOL    HW134913   3.463   2.391   6.667 -2.9280 -0.3615 -0.7978
 7759SOL    HW234914   3.505   2.454   6.542 -0.1925  1.2871  2.8350
 7760SOL     OW34915   1.201   0.244  16.491  0.4682 -0.3335 -0.0700
 7760SOL    HW134916   1.275   0.238  16.432 -0.0675  2.2179 -0.9954
 7760SOL    HW234917   1.233   0.314  16.547  0.0709  0.0665 -0.3362
 7761SOL     OW34918   1.870   2.199   5.748  0.2843  0.4377 -0.1972
 7761SOL    HW134919   1.877   2.105   5.732 -1.0961 -0.2098  3.1498
 7761SOL    HW234920   1.952   2.209   5.797 -0.1683  3.5345 -0.0552
 7762SOL     OW34921   4.050   3.698   3.443 -0.6429 -0.6123 -0.3283
 7762SOL    HW134922   4.053   3.603   3.434 -0.1848 -0.4645 -1.6126
 7762SOL    HW234923   4.135   3.715   3.402 -0.7653 -0.0915 -0.3655
 7763SOL     OW34924   2.119   3.613   2.202  0.0490 -0.0874  0.6096
 7763SOL    HW134925   2.148   3.554   2.132  1.7138  2.0576 -0.4963
 7763SOL    HW234926   2.174   3.691   2.198  0.6761 -0.4957  1.2834
 7764SOL     OW34927   0.161   3.645  14.840 -0.2433 -0.7630 -0.3705
 7764SOL    HW134928   0.181   3.620  14.931 -2.4054 -2.2465 -0.3106
 7764SOL    HW234929   0.142   3.565  14.790 -1.3886  0.6103 -2.1038
 7765SOL     OW34930   2.869   0.451   8.553 -0.2373 -0.2293  0.2582
 7765SOL    HW134931   2.937   0.391   8.521  0.1420 -1.1906  2.8514
 7765SOL    HW234932   2.895   0.455   8.645 -2.0821 -3.6910  0.9343
 7766SOL     OW34933   2.358   4.275   5.014 -0.2415 -0.0198  0.3909
 7766SOL    HW134934   2.374   4.247   5.104 -2.2570 -1.0810  0.4369
 7766SOL    HW234935   2.294   4.208   4.988  1.4791 -1.1027 -1.1031
 7767SOL     OW34936   0.982   3.347   7.401 -0.6584 -0.5083  0.5503
 7767SOL    HW134937   0.909   3.407   7.416  0.9304  1.5720 -0.1367
 7767SOL    HW234938   0.977   3.294   7.481 -0.7359  1.1374  1.6376
 7768SOL     OW34939   3.832   3.351   4.463  0.0504  0.0013 -0.3426
 7768SOL    HW134940   3.764   3.318   4.403 -0.3429 -0.3318  0.2948
 7768SOL    HW234941   3.811   3.302   4.542 -0.8841  1.3146  0.2207
 7769SOL     OW34942   1.062   2.577   0.378  0.3661 -0.2400  0.2743
 7769SOL    HW134943   1.027   2.665   0.362 -0.2526 -0.7878 -1.3459
 7769SOL    HW234944   1.077   2.540   0.291 -0.7717  0.1012 -0.0644
 7770SOL     OW34945   0.530   3.929   7.419  0.0387 -0.3401 -0.3020
 7770SOL    HW134946   0.570   3.898   7.500  2.5856  0.9989 -1.0492
 7770SOL    HW234947   0.582   3.890   7.349 -0.4382 -0.9952 -0.2863
 7771SOL     OW34948   3.630   0.651   3.803  0.5359  0.3213 -0.3795
 7771SOL    HW134949   3.619   0.742   3.831 -1.9001 -0.5646  1.5418
 7771SOL    HW234950   3.647   0.674   3.711  0.3188 -1.3103 -0.8190
 7772SOL     OW34951   1.570   3.520   4.033 -0.6782 -0.0328  0.5391
 7772SOL    HW134952   1.535   3.596   4.080 -0.9662  0.1753 -0.0105
 7772SOL    HW234953   1.616   3.559   3.959 -0.3097 -0.6813  0.4290
 7773SOL     OW34954   2.092   4.538   4.111 -0.0976 -0.2609 -0.1543
 7773SOL    HW134955   2.037   4.482   4.055  0.5575 -0.8206 -0.2388
 7773SOL    HW234956   2.053   4.521   4.196 -3.7322  1.3009 -1.5043
 7774SOL     OW34957   2.936   3.367   8.587  0.3965  0.0558 -0.0900
 7774SOL    HW134958   3.032   3.365   8.581  0.4158 -2.0633  0.8849
 7774SOL    HW234959   2.911   3.376   8.679 -0.3579 -1.3260 -0.1686
 7775SOL     OW34960   0.778   2.516   9.391  0.0669 -0.7246  0.1130
 7775SOL    HW134961   0.838   2.542   9.461 -0.5516 -0.7368  0.6465
 7775SOL    HW234962   0.718   2.591   9.389 -1.1828 -1.7337 -0.6507
 7776SOL     OW34963   2.439   4.638   5.601 -0.4803 -0.3154  0.1502
 7776SOL    HW134964   2.411   4.599   5.518 -2.7571  0.9465  0.3482
 7776SOL    HW234965   2.433   4.730   5.577  1.3662  0.0116  0.9302
 7777SOL     OW34966   2.530   1.014   4.854  0.1916  0.1741  0.2327
 7777SOL    HW134967   2.531   1.076   4.927 -1.2087 -0.7018  0.9953
 7777SOL    HW234968   2.624   1.009   4.835  0.0452  0.5732 -0.6151
 7778SOL     OW34969   3.774   2.637   6.553  0.0142  0.4903 -0.4577
 7778SOL    HW134970   3.789   2.690   6.631  2.2101  1.4415 -1.5171
 7778SOL    HW234971   3.679   2.642   6.545  0.0910  2.9037  0.1634
 7779SOL     OW34972   4.537   4.228   6.024  0.2659 -0.3242 -0.1019
 7779SOL    HW134973   4.611   4.289   6.022 -0.7312  0.9316  0.8322
 7779SOL    HW234974   4.575   4.149   5.987  1.6378 -0.2771  1.1898
 7780SOL     OW34975   0.379   2.051  11.072 -0.0600  0.0427 -0.2305
 7780SOL    HW134976   0.436   2.118  11.108  0.0577  0.7961 -1.8008
 7780SOL    HW234977   0.306   2.041  11.133  0.1046  2.9093  0.4401
 7781SOL     OW34978   2.407   2.154  12.941 -0.6451  0.2762  0.4604
 7781SOL    HW134979   2.380   2.180  12.852  0.2051  2.8581  0.9632
 7781SOL    HW234980   2.399   2.231  12.996  1.0054 -0.0784  1.2069
 7782SOL     OW34981   3.279   4.443   3.961  0.2957 -0.1181  0.1442
 7782SOL    HW134982   3.342   4.509   3.930  0.8006 -1.3857 -1.5725
 7782SOL    HW234983   3.266   4.482   4.047 -1.4335 -0.1599 -0.0944
 7783SOL     OW34984   2.677   4.182   2.074  0.1581  1.1408  0.4381
 7783SOL    HW134985   2.716   4.230   2.147 -1.7774 -0.7523  2.7120
 7783SOL    HW234986   2.749   4.142   2.025 -0.0062  0.5435  0.6897
 7784SOL     OW34987   1.465   0.380   4.793  0.6990 -0.1720  0.1897
 7784SOL    HW134988   1.377   0.385   4.829  1.5002 -0.8133  2.2146
 7784SOL    HW234989   1.450   0.439   4.719  0.0154 -0.6713 -0.0781
 7785SOL     OW34990   4.293   2.266   3.292  0.1162 -0.5014  0.4618
 7785SOL    HW134991   4.322   2.243   3.203  0.2893  0.3082  0.3131
 7785SOL    HW234992   4.248   2.349   3.279  2.0381  0.3045 -1.2302
 7786SOL     OW34993   1.686   1.993   8.509  0.3906 -0.0257 -0.3427
 7786SOL    HW134994   1.658   2.029   8.593  0.9433  0.8865 -0.5473
 7786SOL    HW234995   1.603   1.962   8.473 -0.2201  1.6443 -0.3737
 7787SOL     OW34996   0.722   0.063   3.433  0.6887  0.5557 -0.1246
 7787SOL    HW134997   0.661   4.734   3.464 -0.0460  0.6122 -1.4539
 7787SOL    HW234998   0.813   0.034   3.443  1.7964  2.6019 -4.1708
 7788SOL     OW34999   2.313   1.018  17.089  0.3246 -0.1367  0.1959
 7788SOL    HW135000   2.301   1.072  17.011  0.1895  1.5006  1.3411
 7788SOL    HW235001   2.303   1.091  17.151  0.9491  0.6877 -0.6658
 7789SOL     OW35002   1.075   2.763  16.673 -0.2939  0.3493  0.6403
 7789SOL    HW135003   1.163   2.774  16.637 -1.0526  0.9497 -1.0495
 7789SOL    HW235004   1.024   2.823  16.618 -0.2350  1.2311  1.5508
 7790SOL     OW35005   1.878   0.909   8.830  0.1326 -0.5605 -0.3777
 7790SOL    HW135006   1.943   0.975   8.854 -0.6343 -0.1322  0.5035
 7790SOL    HW235007   1.916   0.871   8.750 -0.0942  2.1970 -1.7983
 7791SOL     OW35008   2.097   4.714   7.518 -0.0741  0.1436  0.4343
 7791SOL    HW135009   2.138   4.647   7.463  0.9189  2.1495 -1.2942
 7791SOL    HW235010   2.015   4.717   7.468 -1.3566  2.1972  2.6528
 7792SOL     OW35011   3.628   4.129  17.625  0.1389 -0.0844 -0.1529
 7792SOL    HW135012   3.718   4.160  17.616  0.6419 -1.8238 -1.0858
 7792SOL    HW235013   3.635   4.093  17.714  1.8965 -1.7834 -0.9798
 7793SOL     OW35014   1.227   2.360  11.216 -0.7126 -0.5999 -0.2092
 7793SOL    HW135015   1.157   2.406  11.171 -1.4594 -0.8765  0.6704
 7793SOL    HW235016   1.227   2.413  11.296 -2.4107  0.0106 -0.6280
 7794SOL     OW35017   4.483   0.097  17.245  0.2886  0.2168 -0.0165
 7794SOL    HW135018   4.416   0.160  17.219  0.3783 -0.0806 -0.9825
 7794SOL    HW235019   4.448   0.045  17.317  1.0355  2.0741  1.7066
 7795SOL     OW35020   1.593   3.679   1.822  0.4186 -0.7655  0.2008
 7795SOL    HW135021   1.675   3.665   1.869  0.8825 -0.5515 -0.5446
 7795SOL    HW235022   1.546   3.739   1.880  1.7916  1.3928 -0.9043
 7796SOL     OW35023   0.918   4.372   7.866  0.8220 -0.4552  0.1959
 7796SOL    HW135024   0.862   4.402   7.795  1.6890  0.7124  0.0101
 7796SOL    HW235025   0.977   4.447   7.873 -0.1625  0.4183 -0.8140
 7797SOL     OW35026   4.548   4.126  11.824  0.1731  0.3764  0.3311
 7797SOL    HW135027   4.641   4.120  11.846  0.9411  2.8702 -2.2873
 7797SOL    HW235028   4.503   4.047  11.854 -1.7074  2.0434  1.9852
 7798SOL     OW35029   1.831   1.078   2.045 -0.3545  0.4474 -0.4101
 7798SOL    HW135030   1.770   1.151   2.049 -1.9278 -0.7789 -1.6838
 7798SOL    HW235031   1.905   1.112   2.095 -1.3995  1.7282  0.2532
 7799SOL     OW35032   2.494   3.441   2.570 -0.1700  1.0117  0.2912
 7799SOL    HW135033   2.495   3.352   2.606  2.3521  0.7180 -0.5666
 7799SOL    HW235034   2.425   3.445   2.503 -0.9912 -0.2855  1.0561
 7800SOL     OW35035   0.626   0.476  15.029  0.1866  0.0945 -0.4296
 7800SOL    HW135036   0.532   0.480  15.046  0.7671 -0.6996  2.8595
 7800SOL    HW235037   0.657   0.550  15.081 -0.4043  0.8268 -1.1183
 7801SOL     OW35038   3.388   2.332  13.740 -0.3117  0.5257  0.1628
 7801SOL    HW135039   3.455   2.347  13.674 -1.6871  0.6440 -1.1862
 7801SOL    HW235040   3.305   2.353  13.699  0.0225 -0.5235 -1.0422
 7802SOL     OW35041   1.264   2.569   2.864 -0.0810  0.6085 -0.2339
 7802SOL    HW135042   1.232   2.495   2.915 -0.6101  0.1232 -1.2635
 7802SOL    HW235043   1.340   2.601   2.912 -0.5513  1.8723 -0.3135
 7803SOL     OW35044   2.699   2.806   7.515  0.2597  0.2179  0.4969
 7803SOL    HW135045   2.700   2.854   7.598 -1.1941  2.2003 -0.6390
 7803SOL    HW235046   2.749   2.860   7.454 -0.7383  0.6280  0.0376
 7804SOL     OW35047   1.106   4.179   5.699  0.0711 -0.2052  0.2027
 7804SOL    HW135048   1.133   4.146   5.785  2.1349  0.5577 -0.1335
 7804SOL    HW235049   1.072   4.262   5.731  4.8675  1.5555  0.8303
 7805SOL     OW35050   1.640   1.058   6.610  0.3460  0.3778 -0.0069
 7805SOL    HW135051   1.660   1.145   6.644 -0.6317  0.7822 -0.4792
 7805SOL    HW235052   1.717   1.008   6.639  1.7788  2.7974  0.3461
 7806SOL     OW35053   1.215   1.768   8.709 -0.0601 -0.2258 -0.5298
 7806SOL    HW135054   1.162   1.843   8.679 -2.6888 -2.1194 -0.6072
 7806SOL    HW235055   1.182   1.698   8.653  0.5812 -1.1423  0.2457
 7807SOL     OW35056   3.820   3.750  12.979 -0.0253  0.4979  0.0018
 7807SOL    HW135057   3.758   3.817  13.009 -0.7752 -0.4641  0.6092
 7807SOL    HW235058   3.875   3.741  13.057 -0.5437  0.2911  0.3476
 7808SOL     OW35059   0.056   0.948   5.456  0.1773 -0.5570 -0.7789
 7808SOL    HW135060   4.705   0.912   5.450 -0.6966  1.6469 -0.8916
 7808SOL    HW235061   0.049   1.007   5.531 -0.3752 -0.4718 -0.9006
 7809SOL     OW35062   4.489   4.378   3.761 -0.3665  0.2012  0.7245
 7809SOL    HW135063   4.423   4.367   3.829  0.1474  1.7558  1.4812
 7809SOL    HW235064   4.429   4.409   3.694 -0.0122 -0.7759 -0.0549
 7810SOL     OW35065   4.362   1.924   7.637  0.2227  0.1620 -0.2623
 7810SOL    HW135066   4.379   1.967   7.721  0.5971 -0.4927 -0.0036
 7810SOL    HW235067   4.394   1.994   7.580  1.3889  1.4322  1.9099
 7811SOL     OW35068   2.215   3.757   0.764 -0.1577  0.0049 -0.4737
 7811SOL    HW135069   2.174   3.689   0.818 -1.9095  1.5527  0.1678
 7811SOL    HW235070   2.308   3.744   0.779  0.1779  1.7574 -0.9837
 7812SOL     OW35071   2.070   3.550   0.879  0.8470 -0.5180 -0.1119
 7812SOL    HW135072   1.981   3.576   0.902  0.7154 -1.1110  0.0471
 7812SOL    HW235073   2.078   3.475   0.939 -0.6379 -1.8746 -1.6132
 7813SOL     OW35074   1.188   1.664   5.287  0.6216 -0.2931 -0.1691
 7813SOL    HW135075   1.167   1.576   5.320  0.7468 -0.4664 -0.5476
 7813SOL    HW235076   1.103   1.705   5.273 -0.2967 -2.0953  0.1002
 7814SOL     OW35077   4.623   0.550   6.055  0.5378 -0.4785 -0.9024
 7814SOL    HW135078   4.662   0.482   6.000  0.0365 -2.3414  1.0134
 7814SOL    HW235079   4.553   0.496   6.091  1.7684 -1.3748  0.1674
 7815SOL     OW35080   2.375   0.222  16.561 -0.3134 -0.6866 -0.0745
 7815SOL    HW135081   2.335   0.262  16.639 -0.0032 -0.0664 -0.2331
 7815SOL    HW235082   2.332   0.138  16.577 -0.1330 -0.7837 -0.1116
 7816SOL     OW35083   1.362   3.724  12.074 -0.0872 -0.2470 -0.2065
 7816SOL    HW135084   1.359   3.632  12.098 -0.8034 -0.2580 -0.3108
 7816SOL    HW235085   1.456   3.738  12.073 -0.0195 -0.6337  1.0818
 7817SOL     OW35086   2.891   1.786   8.409 -0.2152  0.2296 -0.1764
 7817SOL    HW135087   2.852   1.744   8.333 -1.5293 -0.3524  0.8016
 7817SOL    HW235088   2.899   1.876   8.380 -2.0867  0.4763  0.0682
 7818SOL     OW35089   1.077   4.054   0.806 -0.2333  0.1761  0.0582
 7818SOL    HW135090   1.089   4.138   0.850  0.4122  0.4160 -0.5779
 7818SOL    HW235091   1.158   4.004   0.821 -0.3196  0.3909  1.2611
 7819SOL     OW35092   2.042   4.500   3.410 -0.6866  0.2195  0.2655
 7819SOL    HW135093   2.010   4.544   3.489 -2.4611 -0.5543 -0.0271
 7819SOL    HW235094   2.121   4.554   3.409  0.6613 -1.7573 -0.0945
 7820SOL     OW35095   4.609   2.657   0.649  0.4594 -0.1023  0.0309
 7820SOL    HW135096   4.680   2.592   0.646  0.7976  0.2370  0.5523
 7820SOL    HW235097   4.602   2.671   0.555 -2.1878 -0.1971  0.2326
 7821SOL     OW35098   1.483   2.294   7.542  0.1654 -0.1969 -0.0832
 7821SOL    HW135099   1.543   2.259   7.608  1.9507  0.5609 -1.3020
 7821SOL    HW235100   1.413   2.335   7.593  1.3316 -0.6523  1.8985
 7822SOL     OW35101   4.135   2.625   6.585 -0.1416  0.2940 -0.2808
 7822SOL    HW135102   4.109   2.708   6.545 -0.3539  1.1212  1.5762
 7822SOL    HW235103   4.185   2.650   6.662 -0.8408 -0.9063  0.5585
 7823SOL     OW35104   3.773   0.340  15.169 -0.2737  0.3719  0.1048
 7823SOL    HW135105   3.757   0.429  15.136 -0.5880  0.2200 -0.1453
 7823SOL    HW235106   3.684   0.306  15.178 -0.8465  2.1426  1.3190
 7824SOL     OW35107   3.611   0.840   7.845 -0.1221 -0.0607  0.3595
 7824SOL    HW135108   3.606   0.765   7.903  0.7476 -0.0484  0.4482
 7824SOL    HW235109   3.634   0.908   7.908 -0.0341  1.4199 -1.2525
 7825SOL     OW35110   4.526   4.439   7.286  0.0697 -0.0042  0.1277
 7825SOL    HW135111   4.561   4.495   7.216  0.5661  0.9625  1.1571
 7825SOL    HW235112   4.573   4.358   7.264 -0.6244  0.3844 -2.7423
 7826SOL     OW35113   1.506   4.293  17.219  0.2782  0.3414  0.2826
 7826SOL    HW135114   1.529   4.353  17.148 -3.2100  1.7215  0.2881
 7826SOL    HW235115   1.481   4.220  17.162 -0.8958  0.8770  0.1087
 7827SOL     OW35116   2.858   0.505  14.019  0.2967 -0.1186 -0.1215
 7827SOL    HW135117   2.883   0.509  14.112  2.7074 -0.6826 -0.7361
 7827SOL    HW235118   2.844   0.410  14.013  2.2612 -0.3217 -1.5507
 7828SOL     OW35119   1.079   1.939   2.291 -0.3072 -0.5852  0.3888
 7828SOL    HW135120   1.162   1.987   2.284 -0.7906 -0.0807 -1.8848
 7828SOL    HW235121   1.119   1.853   2.280  1.5547  0.5418 -1.9127
 7829SOL     OW35122   4.416   2.546   4.265  0.7475  0.0507  0.5870
 7829SOL    HW135123   4.365   2.555   4.346  0.0275 -3.1315  0.4808
 7829SOL    HW235124   4.480   2.480   4.290  0.5902 -0.3298 -0.0402
 7830SOL     OW35125   3.620   3.729   6.688 -0.5310  0.0777 -0.2976
 7830SOL    HW135126   3.564   3.693   6.757  1.4406 -0.4248  1.0471
 7830SOL    HW235127   3.626   3.656   6.627  1.2386 -0.2916  0.3038
 7831SOL     OW35128   1.991   0.212   6.924  0.1160 -0.4922  0.0907
 7831SOL    HW135129   2.052   0.269   6.970 -1.4133 -1.3572  3.1822
 7831SOL    HW235130   2.046   0.172   6.856  0.7061  0.8976 -0.2455
 7832SOL     OW35131   1.229   4.485   1.535 -0.0855 -0.2676  0.1856
 7832SOL    HW135132   1.200   4.413   1.592 -1.1896  0.7125  0.8655
 7832SOL    HW235133   1.156   4.546   1.526 -0.2362 -0.3236  1.0480
 7833SOL     OW35134   1.429   3.809   6.717  0.1653  0.4765  0.1880
 7833SOL    HW135135   1.372   3.822   6.642  1.0454  2.4056 -0.1570
 7833SOL    HW235136   1.462   3.899   6.720  2.5839 -0.4701  2.1944
 7834SOL     OW35137   3.349   0.494   6.805  0.2926  0.5912 -0.5652
 7834SOL    HW135138   3.386   0.442   6.734 -2.1495 -1.3840 -0.3954
 7834SOL    HW235139   3.354   0.431   6.877 -2.2961  0.2013 -0.7232
 7835SOL     OW35140   3.011   3.582  10.279 -0.2707 -0.4033  0.5249
 7835SOL    HW135141   2.980   3.509  10.225  1.6665 -2.5388  2.2599
 7835SOL    HW235142   3.104   3.564  10.289 -0.0431  1.0306  0.8823
 7836SOL     OW35143   4.669   3.329   4.848 -0.3558  0.8546 -0.3339
 7836SOL    HW135144   4.611   3.255   4.833 -0.5873  1.3802 -2.0221
 7836SOL    HW235145   4.688   3.330   4.942  0.0515  0.8324 -0.4134
 7837SOL     OW35146   2.947   1.836   4.797  0.7145  0.2148 -0.6322
 7837SOL    HW135147   2.899   1.758   4.825  2.2377  0.6512  3.2086
 7837SOL    HW235148   2.967   1.815   4.706 -0.6653 -2.0155 -0.4331
 7838SOL     OW35149   2.748   0.837   6.393  0.0364  0.1137  0.0770
 7838SOL    HW135150   2.671   0.892   6.376 -0.6457 -0.9976 -0.3569
 7838SOL    HW235151   2.708   0.750   6.393  0.8544 -0.2575  0.0418
 7839SOL     OW35152   2.939   2.012   4.460  0.0758 -0.5739 -0.1705
 7839SOL    HW135153   2.992   2.051   4.391 -1.6322 -1.4263 -1.9561
 7839SOL    HW235154   2.852   2.008   4.420 -0.4669 -2.9209  1.2205
 7840SOL     OW35155   3.878   3.205   2.215 -0.4564  0.1620  0.2458
 7840SOL    HW135156   3.875   3.131   2.275  1.1136 -0.9285 -1.0215
 7840SOL    HW235157   3.970   3.231   2.218 -0.5136  0.6760 -1.9965
 7841SOL     OW35158   4.501   0.594   5.594  0.4018  0.0201  0.1356
 7841SOL    HW135159   4.479   0.632   5.509  0.6125  0.5793  0.3300
 7841SOL    HW235160   4.517   0.667   5.653  0.1433 -0.6825  1.0731
 7842SOL     OW35161   4.465   3.696  16.358 -0.1625 -0.3505  0.5317
 7842SOL    HW135162   4.420   3.613  16.367 -0.3558 -0.2318  0.6628
 7842SOL    HW235163   4.547   3.664  16.319 -0.3147  1.8927 -1.6473
 7843SOL     OW35164   1.849   0.321   6.355  0.2452 -0.4309 -0.7126
 7843SOL    HW135165   1.782   0.254   6.372 -0.3498  0.6008  1.0420
 7843SOL    HW235166   1.820   0.393   6.410 -1.2704  0.0021 -2.0857
 7844SOL     OW35167   0.250   4.311   3.939 -0.0814 -0.4519  0.0651
 7844SOL    HW135168   0.168   4.332   3.895  0.2292  1.1131  0.2159
 7844SOL    HW235169   0.259   4.379   4.005 -1.4617 -0.6906  0.4919
 7845SOL     OW35170   3.109   1.457   3.262  0.0737  0.1464  0.0124
 7845SOL    HW135171   3.088   1.538   3.217  1.2804 -0.0671 -0.9270
 7845SOL    HW235172   3.170   1.488   3.329 -0.5495  1.1061  0.1279
 7846SOL     OW35173   0.220   0.112  15.403 -0.2460  0.8292  0.1643
 7846SOL    HW135174   0.289   0.111  15.469  1.4205  0.7249 -1.5667
 7846SOL    HW235175   0.273   0.133  15.326 -2.5563  4.1924 -0.5340
 7847SOL     OW35176   4.399   3.765   1.774  0.0003  0.1486 -0.3930
 7847SOL    HW135177   4.401   3.823   1.849 -1.9666 -0.3401  0.0261
 7847SOL    HW235178   4.321   3.713   1.792 -1.0484  1.8379 -0.1288
 7848SOL     OW35179   2.833   0.778   5.333  0.0708 -0.8323 -0.1442
 7848SOL    HW135180   2.917   0.817   5.356 -0.2848  0.5280 -1.1558
 7848SOL    HW235181   2.848   0.690   5.367  2.0867 -0.2304  0.5170
 7849SOL     OW35182   2.109   0.309   2.531 -0.4668  0.0009  0.4402
 7849SOL    HW135183   2.064   0.234   2.492  2.2737 -0.2166 -2.2601
 7849SOL    HW235184   2.123   0.368   2.457  0.9493  1.0855  1.5907
 7850SOL     OW35185   2.176   4.271   5.406 -0.3842 -0.7363 -0.1734
 7850SOL    HW135186   2.140   4.358   5.420  2.0663  1.0023 -4.6645
 7850SOL    HW235187   2.095   4.220   5.399  0.7598 -3.2707  4.8514
 7851SOL     OW35188   3.681   0.314   7.360 -0.3261 -0.7580  0.3166
 7851SOL    HW135189   3.606   0.355   7.318  0.4404 -0.7387 -1.0604
 7851SOL    HW235190   3.690   0.236   7.304 -0.4508 -0.5234 -0.0341
 7852SOL     OW35191   1.802   0.553   1.788 -0.7980  0.6661  0.6507
 7852SOL    HW135192   1.781   0.576   1.698 -2.0909  0.1648  0.8146
 7852SOL    HW235193   1.896   0.535   1.788 -0.6919  1.2430 -0.9629
 7853SOL     OW35194   0.867   4.119   9.164  0.1818  0.6476  0.1512
 7853SOL    HW135195   0.886   4.069   9.084  0.9942  0.4125  0.4835
 7853SOL    HW235196   0.789   4.079   9.201 -0.0971  0.7326 -0.3495
 7854SOL     OW35197   0.279   3.142   7.199 -0.5055 -0.0643  0.0833
 7854SOL    HW135198   0.251   3.127   7.289  0.6160  3.9149  1.0974
 7854SOL    HW235199   0.310   3.233   7.200  0.1429 -0.2538 -2.0193
 7855SOL     OW35200   4.214   0.820   4.241 -0.2757 -0.4456 -0.1220
 7855SOL    HW135201   4.240   0.790   4.154  0.3078  1.4410 -0.5991
 7855SOL    HW235202   4.277   0.770   4.293  1.4759 -0.3114 -2.1164
 7856SOL     OW35203   0.792   1.861   9.340  0.2079 -0.1778 -0.5092
 7856SOL    HW135204   0.835   1.940   9.308 -1.3313  1.1828  0.7895
 7856SOL    HW235205   0.827   1.864   9.429  1.9701 -1.1701 -1.1684
 7857SOL     OW35206   1.748   0.732   8.350 -0.3426  0.0347 -0.3196
 7857SOL    HW135207   1.764   0.678   8.427 -3.2073 -0.9883 -0.4737
 7857SOL    HW235208   1.834   0.775   8.345 -1.0919  1.5970  0.3514
 7858SOL     OW35209   4.139   2.717   7.527  0.0340  0.2373 -0.1340
 7858SOL    HW135210   4.218   2.699   7.578 -1.2092 -1.7463  1.0984
 7858SOL    HW235211   4.086   2.640   7.550  0.1784 -0.1576 -1.1024
 7859SOL     OW35212   0.524   3.082   5.036 -0.0123 -0.0263  0.4207
 7859SOL    HW135213   0.462   3.045   5.099 -0.7079 -0.8938 -0.7793
 7859SOL    HW235214   0.551   3.014   4.975 -1.9032 -0.4102  0.0066
 7860SOL     OW35215   4.403   4.364   8.511  0.3470 -0.4015 -0.0013
 7860SOL    HW135216   4.429   4.412   8.432 -0.4364  1.0158  0.5938
 7860SOL    HW235217   4.354   4.286   8.485  0.7370 -0.5037 -0.4292
 7861SOL     OW35218   0.464   4.737  10.447  0.3552  0.3083 -0.2721
 7861SOL    HW135219   0.544   4.683  10.441 -0.7937 -1.2162 -1.6662
 7861SOL    HW235220   0.446   4.731  10.353  0.7539  0.2516 -0.3476
 7862SOL     OW35221   4.425   3.094   2.027  0.2028 -0.6543 -0.2022
 7862SOL    HW135222   4.434   3.003   1.999 -2.7603 -0.2937 -2.4093
 7862SOL    HW235223   4.429   3.144   1.945  2.4281 -0.8385 -0.1951
 7863SOL     OW35224   3.062   2.974   5.859 -0.4925  0.0165  0.1887
 7863SOL    HW135225   3.005   2.957   5.933 -1.7443 -0.6931 -0.9442
 7863SOL    HW235226   3.068   3.070   5.863 -0.7954 -0.0821  2.6119
 7864SOL     OW35227   1.962   3.740  14.358 -0.1449 -0.9017 -0.1929
 7864SOL    HW135228   1.997   3.661  14.399 -1.1343 -0.5079  1.4258
 7864SOL    HW235229   2.030   3.769  14.297 -1.9921  1.1301 -1.3098
 7865SOL     OW35230   1.133   2.871   4.445  0.2720 -0.2790  0.4952
 7865SOL    HW135231   1.147   2.787   4.401 -1.9975 -0.7291  0.6712
 7865SOL    HW235232   1.169   2.934   4.383 -2.7393  1.1316  0.1843
 7866SOL     OW35233   3.348   4.673   4.891  0.0120 -0.1148 -0.4769
 7866SOL    HW135234   3.266   4.719   4.875 -0.3158 -1.3833 -2.5350
 7866SOL    HW235235   3.368   4.630   4.807 -1.9337  0.1411 -1.0779
 7867SOL     OW35236   0.951   0.919  12.008  0.3008 -0.0205  0.2124
 7867SOL    HW135237   0.965   0.967  11.926 -0.6881  0.3741  0.2792
 7867SOL    HW235238   1.040   0.907  12.042  0.3844 -0.3715 -0.1358
 7868SOL     OW35239   0.137   2.616  15.697  0.5446  0.0863  0.4869
 7868SOL    HW135240   0.201   2.650  15.760  1.8736 -1.2092 -0.1409
 7868SOL    HW235241   0.068   2.682  15.702  1.1259  0.6630  0.9258
 7869SOL     OW35242   1.696   3.615  10.328  0.2401 -0.6579 -0.1864
 7869SOL    HW135243   1.697   3.552  10.399 -1.0290 -0.4226  0.0485
 7869SOL    HW235244   1.778   3.594  10.283  1.6778  2.4429  0.9685
 7870SOL     OW35245   2.307   2.733  16.570 -0.2400 -0.4156  0.0386
 7870SOL    HW135246   2.294   2.814  16.520  2.4871 -0.9733 -1.6141
 7870SOL    HW235247   2.215   2.715  16.586  0.0068  0.4504  2.4508
 7871SOL     OW35248   1.720   1.862   4.192 -0.6702  0.0158  0.3154
 7871SOL    HW135249   1.627   1.865   4.213 -0.4552 -1.6107  1.4527
 7871SOL    HW235250   1.732   1.946   4.148 -0.3125  0.5004  1.3375
 7872SOL     OW35251   2.707   1.749   3.396 -0.0351  0.2407 -1.0385
 7872SOL    HW135252   2.682   1.804   3.470  0.1134  0.2688 -1.0093
 7872SOL    HW235253   2.692   1.788   3.310  0.1220  0.2238 -1.0739
 7873SOL     OW35254   0.466   1.371   5.277  0.0554 -0.0030  0.4290
 7873SOL    HW135255   0.532   1.434   5.247 -0.2896  0.2159  0.1324
 7873SOL    HW235256   0.392   1.431   5.281  0.4861  0.6107 -0.6650
 7874SOL     OW35257   0.209   3.599   8.577  0.9474 -0.2102 -0.1903
 7874SOL    HW135258   0.211   3.540   8.653 -0.3011  2.5174  1.9932
 7874SOL    HW235259   0.115   3.616   8.574  0.5145 -2.3559  1.2551
 7875SOL     OW35260   4.119   4.713   8.770  0.2939 -0.0586 -0.8441
 7875SOL    HW135261   4.166   4.633   8.749 -0.5264 -1.4564  2.5881
 7875SOL    HW235262   4.036   4.678   8.803 -0.4132  1.1000 -1.3994
 7876SOL     OW35263   2.135   3.111   4.634 -0.5203  0.1800  0.7397
 7876SOL    HW135264   2.040   3.120   4.626 -0.3797 -0.2410 -1.4812
 7876SOL    HW235265   2.144   3.017   4.648 -2.0547 -0.0920 -0.0001
 7877SOL     OW35266   1.287   1.853   6.826 -0.3909  0.3640 -0.0048
 7877SOL    HW135267   1.254   1.907   6.754  5.4323  2.4578 -1.0739
 7877SOL    HW235268   1.207   1.847   6.878 -0.0178 -0.9060  0.4274
 7878SOL     OW35269   1.744   3.266   7.426  0.5088 -0.5137 -0.0885
 7878SOL    HW135270   1.749   3.361   7.413 -0.3942 -0.5558 -0.7601
 7878SOL    HW235271   1.763   3.225   7.342  0.5202  1.3457 -0.9957
 7879SOL     OW35272   3.501   1.772   2.575 -0.1024 -0.1480  0.3637
 7879SOL    HW135273   3.543   1.857   2.588 -0.1346  0.2376 -2.1263
 7879SOL    HW235274   3.435   1.803   2.513  0.4920  0.2896 -0.0431
 7880SOL     OW35275   4.106   3.032  16.276  0.3463 -0.1587 -0.4714
 7880SOL    HW135276   4.054   2.967  16.228  2.8338 -2.1237 -0.4991
 7880SOL    HW235277   4.126   3.092  16.205  2.5390 -0.4672 -0.1106
 7881SOL     OW35278   3.372   2.627   9.105  0.4179  0.0319 -0.2884
 7881SOL    HW135279   3.393   2.650   9.196  1.8042  1.2192 -0.9029
 7881SOL    HW235280   3.283   2.597   9.123  0.2450  0.5907 -0.2095
 7882SOL     OW35281   3.148   2.572  17.001  0.3121  0.1561 -0.8932
 7882SOL    HW135282   3.188   2.499  16.954  2.3425 -0.2547  1.4431
 7882SOL    HW235283   3.155   2.649  16.943  1.7440 -0.4192 -1.4917
 7883SOL     OW35284   0.343   4.317   8.200 -0.4083  0.5636  0.2195
 7883SOL    HW135285   0.405   4.376   8.157  0.0837  0.2924  0.5585
 7883SOL    HW235286   0.366   4.235   8.157  1.7070  1.6784 -0.7530
 7884SOL     OW35287   0.894   2.939   6.020  0.2548  0.1561  0.6054
 7884SOL    HW135288   0.915   2.922   5.928  0.3794  2.0058  0.2901
 7884SOL    HW235289   0.954   3.008   6.050  0.8197 -0.6588  1.3539
 7885SOL     OW35290   3.053   2.628   1.994  0.6261 -0.1348 -0.0665
 7885SOL    HW135291   2.991   2.556   1.979  1.6187 -1.0004 -0.0622
 7885SOL    HW235292   3.093   2.587   2.071 -0.9825  0.0863  0.8834
 7886SOL     OW35293   3.808   0.631   8.960  0.6267  0.0484  0.6148
 7886SOL    HW135294   3.813   0.724   8.981  1.3304  0.1943 -0.2090
 7886SOL    HW235295   3.798   0.634   8.865 -0.3977  1.3188  0.7598
 7887SOL     OW35296   4.017   4.171  12.022  0.6743 -0.2203 -0.6144
 7887SOL    HW135297   4.053   4.092  11.984  0.6722 -0.5009 -0.0211
 7887SOL    HW235298   3.951   4.194  11.956  2.2054  2.5554 -1.2072
 7888SOL     OW35299   3.288   4.660  11.731  0.5587  0.1401 -0.3150
 7888SOL    HW135300   3.261   4.568  11.730  0.2000  0.2290  2.4865
 7888SOL    HW235301   3.267   4.687  11.641 -0.9016 -0.5032 -0.1700
 7889SOL     OW35302   1.782   3.789   4.117 -0.4132  0.0833 -0.2622
 7889SOL    HW135303   1.746   3.874   4.091  3.0053  1.4213 -0.5612
 7889SOL    HW235304   1.744   3.735   4.047 -1.7186  0.7529 -0.0575
 7890SOL     OW35305   2.773   4.313   5.734 -0.4295 -0.0204 -0.1976
 7890SOL    HW135306   2.841   4.378   5.754 -0.5456  0.0593 -0.0621
 7890SOL    HW235307   2.732   4.353   5.658 -1.5429 -0.2467  0.2871
 7891SOL     OW35308   4.361   2.957   0.823 -0.8820  0.1316  0.3973
 7891SOL    HW135309   4.306   2.914   0.888  0.6686 -0.2424  1.4532
 7891SOL    HW235310   4.391   3.029   0.878 -0.9177  1.5961 -1.4830
 7892SOL     OW35311   1.910   2.852   5.086 -0.3013  0.2838  0.1113
 7892SOL    HW135312   1.970   2.915   5.045  0.2889  0.5229  1.3573
 7892SOL    HW235313   1.831   2.904   5.073  0.0745  0.9847  0.6143
 7893SOL     OW35314   0.058   2.773   8.210 -0.7005  0.5524 -0.0781
 7893SOL    HW135315   0.060   2.740   8.300  0.6098 -1.1886 -0.7298
 7893SOL    HW235316   4.702   2.780   8.195 -0.6123  1.6854 -0.0659
 7894SOL     OW35317   0.582   3.848  10.588  0.0945  0.2332  1.1113
 7894SOL    HW135318   0.517   3.891  10.533  0.5869  0.7433  0.9240
 7894SOL    HW235319   0.559   3.756  10.574  1.2033  0.2958 -1.0539
 7895SOL     OW35320   1.059   0.320   7.453  0.7135  0.0164  0.3963
 7895SOL    HW135321   1.117   0.246   7.436  3.2521  1.9855  0.3548
 7895SOL    HW235322   0.973   0.282   7.440  0.0350  1.3124  1.0475
 7896SOL     OW35323   2.425   1.051   2.756 -0.3044 -0.0311  0.8034
 7896SOL    HW135324   2.417   1.037   2.661 -1.1301 -0.7667  0.9778
 7896SOL    HW235325   2.424   0.962   2.793  0.0500 -1.0783 -1.6758
 7897SOL     OW35326   2.277   3.430   5.436 -0.1869  0.0319  0.0038
 7897SOL    HW135327   2.329   3.474   5.368 -1.8749 -0.0789 -1.3723
 7897SOL    HW235328   2.348   3.407   5.495  0.6695 -0.0031 -1.0405
 7898SOL     OW35329   3.111   0.779   4.646  0.2106  0.5078 -0.1613
 7898SOL    HW135330   3.031   0.731   4.668  0.4723 -1.0689 -2.5449
 7898SOL    HW235331   3.149   0.728   4.574 -0.7719  0.2880 -0.5213
 7899SOL     OW35332   0.804   1.879  15.253 -0.0489  0.5182 -0.1178
 7899SOL    HW135333   0.889   1.836  15.258 -0.5382 -0.9112 -3.8126
 7899SOL    HW235334   0.808   1.936  15.330  0.3186  0.0257  0.2272
 7900SOL     OW35335   3.307   0.626  15.041 -0.2048 -0.1221 -0.1379
 7900SOL    HW135336   3.225   0.580  15.023 -0.4821 -0.0547  0.9453
 7900SOL    HW235337   3.316   0.627  15.136  1.3242 -1.1469 -0.2901
 7901SOL     OW35338   3.801   1.701   8.292  0.1750 -0.4372  0.5816
 7901SOL    HW135339   3.877   1.668   8.244  0.6157  2.3329 -0.6197
 7901SOL    HW235340   3.843   1.729   8.374 -2.4042  1.7827  1.1492
 7902SOL     OW35341   0.457   0.232   5.824 -0.0521 -0.5374  0.6950
 7902SOL    HW135342   0.541   0.255   5.784 -1.4130  1.1385 -1.2007
 7902SOL    HW235343   0.416   0.204   5.742 -0.6666 -0.0584  0.8363
 7903SOL     OW35344   3.392   4.008   9.601  0.2039  0.1691 -0.3281
 7903SOL    HW135345   3.302   4.037   9.618  0.8003  2.0333 -0.4116
 7903SOL    HW235346   3.390   3.935   9.664  0.2827  0.1186 -0.3841
 7904SOL     OW35347   3.518   2.362   4.643 -0.2600 -0.0564  0.5068
 7904SOL    HW135348   3.521   2.269   4.664 -2.0579 -0.4355 -0.9677
 7904SOL    HW235349   3.592   2.350   4.584 -1.2987 -0.3409 -0.7337
 7905SOL     OW35350   1.436   3.526  15.005 -0.4323  0.2393 -0.2636
 7905SOL    HW135351   1.407   3.578  14.930 -0.8490  1.4466  0.7395
 7905SOL    HW235352   1.523   3.497  14.975  0.4862  2.0140  0.6839
 7906SOL     OW35353   3.447   1.485   2.313 -0.7101  0.2599  0.1496
 7906SOL    HW135354   3.453   1.573   2.276 -1.1107 -0.3394 -1.3341
 7906SOL    HW235355   3.356   1.479   2.341 -0.4719 -1.3594  0.6063
 7907SOL     OW35356   3.388   0.451   8.095 -0.5841  0.2937  0.1351
 7907SOL    HW135357   3.433   0.413   8.170 -0.9040  0.7795  0.5736
 7907SOL    HW235358   3.348   0.529   8.133  0.5800  1.6515 -1.3878
 7908SOL     OW35359   0.056   4.406   6.191 -0.6201 -0.3089  0.3107
 7908SOL    HW135360   4.703   4.429   6.216 -0.6601 -1.8523  1.5541
 7908SOL    HW235361   0.074   4.325   6.238 -1.4885 -0.9515 -0.4593
 7909SOL     OW35362   3.746   1.313   4.691  0.0667  0.3948 -0.0674
 7909SOL    HW135363   3.791   1.267   4.621 -0.4433 -0.8322  0.4039
 7909SOL    HW235364   3.653   1.302   4.673  0.2779  0.1765 -1.0063
 7910SOL     OW35365   2.884   1.933  11.619 -0.4254  0.2774 -0.1774
 7910SOL    HW135366   2.823   1.874  11.664 -0.5114 -0.1547 -0.8622
 7910SOL    HW235367   2.827   1.961  11.547 -0.8476  0.0218  0.0544
 7911SOL     OW35368   4.381   0.213   5.428  0.7214  0.4389 -0.6055
 7911SOL    HW135369   4.314   0.146   5.410  1.0608  0.2900 -1.3291
 7911SOL    HW235370   4.349   0.237   5.514 -0.1740  0.7754 -1.0323
 7912SOL     OW35371   0.388   1.542  16.773  0.3793  0.0107 -0.4807
 7912SOL    HW135372   0.331   1.544  16.696  0.7608 -1.2280 -0.7969
 7912SOL    HW235373   0.442   1.615  16.741 -0.9870  0.4907 -1.7111
 7913SOL     OW35374   2.505   2.428   2.253 -0.5219 -0.3025  0.1122
 7913SOL    HW135375   2.493   2.487   2.328 -1.9407 -0.1849 -0.2106
 7913SOL    HW235376   2.575   2.369   2.280 -1.4396 -0.2163  2.6769
 7914SOL     OW35377   4.586   2.833   9.372  0.2342 -0.2217 -0.1816
 7914SOL    HW135378   4.565   2.748   9.409 -2.4257  1.0668  1.2653
 7914SOL    HW235379   4.500   2.872   9.359 -0.2165 -0.4154  2.1727
 7915SOL     OW35380   1.012   2.645   0.664 -0.6922  0.2868 -0.3946
 7915SOL    HW135381   1.039   2.736   0.653 -0.3287  0.2017 -0.1841
 7915SOL    HW235382   1.039   2.611   0.579 -0.8297  1.3202 -0.8517
 7916SOL     OW35383   0.683   2.312   8.067  0.5251  0.1718  0.2720
 7916SOL    HW135384   0.609   2.329   8.008  2.2094  2.5204 -1.1659
 7916SOL    HW235385   0.733   2.256   8.009 -0.1433 -1.5177  1.3260
 7917SOL     OW35386   1.226   0.267  10.956 -0.0291  0.8443  0.0423
 7917SOL    HW135387   1.168   0.193  10.937  0.5834 -0.1980  2.1746
 7917SOL    HW235388   1.288   0.236  11.022  0.9599 -0.6610 -1.6061
 7918SOL     OW35389   1.139   1.190   3.941  0.1434 -0.0169 -0.4322
 7918SOL    HW135390   1.203   1.226   3.880 -0.7449  1.4517 -0.4801
 7918SOL    HW235391   1.091   1.264   3.978 -1.8460 -1.8718  0.7587
 7919SOL     OW35392   3.686   1.793   7.971 -0.2130  0.3469 -0.9518
 7919SOL    HW135393   3.649   1.831   7.891 -1.3083  1.1143 -0.0806
 7919SOL    HW235394   3.762   1.758   7.925  0.5964 -0.0998  0.7331
 7920SOL     OW35395   0.926   3.833   2.087  0.1950 -0.5430 -0.0549
 7920SOL    HW135396   0.927   3.901   2.020 -3.4203  0.3474  0.7852
 7920SOL    HW235397   0.831   3.839   2.103  0.1280  3.4043 -1.8889
 7921SOL     OW35398   4.270   4.672   0.485  0.1602  0.4189  0.3254
 7921SOL    HW135399   4.194   4.727   0.501  0.8288  1.2239  0.7341
 7921SOL    HW235400   4.288   4.626   0.567  1.1670 -1.4724 -0.9666
 7922SOL     OW35401   2.278   4.275   6.700 -0.8327 -0.3589  0.0210
 7922SOL    HW135402   2.302   4.279   6.792  1.4247 -3.4075 -0.4352
 7922SOL    HW235403   2.360   4.299   6.656 -1.8204 -3.1215 -3.3943
 7923SOL     OW35404   3.849   3.817   6.828  0.5529 -0.1029  0.1720
 7923SOL    HW135405   3.771   3.792   6.779  0.3775  1.2350 -0.2208
 7923SOL    HW235406   3.888   3.730   6.835 -1.7702 -1.0443  1.7370
 7924SOL     OW35407   2.987   3.481  14.701  0.3377  0.3441  0.5404
 7924SOL    HW135408   2.903   3.439  14.686  0.1563  1.0508 -0.4067
 7924SOL    HW235409   3.020   3.460  14.614  0.4365  2.8068 -0.0241
 7925SOL     OW35410   0.254   4.367   3.510 -0.6712  0.4739 -0.1042
 7925SOL    HW135411   0.302   4.415   3.578 -1.7129  0.6632  0.5035
 7925SOL    HW235412   0.172   4.414   3.491 -1.2713 -0.7533 -0.5123
 7926SOL     OW35413   3.104   2.094   1.063 -0.0645 -0.2147  0.3316
 7926SOL    HW135414   3.128   2.116   0.973  1.6020 -0.6107  0.6670
 7926SOL    HW235415   3.100   2.172   1.118  1.1739  0.2044 -0.1763
 7927SOL     OW35416   1.412   3.693   2.863 -0.7418  0.5462  0.3220
 7927SOL    HW135417   1.453   3.779   2.874  2.4218 -1.0979  1.3686
 7927SOL    HW235418   1.367   3.707   2.780  0.3801  0.4620 -0.3067
 7928SOL     OW35419   3.148   3.900   6.364  0.3600  0.2855 -0.2376
 7928SOL    HW135420   3.169   3.888   6.457 -2.1294 -2.4299 -0.0096
 7928SOL    HW235421   3.055   3.921   6.370  0.0446 -0.8689 -0.9701
 7929SOL     OW35422   4.341   2.291   8.378 -0.0795 -0.2799 -0.2594
 7929SOL    HW135423   4.348   2.234   8.455 -0.5247 -0.1393 -0.1115
 7929SOL    HW235424   4.408   2.357   8.395 -1.3369  0.7102  0.8662
 7930SOL     OW35425   3.764   0.357   8.702  0.3170  0.4723  0.1178
 7930SOL    HW135426   3.737   0.447   8.716 -3.2031 -0.7987  1.5881
 7930SOL    HW235427   3.784   0.365   8.609 -0.9941 -1.1238 -0.3002
 7931SOL     OW35428   3.147   2.518   3.344  0.2033  0.5994  0.4371
 7931SOL    HW135429   3.147   2.520   3.248  3.1123  1.1723  0.4526
 7931SOL    HW235430   3.234   2.552   3.366  0.7764 -1.1070  0.7951
 7932SOL     OW35431   3.073   1.121   4.822  0.2296 -0.5357  0.7283
 7932SOL    HW135432   3.089   1.213   4.841  0.4061 -0.3221 -0.4473
 7932SOL    HW235433   3.141   1.110   4.754  0.6943  0.0178  1.1042
 7933SOL     OW35434   4.170   1.825   2.703 -0.3729  0.9713 -0.4975
 7933SOL    HW135435   4.157   1.775   2.622  2.4108 -1.3979  0.5295
 7933SOL    HW235436   4.263   1.806   2.703 -0.0289  2.6234 -0.1816
 7934SOL     OW35437   1.770   2.948  12.701 -0.0266  0.2103 -0.1064
 7934SOL    HW135438   1.838   2.900  12.748  1.2530  1.8737 -0.2340
 7934SOL    HW235439   1.815   3.019  12.656  0.0005  0.5646  0.4706
 7935SOL     OW35440   1.920   0.801   3.636 -0.3651  0.1511 -0.1053
 7935SOL    HW135441   1.887   0.873   3.690 -1.6066  0.7343 -1.6586
 7935SOL    HW235442   1.840   0.749   3.641 -1.2874  1.5479 -0.2560
 7936SOL     OW35443   3.296   3.856   8.280 -0.1066 -0.3321  0.0297
 7936SOL    HW135444   3.220   3.799   8.291 -1.5303  1.8852  1.8192
 7936SOL    HW235445   3.252   3.940   8.272 -0.4213 -0.4909  0.1037
 7937SOL     OW35446   2.991   4.560  15.113  0.5324  0.2967 -0.0947
 7937SOL    HW135447   2.969   4.636  15.059 -1.9950 -0.2541  0.1425
 7937SOL    HW235448   2.910   4.511  15.097 -0.2427  0.6791  2.7598
 7938SOL     OW35449   1.004   4.327   1.735  0.0358  0.2481  0.4465
 7938SOL    HW135450   0.919   4.318   1.778  0.5427  1.0500  1.6463
 7938SOL    HW235451   1.011   4.423   1.739 -1.2606  0.3373  0.6192
 7939SOL     OW35452   1.694   4.411   9.213 -0.0055  0.1589  0.1931
 7939SOL    HW135453   1.656   4.376   9.293 -1.7660  1.6288 -0.0149
 7939SOL    HW235454   1.723   4.498   9.242 -0.1912  0.9416 -1.9038
 7940SOL     OW35455   4.406   2.932   2.407 -0.2339  0.0542  0.3005
 7940SOL    HW135456   4.478   2.869   2.399  0.7438  1.3252 -0.9602
 7940SOL    HW235457   4.420   2.997   2.338 -0.8936  0.6923  0.7716
 7941SOL     OW35458   3.530   2.309   7.435 -0.4043 -0.6934 -0.0476
 7941SOL    HW135459   3.463   2.241   7.450 -1.6475  0.9671  1.8881
 7941SOL    HW235460   3.590   2.259   7.379 -0.5277 -1.2019  0.2777
 7942SOL     OW35461   1.134   3.828  15.650  0.2223  0.1353 -0.1288
 7942SOL    HW135462   1.128   3.921  15.672 -0.9717 -0.0332  0.3012
 7942SOL    HW235463   1.118   3.781  15.732  0.4875  1.9401  0.9513
 7943SOL     OW35464   2.667   3.679   3.015 -1.0877  0.3484  0.5055
 7943SOL    HW135465   2.572   3.674   3.025 -1.0624 -0.9162  0.1865
 7943SOL    HW235466   2.680   3.585   3.025 -0.8604  0.5230  1.7616
 7944SOL     OW35467   0.187   4.493   8.362 -0.3428  0.4425  0.4510
 7944SOL    HW135468   0.206   4.566   8.303 -1.4451 -0.4430 -0.9902
 7944SOL    HW235469   0.238   4.417   8.335  0.3976  0.0453  3.0114
 7945SOL     OW35470   0.245   2.125   8.694 -0.5279  0.2409 -0.0422
 7945SOL    HW135471   0.245   2.078   8.777  0.3580  0.3240  0.0007
 7945SOL    HW235472   0.337   2.149   8.687 -0.8657  1.9347  1.3606
 7946SOL     OW35473   2.636   3.484   7.656 -0.4377 -0.0006  0.3246
 7946SOL    HW135474   2.696   3.525   7.718  1.6927  0.4555 -2.0495
 7946SOL    HW235475   2.568   3.466   7.721 -0.8761 -0.5868 -0.3046
 7947SOL     OW35476   0.803   0.829  15.508 -0.1152  0.3701  0.4258
 7947SOL    HW135477   0.847   0.756  15.553 -0.1466 -1.2703 -2.2525
 7947SOL    HW235478   0.796   0.796  15.418  3.0109  0.4398  0.1498
 7948SOL     OW35479   3.423   0.440  11.382 -0.6927 -0.5330  0.7216
 7948SOL    HW135480   3.447   0.527  11.349 -0.7522 -0.8334 -0.1086
 7948SOL    HW235481   3.465   0.445  11.468  0.2880 -0.1994  0.2211
 7949SOL     OW35482   4.720   0.749   6.967  0.5818 -0.0481 -0.0312
 7949SOL    HW135483   4.714   0.689   6.892  1.6131 -1.4321  0.9962
 7949SOL    HW235484   4.626   0.757   6.982  0.6111 -1.1122  0.7155
 7950SOL     OW35485   3.766   1.900   4.604  0.4642 -0.1430  0.3094
 7950SOL    HW135486   3.749   1.832   4.669 -0.7480 -1.9720 -1.8974
 7950SOL    HW235487   3.855   1.919   4.635  0.2239 -0.6887  1.3123
 7951SOL     OW35488   2.581   2.531   5.997  0.1916  0.2357  0.3107
 7951SOL    HW135489   2.612   2.551   6.085 -0.2334  2.0417  0.0536
 7951SOL    HW235490   2.641   2.461   5.971  0.4645  0.9444 -0.9723
 7952SOL     OW35491   2.900   1.853   5.772  0.4899 -0.4553 -0.6082
 7952SOL    HW135492   2.947   1.832   5.691  1.4006  0.3661 -0.2832
 7952SOL    HW235493   2.860   1.769   5.793  1.4352 -0.5535  0.7737
 7953SOL     OW35494   0.911   3.696   3.742  0.5478 -0.6735 -0.3350
 7953SOL    HW135495   0.903   3.764   3.809  2.5723 -1.3222  0.5676
 7953SOL    HW235496   0.889   3.614   3.786 -0.0155 -1.9606 -2.9872
 7954SOL     OW35497   3.715   2.965  15.463 -0.2307  0.1412 -0.3325
 7954SOL    HW135498   3.775   2.998  15.530 -1.7457  1.0287  0.5918
 7954SOL    HW235499   3.640   2.960  15.523 -0.5322  1.0600 -0.6322
 7955SOL     OW35500   3.510   0.052   2.349  0.4298 -0.1956 -0.0447
 7955SOL    HW135501   3.453   0.012   2.415 -0.0699  1.5296  0.5762
 7955SOL    HW235502   3.543   4.708   2.312  1.0744  0.0338  0.0259
 7956SOL     OW35503   1.616   2.318   6.794 -0.3663 -0.1633  0.1241
 7956SOL    HW135504   1.543   2.336   6.735  0.6966  0.5470 -0.9922
 7956SOL    HW235505   1.571   2.311   6.878  1.4412 -1.7439  0.9510
 7957SOL     OW35506   1.034   4.375  17.423 -0.0114  0.1691  0.2835
 7957SOL    HW135507   1.057   4.465  17.399 -1.9124  0.4628 -0.4365
 7957SOL    HW235508   1.052   4.336  17.337 -1.7208 -0.0081  0.0098
 7958SOL     OW35509   3.447   0.686   1.927 -0.0232  0.1058  0.5352
 7958SOL    HW135510   3.353   0.702   1.920 -0.1194 -0.7694 -0.2311
 7958SOL    HW235511   3.483   0.741   1.857 -0.9273 -0.4388 -0.3627
 7959SOL     OW35512   2.451   3.164   7.893  0.0500  0.0011  0.1387
 7959SOL    HW135513   2.407   3.084   7.921  1.3879 -1.2911 -1.4338
 7959SOL    HW235514   2.483   3.139   7.806 -2.1165 -1.5225 -0.2021
 7960SOL     OW35515   3.240   4.078  17.311 -0.5321  0.0622  0.0467
 7960SOL    HW135516   3.216   4.029  17.232  0.7993  1.5081 -1.2720
 7960SOL    HW235517   3.287   4.013  17.363 -0.7826 -1.6385 -1.8394
 7961SOL     OW35518   3.271   2.091   3.368 -0.3604 -0.0368 -0.5331
 7961SOL    HW135519   3.270   2.134   3.454 -0.0269  0.7619 -0.9377
 7961SOL    HW235520   3.292   2.164   3.312  1.5659 -0.8501 -0.8622
 7962SOL     OW35521   1.341   2.722  16.552  0.0408  0.3796  0.2071
 7962SOL    HW135522   1.357   2.649  16.612  1.1202  2.6874  2.7246
 7962SOL    HW235523   1.354   2.678  16.469 -0.2135  0.0142  0.3639
 7963SOL     OW35524   3.431   4.316  10.421  0.0455 -0.0649 -0.4448
 7963SOL    HW135525   3.385   4.364  10.490 -1.0227  0.1568 -1.3087
 7963SOL    HW235526   3.354   4.272  10.388 -1.0266  0.2992  1.5604
 7964SOL     OW35527   4.737   2.785   3.759  0.1102  0.8240 -0.6803
 7964SOL    HW135528   4.713   2.697   3.785 -1.4468  1.8191  1.2451
 7964SOL    HW235529   0.084   2.814   3.794  0.1891  1.4077 -1.3295
 7965SOL     OW35530   2.018   1.261  10.907  0.3040 -0.4959  0.0302
 7965SOL    HW135531   1.983   1.253  10.818  2.0271 -5.9346 -0.1554
 7965SOL    HW235532   1.937   1.243  10.955 -0.9905  0.2865 -1.8790
 7966SOL     OW35533   4.340   4.061   9.163  0.2518  0.1975 -0.1460
 7966SOL    HW135534   4.376   4.115   9.092 -0.0878 -0.5137 -0.8596
 7966SOL    HW235535   4.398   3.985   9.169 -0.6094 -0.3847  0.6781
 7967SOL     OW35536   1.663   4.096   8.950 -0.4503 -0.2507 -0.3847
 7967SOL    HW135537   1.676   4.169   8.890 -1.3725  0.3483  0.1332
 7967SOL    HW235538   1.731   4.034   8.924  0.2025 -0.1431  1.0877
 7968SOL     OW35539   4.397   3.041  16.647  0.4091 -0.0980 -0.5357
 7968SOL    HW135540   4.469   2.988  16.614  0.1137 -1.0383  0.3250
 7968SOL    HW235541   4.432   3.081  16.727 -0.8892 -0.1983  0.0852
 7969SOL     OW35542   2.690   1.605   3.942 -0.0386 -0.0636 -0.1011
 7969SOL    HW135543   2.708   1.520   3.982  0.9355  0.6161  0.9359
 7969SOL    HW235544   2.596   1.599   3.930 -0.0940  1.3004 -0.3613
 7970SOL     OW35545   4.709   1.164   2.264  0.6380  0.0081 -1.0151
 7970SOL    HW135546   4.631   1.195   2.216 -0.4384 -1.8517 -0.4459
 7970SOL    HW235547   4.704   1.069   2.269  0.8167  0.0393 -0.2535
 7971SOL     OW35548   0.710   4.562   4.793  0.6946 -1.0225  0.4904
 7971SOL    HW135549   0.669   4.476   4.786 -1.1586  0.0339 -1.5909
 7971SOL    HW235550   0.638   4.609   4.834  0.3976 -1.1003  0.0552
 7972SOL     OW35551   0.893   1.087  17.190 -0.3144  0.2763 -0.4114
 7972SOL    HW135552   0.877   1.095  17.096  1.6485 -1.4683 -0.8981
 7972SOL    HW235553   0.987   1.073  17.194 -0.1801  1.3042 -0.1682
 7973SOL     OW35554   3.840   0.253   6.701  0.2403  0.5509 -0.4548
 7973SOL    HW135555   3.774   0.241   6.632 -1.0021  0.9559  0.6558
 7973SOL    HW235556   3.783   0.294   6.767 -0.1390  0.8276 -0.9534
 7974SOL     OW35557   2.668   4.002   1.371 -0.6650  0.6036 -0.2395
 7974SOL    HW135558   2.734   4.040   1.312 -0.4222  0.8217  0.1750
 7974SOL    HW235559   2.641   3.926   1.319  1.1932  1.6749 -2.8097
 7975SOL     OW35560   1.733   3.276  17.507  0.1844  0.1580 -0.1705
 7975SOL    HW135561   1.685   3.302  17.428 -1.1694  1.4686  1.0682
 7975SOL    HW235562   1.693   3.333  17.573 -1.8268  0.7848 -1.9217
 7976SOL     OW35563   0.407   1.114   8.618  0.2798  1.0810  0.8861
 7976SOL    HW135564   0.412   1.082   8.708 -0.2360  1.4243  1.0308
 7976SOL    HW235565   0.326   1.164   8.623 -0.2037  0.2506  1.3390
 7977SOL     OW35566   3.028   3.746   8.992  0.1064  0.3791 -0.1596
 7977SOL    HW135567   2.976   3.667   8.979  2.0386 -1.3027  2.4795
 7977SOL    HW235568   3.096   3.729   8.927 -1.7221  1.4593 -2.3732
 7978SOL     OW35569   0.870   1.523   6.292 -0.0781 -0.2412  0.1795
 7978SOL    HW135570   0.904   1.436   6.312  0.0603 -0.1735  0.2388
 7978SOL    HW235571   0.834   1.523   6.203  1.4573  0.2973 -0.4460
 7979SOL     OW35572   2.800   1.830  16.621 -0.5695  0.5443 -0.0947
 7979SOL    HW135573   2.817   1.754  16.565 -1.1326 -0.1499  0.6820
 7979SOL    HW235574   2.743   1.783  16.682 -1.0260  0.5475 -0.5209
 7980SOL     OW35575   1.269   3.992   2.988 -0.6014 -0.4227  0.2555
 7980SOL    HW135576   1.304   4.047   3.057  1.0708 -1.3360  0.1289
 7980SOL    HW235577   1.311   3.912   3.020 -0.8556 -0.4538  0.5167
 7981SOL     OW35578   0.569   0.445   4.215 -0.5020 -0.4597 -0.0349
 7981SOL    HW135579   0.515   0.440   4.136  1.2229 -2.1010 -1.1211
 7981SOL    HW235580   0.540   0.529   4.251  1.0688  0.5216 -1.0438
 7982SOL     OW35581   1.234   2.956   6.247  0.0488 -0.2821 -0.0280
 7982SOL    HW135582   1.197   2.924   6.164 -1.6124 -0.5321  0.8170
 7982SOL    HW235583   1.212   3.049   6.248 -1.1880 -0.5747  0.2112
 7983SOL     OW35584   4.194   2.370   8.170 -0.5764  0.0755  0.0202
 7983SOL    HW135585   4.105   2.378   8.204 -0.5688  0.1675  0.0194
 7983SOL    HW235586   4.242   2.338   8.246  0.6485 -2.1833 -1.7257
 7984SOL     OW35587   1.889   2.082   9.181  1.0902  0.2572  0.0916
 7984SOL    HW135588   1.979   2.080   9.215  0.6290  1.7584  1.4086
 7984SOL    HW235589   1.843   2.010   9.224  0.5949 -0.0819 -1.0132
 7985SOL     OW35590   2.229   3.822   0.180 -0.1026  0.0252  0.5211
 7985SOL    HW135591   2.284   3.880   0.233  1.5798 -0.8692 -0.2275
 7985SOL    HW235592   2.165   3.801   0.247  0.6554  1.9919  1.8605
 7986SOL     OW35593   1.926   4.078   5.417 -0.7549 -0.4564  0.0328
 7986SOL    HW135594   1.969   4.014   5.473  0.0239 -1.1846 -1.4066
 7986SOL    HW235595   1.833   4.059   5.429 -1.1348 -0.4052 -2.8098
 7987SOL     OW35596   0.669   4.339   8.316  0.1621  0.4887  0.1393
 7987SOL    HW135597   0.754   4.382   8.325  0.3882  0.3496 -1.3879
 7987SOL    HW235598   0.653   4.353   8.223 -1.1343  1.6814  0.5388
 7988SOL     OW35599   1.116   3.411   8.872 -0.1978  0.1266 -0.5783
 7988SOL    HW135600   1.105   3.476   8.802  1.8466  0.7086 -0.3611
 7988SOL    HW235601   1.174   3.459   8.931 -1.9149 -0.7666  1.8058
 7989SOL     OW35602   3.937   0.326   3.738 -0.9300 -0.4257  0.0889
 7989SOL    HW135603   4.026   0.350   3.760 -0.7475 -1.3149  0.3230
 7989SOL    HW235604   3.892   0.394   3.788 -2.9717 -0.8332 -1.1897
 7990SOL     OW35605   4.565   0.417   8.784 -0.4378  0.2345 -0.3266
 7990SOL    HW135606   4.561   0.344   8.723  1.2641  0.1739 -0.3579
 7990SOL    HW235607   4.575   0.493   8.727  0.7657 -1.3616 -2.2334
 7991SOL     OW35608   2.616   2.946   9.788 -0.0402  0.4902 -0.6029
 7991SOL    HW135609   2.701   2.903   9.793 -0.0139  0.6587  0.3721
 7991SOL    HW235610   2.625   3.018   9.851  1.7738  0.3631 -0.7408
 7992SOL     OW35611   1.611   4.556   3.179 -0.1354 -0.0601  0.1047
 7992SOL    HW135612   1.554   4.560   3.256  1.3439  2.5439  1.0529
 7992SOL    HW235613   1.544   4.583   3.117 -0.7827 -2.0435 -0.0758
 7993SOL     OW35614   1.169   4.703   2.428 -0.4699  0.4226 -0.1888
 7993SOL    HW135615   1.156   0.060   2.441 -0.6356  0.0871  2.0453
 7993SOL    HW235616   1.207   4.682   2.513 -2.7664 -2.1356  0.2031
 7994SOL     OW35617   1.602   4.591   6.425  0.1479  0.0361 -0.1669
 7994SOL    HW135618   1.540   4.616   6.357 -1.7708 -0.9500  1.1919
 7994SOL    HW235619   1.606   4.677   6.467  0.4740 -0.0333 -0.0575
 7995SOL     OW35620   2.545   2.535  15.857 -0.1201  0.3464  0.0479
 7995SOL    HW135621   2.529   2.624  15.888 -1.4403 -1.5992  5.0160
 7995SOL    HW235622   2.639   2.523  15.871  0.2116  0.3822 -2.0864
 7996SOL     OW35623   0.036   0.289   7.546  0.3984  0.1320 -0.0066
 7996SOL    HW135624   0.132   0.291   7.539  0.5865 -0.9137  2.4068
 7996SOL    HW235625   0.026   0.353   7.476 -1.6927 -2.4753 -2.1008
 7997SOL     OW35626   0.682   1.361   5.467  0.0289  0.0895 -0.1306
 7997SOL    HW135627   0.629   1.391   5.393 -0.3831  0.2118  0.2141
 7997SOL    HW235628   0.678   1.265   5.463 -0.3089  0.0344  1.9048
 7998SOL     OW35629   4.214   4.534   7.821  0.4972 -0.3666  0.4620
 7998SOL    HW135630   4.218   4.439   7.827  0.4218 -0.3817  0.2728
 7998SOL    HW235631   4.159   4.553   7.897 -0.2840  0.2593 -0.2490
 7999SOL     OW35632   4.718   2.694  17.065  0.7315 -0.7777  0.5916
 7999SOL    HW135633   0.058   2.643  17.044  0.1976 -0.6968 -1.5330
 7999SOL    HW235634   4.687   2.647  17.142 -0.9311 -3.5212 -1.7597
 8000SOL     OW35635   1.140   2.639  16.909  0.5875  0.5481  0.2655
 8000SOL    HW135636   1.116   2.729  16.931 -1.2190 -0.1002  0.9220
 8000SOL    HW235637   1.130   2.640  16.814 -0.1149 -1.3360  0.3204
 8001SOL     OW35638   3.452   2.563  16.878 -0.3316 -0.4245 -0.1172
 8001SOL    HW135639   3.375   2.505  16.873 -0.0302 -0.7481 -1.0106
 8001SOL    HW235640   3.511   2.490  16.897 -0.7060 -0.2293  1.8494
 8002SOL     OW35641   2.582   4.388   6.994  0.5497 -0.3521 -0.0739
 8002SOL    HW135642   2.616   4.305   6.959 -3.3737 -2.6870  1.6688
 8002SOL    HW235643   2.637   4.443   6.939  0.9013 -0.6945 -0.0690
 8003SOL     OW35644   2.861   2.376  15.593 -0.4018 -0.1017  0.1157
 8003SOL    HW135645   2.781   2.375  15.645 -1.3849  2.4207 -1.3521
 8003SOL    HW235646   2.917   2.350  15.666 -2.2762 -2.5555  0.7007
 8004SOL     OW35647   4.532   4.213   2.909  0.2815  0.7632  0.1053
 8004SOL    HW135648   4.583   4.210   2.828  0.2076  2.8828 -0.0098
 8004SOL    HW235649   4.609   4.198   2.964  0.6546 -0.8366 -0.8434
 8005SOL     OW35650   2.903   3.205  15.556 -0.2768 -0.3241 -0.0991
 8005SOL    HW135651   2.949   3.286  15.533  0.7012 -0.4901  1.2640
 8005SOL    HW235652   2.926   3.199  15.649 -1.0196 -0.8662  0.0420
 8006SOL     OW35653   2.324   0.014   0.940  0.3905 -0.2527 -0.6092
 8006SOL    HW135654   2.356   0.099   0.910  0.6227  0.3021  1.2559
 8006SOL    HW235655   2.242   0.007   0.890  0.3481  0.2609 -0.6045
 8007SOL     OW35656   1.302   1.487   7.678 -0.2432 -0.3374  0.3615
 8007SOL    HW135657   1.362   1.449   7.743  0.1254  0.3896  0.4465
 8007SOL    HW235658   1.282   1.565   7.728 -0.1794 -0.4081  0.4980
 8008SOL     OW35659   2.551   0.927   3.108  0.3915  0.6807 -0.0408
 8008SOL    HW135660   2.563   1.009   3.061  0.6194  0.9345  0.4520
 8008SOL    HW235661   2.512   0.870   3.043 -0.2768  3.3157 -1.9414
 8009SOL     OW35662   2.965   3.880  16.676 -0.0086  0.4910  0.2427
 8009SOL    HW135663   2.957   3.869  16.581 -2.9332 -0.5918  0.6218
 8009SOL    HW235664   3.040   3.821  16.691 -0.5537 -0.9838 -2.7483
 8010SOL     OW35665   2.456   0.228  11.804  0.0698 -0.3806 -0.0618
 8010SOL    HW135666   2.482   0.235  11.896 -1.0478 -2.3653  0.3948
 8010SOL    HW235667   2.367   0.192  11.808  0.0583 -0.6543 -2.6725
 8011SOL     OW35668   3.067   4.443   7.452  0.6409  0.3219 -0.3679
 8011SOL    HW135669   3.042   4.365   7.402 -0.4120  0.0144  0.6342
 8011SOL    HW235670   2.980   4.479   7.469  0.7443 -0.1540  1.2242
 8012SOL     OW35671   3.655   1.763   8.549 -0.0001 -0.3151 -0.0643
 8012SOL    HW135672   3.570   1.802   8.531  0.9199  1.7067  0.0610
 8012SOL    HW235673   3.676   1.731   8.461  0.8184  0.9221 -0.3158
 8013SOL     OW35674   3.482   3.527   6.123  0.0817 -0.1788  0.3580
 8013SOL    HW135675   3.454   3.613   6.156 -0.0136 -0.0014 -0.1793
 8013SOL    HW235676   3.543   3.498   6.190 -0.1114  1.9778  1.4894
 8014SOL     OW35677   1.943   1.375   7.281 -0.2847 -0.2596 -0.1983
 8014SOL    HW135678   1.925   1.468   7.267  2.0916  0.0657 -1.1842
 8014SOL    HW235679   2.009   1.382   7.351  1.0392  1.1109 -1.5805
 8015SOL     OW35680   4.148   3.244  10.403  0.1833 -0.3635  0.4357
 8015SOL    HW135681   4.172   3.164  10.450 -2.9058 -1.2937  0.3945
 8015SOL    HW235682   4.203   3.238  10.325 -0.6207 -0.4012 -0.1281
 8016SOL     OW35683   1.905   0.346  16.669  0.2925 -0.6710  0.4154
 8016SOL    HW135684   1.976   0.407  16.648 -1.9944  1.8707  0.1711
 8016SOL    HW235685   1.893   0.370  16.761  2.6111 -1.1495  0.8540
 8017SOL     OW35686   2.445   1.156   6.830 -0.7395  0.3919 -0.2391
 8017SOL    HW135687   2.536   1.167   6.805 -0.6281 -1.0361 -0.4978
 8017SOL    HW235688   2.417   1.134   6.741 -0.5783  0.9587 -0.4258
 8018SOL     OW35689   0.839   3.152   2.169  0.2159  0.0579  0.4569
 8018SOL    HW135690   0.753   3.193   2.172 -0.5496 -1.4818 -0.8224
 8018SOL    HW235691   0.894   3.197   2.105  1.7126  1.3304  2.6174
 8019SOL     OW35692   1.072   2.264   3.985 -0.1808 -0.0773  0.9527
 8019SOL    HW135693   1.026   2.335   4.030  1.7983  1.2912  0.8019
 8019SOL    HW235694   1.140   2.309   3.935 -0.3494 -0.0094  0.7839
 8020SOL     OW35695   2.773   1.012   3.365  0.3742  0.6001  0.3350
 8020SOL    HW135696   2.846   1.052   3.319  0.2225 -2.3520 -2.4719
 8020SOL    HW235697   2.703   1.017   3.301  0.9542 -2.9033 -0.6264
 8021SOL     OW35698   3.239   4.006   8.736  0.0306  0.3273 -0.1556
 8021SOL    HW135699   3.159   4.011   8.682  0.2643 -2.0309 -0.6928
 8021SOL    HW235700   3.227   3.916   8.764  1.4120  0.1097 -0.2850
 8022SOL     OW35701   2.651   2.549   1.648 -0.0356  0.1920 -0.2173
 8022SOL    HW135702   2.676   2.634   1.612  0.5707  0.2834  0.4178
 8022SOL    HW235703   2.568   2.565   1.694 -1.1434 -0.0895 -2.1199
 8023SOL     OW35704   2.439   0.335  15.786 -0.1814  0.2401 -0.6735
 8023SOL    HW135705   2.439   0.431  15.793 -1.4068  0.2387 -0.6218
 8023SOL    HW235706   2.383   0.319  15.862 -0.7745 -0.5055 -1.2678
 8024SOL     OW35707   2.869   3.983   6.368 -0.1177 -0.2150 -0.5883
 8024SOL    HW135708   2.811   3.962   6.295  0.7820 -0.2830 -1.2979
 8024SOL    HW235709   2.843   3.922   6.436 -0.3255  0.2550 -0.2485
 8025SOL     OW35710   3.449   1.356   6.347 -0.0489 -0.1257  0.1651
 8025SOL    HW135711   3.454   1.330   6.255  3.6277  2.5838 -0.4080
 8025SOL    HW235712   3.409   1.274   6.376  2.2077 -1.0863  0.5292
 8026SOL     OW35713   1.091   4.592  14.365  0.5914  0.1231  0.6521
 8026SOL    HW135714   1.038   4.671  14.369  2.2674  1.2418  0.5556
 8026SOL    HW235715   1.174   4.638  14.376 -0.0954  1.6154 -0.4476
 8027SOL     OW35716   3.772   2.422  13.164 -0.2650  0.5289 -0.5771
 8027SOL    HW135717   3.699   2.465  13.209 -0.5240 -0.7589  0.2450
 8027SOL    HW235718   3.842   2.459  13.219 -1.2930  1.8886 -0.2030
 8028SOL     OW35719   0.286   0.365  14.133  0.2772  0.1058 -0.0261
 8028SOL    HW135720   0.322   0.453  14.126  1.9904 -0.6686 -1.1256
 8028SOL    HW235721   0.346   0.314  14.078 -0.5966 -1.3219  0.3350
 8029SOL     OW35722   1.023   4.520   4.176 -0.0759 -0.7036  1.0329
 8029SOL    HW135723   0.993   4.595   4.228 -0.1819 -0.4550  0.6078
 8029SOL    HW235724   1.076   4.477   4.244 -0.1183 -0.7300  1.0495
 8030SOL     OW35725   3.968   3.359   7.315  0.1561  0.2092 -0.0429
 8030SOL    HW135726   4.046   3.303   7.306  0.4678  0.3842  1.5247
 8030SOL    HW235727   4.006   3.419   7.379 -0.3888  0.7872 -0.2634
 8031SOL     OW35728   0.150   1.738   2.718 -0.1002  0.4511  0.4222
 8031SOL    HW135729   0.217   1.676   2.746  0.2230  0.6733  0.1404
 8031SOL    HW235730   0.105   1.677   2.660 -1.4945  1.3095  0.5863
 8032SOL     OW35731   2.744   0.286  10.255 -0.0780 -0.4359 -0.3027
 8032SOL    HW135732   2.748   0.341  10.177  0.2491  0.4102  0.3126
 8032SOL    HW235733   2.796   0.332  10.321 -0.6519  0.1206 -0.2357
 8033SOL     OW35734   3.748   2.452   2.299 -0.1142 -0.2871 -0.3256
 8033SOL    HW135735   3.731   2.424   2.208  1.2964  0.1116 -0.7159
 8033SOL    HW235736   3.776   2.368   2.336  1.9726  0.2776 -0.6017
 8034SOL     OW35737   0.100   3.441  14.647 -0.0243  0.2714  0.8700
 8034SOL    HW135738   0.010   3.411  14.637 -0.4589  1.6661  0.6536
 8034SOL    HW235739   0.144   3.398  14.573  1.4748 -2.6113  3.4164
 8035SOL     OW35740   0.591   1.938   5.002 -0.0661  0.1680 -0.4761
 8035SOL    HW135741   0.525   1.920   4.935  3.0690 -2.0943 -2.9790
 8035SOL    HW235742   0.665   1.889   4.967 -0.8438 -1.1166 -0.3063
 8036SOL     OW35743   0.728   3.695  15.296 -0.7919  0.0030 -0.0743
 8036SOL    HW135744   0.774   3.629  15.245  0.5977  0.6312  0.3743
 8036SOL    HW235745   0.800   3.757  15.310  0.9126 -1.5044 -2.2318
 8037SOL     OW35746   2.253   0.800   1.612  0.3703 -0.6758 -0.0347
 8037SOL    HW135747   2.275   0.750   1.533 -0.2630 -0.7142 -0.1846
 8037SOL    HW235748   2.200   0.869   1.573  1.3538 -0.1760 -0.4819
 8038SOL     OW35749   0.396   1.489   0.633  0.4566 -0.7094 -0.0149
 8038SOL    HW135750   0.441   1.485   0.548 -1.7595  2.2440 -1.3184
 8038SOL    HW235751   0.384   1.395   0.649 -2.4892 -0.4823 -0.8590
 8039SOL     OW35752   1.086   3.258   5.799  0.1108  0.2287 -0.4173
 8039SOL    HW135753   1.147   3.191   5.771 -0.6400 -0.7901  0.4012
 8039SOL    HW235754   1.135   3.340   5.790 -0.3198  0.5333  0.0409
 8040SOL     OW35755   0.210   2.010   5.297  0.3773  0.4943  0.0466
 8040SOL    HW135756   0.158   1.951   5.352 -0.0565  0.4564 -0.4008
 8040SOL    HW235757   0.175   1.992   5.210 -0.9034  3.5629 -0.0983
 8041SOL     OW35758   1.699   2.845   3.766 -0.2005  0.6933  0.4362
 8041SOL    HW135759   1.780   2.853   3.715 -0.6313 -0.7705 -0.4685
 8041SOL    HW235760   1.663   2.762   3.736 -2.0819  1.7792 -0.2681
 8042SOL     OW35761   1.828   3.774   3.453  0.7850  0.2086  0.2512
 8042SOL    HW135762   1.847   3.854   3.404  1.3525 -0.9311 -1.3846
 8042SOL    HW235763   1.733   3.773   3.461  0.7131  1.5438 -0.5931
 8043SOL     OW35764   1.067   4.282   3.013  0.0714  0.2164 -0.6081
 8043SOL    HW135765   1.104   4.270   3.101  1.3028  1.1075 -1.0081
 8043SOL    HW235766   1.142   4.300   2.957  0.0140  0.5702 -0.5693
 8044SOL     OW35767   4.340   3.461  12.589 -0.6094 -0.3874 -0.1297
 8044SOL    HW135768   4.283   3.390  12.619 -3.3477  1.1243 -1.7765
 8044SOL    HW235769   4.414   3.454  12.649 -0.7081  0.9544  0.1295
 8045SOL     OW35770   3.226   3.862   5.050  0.3005 -0.6010  0.2595
 8045SOL    HW135771   3.319   3.878   5.032  0.6058 -1.2916  1.2088
 8045SOL    HW235772   3.190   3.951   5.053  1.9044  0.1094 -1.8910
 8046SOL     OW35773   2.983   3.108   4.709  0.0522 -0.0021 -0.1232
 8046SOL    HW135774   3.029   3.189   4.684  0.1504 -0.0708 -0.1665
 8046SOL    HW235775   3.013   3.044   4.644 -3.5641 -0.9588 -0.8107
 8047SOL     OW35776   2.623   1.583   8.459  0.5234  0.2844  0.4798
 8047SOL    HW135777   2.610   1.568   8.365 -0.7974 -2.1335  1.0596
 8047SOL    HW235778   2.713   1.550   8.472  1.2538  2.1003  0.0062
 8048SOL     OW35779   1.595   2.307   6.123  0.5088 -0.1453 -0.1739
 8048SOL    HW135780   1.588   2.401   6.138  0.1954 -0.5975  2.5502
 8048SOL    HW235781   1.655   2.306   6.049  1.3638 -0.7255  0.5193
 8049SOL     OW35782   0.756   2.236   8.516 -0.0113 -0.0967  0.3520
 8049SOL    HW135783   0.797   2.310   8.472  1.6911 -1.5166 -0.4480
 8049SOL    HW235784   0.806   2.221   8.596  1.7910  0.2227 -0.7284
 8050SOL     OW35785   4.656   3.304   1.186 -0.0062  0.1116 -0.1554
 8050SOL    HW135786   0.006   3.341   1.198  0.3636 -1.0862  0.7608
 8050SOL    HW235787   4.679   3.222   1.144 -2.1062  0.0691 -1.2536
 8051SOL     OW35788   4.227   4.417   5.172 -0.5044 -0.1440 -0.1924
 8051SOL    HW135789   4.195   4.416   5.081 -0.1789 -1.1102 -0.2948
 8051SOL    HW235790   4.145   4.385   5.209 -0.7548 -1.7926 -2.1584
 8052SOL     OW35791   0.721   2.242   5.928 -0.0730 -0.3034  0.4727
 8052SOL    HW135792   0.725   2.150   5.953  1.6197 -0.1300  0.8494
 8052SOL    HW235793   0.771   2.284   5.998  1.5812 -1.6778  0.1162
 8053SOL     OW35794   4.065   2.432   7.523 -0.0791 -0.1909 -0.5662
 8053SOL    HW135795   4.130   2.400   7.585 -1.9115 -1.2826  0.8317
 8053SOL    HW235796   4.058   2.357   7.463 -1.2914 -0.9085  0.4559
 8054SOL     OW35797   4.075   2.080   2.563  0.0024  0.1082  0.5090
 8054SOL    HW135798   4.156   2.036   2.538  0.4330  0.9238  0.4663
 8054SOL    HW235799   4.062   2.051   2.653  0.4314 -0.0594  0.5194
 8055SOL     OW35800   4.204   4.676   9.102  0.1580 -0.2446 -0.5945
 8055SOL    HW135801   4.167   0.005   9.045  1.8167 -0.4322 -1.8972
 8055SOL    HW235802   4.138   4.661   9.170  1.8893 -0.5447  1.0235
 8056SOL     OW35803   2.133   4.096   6.574  0.1745  0.6529 -0.0653
 8056SOL    HW135804   2.210   4.150   6.592  0.4118 -0.5478  2.4407
 8056SOL    HW235805   2.082   4.105   6.655  0.7630  0.7678  0.2945
 8057SOL     OW35806   3.131   3.163   4.981 -0.1181 -0.7381 -0.0794
 8057SOL    HW135807   3.036   3.151   4.983 -0.0990 -1.0736 -0.9443
 8057SOL    HW235808   3.147   3.223   4.908  1.0867 -0.2406  0.6113
 8058SOL     OW35809   0.025   3.853  15.545  0.7231 -0.9293 -0.5137
 8058SOL    HW135810   0.030   3.867  15.451  1.1627  0.3356 -0.2972
 8058SOL    HW235811   4.736   3.761  15.542  0.1572 -0.8258  1.2541
 8059SOL     OW35812   2.205   0.677  11.320  0.1728 -0.1523  0.0497
 8059SOL    HW135813   2.153   0.600  11.300  0.0777 -0.1961  0.4812
 8059SOL    HW235814   2.210   0.721  11.235  2.0015  0.4249  0.4537
 8060SOL     OW35815   0.911   1.378  12.773  0.3154  0.0434  0.0262
 8060SOL    HW135816   0.967   1.316  12.725  0.4335 -0.2346  0.5240
 8060SOL    HW235817   0.980   1.428  12.817  2.5465 -2.3794 -0.6594
 8061SOL     OW35818   3.710   1.943   4.946 -0.2461 -0.0664  0.1474
 8061SOL    HW135819   3.783   1.895   4.905  0.3615  0.4003  0.6843
 8061SOL    HW235820   3.755   2.011   4.997  1.2164  0.2079 -1.5076
 8062SOL     OW35821   0.420   1.546  11.613  0.2297  0.2248  0.2844
 8062SOL    HW135822   0.411   1.593  11.695  0.5699  1.7891 -0.5813
 8062SOL    HW235823   0.491   1.492  11.648 -1.8335 -1.3593  2.0281
 8063SOL     OW35824   0.804   4.357   6.651  0.0993 -0.2135  0.3059
 8063SOL    HW135825   0.744   4.361   6.578 -0.0916 -0.7000  0.4339
 8063SOL    HW235826   0.863   4.291   6.613  0.5587  0.4027 -0.0431
 8064SOL     OW35827   3.734   2.311   4.499  0.3822 -0.2509 -0.6927
 8064SOL    HW135828   3.743   2.226   4.457  0.0334 -0.3341 -0.5996
 8064SOL    HW235829   3.762   2.365   4.425 -0.3742  0.7716 -0.2338
 8065SOL     OW35830   0.099   2.871   4.448 -0.4896  0.3462 -0.1190
 8065SOL    HW135831   0.044   2.904   4.519 -0.7125  0.7360 -0.4675
 8065SOL    HW235832   0.035   2.831   4.388 -0.5549  0.5054 -0.1560
 8066SOL     OW35833   1.600   1.650   0.417  0.2537 -0.1508  0.5883
 8066SOL    HW135834   1.661   1.588   0.376 -0.0523 -0.1340  0.1001
 8066SOL    HW235835   1.573   1.616   0.502 -0.1590 -1.9320 -0.2575
 8067SOL     OW35836   4.269   1.781   4.440  0.5953  0.1879  0.8809
 8067SOL    HW135837   4.236   1.742   4.359 -0.6408 -2.5410  2.6960
 8067SOL    HW235838   4.295   1.866   4.403 -0.3967 -0.3304 -1.0059
 8068SOL     OW35839   4.429   0.730   6.409  0.4799 -0.0203  0.7028
 8068SOL    HW135840   4.367   0.710   6.480 -0.5479  0.2301 -0.1319
 8068SOL    HW235841   4.396   0.811   6.371 -0.5553 -0.7174  0.1104
 8069SOL     OW35842   3.059   4.063   5.662  0.4467 -0.1702  0.0964
 8069SOL    HW135843   3.130   4.126   5.650 -0.0302  0.0223 -1.7777
 8069SOL    HW235844   3.020   4.066   5.575  1.4753  1.4478 -0.3077
 8070SOL     OW35845   4.552   1.034  13.958  0.5986  0.1257 -0.9058
 8070SOL    HW135846   4.536   1.126  13.982  1.6100  0.3747 -1.1768
 8070SOL    HW235847   4.624   1.006  14.015  1.2065 -0.4126 -1.9333
 8071SOL     OW35848   3.795   0.446  10.064 -0.4869 -0.4588 -0.0279
 8071SOL    HW135849   3.801   0.500  10.142  1.4382 -0.4694 -0.1776
 8071SOL    HW235850   3.877   0.399  10.051  0.1985  0.5582  0.6498
 8072SOL     OW35851   3.021   3.410   7.664  0.1793 -0.7152 -0.1641
 8072SOL    HW135852   3.004   3.373   7.751  1.2778 -1.7528 -0.3858
 8072SOL    HW235853   3.115   3.394   7.652  0.6637  1.3707  0.8054
 8073SOL     OW35854   4.462   3.712   5.225  0.0673  0.7466  0.4926
 8073SOL    HW135855   4.453   3.672   5.312 -1.7254  2.6592  1.1674
 8073SOL    HW235856   4.502   3.795   5.250  0.6817  0.9988 -1.3422
 8074SOL     OW35857   1.228   1.838  12.876 -0.1462  0.0989  0.0410
 8074SOL    HW135858   1.319   1.828  12.904 -0.1354  1.2997  0.4434
 8074SOL    HW235859   1.209   1.760  12.824  0.0773  0.6805 -0.9196
 8075SOL     OW35860   4.658   4.432  17.503  0.2276 -0.1004  0.3871
 8075SOL    HW135861   4.713   4.485  17.561 -1.2714 -0.5876  2.2508
 8075SOL    HW235862   4.597   4.411  17.574 -0.2914  2.1607  0.6360
 8076SOL     OW35863   4.473   2.010   3.840 -0.0638  0.2067  0.1051
 8076SOL    HW135864   4.413   1.960   3.785 -3.1868  0.9836  2.8739
 8076SOL    HW235865   4.532   1.941   3.870  0.3240  1.1621  1.5221
 8077SOL     OW35866   3.979   1.725   4.358  0.2509 -0.0758  0.6001
 8077SOL    HW135867   4.035   1.801   4.370 -0.0332  0.2845 -0.4204
 8077SOL    HW235868   3.991   1.682   4.443  3.9435  0.4147  0.3120
 8078SOL     OW35869   3.517   1.444  17.471 -0.0403 -0.0146 -0.4854
 8078SOL    HW135870   3.490   1.506  17.404  1.0485  1.7722  0.7468
 8078SOL    HW235871   3.571   1.492  17.534  1.7422 -2.4530 -0.1247
 8079SOL     OW35872   1.484   4.015   3.615  0.0056 -0.4302  0.0742
 8079SOL    HW135873   1.461   3.926   3.589 -0.7127 -0.1523 -0.2381
 8079SOL    HW235874   1.451   4.016   3.705  0.5430  0.2879  0.2623
 8080SOL     OW35875   0.739   4.616   6.989  0.2563  0.3540 -0.2815
 8080SOL    HW135876   0.788   4.569   6.922 -0.2289  1.2526 -1.2609
 8080SOL    HW235877   0.656   4.625   6.942  0.2499 -0.6599 -0.4629
 8081SOL     OW35878   4.263   4.513   3.038 -0.4662 -0.2730 -0.0045
 8081SOL    HW135879   4.183   4.536   3.085  0.9908  0.9092  1.9196
 8081SOL    HW235880   4.278   4.584   2.975 -0.8739 -0.3766 -0.2224
 8082SOL     OW35881   3.464   1.319   2.073  0.1052 -0.4765 -0.0258
 8082SOL    HW135882   3.465   1.353   2.163 -2.3668 -1.1629  0.2777
 8082SOL    HW235883   3.427   1.233   2.093 -1.9578  0.5236  0.5525
 8083SOL     OW35884   3.154   4.428   2.926 -0.0589 -0.5366  0.6299
 8083SOL    HW135885   3.092   4.463   2.862 -1.8046 -3.7412  0.5897
 8083SOL    HW235886   3.178   4.346   2.883  0.3313 -0.1267  0.0679
 8084SOL     OW35887   4.547   3.230   4.599 -0.1839  0.1901  0.2688
 8084SOL    HW135888   4.615   3.295   4.616  1.3551 -1.8704  2.1213
 8084SOL    HW235889   4.534   3.255   4.507 -0.7223 -0.7365  0.0935
 8085SOL     OW35890   0.327   0.860   9.322  0.5508  0.1657 -0.0682
 8085SOL    HW135891   0.379   0.808   9.383 -0.5643  1.3293  1.8508
 8085SOL    HW235892   0.240   0.835   9.354  0.5320  1.0980  0.5972
 8086SOL     OW35893   0.225   1.407   0.358  0.5051  1.0563 -0.0393
 8086SOL    HW135894   0.182   1.350   0.295  1.2693 -2.0666  2.2364
 8086SOL    HW235895   0.189   1.366   0.437 -0.8327  2.3441  0.0078
 8087SOL     OW35896   2.520   0.278  12.047  0.5367  0.2212 -0.9005
 8087SOL    HW135897   2.569   0.348  12.090  0.3118 -1.2321  1.7006
 8087SOL    HW235898   2.570   0.201  12.075  0.4483  1.0615  1.5872
 8088SOL     OW35899   1.665   0.647   6.827  0.1161 -0.5881 -0.2918
 8088SOL    HW135900   1.747   0.622   6.869 -0.4583 -0.5480  0.8627
 8088SOL    HW235901   1.617   0.568   6.803 -1.4628  0.0722  0.6872
 8089SOL     OW35902   2.675   3.256   3.299 -0.2876  0.4297  0.0389
 8089SOL    HW135903   2.612   3.221   3.236  0.2006 -0.3123 -0.0313
 8089SOL    HW235904   2.619   3.295   3.366 -1.4046  0.1215 -0.7121
 8090SOL     OW35905   1.501   0.364   2.754 -0.6853 -0.5979 -0.0951
 8090SOL    HW135906   1.536   0.347   2.667 -1.8339  0.0350 -0.6778
 8090SOL    HW235907   1.530   0.453   2.777 -2.2459 -0.0623 -0.2149
 8091SOL     OW35908   2.698   0.367  14.218  0.6613 -0.4888 -0.2070
 8091SOL    HW135909   2.770   0.363  14.281 -0.4641  0.8985  1.1727
 8091SOL    HW235910   2.678   0.277  14.194  2.4849 -0.8457 -0.3660
 8092SOL     OW35911   2.165   0.976  11.647  0.2820  0.0490 -0.0431
 8092SOL    HW135912   2.210   0.894  11.666 -1.3493 -0.5450  1.2399
 8092SOL    HW235913   2.230   1.010  11.585  0.7559 -1.3743 -0.3107
 8093SOL     OW35914   4.229   1.174  16.810  0.2581 -0.3830  0.3641
 8093SOL    HW135915   4.199   1.195  16.721 -0.4283  1.5626  1.0450
 8093SOL    HW235916   4.230   1.079  16.813  0.4074 -0.3696  0.7416
 8094SOL     OW35917   2.313   3.064   3.660  0.0490  0.7821 -0.2441
 8094SOL    HW135918   2.298   3.008   3.736 -1.7840 -0.9989 -1.9120
 8094SOL    HW235919   2.391   3.109   3.690 -0.4250  0.3552  1.6185
 8095SOL     OW35920   3.054   2.603  15.837  0.5510  0.5187 -0.0647
 8095SOL    HW135921   2.988   2.553  15.885  0.8176 -1.0333 -1.2996
 8095SOL    HW235922   3.128   2.544  15.851 -0.3610 -0.3552  1.1543
 8096SOL     OW35923   2.517   3.914   0.084  0.5086 -0.3002  0.0075
 8096SOL    HW135924   2.438   3.951   0.045  1.4635  0.6943 -0.9922
 8096SOL    HW235925   2.499   3.822   0.099  0.0958 -0.1310  0.5474
 8097SOL     OW35926   4.095   3.121  13.240  0.4387 -0.3523 -0.3605
 8097SOL    HW135927   4.169   3.181  13.238  0.1023  0.1353  1.1287
 8097SOL    HW235928   4.142   3.038  13.240  2.1635  0.6185 -0.9050
 8098SOL     OW35929   0.804   1.224  15.736 -0.1339  0.0021  0.4680
 8098SOL    HW135930   0.853   1.145  15.760 -0.5723  0.2903  2.3349
 8098SOL    HW235931   0.715   1.193  15.749  0.3227 -1.2714  0.5228
 8099SOL     OW35932   3.999   4.536   8.522 -0.3307  0.0214  0.4728
 8099SOL    HW135933   3.926   4.552   8.583 -0.6409  0.1925  0.0591
 8099SOL    HW235934   4.072   4.513   8.579 -0.5159 -0.4501  0.5178
 8100SOL     OW35935   1.198   3.058   0.112  0.5773 -0.5419  0.4080
 8100SOL    HW135936   1.285   3.063   0.072  0.3329  1.0832  0.0874
 8100SOL    HW235937   1.184   3.145   0.148 -1.0247 -0.8079  0.4246
 8101SOL     OW35938   0.224   0.534   1.788 -0.1553  0.3825  0.3986
 8101SOL    HW135939   0.304   0.497   1.826  0.0011 -0.0298 -0.3248
 8101SOL    HW235940   0.246   0.622   1.758  1.0107 -0.6039 -1.5944
 8102SOL     OW35941   4.163   3.977  11.858 -0.3035  0.2837  0.1444
 8102SOL    HW135942   4.133   3.900  11.907 -1.1855  0.9224  0.5975
 8102SOL    HW235943   4.255   3.966  11.884  0.6227 -0.0084 -3.2695
 8103SOL     OW35944   3.901   3.815  12.314  0.2281  0.1613  0.1242
 8103SOL    HW135945   3.898   3.729  12.354 -1.2047 -0.8397 -2.1469
 8103SOL    HW235946   3.826   3.858  12.356  0.6403  2.1103 -1.1044
 8104SOL     OW35947   3.824   3.228  16.845 -0.0899 -0.2319 -0.0863
 8104SOL    HW135948   3.762   3.160  16.817  0.2897 -0.9588  0.8528
 8104SOL    HW235949   3.902   3.177  16.822  0.1883 -0.3599  1.1744
 8105SOL     OW35950   3.808   2.309  17.672  0.5422 -0.3329 -0.4947
 8105SOL    HW135951   3.791   2.329  17.580 -1.7452 -0.5957 -0.1174
 8105SOL    HW235952   3.841   2.392  17.707 -1.5198 -0.1191  0.9367
 8106SOL     OW35953   0.928   0.649   7.387 -0.2779 -0.0120 -0.1716
 8106SOL    HW135954   0.987   0.723   7.401 -0.3946  0.0856 -0.1948
 8106SOL    HW235955   0.965   0.629   7.301 -0.4358  1.4636 -0.5719
 8107SOL     OW35956   2.955   4.495   5.803 -0.1382 -0.2650 -0.0883
 8107SOL    HW135957   3.007   4.552   5.746  0.4140 -0.6025  0.0761
 8107SOL    HW235958   3.035   4.460   5.842  0.1889  0.4924 -0.0627
 8108SOL     OW35959   1.791   3.884   6.047  0.1318  0.1819  1.0530
 8108SOL    HW135960   1.760   3.889   5.956 -0.0629  0.1935  1.1200
 8108SOL    HW235961   1.761   3.796   6.067  0.5524  0.3354  2.3260
 8109SOL     OW35962   1.374   1.579   0.703 -0.5381 -0.1994  0.4008
 8109SOL    HW135963   1.441   1.648   0.703 -1.1893  0.4213 -3.0747
 8109SOL    HW235964   1.399   1.540   0.787  0.0009 -2.6158 -0.8795
 8110SOL     OW35965   0.908   0.663  15.712  0.1682 -0.5615 -0.3358
 8110SOL    HW135966   0.933   0.572  15.695 -0.6284 -1.0614  1.1356
 8110SOL    HW235967   0.992   0.699  15.739 -0.4071  0.1994  0.4297
 8111SOL     OW35968   1.361   2.114  16.690 -0.3052  0.6044 -0.5088
 8111SOL    HW135969   1.336   2.205  16.704  0.4842  1.0576 -2.0678
 8111SOL    HW235970   1.366   2.075  16.777  0.2285  0.3555 -0.6547
 8112SOL     OW35971   2.743   2.020  16.276  0.4483  0.2273  0.1327
 8112SOL    HW135972   2.667   1.963  16.263  0.2340  0.3651  0.7979
 8112SOL    HW235973   2.743   2.084  16.205 -0.3694 -0.2871 -0.3336
 8113SOL     OW35974   3.961   0.289   7.364 -0.4440  0.1028 -0.0125
 8113SOL    HW135975   3.994   0.354   7.426 -2.9791  0.3409  1.0899
 8113SOL    HW235976   3.867   0.309   7.357 -0.0219  1.4979 -1.4904
 8114SOL     OW35977   2.014   3.733  15.141  0.7203 -0.1899  0.7547
 8114SOL    HW135978   2.037   3.760  15.230  0.9405 -0.8830  0.9038
 8114SOL    HW235979   1.959   3.808  15.119  2.4995  1.5865  2.3255
 8115SOL     OW35980   3.679   2.851   1.706  0.1546 -0.1849  0.3298
 8115SOL    HW135981   3.591   2.872   1.736 -0.5988 -2.0852 -0.5688
 8115SOL    HW235982   3.681   2.772   1.759  0.7372 -0.0192  0.5583
 8116SOL     OW35983   0.815   3.754   3.283 -0.8164 -0.4717 -0.1914
 8116SOL    HW135984   0.795   3.790   3.369 -0.7280  1.6723 -1.0803
 8116SOL    HW235985   0.725   3.736   3.257 -0.7745 -0.1893 -0.5286
 8117SOL     OW35986   2.891   3.643   7.373  0.3639 -0.0561  0.1780
 8117SOL    HW135987   2.852   3.696   7.304  1.1659  0.1083 -0.1548
 8117SOL    HW235988   2.823   3.652   7.440 -0.4980  0.3841 -0.7615
 8118SOL     OW35989   0.182   3.787   0.581 -0.0467  0.8781 -0.2175
 8118SOL    HW135990   0.149   3.705   0.617 -3.3912  3.0341  1.6111
 8118SOL    HW235991   0.218   3.762   0.496  0.9624 -1.7700  0.9746
 8119SOL     OW35992   1.932   1.665   0.052  0.2132  0.2332  0.1739
 8119SOL    HW135993   1.839   1.670   0.029 -0.0634 -0.9754  1.0306
 8119SOL    HW235994   1.924   1.662   0.147 -0.3101  0.9973  0.1565
 8120SOL     OW35995   2.361   4.715   1.871 -0.6092 -0.0086  0.3394
 8120SOL    HW135996   2.276   4.695   1.831 -0.0950  0.6613 -1.0971
 8120SOL    HW235997   2.391   4.631   1.905 -3.4321 -0.6160  1.3014
 8121SOL     OW35998   0.457   2.424   1.250  0.1717  0.6193 -0.7594
 8121SOL    HW135999   0.551   2.407   1.244  0.0696  0.3268 -1.5497
 8121SOL    HW236000   0.438   2.411   1.343  2.2471 -1.3783 -0.6349
 8122SOL     OW36001   2.998   3.056   3.265 -0.1092 -0.0322 -0.4978
 8122SOL    HW136002   2.981   3.047   3.172  1.0211 -2.8720 -0.4317
 8122SOL    HW236003   2.961   2.974   3.297  0.1199 -1.2631 -3.4312
 8123SOL     OW36004   2.040   0.644  13.384  0.6074 -0.0617 -0.3343
 8123SOL    HW136005   2.038   0.651  13.480 -0.7691 -0.9164 -0.2904
 8123SOL    HW236006   2.034   0.548  13.379  1.2287 -0.0725 -0.8182
 8124SOL     OW36007   1.895   2.713   7.471 -0.5642 -0.1382 -0.0202
 8124SOL    HW136008   1.814   2.668   7.452 -0.4335 -0.1143 -0.6387
 8124SOL    HW236009   1.885   2.718   7.566 -2.5589 -0.4513 -0.2205
 8125SOL     OW36010   1.632   2.813  17.222 -0.3950 -0.3632 -0.2908
 8125SOL    HW136011   1.579   2.893  17.219  1.1835  0.7934  2.6824
 8125SOL    HW236012   1.721   2.844  17.242 -0.2627  0.0173 -1.4950
 8126SOL     OW36013   0.835   2.313   5.064  0.2152 -0.1837  0.0994
 8126SOL    HW136014   0.872   2.279   4.982 -1.0664  1.2632 -1.0814
 8126SOL    HW236015   0.907   2.307   5.126 -0.0677 -0.8090  0.3582
 8127SOL     OW36016   2.662   0.432   7.259 -0.4581 -0.0460 -0.5403
 8127SOL    HW136017   2.744   0.442   7.307 -1.1006 -0.4918  0.6407
 8127SOL    HW236018   2.641   0.517   7.220 -2.3842 -0.1271  0.3462
 8128SOL     OW36019   1.862   3.601  17.035 -0.8710 -0.5660 -0.1011
 8128SOL    HW136020   1.868   3.613  16.940 -1.2261 -1.0930 -0.1907
 8128SOL    HW236021   1.865   3.506  17.044  0.6265 -0.5733 -0.6392
 8129SOL     OW36022   1.097   4.335  17.135  0.0292 -0.1380  0.3961
 8129SOL    HW136023   1.068   4.301  17.050  0.5899  1.2242 -0.3462
 8129SOL    HW236024   1.135   4.253  17.168  0.2186 -0.2656 -0.1245
 8130SOL     OW36025   1.861   2.171   8.918  0.1853  0.4312 -0.0668
 8130SOL    HW136026   1.956   2.170   8.908  0.4069 -1.2105  2.0093
 8130SOL    HW236027   1.854   2.139   9.008 -0.0501 -1.3031 -0.7019
 8131SOL     OW36028   3.148   2.990   3.784  0.0690 -0.0709  0.8075
 8131SOL    HW136029   3.059   3.007   3.815 -0.2379  1.7396 -1.0368
 8131SOL    HW236030   3.125   2.917   3.726 -1.3452 -0.1820  1.4960
 8132SOL     OW36031   2.115   1.392   0.905 -0.1828  0.0764 -0.1131
 8132SOL    HW136032   2.210   1.388   0.918 -0.3644  1.6168  1.6764
 8132SOL    HW236033   2.104   1.446   0.983 -1.0002  1.0490 -0.9043
 8133SOL     OW36034   3.384   0.016   9.282  0.0160 -0.1805 -0.5496
 8133SOL    HW136035   3.380   4.721   9.372 -1.5414 -1.6464 -1.1723
 8133SOL    HW236036   3.338   4.687   9.232  1.5460 -1.3655 -0.3932
 8134SOL     OW36037   3.387   1.934   7.692 -0.0408 -0.1257  0.0792
 8134SOL    HW136038   3.475   1.899   7.696  0.3939  0.8545 -0.8283
 8134SOL    HW236039   3.356   1.892   7.612  0.4775 -0.7724  0.2236
 8135SOL     OW36040   2.722   0.106   6.622 -0.5617  0.2431  0.2353
 8135SOL    HW136041   2.646   0.086   6.677  0.0592 -0.1600  0.9614
 8135SOL    HW236042   2.780   0.039   6.658 -0.4705  0.2464  0.0959
 8136SOL     OW36043   2.972   1.758   2.857  0.2367 -0.4437 -0.2784
 8136SOL    HW136044   3.036   1.805   2.804 -0.8396  0.5889 -0.6514
 8136SOL    HW236045   2.944   1.692   2.795 -0.5420 -0.7028  0.3515
 8137SOL     OW36046   0.840   3.371   9.639 -0.3794 -0.2371 -0.5644
 8137SOL    HW136047   0.851   3.369   9.734 -0.9051 -1.2208 -0.5178
 8137SOL    HW236048   0.901   3.437   9.607  0.2068  0.2311  1.5415
 8138SOL     OW36049   1.537   1.910  10.681 -0.1225  0.2849  0.4107
 8138SOL    HW136050   1.630   1.926  10.698 -0.0376 -1.3321  1.4568
 8138SOL    HW236051   1.499   1.988  10.721 -2.4003 -0.2960 -0.5950
 8139SOL     OW36052   3.373   0.850   3.704  0.3711  0.1580 -0.2469
 8139SOL    HW136053   3.456   0.870   3.746 -0.1717  2.5988 -0.3561
 8139SOL    HW236054   3.337   0.788   3.768  3.8272 -1.4125  0.1643
 8140SOL     OW36055   2.573   2.630   8.901 -0.4761  0.1888 -0.3773
 8140SOL    HW136056   2.629   2.651   8.826 -0.6343 -0.2477 -0.6148
 8140SOL    HW236057   2.634   2.641   8.973 -0.3297  1.5807 -0.7028
 8141SOL     OW36058   1.506   0.402   5.297  0.2663  0.0526 -0.6533
 8141SOL    HW136059   1.446   0.359   5.359  1.3289  1.2466  1.2287
 8141SOL    HW236060   1.587   0.352   5.305  1.3989  1.6780 -2.0238
 8142SOL     OW36061   0.239   0.474   5.743  0.6459  0.3868  0.1323
 8142SOL    HW136062   0.280   0.428   5.669 -2.1432 -0.7458 -0.7139
 8142SOL    HW236063   0.235   0.564   5.708 -1.7568 -0.2761 -1.3138
 8143SOL     OW36064   3.834   3.933   1.526 -0.2528  0.3889  0.0601
 8143SOL    HW136065   3.793   3.932   1.613 -1.3900 -0.0190 -0.4760
 8143SOL    HW236066   3.922   3.955   1.555 -0.2040 -1.0484  0.9862
 8144SOL     OW36067   0.965   0.530   7.638  0.3262  0.2481 -0.0107
 8144SOL    HW136068   0.954   0.577   7.555 -1.9872  1.5844  1.0242
 8144SOL    HW236069   1.013   0.457   7.600  3.4306  1.2801  1.9481
 8145SOL     OW36070   0.371   1.445   3.519  0.5685  0.0276  0.3008
 8145SOL    HW136071   0.300   1.464   3.579  1.1404  0.4755  0.8337
 8145SOL    HW236072   0.342   1.379   3.455  0.0433  1.5649 -1.0465
 8146SOL     OW36073   3.114   1.829   6.453 -0.0266 -0.1453  0.1810
 8146SOL    HW136074   3.033   1.781   6.435 -0.7691  1.7172 -1.4522
 8146SOL    HW236075   3.169   1.809   6.377 -1.2911 -1.3417 -0.4261
 8147SOL     OW36076   0.989   2.184   0.194  0.5469  0.0428  0.4504
 8147SOL    HW136077   0.961   2.093   0.185  1.6138 -0.0922 -1.4198
 8147SOL    HW236078   1.034   2.189   0.279 -1.0097  0.7829  1.2232
 8148SOL     OW36079   3.764   3.029   2.052  0.0837  0.8338 -0.4972
 8148SOL    HW136080   3.828   3.093   2.084 -0.1617  2.4629 -3.2891
 8148SOL    HW236081   3.745   3.068   1.967  0.8955  0.5076 -0.8232
 8149SOL     OW36082   2.421   0.776   2.899  0.3179 -0.3557  0.2335
 8149SOL    HW136083   2.451   0.694   2.939  1.5597  0.1422  0.3122
 8149SOL    HW236084   2.332   0.756   2.872 -0.0438  3.1326 -1.0320
 8150SOL     OW36085   0.722   1.490   5.211 -0.5861  0.1907 -0.2002
 8150SOL    HW136086   0.758   1.411   5.171  3.4343  1.6175  0.6619
 8150SOL    HW236087   0.800   1.544   5.224 -0.4080 -0.1834  0.2821
 8151SOL     OW36088   0.115   1.603  13.803 -0.6146  0.0201 -0.2196
 8151SOL    HW136089   0.118   1.508  13.809  1.6612  0.1424  0.6869
 8151SOL    HW236090   0.048   1.617  13.736 -1.1619 -2.3632 -0.1430
 8152SOL     OW36091   4.703   0.909   8.174  0.2513 -0.2032 -1.2677
 8152SOL    HW136092   0.039   0.901   8.235 -1.9959  0.0912  1.4957
 8152SOL    HW236093   4.668   0.994   8.198  1.4953 -0.1112  0.2309
 8153SOL     OW36094   0.806   2.726   0.844 -0.3030  0.1867  0.0859
 8153SOL    HW136095   0.872   2.676   0.797 -0.1111 -0.0587  0.6224
 8153SOL    HW236096   0.724   2.694   0.806 -0.0052 -2.1165  1.3694
 8154SOL     OW36097   1.210   2.268   6.639 -0.0454  0.4560 -0.4772
 8154SOL    HW136098   1.268   2.341   6.657 -0.8561  1.0813 -0.4098
 8154SOL    HW236099   1.192   2.285   6.547 -0.3696  0.5030 -0.4050
 8155SOL     OW36100   0.516   3.467  15.703  0.6954 -0.0835 -0.1593
 8155SOL    HW136101   0.509   3.530  15.632  4.0785 -0.2432 -0.6167
 8155SOL    HW236102   0.433   3.477  15.750  0.3177 -0.9115 -0.6498
 8156SOL     OW36103   4.734   1.150   2.685  0.0453 -0.5108  0.4940
 8156SOL    HW136104   0.003   1.246   2.677  0.4744 -0.5727  0.1278
 8156SOL    HW236105   0.061   1.122   2.620 -0.3486  0.3421 -0.2728
 8157SOL     OW36106   3.480   3.236   1.825  0.5935 -0.6729 -0.0527
 8157SOL    HW136107   3.438   3.291   1.758 -1.5072 -0.7235  1.2063
 8157SOL    HW236108   3.482   3.298   1.898  1.9642 -0.1328 -0.5468
 8158SOL     OW36109   0.236   1.181   8.088  0.0751 -0.3381 -0.1289
 8158SOL    HW136110   0.286   1.225   8.156  0.9754 -1.3885 -0.1081
 8158SOL    HW236111   0.265   1.090   8.091  1.9683  0.1883 -2.4623
 8159SOL     OW36112   2.990   3.040  15.347 -0.4090 -0.4242  0.1752
 8159SOL    HW136113   3.011   3.100  15.275 -0.2319 -1.3582 -0.5626
 8159SOL    HW236114   2.960   3.097  15.417 -1.0212  0.1996 -0.5843
 8160SOL     OW36115   1.492   3.213  13.337 -0.3820 -0.5920  0.3901
 8160SOL    HW136116   1.447   3.199  13.255  0.2459 -0.6376  0.0510
 8160SOL    HW236117   1.557   3.145  13.359  0.2291 -0.5343 -1.2776
 8161SOL     OW36118   3.631   2.253   8.054 -0.2779  0.0442 -0.2803
 8161SOL    HW136119   3.605   2.168   8.091 -1.2096  0.3489 -0.2375
 8161SOL    HW236120   3.712   2.237   8.005  0.3821 -0.7656  1.0803
 8162SOL     OW36121   3.377   2.656   4.949 -0.0880 -0.1444 -0.5811
 8162SOL    HW136122   3.396   2.629   5.039 -1.0406  0.7908 -0.1033
 8162SOL    HW236123   3.301   2.712   4.963 -0.0344 -0.3583  0.5000
 8163SOL     OW36124   2.534   3.180  17.462  0.0441  0.1853 -0.0155
 8163SOL    HW136125   2.583   3.196  17.543 -1.6103 -1.2140  1.2531
 8163SOL    HW236126   2.556   3.267  17.427 -1.9562  1.2030  1.2507
 8164SOL     OW36127   1.066   3.849   9.340  0.2185  0.0562  0.2790
 8164SOL    HW136128   0.988   3.793   9.341 -0.7604  1.3988 -2.6436
 8164SOL    HW236129   1.111   3.807   9.414 -1.9248  0.5290  1.8621
 8165SOL     OW36130   4.187   0.652   9.142  0.4426 -0.3425  0.5996
 8165SOL    HW136131   4.174   0.564   9.178  1.7534 -0.5694  0.5027
 8165SOL    HW236132   4.211   0.616   9.056  1.9647 -1.0605  1.3135
 8166SOL     OW36133   3.867   1.756  10.147 -0.1755  0.1192 -0.1788
 8166SOL    HW136134   3.838   1.664  10.141 -0.6545  0.0895  2.8613
 8166SOL    HW236135   3.898   1.756  10.237  0.5111  0.4719 -0.4240
 8167SOL     OW36136   0.163   4.489  11.607 -0.5369 -0.7880  0.9197
 8167SOL    HW136137   0.079   4.521  11.641 -0.7571  1.0896 -1.4022
 8167SOL    HW236138   0.131   4.439  11.531  1.0338  1.4353 -1.1968
 8168SOL     OW36139   3.444   3.527   9.734 -0.2792  0.6252  0.2459
 8168SOL    HW136140   3.517   3.466   9.733  0.4037  1.4858 -2.5750
 8168SOL    HW236141   3.409   3.523   9.645  1.5743 -2.0437 -0.3720
 8169SOL     OW36142   2.239   2.993   1.823 -0.2242 -0.1179  0.3132
 8169SOL    HW136143   2.231   3.083   1.791 -1.6343 -0.7204 -1.0074
 8169SOL    HW236144   2.301   3.000   1.895  0.3443  0.0795 -0.1986
 8170SOL     OW36145   0.512   2.248   3.230  0.6843 -0.4614 -0.1183
 8170SOL    HW136146   0.594   2.214   3.266 -0.4109 -1.7491  1.1403
 8170SOL    HW236147   0.493   2.180   3.165 -0.0987 -3.7321  3.6188
 8171SOL     OW36148   4.079   1.579  15.868  0.3537  0.3907  0.1420
 8171SOL    HW136149   3.999   1.595  15.917  0.4717  1.6779 -0.0972
 8171SOL    HW236150   4.043   1.608  15.785  1.3442 -0.1425 -0.4838
 8172SOL     OW36151   4.298   4.274   4.647 -0.0510  0.2002  1.0270
 8172SOL    HW136152   4.288   4.189   4.605  1.2863  1.9462 -2.7950
 8172SOL    HW236153   4.386   4.304   4.627 -0.5775  0.4081 -1.0025
 8173SOL     OW36154   1.225   4.236   7.409 -0.2634 -0.3975 -0.1439
 8173SOL    HW136155   1.269   4.284   7.340 -2.1401  0.6912 -0.5984
 8173SOL    HW236156   1.279   4.157   7.411  0.1704 -0.0123  3.6135
 8174SOL     OW36157   2.899   3.343  11.110 -0.2957 -0.0505  0.5571
 8174SOL    HW136158   2.893   3.438  11.120 -0.6943 -0.1200  0.9916
 8174SOL    HW236159   2.900   3.309  11.199  0.6100 -0.3301  0.4378
 8175SOL     OW36160   2.696   4.292   8.483 -0.4148 -0.6706  0.4100
 8175SOL    HW136161   2.760   4.353   8.448  0.0705 -1.4204 -0.0108
 8175SOL    HW236162   2.618   4.316   8.433 -1.6249 -3.6666  0.8299
 8176SOL     OW36163   3.479   0.945  11.894 -0.0346  0.1766 -0.3244
 8176SOL    HW136164   3.471   0.884  11.821 -2.7963  1.9307 -1.4934
 8176SOL    HW236165   3.408   1.003  11.866 -0.5159  0.0913  0.7117
 8177SOL     OW36166   4.212   3.456   3.628  0.0540 -0.8751 -0.2516
 8177SOL    HW136167   4.307   3.451   3.627  0.0151 -1.4186 -0.7612
 8177SOL    HW236168   4.174   3.423   3.547 -0.3494  0.8745 -0.7737
 8178SOL     OW36169   3.835   2.735   2.042 -0.0052  0.1298  0.0208
 8178SOL    HW136170   3.874   2.724   2.129  2.3692  0.6970 -0.9604
 8178SOL    HW236171   3.816   2.828   2.031 -1.2711 -0.0537  0.6756
 8179SOL     OW36172   3.189   3.328  17.024 -0.3437 -0.1759  0.0642
 8179SOL    HW136173   3.191   3.370  17.110  0.3875 -0.8163  0.3600
 8179SOL    HW236174   3.241   3.389  16.973  0.1589 -1.5060 -1.0179
 8180SOL     OW36175   1.500   1.279  17.231  0.5902 -0.1423  0.4287
 8180SOL    HW136176   1.570   1.224  17.195  1.3407 -0.3216  2.1507
 8180SOL    HW236177   1.438   1.262  17.161 -0.7346  0.2421  1.5135
 8181SOL     OW36178   0.136   4.140   2.313 -0.5523 -0.0062 -0.2128
 8181SOL    HW136179   0.074   4.121   2.243 -0.3963 -0.8766 -0.1148
 8181SOL    HW236180   0.198   4.195   2.265 -1.1031  0.8282  0.0382
 8182SOL     OW36181   0.506   0.661   3.349  0.1369 -0.4724  0.0571
 8182SOL    HW136182   0.460   0.585   3.312  0.2898 -1.8523  2.6757
 8182SOL    HW236183   0.596   0.630   3.354  0.4381  0.5693  1.0488
 8183SOL     OW36184   2.798   0.634   7.092  0.2450 -0.1641  0.2861
 8183SOL    HW136185   2.891   0.626   7.113 -0.1362 -0.3302  1.9311
 8183SOL    HW236186   2.775   0.725   7.107 -0.7097 -0.3303 -0.1268
 8184SOL     OW36187   1.164   0.362   5.897 -0.3841  0.0902  0.2032
 8184SOL    HW136188   1.127   0.277   5.876 -0.3173  0.2578 -0.5765
 8184SOL    HW236189   1.096   0.410   5.849 -1.0640 -0.8769  0.2025
 8185SOL     OW36190   2.270   4.488  16.277 -0.1659 -0.1355  0.2358
 8185SOL    HW136191   2.197   4.471  16.336 -1.2024  0.1251 -0.9786
 8185SOL    HW236192   2.235   4.544  16.208  0.4781 -2.6257 -2.1442
 8186SOL     OW36193   1.308   3.122  11.798  0.4564 -0.6925 -0.5893
 8186SOL    HW136194   1.235   3.153  11.853  0.6980  0.7951 -1.1149
 8186SOL    HW236195   1.336   3.052  11.857  0.6763 -0.3470 -0.2801
 8187SOL     OW36196   1.919   3.951  10.977 -0.1720  0.0711 -0.7866
 8187SOL    HW136197   1.920   3.897  10.898  3.3259  0.4966 -1.0350
 8187SOL    HW236198   2.003   3.928  11.017 -0.3787 -0.2262 -0.5312
 8188SOL     OW36199   1.025   4.650   7.880 -0.0004  0.3861  0.5934
 8188SOL    HW136200   1.035   4.697   7.963  1.0432 -2.0512  1.8407
 8188SOL    HW236201   1.115   4.637   7.851 -0.7839 -2.3020 -0.5949
 8189SOL     OW36202   1.595   4.320   9.445  0.0219 -0.2839  0.2160
 8189SOL    HW136203   1.575   4.247   9.503  0.9086 -0.2352  0.5853
 8189SOL    HW236204   1.520   4.377   9.462  1.9283  2.1118  0.6198
 8190SOL     OW36205   1.896   3.953   1.521 -0.1270  0.1046 -0.4439
 8190SOL    HW136206   1.801   3.952   1.508 -0.3757  0.5370  1.3789
 8190SOL    HW236207   1.904   3.881   1.584 -0.3444 -0.3046 -0.8825
 8191SOL     OW36208   0.043   0.010   8.496  0.5038 -0.3475 -0.3171
 8191SOL    HW136209   0.117   0.002   8.556 -0.1982 -1.3822  0.4279
 8191SOL    HW236210   0.086   4.725   8.414  0.4413  0.0601 -0.4604
 8192SOL     OW36211   2.756   4.256   7.253 -0.2436  0.0657  0.5206
 8192SOL    HW136212   2.768   4.346   7.221  1.5119 -0.8137 -1.3103
 8192SOL    HW236213   2.685   4.232   7.194 -0.2422  1.6667 -0.1470
 8193SOL     OW36214   2.667   1.944  15.360  0.0151  0.2412 -0.1542
 8193SOL    HW136215   2.657   2.039  15.352  0.4228  0.2788 -0.2351
 8193SOL    HW236216   2.683   1.942  15.455 -0.9489 -0.9805 -0.0150
 8194SOL     OW36217   0.222   4.626  10.919 -0.2166 -0.5216  0.3482
 8194SOL    HW136218   0.264   4.547  10.886 -1.3219 -0.6106 -0.8367
 8194SOL    HW236219   0.285   4.657  10.984  0.1785 -1.8181  0.5743
 8195SOL     OW36220   1.755   3.266   4.946 -0.0590 -0.3317  0.3362
 8195SOL    HW136221   1.809   3.345   4.936  0.4422 -0.6591  0.4531
 8195SOL    HW236222   1.670   3.307   4.930  0.1319  0.4827  1.4048
 8196SOL     OW36223   0.673   2.009   3.525 -0.5432  0.5508 -0.1728
 8196SOL    HW136224   0.731   1.949   3.480  1.7846  0.8404  2.4568
 8196SOL    HW236225   0.670   1.970   3.612 -2.3445  0.4144 -0.2858
 8197SOL     OW36226   1.800   3.172   7.178  0.4300  0.1023 -0.4179
 8197SOL    HW136227   1.838   3.248   7.134 -1.3567  0.5353 -1.2360
 8197SOL    HW236228   1.722   3.151   7.127  0.1414 -0.4378  0.2449
 8198SOL     OW36229   0.838   1.495  14.153 -0.2742  0.0340  0.0875
 8198SOL    HW136230   0.860   1.551  14.228 -1.8154  0.9126 -0.1083
 8198SOL    HW236231   0.924   1.458  14.137 -0.3408 -1.0885  2.2354
 8199SOL     OW36232   0.314   2.832   5.506  0.0275  0.2490  0.3504
 8199SOL    HW136233   0.402   2.826   5.543  0.1349 -0.8528 -0.0708
 8199SOL    HW236234   0.310   2.742   5.474  0.4418  0.1287  0.6445
 8200SOL     OW36235   3.308   3.590   3.127  0.1544  0.0113  0.3466
 8200SOL    HW136236   3.300   3.513   3.183  2.5329 -1.1815 -0.9425
 8200SOL    HW236237   3.377   3.570   3.064  0.5498 -1.2680  1.1743
 8201SOL     OW36238   1.493   2.951   9.269  0.5583  0.0887  0.2430
 8201SOL    HW136239   1.565   2.893   9.245  2.7241  2.0297  2.0146
 8201SOL    HW236240   1.542   3.032   9.286  2.0813 -0.5793 -0.9917
 8202SOL     OW36241   2.428   4.670  16.438 -0.2022 -0.2874  0.2794
 8202SOL    HW136242   2.406   4.591  16.389  0.1415 -0.3682  0.2555
 8202SOL    HW236243   2.521   4.671  16.412 -0.5132 -0.3749 -0.8312
 8203SOL     OW36244   2.093   1.890   5.886 -0.5193 -0.7813 -0.1030
 8203SOL    HW136245   2.135   1.931   5.962  1.1935 -1.5786 -0.6152
 8203SOL    HW236246   2.072   1.808   5.931  1.8849 -1.9734 -1.1480
 8204SOL     OW36247   2.826   1.689   6.212  0.1407 -0.1386  0.0454
 8204SOL    HW136248   2.858   1.769   6.171 -1.7807  0.2998 -0.5963
 8204SOL    HW236249   2.860   1.634   6.142  0.6976 -0.0432  0.2399
 8205SOL     OW36250   3.208   3.596   8.496  0.0231 -0.4633 -0.6091
 8205SOL    HW136251   3.187   3.503   8.498 -2.2771 -0.0081 -3.1922
 8205SOL    HW236252   3.290   3.589   8.447  0.4189  0.8313 -0.1539
 8206SOL     OW36253   2.738   2.547   6.899  0.0045 -0.5890 -0.3834
 8206SOL    HW136254   2.737   2.507   6.813  2.9894  0.8442 -1.0742
 8206SOL    HW236255   2.677   2.486   6.941 -0.4381 -0.2736 -0.5682
 8207SOL     OW36256   0.526   1.039   9.350  0.3836 -0.3266  0.2888
 8207SOL    HW136257   0.511   1.015   9.441 -0.0427 -1.4207 -0.0599
 8207SOL    HW236258   0.488   0.963   9.306  0.0626  1.2676 -2.1785
 8208SOL     OW36259   3.082   0.004   8.283  0.1721 -0.8611 -0.0695
 8208SOL    HW136260   3.173   0.020   8.260  0.2005 -1.8799 -0.6274
 8208SOL    HW236261   3.093   4.669   8.344  0.4040 -1.6396 -1.0455
 8209SOL     OW36262   1.371   2.383  17.277  0.0870 -0.2415  0.3600
 8209SOL    HW136263   1.287   2.380  17.230  0.2950  0.4631 -0.0533
 8209SOL    HW236264   1.375   2.474  17.304 -3.2893 -0.1181  0.4036
 8210SOL     OW36265   3.865   1.670   8.941 -0.2454  0.6340 -0.2595
 8210SOL    HW136266   3.865   1.577   8.918  0.2242  0.0279  2.1812
 8210SOL    HW236267   3.868   1.715   8.857  1.1047  1.9986  0.5352
 8211SOL     OW36268   1.382   3.971   9.598  0.4908  0.0037 -0.1476
 8211SOL    HW136269   1.367   4.062   9.573 -1.3599 -0.4625 -0.7333
 8211SOL    HW236270   1.384   3.975   9.693 -1.1426  1.3694 -0.1756
 8212SOL     OW36271   1.776   0.210   9.996 -0.4283 -0.4769  0.3220
 8212SOL    HW136272   1.688   0.202  10.031 -0.0966 -2.2075  0.7855
 8212SOL    HW236273   1.827   0.231  10.074  0.6984  3.4455 -1.4797
 8213SOL     OW36274   0.746   2.963   0.096  0.0043  0.0443 -0.2628
 8213SOL    HW136275   0.651   2.970   0.097  0.1055  1.2772  0.3566
 8213SOL    HW236276   0.773   3.053   0.113  0.3226 -0.5107  2.1663
 8214SOL     OW36277   3.834   2.948   7.341 -0.1359  0.2677  0.1276
 8214SOL    HW136278   3.898   2.972   7.408 -1.1751 -0.6669  1.4365
 8214SOL    HW236279   3.748   2.984   7.363  0.7915  2.3216  0.3947
 8215SOL     OW36280   4.090   0.692   3.698 -0.0105 -0.1624  0.5997
 8215SOL    HW136281   4.037   0.722   3.772 -2.9964 -2.1875 -0.6901
 8215SOL    HW236282   4.051   0.750   3.632  0.7167  0.2059  0.4993
 8216SOL     OW36283   2.531   3.558   6.501 -0.2804 -0.3244 -0.5896
 8216SOL    HW136284   2.597   3.519   6.444 -0.4689  1.2950 -1.9120
 8216SOL    HW236285   2.468   3.486   6.509  0.0175 -0.4102  0.9799
 8217SOL     OW36286   3.079   4.324   7.978 -0.5448 -0.5280  0.3809
 8217SOL    HW136287   3.141   4.379   8.026  1.4249 -1.4140 -1.1395
 8217SOL    HW236288   3.023   4.390   7.938  0.8182  0.8419  0.7448
 8218SOL     OW36289   1.706   3.441   4.664  0.0654 -0.5479 -0.0576
 8218SOL    HW136290   1.621   3.428   4.704 -0.7743  1.5421 -1.1641
 8218SOL    HW236291   1.704   3.361   4.611 -0.9783  0.2999 -1.3189
 8219SOL     OW36292   0.197   3.604   5.950 -0.1498  0.2716 -0.2471
 8219SOL    HW136293   0.157   3.547   5.885 -0.6296  0.1183  0.1767
 8219SOL    HW236294   0.121   3.639   5.998  0.6149  2.3747 -0.5779
 8220SOL     OW36295   0.203   1.673   4.978  0.0423  0.5801  0.4736
 8220SOL    HW136296   0.127   1.667   5.036  0.4600 -0.1920  0.9350
 8220SOL    HW236297   0.186   1.612   4.907 -0.3800 -1.4329  2.3074
 8221SOL     OW36298   1.895   2.744   0.061 -0.1456 -0.0135  0.3751
 8221SOL    HW136299   1.901   2.654   0.030  0.7901  0.4746 -0.8751
 8221SOL    HW236300   1.978   2.753   0.108  0.9339 -2.9716 -1.0240
 8222SOL     OW36301   0.674   0.686   8.438  0.0415  0.6755 -0.8340
 8222SOL    HW136302   0.611   0.624   8.402  0.2539 -1.3062  2.1629
 8222SOL    HW236303   0.695   0.731   8.356 -1.1450  0.0338 -1.4964
 8223SOL     OW36304   3.754   3.177  11.611  0.0618 -0.1147  0.2279
 8223SOL    HW136305   3.848   3.187  11.622  0.0620  0.3830 -0.2157
 8223SOL    HW236306   3.725   3.086  11.619  2.1959 -1.0292 -2.4861
 8224SOL     OW36307   2.839   3.403  15.057  0.7236 -0.3734  0.5273
 8224SOL    HW136308   2.913   3.361  15.013  0.1876 -1.0281  0.2543
 8224SOL    HW236309   2.780   3.329  15.070 -2.3895  1.9523 -0.5109
 8225SOL     OW36310   0.535   0.208   9.836  0.5177  0.1691  0.2397
 8225SOL    HW136311   0.520   0.303   9.837 -0.6542 -0.0197  1.1443
 8225SOL    HW236312   0.444   0.177   9.838  1.1704 -1.6082  1.2113
 8226SOL     OW36313   4.411   0.366   5.126 -0.1698  0.1871  0.4623
 8226SOL    HW136314   4.364   0.284   5.145 -1.9120  0.7541 -1.4375
 8226SOL    HW236315   4.368   0.413   5.055  1.4508  1.2216  0.1731
 8227SOL     OW36316   4.277   3.528  12.316  0.0265 -0.0587 -0.2121
 8227SOL    HW136317   4.299   3.491  12.401 -1.2973  0.4955  0.3699
 8227SOL    HW236318   4.219   3.601  12.335  0.2145 -0.0250  0.2220
 8228SOL     OW36319   2.439   2.149   4.496 -0.2405  0.3277  0.1635
 8228SOL    HW136320   2.441   2.209   4.421  0.3891 -1.9948 -1.6621
 8228SOL    HW236321   2.463   2.066   4.455  0.2208  0.6957 -0.3121
 8229SOL     OW36322   0.691   2.902   3.806 -0.1082 -0.3532 -0.0500
 8229SOL    HW136323   0.702   2.813   3.772  1.8528 -0.6802  1.4077
 8229SOL    HW236324   0.760   2.954   3.765 -2.2848  1.1114 -1.8361
 8230SOL     OW36325   1.942   4.658   5.646 -0.0002 -0.5066  0.9039
 8230SOL    HW136326   1.957   4.665   5.551 -2.0841 -1.3302  0.5019
 8230SOL    HW236327   2.033   4.668   5.672  0.4332 -0.0793 -0.7877
 8231SOL     OW36328   3.264   1.432   5.897 -0.1118  0.0896 -0.3702
 8231SOL    HW136329   3.178   1.393   5.912 -0.2620 -1.1323 -4.2439
 8231SOL    HW236330   3.241   1.524   5.888  1.9572  0.7985  1.8559
 8232SOL     OW36331   0.363   1.294   2.057 -0.1825 -0.0503  0.5230
 8232SOL    HW136332   0.282   1.242   2.055 -0.7728  0.8021  2.3851
 8232SOL    HW236333   0.351   1.344   2.137 -0.4028  1.7149 -0.5946
 8233SOL     OW36334   3.623   3.966   2.686  0.1235  0.7928 -0.4659
 8233SOL    HW136335   3.598   3.925   2.603 -3.6940  0.7104  0.6993
 8233SOL    HW236336   3.717   3.952   2.698 -0.0371  0.7839  0.7508
 8234SOL     OW36337   2.407   1.051  11.876 -0.2607  0.5111  0.0455
 8234SOL    HW136338   2.332   1.101  11.906  2.6047  2.6875  3.6391
 8234SOL    HW236339   2.413   1.071  11.782 -2.2324  0.3445 -0.1050
 8235SOL     OW36340   4.475   0.929   5.606 -0.3976  0.2125  0.1543
 8235SOL    HW136341   4.493   0.975   5.523 -0.3239 -0.6631 -0.3156
 8235SOL    HW236342   4.380   0.940   5.612 -0.5074 -1.5944  1.4450
 8236SOL     OW36343   3.907   4.013   2.516 -0.7385 -0.0803  0.1186
 8236SOL    HW136344   3.817   4.044   2.507  0.6826  3.8043 -0.8596
 8236SOL    HW236345   3.954   4.084   2.560 -0.6590  0.2232 -0.4502
 8237SOL     OW36346   2.268   4.324  10.503 -0.6628  0.2633  0.1154
 8237SOL    HW136347   2.231   4.267  10.570 -0.6964 -1.3302 -1.2842
 8237SOL    HW236348   2.218   4.281  10.434 -1.9286  2.2910 -0.2130
 8238SOL     OW36349   1.500   0.007   8.151  0.0913  0.1190 -0.2247
 8238SOL    HW136350   1.537   4.660   8.176  1.1931  0.9295  0.8383
 8238SOL    HW236351   1.432   0.007   8.219 -1.0284  2.4256 -1.3357
 8239SOL     OW36352   0.754   2.104   7.909 -0.1224 -0.1521  0.0684
 8239SOL    HW136353   0.719   2.109   7.820  0.1546  0.2674 -0.0195
 8239SOL    HW236354   0.847   2.080   7.909  0.2936  1.4289  0.4747
 8240SOL     OW36355   4.538   1.384   8.227 -0.3844 -0.5054  0.0853
 8240SOL    HW136356   4.450   1.365   8.197 -0.3211 -1.0700  0.2383
 8240SOL    HW236357   4.498   1.437   8.296 -0.1247  0.9779 -0.9092
 8241SOL     OW36358   0.104   1.535   4.128  0.4035 -0.4994  0.3175
 8241SOL    HW136359   0.100   1.521   4.223 -0.0321 -0.5400  0.2930
 8241SOL    HW236360   0.022   1.498   4.094  0.2828  1.1257 -1.1322
 8242SOL     OW36361   0.797   4.191   7.163 -0.1216 -0.3552 -0.1363
 8242SOL    HW136362   0.729   4.193   7.096  0.8431  2.5031 -1.0375
 8242SOL    HW236363   0.736   4.171   7.234 -2.1623  0.0579 -1.7470
 8243SOL     OW36364   0.455   3.790   4.819  0.4546  0.0046  1.0206
 8243SOL    HW136365   0.480   3.701   4.844 -0.4473 -1.2120 -2.4613
 8243SOL    HW236366   0.489   3.839   4.894 -0.5605 -0.4105  1.7602
 8244SOL     OW36367   1.670   1.333  13.856 -0.0001 -0.3804 -0.0922
 8244SOL    HW136368   1.642   1.267  13.793  0.1998  0.3933 -0.9978
 8244SOL    HW236369   1.655   1.405  13.794 -0.8829  0.3951  1.0195
 8245SOL     OW36370   2.115   0.348   1.884  0.1571  0.1436 -0.5008
 8245SOL    HW136371   2.098   0.442   1.879  0.6181  0.3277  1.3007
 8245SOL    HW236372   2.063   0.324   1.807 -2.2411  0.7728  0.9175
 8246SOL     OW36373   4.612   1.912   8.570  0.0617  0.3737  0.1158
 8246SOL    HW136374   4.624   2.005   8.551  1.4090  0.2533  0.3501
 8246SOL    HW236375   4.701   1.883   8.552 -1.0425 -0.5011 -3.8662
 8247SOL     OW36376   3.243   0.091   3.869 -0.0549 -0.4653  0.0417
 8247SOL    HW136377   3.216   0.146   3.942  1.3986 -0.4885  0.5829
 8247SOL    HW236378   3.227   0.157   3.800  1.2465 -0.9703 -0.7426
 8248SOL     OW36379   0.759   0.745   5.714 -0.3341 -0.4650 -0.1541
 8248SOL    HW136380   0.665   0.761   5.700 -0.3241 -0.7052 -0.5115
 8248SOL    HW236381   0.774   0.814   5.778  1.3395  0.3334 -1.4232
 8249SOL     OW36382   2.031   0.786  12.555  0.3440 -0.0928 -0.2157
 8249SOL    HW136383   2.013   0.709  12.502  0.2664  0.3364 -0.8127
 8249SOL    HW236384   2.116   0.757  12.588  0.4319 -1.1045 -1.3576
 8250SOL     OW36385   1.614   3.891   2.908  0.0554 -0.9747 -0.2486
 8250SOL    HW136386   1.698   3.932   2.931  0.5779 -3.2519  1.8834
 8250SOL    HW236387   1.634   3.866   2.817 -1.5389  0.0574 -0.8774
 8251SOL     OW36388   1.741   3.973   1.871  0.2104 -0.1352 -0.8802
 8251SOL    HW136389   1.798   3.916   1.819 -1.6772 -3.0282  0.2698
 8251SOL    HW236390   1.798   3.993   1.946  0.3173 -2.5379 -0.3264
 8252SOL     OW36391   0.855   0.182  17.035  0.2506  0.1545 -0.6310
 8252SOL    HW136392   0.832   0.090  17.038  3.7477 -0.6821  0.4328
 8252SOL    HW236393   0.919   0.194  17.105  0.5321  0.9346 -1.0143
 8253SOL     OW36394   1.603   2.694   8.097  0.1040 -0.3096 -0.6543
 8253SOL    HW136395   1.586   2.601   8.083 -1.3479  0.2901 -2.7777
 8253SOL    HW236396   1.587   2.703   8.191  0.9732  0.6621 -0.6011
 8254SOL     OW36397   3.478   0.207   4.004  0.4728 -0.1753  0.1055
 8254SOL    HW136398   3.564   0.165   4.010  1.9203  2.4301 -2.5353
 8254SOL    HW236399   3.426   0.134   3.971  0.9603 -0.1805 -0.6528
 8255SOL     OW36400   3.242   2.537   6.063 -0.0770  0.4161 -0.0001
 8255SOL    HW136401   3.167   2.564   6.115  0.4686  1.3773  0.2986
 8255SOL    HW236402   3.242   2.595   5.987  0.2924  0.7387  0.2426
 8256SOL     OW36403   3.195   1.167   4.018 -0.5791  0.0097  0.3437
 8256SOL    HW136404   3.278   1.216   4.020 -0.3207 -0.4050 -0.2410
 8256SOL    HW236405   3.207   1.121   3.935  1.5355  1.0498  0.0661
 8257SOL     OW36406   3.504   4.105   8.791 -0.0992 -0.0255 -0.1994
 8257SOL    HW136407   3.427   4.081   8.740  0.3564 -0.0923 -0.8516
 8257SOL    HW236408   3.472   4.125   8.879 -1.4585  1.1133 -0.9574
 8258SOL     OW36409   1.123   0.220   9.545  0.0765  0.2993  0.0949
 8258SOL    HW136410   1.181   0.290   9.574  1.0184 -0.5123  0.1913
 8258SOL    HW236411   1.056   0.233   9.612 -0.2386  0.9047 -0.3441
 8259SOL     OW36412   3.173   3.473  17.484 -0.1474  0.2234 -0.2897
 8259SOL    HW136413   3.097   3.435  17.440 -0.6748  0.5926  0.3074
 8259SOL    HW236414   3.229   3.513  17.417 -0.7462 -2.0150 -2.1075
 8260SOL     OW36415   3.250   1.789   4.433 -0.7366  0.2238 -0.0677
 8260SOL    HW136416   3.321   1.724   4.437 -1.1842 -0.2890 -0.4754
 8260SOL    HW236417   3.252   1.830   4.520 -0.1062  0.2529 -0.0905
 8261SOL     OW36418   4.580   0.884   9.914  0.0224 -0.1107 -0.3189
 8261SOL    HW136419   4.510   0.882   9.848 -0.7081 -2.0650  0.5420
 8261SOL    HW236420   4.656   0.872   9.856 -0.0726 -2.1482 -0.0241
 8262SOL     OW36421   0.896   2.536   8.104  0.0943 -0.1191 -0.5298
 8262SOL    HW136422   0.831   2.469   8.127  0.8466 -1.5854 -2.6217
 8262SOL    HW236423   0.863   2.596   8.170  0.3281 -0.6188  0.0435
 8263SOL     OW36424   3.240   4.462   1.601 -0.3501 -0.1318  0.0959
 8263SOL    HW136425   3.319   4.409   1.610 -0.2197  0.0013 -0.2587
 8263SOL    HW236426   3.278   4.543   1.633 -2.1161  2.0201 -3.1532
 8264SOL     OW36427   1.150   0.322   7.899  0.1106 -0.2906  0.3501
 8264SOL    HW136428   1.165   0.287   7.987 -1.0124  0.6920  0.9391
 8264SOL    HW236429   1.067   0.370   7.898  1.8283  2.6633 -2.3039
 8265SOL     OW36430   0.233   3.724   4.639  0.5662 -0.6281 -0.6030
 8265SOL    HW136431   0.161   3.685   4.688  0.7888  0.3100  0.4646
 8265SOL    HW236432   0.304   3.727   4.702  2.4020  0.0170 -2.6940
 8266SOL     OW36433   0.024   1.643   1.803  0.2919  0.5230 -0.1354
 8266SOL    HW136434   0.036   1.609   1.714 -0.1360  0.1587 -0.0553
 8266SOL    HW236435   0.108   1.686   1.816  0.9031 -0.1233 -1.9667
 8267SOL     OW36436   0.483   0.869   5.637  0.1588 -0.4703  0.0623
 8267SOL    HW136437   0.477   0.930   5.710 -0.0282 -1.4115  0.8378
 8267SOL    HW236438   0.408   0.809   5.640 -2.1042  2.3684  0.3109
 8268SOL     OW36439   0.651   3.351   5.836 -0.4752  0.4521  0.0665
 8268SOL    HW136440   0.584   3.352   5.768 -1.5214  1.0845  1.1174
 8268SOL    HW236441   0.727   3.363   5.779  0.5066 -0.3155  1.1988
 8269SOL     OW36442   1.572   4.576   1.528 -0.8672 -1.6252  0.1778
 8269SOL    HW136443   1.522   4.589   1.448  1.4671  0.9949 -0.8546
 8269SOL    HW236444   1.505   4.579   1.596  0.5522  0.6085  1.4567
 8270SOL     OW36445   2.934   2.879   0.380  0.1865  0.2611  0.2290
 8270SOL    HW136446   2.857   2.911   0.332  0.2966 -0.3246 -0.3204
 8270SOL    HW236447   2.893   2.801   0.418  0.5066 -1.0105 -2.0977
 8271SOL     OW36448   4.190   0.170   3.976  0.5381 -0.1807  0.3189
 8271SOL    HW136449   4.116   0.112   3.996  0.6487 -0.3767  0.1659
 8271SOL    HW236450   4.219   0.125   3.897 -0.6250 -1.3448  0.5458
 8272SOL     OW36451   3.992   1.621  16.240 -0.0060  0.3582 -0.3206
 8272SOL    HW136452   3.976   1.617  16.146 -2.9277 -0.0413  0.2120
 8272SOL    HW236453   4.003   1.715  16.256  0.8224 -0.1253  2.0394
 8273SOL     OW36454   2.675   3.730   9.050 -0.2319 -0.2284 -0.4453
 8273SOL    HW136455   2.760   3.732   9.095 -0.5980 -0.5287  0.2673
 8273SOL    HW236456   2.688   3.796   8.981  0.6313 -0.7150 -0.7432
 8274SOL     OW36457   3.536   2.948  10.454 -0.9811  0.1351  0.0773
 8274SOL    HW136458   3.580   3.033  10.461 -0.8532  0.0434  0.3813
 8274SOL    HW236459   3.448   2.965  10.489 -1.7323 -0.0151 -1.7328
 8275SOL     OW36460   2.288   3.387   4.053 -0.1044 -0.2864 -0.3190
 8275SOL    HW136461   2.280   3.425   3.965 -1.1724  2.0544  0.7764
 8275SOL    HW236462   2.198   3.405   4.080  0.6128 -0.6700  2.3428
 8276SOL     OW36463   2.738   3.176   7.893 -0.8215 -0.1484  0.4181
 8276SOL    HW136464   2.656   3.224   7.901 -1.0526 -0.8338  2.0560
 8276SOL    HW236465   2.722   3.082   7.884 -1.0766 -0.2186  1.6543
 8277SOL     OW36466   1.536   1.794   3.590 -0.0353  0.1824  0.3973
 8277SOL    HW136467   1.551   1.765   3.500  0.5120  0.9990  0.2316
 8277SOL    HW236468   1.620   1.830   3.617  1.0531 -2.6099  0.8076
 8278SOL     OW36469   2.585   3.149   3.923  0.6231  0.1274  0.1510
 8278SOL    HW136470   2.645   3.165   3.996  1.2117 -0.8882 -0.1020
 8278SOL    HW236471   2.516   3.103   3.972  0.6592 -1.8204 -1.6349
 8279SOL     OW36472   0.765   2.801   9.074  0.6526  0.0302 -0.2934
 8279SOL    HW136473   0.721   2.884   9.062  0.5503  0.0041 -0.1045
 8279SOL    HW236474   0.856   2.833   9.075  0.3508  0.8836 -0.4791
 8280SOL     OW36475   2.232   1.072  10.910 -0.2087 -0.0036 -0.7691
 8280SOL    HW136476   2.198   0.985  10.886  0.7193 -0.2388 -1.2442
 8280SOL    HW236477   2.148   1.119  10.911 -0.5197 -0.5831  0.4782
 8281SOL     OW36478   2.043   0.350  14.113 -0.7310  0.3607 -0.7013
 8281SOL    HW136479   2.053   0.444  14.094  0.5186  0.7429  1.8311
 8281SOL    HW236480   2.132   0.327  14.141 -2.1693  1.0985  4.5736
 8282SOL     OW36481   4.165   3.734   8.145 -0.3188 -0.3462 -0.6301
 8282SOL    HW136482   4.117   3.651   8.141 -1.5692  0.4400 -1.6378
 8282SOL    HW236483   4.094   3.796   8.159 -1.4182 -1.1584 -2.6185
 8283SOL     OW36484   2.211   3.805   4.950 -0.6409 -0.0246 -0.2398
 8283SOL    HW136485   2.172   3.893   4.956 -0.0630  0.1702  0.6980
 8283SOL    HW236486   2.258   3.812   4.867 -1.3297  3.1196 -0.3692
 8284SOL     OW36487   2.098   0.564   2.332  0.4393  0.0319 -0.0178
 8284SOL    HW136488   2.015   0.587   2.291  1.0206 -0.0084 -1.2353
 8284SOL    HW236489   2.159   0.586   2.261 -0.1989 -0.0401 -0.5901
 8285SOL     OW36490   1.860   1.192   6.281  0.0206 -0.3032 -0.1577
 8285SOL    HW136491   1.902   1.175   6.366  0.7730  0.4133 -0.3990
 8285SOL    HW236492   1.774   1.214   6.317  0.1010 -0.0367 -0.1355
 8286SOL     OW36493   1.610   1.753   6.351  0.6137  0.3510  0.1347
 8286SOL    HW136494   1.643   1.843   6.359 -1.7237  1.3742 -1.3741
 8286SOL    HW236495   1.534   1.757   6.292 -0.1150 -3.3616  0.8155
 8287SOL     OW36496   4.715   1.883   3.914  0.3082  0.0917 -0.7543
 8287SOL    HW136497   0.054   1.927   3.877  0.8745 -0.5685 -0.3856
 8287SOL    HW236498   4.732   1.794   3.882 -0.3082  0.3652 -1.8434
 8288SOL     OW36499   0.283   3.515   3.330  0.3776 -0.6870  0.1380
 8288SOL    HW136500   0.358   3.469   3.292 -1.3456 -2.6076 -0.9423
 8288SOL    HW236501   0.208   3.506   3.271  0.7046 -0.3936 -0.3270
 8289SOL     OW36502   1.477   3.382   7.456 -0.5590  0.2289  0.4519
 8289SOL    HW136503   1.518   3.297   7.441 -0.8643 -0.0244  1.0389
 8289SOL    HW236504   1.434   3.393   7.372 -2.0086  1.9709  1.4325
 8290SOL     OW36505   2.637   2.851   6.471 -0.0882  0.0432 -0.5365
 8290SOL    HW136506   2.649   2.767   6.515  0.6193 -0.5144 -1.7847
 8290SOL    HW236507   2.586   2.900   6.535 -2.7623 -0.1992 -2.5067
 8291SOL     OW36508   2.542   1.992   6.850 -0.3182  0.1362 -0.1616
 8291SOL    HW136509   2.574   1.905   6.875  0.3386  0.8295  1.3595
 8291SOL    HW236510   2.611   2.041   6.892  0.5167 -0.6129 -0.6531
 8292SOL     OW36511   2.680   3.516   6.907 -0.1276  0.0905  0.2253
 8292SOL    HW136512   2.602   3.467   6.880  0.5647 -0.9283  0.0646
 8292SOL    HW236513   2.660   3.529   6.999  1.0815  0.2736  0.4602
 8293SOL     OW36514   1.828   4.321   2.796  0.2878 -0.5632 -0.4122
 8293SOL    HW136515   1.822   4.274   2.713 -0.2993  0.1160 -0.7549
 8293SOL    HW236516   1.881   4.262   2.850  1.4281 -1.0306 -2.0414
 8294SOL     OW36517   2.732   1.889  13.728 -0.2375  0.1816 -0.5801
 8294SOL    HW136518   2.719   1.932  13.643 -1.7217  0.2584 -0.3183
 8294SOL    HW236519   2.737   1.964  13.787 -0.6176 -1.0319  0.9866
 8295SOL     OW36520   3.287   1.026   5.200 -0.8366  0.0772 -0.0344
 8295SOL    HW136521   3.348   1.040   5.273 -0.1027  0.1154 -0.6504
 8295SOL    HW236522   3.331   1.078   5.133  0.3451  0.5911  1.1375
 8296SOL     OW36523   1.747   2.579  11.932  0.1714 -0.5650  0.3319
 8296SOL    HW136524   1.715   2.627  11.855 -2.2089  0.5920  2.0472
 8296SOL    HW236525   1.810   2.633  11.979  0.8194 -0.1591 -0.9927
 8297SOL     OW36526   2.281   2.288  17.613 -0.3606 -0.4744 -0.0845
 8297SOL    HW136527   2.234   2.257  17.536 -2.8051  0.6794  0.9363
 8297SOL    HW236528   2.227   2.360  17.646 -0.3345 -0.7662  0.5994
 8298SOL     OW36529   0.459   3.929   8.608  0.8427 -0.1697  0.2850
 8298SOL    HW136530   0.465   3.846   8.560 -1.9588 -0.6086  0.6973
 8298SOL    HW236531   0.421   3.994   8.549  1.0979  0.7295  1.1102
 8299SOL     OW36532   0.689   4.410   1.451 -0.2799 -0.2645  0.3350
 8299SOL    HW136533   0.620   4.450   1.398  1.6897  0.2768 -1.8168
 8299SOL    HW236534   0.636   4.344   1.497  0.0347 -2.2911 -2.2576
 8300SOL     OW36535   0.307   4.340  17.559  0.2737  0.3989  0.4753
 8300SOL    HW136536   0.252   4.330  17.636  0.0764  0.0255  0.2876
 8300SOL    HW236537   0.234   4.331  17.497  1.1185  0.1549 -0.4882
 8301SOL     OW36538   1.606   1.637   7.656 -0.2184  0.0372 -0.3827
 8301SOL    HW136539   1.680   1.691   7.632  0.0398 -1.3666 -2.7355
 8301SOL    HW236540   1.601   1.659   7.749 -3.2295 -0.7948 -0.3423
 8302SOL     OW36541   0.380   4.229   6.457  0.0120  0.1357 -0.4432
 8302SOL    HW136542   0.308   4.188   6.505  0.0071  1.5208  0.7458
 8302SOL    HW236543   0.400   4.314   6.495 -0.2686 -0.3566  0.8001
 8303SOL     OW36544   1.442   0.558   4.073 -0.1939  0.4423  0.2070
 8303SOL    HW136545   1.420   0.475   4.115  0.4505  0.7288  1.1035
 8303SOL    HW236546   1.467   0.616   4.145 -0.7304  0.1462  0.6301
 8304SOL     OW36547   0.719   0.421   4.920  0.5863 -0.0091  0.1671
 8304SOL    HW136548   0.721   0.350   4.857 -3.4753 -0.3975  0.4655
 8304SOL    HW236549   0.790   0.473   4.882  0.0075  0.7162  0.0794
 8305SOL     OW36550   4.261   4.003   0.329 -0.2141 -0.0537 -0.1746
 8305SOL    HW136551   4.217   4.039   0.253  3.1123  2.5708 -0.8721
 8305SOL    HW236552   4.203   3.935   0.361 -2.1080  1.9328  0.5898
 8306SOL     OW36553   0.657   1.395  11.641  0.1002  0.4753  0.0547
 8306SOL    HW136554   0.715   1.422  11.712  0.4752  2.9965 -1.2319
 8306SOL    HW236555   0.689   1.306  11.624 -3.7479 -0.2374 -3.3083
 8307SOL     OW36556   1.958   3.919   7.188 -0.2967 -0.2244  0.4351
 8307SOL    HW136557   2.000   3.983   7.245  0.6956  1.0686 -1.7349
 8307SOL    HW236558   2.037   3.870   7.162  2.4614  3.4866  1.8573
 8308SOL     OW36559   1.608   0.925   5.682  0.4152 -0.0203  0.1753
 8308SOL    HW136560   1.670   0.993   5.655 -1.0059  0.6143 -1.4650
 8308SOL    HW236561   1.623   0.856   5.616  0.6799 -0.7067  0.9488
 8309SOL     OW36562   0.480   2.787  15.947 -0.2627 -0.3591  0.1698
 8309SOL    HW136563   0.389   2.764  15.966 -0.2779 -0.7240 -0.3529
 8309SOL    HW236564   0.514   2.805  16.035  0.6808 -0.8141 -0.0982
 8310SOL     OW36565   0.935   2.060   7.211 -0.5662 -0.4222 -0.2962
 8310SOL    HW136566   0.856   2.040   7.261 -0.0842  0.5762  0.8554
 8310SOL    HW236567   1.006   2.049   7.275  0.5234  2.2093 -1.0456
 8311SOL     OW36568   3.018   1.716  17.547  0.1183  0.0905 -0.5824
 8311SOL    HW136569   3.085   1.771  17.588  0.2995 -0.9576  0.5251
 8311SOL    HW236570   3.068   1.679  17.474 -0.0067  1.3619 -1.3001
 8312SOL     OW36571   1.874   4.685   8.215 -0.0001  0.0004  0.1890
 8312SOL    HW136572   1.843   0.037   8.202  0.1829 -0.1832 -1.4858
 8312SOL    HW236573   1.954   4.714   8.259 -2.3099  3.6051  1.9652
 8313SOL     OW36574   2.676   1.736   5.661  0.0563  0.4559  0.0619
 8313SOL    HW136575   2.657   1.654   5.706  1.2723  0.0425 -0.1725
 8313SOL    HW236576   2.613   1.723   5.590  0.5620 -0.1686 -0.2628
 8314SOL     OW36577   2.001   4.148   4.750 -0.0277 -0.3386  0.2635
 8314SOL    HW136578   1.936   4.217   4.765 -2.2741 -1.9960 -1.8970
 8314SOL    HW236579   1.967   4.095   4.679 -0.5852 -1.0081  1.0329
 8315SOL     OW36580   0.351   0.513   7.793 -0.0293  0.1675  0.1489
 8315SOL    HW136581   0.376   0.606   7.796 -0.2688  0.2027  1.3224
 8315SOL    HW236582   0.347   0.491   7.700  0.8433 -1.0892  0.4127
 8316SOL     OW36583   3.736   2.431  10.870 -0.2058  0.0377  0.5359
 8316SOL    HW136584   3.656   2.384  10.843  0.4721 -0.7113 -0.1732
 8316SOL    HW236585   3.799   2.366  10.839  0.1472 -0.3541  2.0818
 8317SOL     OW36586   2.398   4.210   2.773  0.1341  0.2878  0.8974
 8317SOL    HW136587   2.478   4.259   2.757  0.0003  0.1285 -0.3350
 8317SOL    HW236588   2.401   4.168   2.859  1.7841 -0.7869  0.3022
 8318SOL     OW36589   3.348   0.410  10.660  0.0155 -0.4377 -0.1522
 8318SOL    HW136590   3.262   0.383  10.628 -0.6255  0.8329  0.4931
 8318SOL    HW236591   3.355   0.344  10.729  0.1852 -1.2453 -0.9386
 8319SOL     OW36592   2.406   0.278  15.522 -0.1806  0.4555 -0.0686
 8319SOL    HW136593   2.415   0.294  15.616 -0.3089  0.3333 -0.0369
 8319SOL    HW236594   2.463   0.350  15.494 -0.9556  0.1238 -2.4806
 8320SOL     OW36595   0.417   0.005   3.596  0.3375 -0.1514  0.0714
 8320SOL    HW136596   0.410   4.650   3.619  3.0630  0.0369  1.5566
 8320SOL    HW236597   0.341   0.035   3.646  0.0483  0.7295 -0.8849
 8321SOL     OW36598   4.541   2.370  15.703  0.2002  0.2526  0.0736
 8321SOL    HW136599   4.571   2.414  15.623  1.9116 -1.1592 -0.0507
 8321SOL    HW236600   4.605   2.396  15.768  0.7923 -1.1482  0.0454
 8322SOL     OW36601   0.287   2.714  14.120 -0.2006 -0.6472  0.3101
 8322SOL    HW136602   0.303   2.666  14.039 -1.3289  0.9068 -0.8221
 8322SOL    HW236603   0.197   2.684  14.133 -1.1496  2.0677  0.1174
 8323SOL     OW36604   1.785   3.299   6.592  0.4034  0.4126 -0.3959
 8323SOL    HW136605   1.707   3.351   6.573 -1.1134 -1.8805 -0.4787
 8323SOL    HW236606   1.819   3.259   6.511  1.4594  2.4724 -0.9761
 8324SOL     OW36607   4.609   3.390   2.256  0.0530  0.4031  0.2742
 8324SOL    HW136608   4.611   3.393   2.160  0.6605 -3.7010  0.1571
 8324SOL    HW236609   4.698   3.368   2.280  0.2681 -0.8541 -1.7001
 8325SOL     OW36610   1.696   2.292   9.212 -0.6249 -0.7492  0.4723
 8325SOL    HW136611   1.651   2.238   9.276 -3.2296  0.4974 -0.3279
 8325SOL    HW236612   1.781   2.249   9.205 -0.2363  0.2135 -0.8246
 8326SOL     OW36613   4.404   1.989   7.229  0.0233  0.2728 -0.1517
 8326SOL    HW136614   4.321   2.009   7.272 -0.3755 -2.8246  0.4828
 8326SOL    HW236615   4.397   2.033   7.144  2.3172  3.2834  1.1899
 8327SOL     OW36616   4.516   2.870   6.122 -0.7100  0.5228 -0.0506
 8327SOL    HW136617   4.606   2.847   6.145 -0.1045  1.5920 -1.3827
 8327SOL    HW236618   4.483   2.798   6.068  1.0004 -0.9005  0.8173
 8328SOL     OW36619   4.295   1.558   6.527 -0.0343 -0.5506  0.2177
 8328SOL    HW136620   4.314   1.534   6.436  1.0846  0.3920  0.1909
 8328SOL    HW236621   4.324   1.650   6.522  0.4886 -0.6764  0.9319
 8329SOL     OW36622   2.157   2.655   9.637  0.0475  0.0084 -0.1877
 8329SOL    HW136623   2.107   2.736   9.624 -1.2422 -0.8503 -0.5372
 8329SOL    HW236624   2.227   2.664   9.573 -0.5773 -2.5795 -1.2358
 8330SOL     OW36625   2.562   1.653   7.790  0.2468 -0.0227 -0.2557
 8330SOL    HW136626   2.488   1.706   7.819 -0.3607 -0.1435 -1.5723
 8330SOL    HW236627   2.528   1.640   7.701 -0.1040  0.8658 -0.2494
 8331SOL     OW36628   0.729   3.858  14.871  0.4644  0.4521  0.0995
 8331SOL    HW136629   0.710   3.936  14.819  0.6187  0.3440 -0.1190
 8331SOL    HW236630   0.747   3.894  14.958 -0.7491 -0.5042  0.7540
 8332SOL     OW36631   0.168   4.125  16.384  0.0889 -0.5338 -0.4089
 8332SOL    HW136632   0.194   4.173  16.463 -0.9376  0.5291 -0.7230
 8332SOL    HW236633   0.158   4.034  16.411 -0.7671  0.1596  1.6607
 8333SOL     OW36634   4.443   2.566   3.943 -0.2587  0.7321 -0.1763
 8333SOL    HW136635   4.365   2.556   3.889 -0.0749 -0.9681 -0.1295
 8333SOL    HW236636   4.410   2.543   4.030  0.1057  0.6197 -0.0648
 8334SOL     OW36637   0.929   1.212  15.035 -0.1544  0.3131 -0.0490
 8334SOL    HW136638   0.913   1.131  14.986  1.8228 -0.8721  1.2880
 8334SOL    HW236639   0.923   1.182  15.125 -1.7390 -1.9324 -0.8989
 8335SOL     OW36640   4.551   0.864   2.986 -0.5011 -0.1481  0.3861
 8335SOL    HW136641   4.522   0.921   2.915  0.3525  0.4372  0.5151
 8335SOL    HW236642   4.588   0.791   2.937 -0.8499  2.8453 -4.3761
 8336SOL     OW36643   3.774   2.553   7.545 -0.5191  0.5668 -0.3720
 8336SOL    HW136644   3.762   2.570   7.452 -0.6437  0.0033 -0.4618
 8336SOL    HW236645   3.825   2.472   7.541  1.7164  1.9896 -0.3394
 8337SOL     OW36646   0.411   0.314   0.918  0.0340 -0.2191  0.0570
 8337SOL    HW136647   0.447   0.250   0.857  0.3472  2.3178 -2.4282
 8337SOL    HW236648   0.469   0.298   0.992  0.2817 -1.5093 -0.4222
 8338SOL     OW36649   0.645   3.892   2.078 -0.2851  0.0372  0.3414
 8338SOL    HW136650   0.595   3.839   2.016 -1.3000  0.8853  0.4213
 8338SOL    HW236651   0.583   3.888   2.152  0.6960 -3.2153  0.9821
 8339SOL     OW36652   1.627   3.618   7.876 -0.0171 -0.4483 -0.4025
 8339SOL    HW136653   1.617   3.548   7.811  1.7916  0.5621 -1.7584
 8339SOL    HW236654   1.716   3.643   7.851 -0.9758  0.7844 -2.5849
 8340SOL     OW36655   1.576   2.902   3.149 -0.6512  0.0744  0.2142
 8340SOL    HW136656   1.629   2.902   3.228  1.4039 -0.7394 -1.1574
 8340SOL    HW236657   1.587   2.993   3.124  2.6242 -0.1151  1.0508
 8341SOL     OW36658   4.262   4.044   0.602 -0.1597 -0.1532  0.6962
 8341SOL    HW136659   4.306   4.023   0.519 -1.4206  0.2770 -0.0670
 8341SOL    HW236660   4.178   4.075   0.570  0.6128  2.0085  0.7543
 8342SOL     OW36661   2.460   4.495   4.619 -0.4890 -0.0791  0.4793
 8342SOL    HW136662   2.465   4.481   4.525 -0.6091 -0.1492  0.4830
 8342SOL    HW236663   2.488   4.586   4.611  1.2849 -0.5452  1.4817
 8343SOL     OW36664   2.017   0.683   7.212  0.0013 -0.0692  0.1670
 8343SOL    HW136665   1.949   0.717   7.269 -0.1520  1.7407 -1.1094
 8343SOL    HW236666   2.079   0.754   7.227  0.0268  0.3666 -1.9589
 8344SOL     OW36667   0.618   0.386   7.487  0.2541  0.7239  0.2009
 8344SOL    HW136668   0.688   0.337   7.444  0.5446 -0.0638  1.5698
 8344SOL    HW236669   0.626   0.347   7.574 -0.6337  0.1602  0.0239
 8345SOL     OW36670   2.582   2.883  14.565 -0.4112  0.2895  0.1239
 8345SOL    HW136671   2.581   2.801  14.614  2.9778  0.6746  0.8125
 8345SOL    HW236672   2.676   2.901  14.570 -0.1894 -0.7817 -0.2884
 8346SOL     OW36673   1.251   1.534  14.289 -0.2382  0.0046 -0.1030
 8346SOL    HW136674   1.313   1.538  14.362  1.3524 -1.1513 -1.3844
 8346SOL    HW236675   1.241   1.629  14.285  0.2925  0.1005  0.8324
 8347SOL     OW36676   2.882   0.942   0.097 -0.4156  0.3901 -0.0491
 8347SOL    HW136677   2.811   0.941   0.033  0.2159 -1.0518 -0.7428
 8347SOL    HW236678   2.932   0.867   0.063  2.2566  2.7569 -1.3057
 8348SOL     OW36679   2.311   0.548   0.909  0.1894  0.3041  0.3773
 8348SOL    HW136680   2.219   0.541   0.882  0.9036 -3.3799 -1.1109
 8348SOL    HW236681   2.363   0.526   0.832 -0.3299 -0.5513  0.2611
 8349SOL     OW36682   3.766   1.460   3.973 -0.2669 -0.3801  0.6958
 8349SOL    HW136683   3.778   1.530   4.037 -0.4021 -0.0090  0.3142
 8349SOL    HW236684   3.751   1.385   4.031  1.0660 -0.8183  0.4770
 8350SOL     OW36685   3.659   4.504   4.523 -0.1432 -0.0779  0.1835
 8350SOL    HW136686   3.720   4.576   4.507  0.7724 -0.8485  0.2174
 8350SOL    HW236687   3.675   4.449   4.447 -1.9367  0.9888 -0.9767
 8351SOL     OW36688   3.259   1.973   5.832  0.0759  0.1939  0.1680
 8351SOL    HW136689   3.264   2.069   5.830 -0.5967  0.2095 -0.5432
 8351SOL    HW236690   3.310   1.960   5.912 -0.5699  1.1590  0.7469
 8352SOL     OW36691   2.885   4.128   4.024 -0.0100 -0.1229 -0.1332
 8352SOL    HW136692   2.795   4.095   4.025  0.0379 -0.3101 -2.0272
 8352SOL    HW236693   2.882   4.210   3.974 -1.4709  0.2644  0.5802
 8353SOL     OW36694   1.646   4.212   5.281 -0.6196  0.4489 -0.0816
 8353SOL    HW136695   1.590   4.135   5.295  0.1408 -0.1579 -0.3538
 8353SOL    HW236696   1.574   4.274   5.266 -0.8285  0.4444  0.8845
 8354SOL     OW36697   3.118   0.580   8.653 -0.0474 -0.5205 -0.2963
 8354SOL    HW136698   3.190   0.593   8.591 -0.8177  0.7965 -0.9122
 8354SOL    HW236699   3.122   0.667   8.694 -0.5662  0.4548 -2.2818
 8355SOL     OW36700   3.809   3.180  16.529  0.4812  0.6894 -0.0296
 8355SOL    HW136701   3.899   3.151  16.547  0.0804 -1.1043 -0.9024
 8355SOL    HW236702   3.755   3.128  16.589  1.4668  1.0443  1.1549
 8356SOL     OW36703   0.461   2.507   0.929  0.5008 -0.4432  0.0912
 8356SOL    HW136704   0.524   2.435   0.942 -2.5779 -2.8819  1.5885
 8356SOL    HW236705   0.507   2.547   0.855 -0.0421  0.4307  0.2374
 8357SOL     OW36706   0.242   1.542   9.856 -0.1899  0.7225 -0.3750
 8357SOL    HW136707   0.253   1.447   9.860 -0.0045  0.8939  2.6772
 8357SOL    HW236708   0.329   1.561   9.822  1.0496 -0.2356  2.2743
 8358SOL     OW36709   1.299   3.612  13.484  0.3581  0.1294  0.6721
 8358SOL    HW136710   1.354   3.560  13.543 -0.5217  0.9124  2.1841
 8358SOL    HW236711   1.272   3.552  13.414 -0.6749 -0.5809  1.6875
 8359SOL     OW36712   1.744   4.214  17.390  1.2512  0.0464 -0.4441
 8359SOL    HW136713   1.714   4.272  17.319 -0.9801 -0.9501 -0.3136
 8359SOL    HW236714   1.840   4.221  17.382  1.4009 -0.0815  1.3811
 8360SOL     OW36715   4.367   4.314   6.764 -0.2463  0.3109 -0.3487
 8360SOL    HW136716   4.414   4.317   6.847 -1.7498  3.1944  0.4250
 8360SOL    HW236717   4.431   4.338   6.697 -0.1652  0.1468 -0.3291
 8361SOL     OW36718   3.964   0.393   1.946  0.4879  0.0813  0.1073
 8361SOL    HW136719   3.913   0.392   2.027 -1.1821  0.0111 -0.9502
 8361SOL    HW236720   3.896   0.400   1.879 -1.7373 -1.6300  2.1868
 8362SOL     OW36721   3.876   1.360   6.885  0.0004  0.4651  0.3855
 8362SOL    HW136722   3.943   1.315   6.834 -1.7221  0.2061 -1.6061
 8362SOL    HW236723   3.929   1.413   6.946  1.4014  0.9729 -1.2763
 8363SOL     OW36724   2.759   2.048   7.246 -0.1945  0.0455 -0.0433
 8363SOL    HW136725   2.839   2.098   7.261  0.2512 -0.7972  0.3911
 8363SOL    HW236726   2.795   1.959   7.243  1.2438  0.7316 -2.8599
 8364SOL     OW36727   2.354   4.362  14.985 -0.1748  0.0232 -0.4611
 8364SOL    HW136728   2.390   4.274  14.969  1.9105  0.7724  0.0902
 8364SOL    HW236729   2.267   4.338  15.017 -0.0373  0.3599  0.1725
 8365SOL     OW36730   1.962   3.191   6.821 -0.0413  0.3495 -0.2612
 8365SOL    HW136731   1.970   3.256   6.751 -2.9701  1.1644  0.1450
 8365SOL    HW236732   1.977   3.112   6.770 -0.5773  0.1682 -0.1339
 8366SOL     OW36733   3.977   2.062   7.101  0.4765 -0.8195  0.1541
 8366SOL    HW136734   3.890   2.065   7.060  0.0734  0.0924  1.0859
 8366SOL    HW236735   4.022   2.122   7.041  0.1416 -0.7548 -0.0347
 8367SOL     OW36736   3.821   1.897   3.102 -0.9596 -0.0002 -0.1421
 8367SOL    HW136737   3.803   1.819   3.156 -1.0327  1.0546  1.3556
 8367SOL    HW236738   3.817   1.850   3.019 -0.9950  1.2913 -0.8549
 8368SOL     OW36739   2.964   0.675   7.921 -0.0600  0.1302 -0.4952
 8368SOL    HW136740   2.976   0.666   8.015 -4.4033  0.0070  0.0313
 8368SOL    HW236741   2.869   0.691   7.922 -0.0448  0.0973  1.2324
 8369SOL     OW36742   2.286   3.322   6.909  0.0763  0.4534 -0.7418
 8369SOL    HW136743   2.251   3.238   6.879 -1.0106 -0.4712  3.0864
 8369SOL    HW236744   2.381   3.311   6.896  0.1623  0.0043  0.2651
 8370SOL     OW36745   3.957   0.183  12.977  0.1073 -0.1888 -0.5733
 8370SOL    HW136746   3.926   0.173  13.067  2.3448 -1.8264  0.0008
 8370SOL    HW236747   4.036   0.131  12.965 -1.1483 -2.0017 -0.8587
 8371SOL     OW36748   2.044   3.032   3.888  0.4029 -0.5493  0.3649
 8371SOL    HW136749   2.095   2.951   3.884  2.8728  1.1057 -1.4252
 8371SOL    HW236750   2.063   3.061   3.977  0.2902  1.0123 -0.1244
 8372SOL     OW36751   2.139   0.973   6.577 -0.3084 -0.0264 -0.1134
 8372SOL    HW136752   2.103   0.956   6.664 -0.5658  0.3940 -0.1369
 8372SOL    HW236753   2.132   0.885   6.539 -1.2904  1.0420 -2.4306
 8373SOL     OW36754   1.975   1.692  15.745  0.0036 -0.0437 -0.3218
 8373SOL    HW136755   1.981   1.650  15.830 -0.9348 -0.2332 -0.3487
 8373SOL    HW236756   2.066   1.710  15.721 -0.2980  0.4282 -1.1127
 8374SOL     OW36757   4.385   2.136  15.526 -0.6438 -0.6270 -0.3259
 8374SOL    HW136758   4.346   2.059  15.485 -0.4955 -0.8582 -0.0274
 8374SOL    HW236759   4.348   2.136  15.614 -0.1876 -2.7093 -0.1425
 8375SOL     OW36760   0.785   2.750  12.924  0.3412 -0.8608  0.2529
 8375SOL    HW136761   0.820   2.774  13.010 -0.9225 -0.4494  0.6418
 8375SOL    HW236762   0.693   2.730  12.935 -0.6072  2.3545 -1.9178
 8376SOL     OW36763   3.664   3.244   1.140 -0.4497  0.4467 -0.3272
 8376SOL    HW136764   3.653   3.217   1.049 -0.1986  1.7599 -0.7511
 8376SOL    HW236765   3.697   3.334   1.135 -1.9364  1.0610  0.8480
 8377SOL     OW36766   1.151   1.524   3.759 -0.5453 -0.5606  0.0960
 8377SOL    HW136767   1.075   1.519   3.817 -1.5129  2.6197 -0.8978
 8377SOL    HW236768   1.103   1.550   3.680 -0.0945 -1.1998 -0.3837
 8378SOL     OW36769   2.247   1.528  14.152  0.0810 -0.0506  0.1348
 8378SOL    HW136770   2.322   1.540  14.209 -0.2619  0.6518  0.4413
 8378SOL    HW236771   2.190   1.467  14.200 -1.1370 -0.2791 -1.5990
 8379SOL     OW36772   1.240   4.649  17.598 -0.1575  0.6493 -0.9135
 8379SOL    HW136773   1.180   4.656  17.523 -1.4662 -0.5585  0.0166
 8379SOL    HW236774   1.310   4.591  17.567  0.2993  0.5423  0.3472
 8380SOL     OW36775   2.450   0.200   6.077  0.6477 -0.1150  0.4539
 8380SOL    HW136776   2.413   0.122   6.120  0.3721 -0.0589  0.3182
 8380SOL    HW236777   2.365   0.241   6.061  0.8727 -0.0785 -0.6765
 8381SOL     OW36778   1.897   2.781   8.740 -0.2153  0.1687 -0.1099
 8381SOL    HW136779   1.926   2.836   8.667  0.0586  0.6726  0.3850
 8381SOL    HW236780   1.828   2.729   8.700 -0.1006 -0.1723  0.1371
 8382SOL     OW36781   4.666   2.428   1.903  0.5436  0.4244 -0.3389
 8382SOL    HW136782   4.685   2.375   1.980 -0.5033  0.1731 -0.2548
 8382SOL    HW236783   4.573   2.409   1.890  0.6683 -1.1309  1.0618
 8383SOL     OW36784   0.751   4.251   2.813  0.2043  0.6813 -0.0832
 8383SOL    HW136785   0.799   4.187   2.760  1.0819  1.0999  0.2114
 8383SOL    HW236786   0.664   4.211   2.822  1.9557 -3.2568 -0.5237
 8384SOL     OW36787   0.283   1.327  13.202 -0.2609 -0.8414  0.1596
 8384SOL    HW136788   0.331   1.318  13.120  0.9543 -1.4413  0.9356
 8384SOL    HW236789   0.192   1.323  13.173 -0.3984 -1.1289  0.6292
 8385SOL     OW36790   3.000   1.656   9.418  0.0102  0.5117 -0.2099
 8385SOL    HW136791   2.973   1.685   9.331  0.4856  0.4580 -0.3747
 8385SOL    HW236792   2.981   1.562   9.411  0.2578  0.1717  3.4124
 8386SOL     OW36793   2.932   4.493  10.095  0.2761  0.1139  0.0522
 8386SOL    HW136794   2.846   4.528  10.115 -0.4796 -1.6455 -0.0866
 8386SOL    HW236795   2.967   4.511  10.182  2.8054  0.3973 -1.0188
 8387SOL     OW36796   3.540   1.619   6.741 -0.7447 -0.2380  0.5495
 8387SOL    HW136797   3.525   1.544   6.799  0.4256 -1.1876 -0.3746
 8387SOL    HW236798   3.614   1.592   6.687 -0.4609 -0.7057  1.1776
 8388SOL     OW36799   1.263   4.118  14.180 -0.1243 -0.5296  0.4831
 8388SOL    HW136800   1.198   4.047  14.186 -1.1203  0.3053 -0.5090
 8388SOL    HW236801   1.218   4.187  14.227  0.3866  0.0652  0.0930
 8389SOL     OW36802   3.376   2.049   4.464  0.2623 -0.1893 -0.9640
 8389SOL    HW136803   3.428   2.069   4.542 -0.2115  0.8123 -0.8986
 8389SOL    HW236804   3.397   1.956   4.460  0.2204 -0.2235 -0.3714
 8390SOL     OW36805   3.270   1.078  11.474 -0.0125  0.0954 -0.0756
 8390SOL    HW136806   3.361   1.092  11.501 -0.4143 -2.9470  2.8260
 8390SOL    HW236807   3.249   1.000  11.526 -0.9190 -0.7147 -1.6793
 8391SOL     OW36808   2.859   0.460  10.462 -0.6110 -0.0754  0.1938
 8391SOL    HW136809   2.789   0.524  10.470 -0.0279  0.0900  3.8175
 8391SOL    HW236810   2.824   0.381  10.502  1.1749  0.0295  1.9831
 8392SOL     OW36811   2.099   2.972   0.284  0.5678  0.3804 -0.5816
 8392SOL    HW136812   2.125   2.903   0.222 -1.3745 -0.4189 -0.5121
 8392SOL    HW236813   2.144   3.049   0.248  0.7440  1.2290  1.4686
 8393SOL     OW36814   2.044   0.644   6.271 -0.5949 -0.0330  0.0824
 8393SOL    HW136815   2.102   0.716   6.249  0.3355 -0.5082  0.9992
 8393SOL    HW236816   1.965   0.691   6.300 -0.9535 -0.0743 -0.8004
 8394SOL     OW36817   0.836   0.550   4.096 -0.3312  0.0666  0.0310
 8394SOL    HW136818   0.781   0.471   4.090 -1.5949  1.0325 -1.0726
 8394SOL    HW236819   0.913   0.520   4.144  1.7276 -0.6232 -3.7533
 8395SOL     OW36820   1.131   3.581  16.363 -0.3875 -0.6673  0.3477
 8395SOL    HW136821   1.197   3.559  16.296 -1.3113 -1.7510 -0.2130
 8395SOL    HW236822   1.050   3.573  16.313  0.6830  0.6032 -1.5973
 8396SOL     OW36823   1.353   0.405   8.994  0.3366  0.3291  0.0046
 8396SOL    HW136824   1.265   0.402   8.957  0.7006  1.1856 -0.9165
 8396SOL    HW236825   1.401   0.363   8.923 -1.1143  1.1368 -1.4514
 8397SOL     OW36826   2.452   1.397   2.745  0.6460  0.0062 -0.4128
 8397SOL    HW136827   2.364   1.429   2.762  0.1875  0.6203 -3.8786
 8397SOL    HW236828   2.443   1.376   2.652  0.5803  2.1093 -0.8862
 8398SOL     OW36829   1.538   3.790  11.486 -0.0730 -0.0576  0.0361
 8398SOL    HW136830   1.591   3.869  11.492  1.1409 -0.7639 -1.6461
 8398SOL    HW236831   1.454   3.817  11.525  0.9163  0.9315  1.4977
 8399SOL     OW36832   3.462   2.255   4.065  0.6544  0.0118  0.2422
 8399SOL    HW136833   3.488   2.166   4.088  0.4757 -0.3906 -1.1193
 8399SOL    HW236834   3.368   2.265   4.083  0.5793 -0.6523  0.2263
 8400SOL     OW36835   2.066   1.948   2.815  0.3207 -0.5788 -0.0151
 8400SOL    HW136836   2.017   1.870   2.839 -1.9824  1.3820  1.6485
 8400SOL    HW236837   2.003   2.018   2.830  0.8336  0.1142 -1.0542
 8401SOL     OW36838   0.706   1.558   2.405  0.0433  1.0408 -0.0693
 8401SOL    HW136839   0.676   1.646   2.383 -0.2628  1.1888  0.9477
 8401SOL    HW236840   0.643   1.496   2.368  1.6214 -2.2387  2.7299
 8402SOL     OW36841   2.711   2.757   2.949 -0.1709 -0.3327  0.4531
 8402SOL    HW136842   2.665   2.721   3.025  0.0625 -0.4201  0.5546
 8402SOL    HW236843   2.663   2.712   2.879  2.0947  0.5570 -1.6721
 8403SOL     OW36844   4.563   3.451  16.097  0.7013  0.6865 -0.0197
 8403SOL    HW136845   4.599   3.363  16.088  1.1151  0.8796 -0.2259
 8403SOL    HW236846   4.496   3.437  16.164  1.4283  0.4795  0.6577
 8404SOL     OW36847   3.108   1.712   8.538  0.3420 -0.0035  0.0678
 8404SOL    HW136848   3.022   1.712   8.496 -0.2264 -0.6126  1.2158
 8404SOL    HW236849   3.132   1.804   8.537  0.9126 -0.1734 -1.8016
 8405SOL     OW36850   1.402   0.304  16.212  0.0202 -0.0757  0.0940
 8405SOL    HW136851   1.421   0.309  16.305 -1.5851  3.9593  0.1971
 8405SOL    HW236852   1.473   0.243  16.193  2.9424  3.2778  0.2307
 8406SOL     OW36853   4.018   4.151  12.417  0.4084  0.6673 -0.1963
 8406SOL    HW136854   4.001   4.171  12.509 -3.2685  0.1509 -0.7690
 8406SOL    HW236855   3.951   4.084  12.399 -0.9531  2.1026 -0.4813
 8407SOL     OW36856   0.534   4.540   7.342 -0.0309  0.5577 -0.0172
 8407SOL    HW136857   0.613   4.511   7.297  0.8143  0.2585  1.6583
 8407SOL    HW236858   0.483   4.459   7.347  0.8534  0.0925  1.5619
 8408SOL     OW36859   4.609   3.579   6.457 -0.7446  0.2542 -0.0731
 8408SOL    HW136860   4.643   3.571   6.546  2.5221 -1.3738 -1.4760
 8408SOL    HW236861   4.692   3.558   6.415  0.7902  2.7130  1.7158
 8409SOL     OW36862   2.135   0.049  11.542  0.8426 -0.5052  0.0803
 8409SOL    HW136863   2.128   0.044  11.447  0.0180  0.4962  0.0792
 8409SOL    HW236864   2.056   0.015  11.585  0.3928 -0.3611 -0.6287
 8410SOL     OW36865   0.668   3.874   8.927  0.6498 -0.4845 -0.4714
 8410SOL    HW136866   0.673   3.859   8.832 -1.6335 -0.6884 -0.5385
 8410SOL    HW236867   0.756   3.909   8.944  0.9280 -2.5516  2.3915
 8411SOL     OW36868   2.154   1.824  17.464  0.2129  0.1313 -0.0236
 8411SOL    HW136869   2.072   1.864  17.434  1.0604  1.0675 -1.0674
 8411SOL    HW236870   2.152   1.733  17.432 -2.3169  0.0312  0.4052
 8412SOL     OW36871   1.988   3.148   3.437  0.4244 -0.0271  0.4436
 8412SOL    HW136872   1.936   3.071   3.461  2.2767 -1.3399  0.3084
 8412SOL    HW236873   1.919   3.214   3.437  2.9852  2.6814 -3.5504
 8413SOL     OW36874   3.911   3.374   1.973 -0.3089 -0.5998 -0.1735
 8413SOL    HW136875   3.838   3.413   2.022  3.1182  2.9878  2.1052
 8413SOL    HW236876   3.941   3.451   1.925 -1.1132  0.0342  0.3207
 8414SOL     OW36877   4.023   4.525  11.433 -0.0244  0.9986  0.1367
 8414SOL    HW136878   3.937   4.557  11.404  0.7208  0.8270 -2.3187
 8414SOL    HW236879   4.085   4.576  11.381  1.8950 -2.1721 -0.6515
 8415SOL     OW36880   1.371   1.355  14.103 -0.2649 -0.3209 -0.0494
 8415SOL    HW136881   1.466   1.367  14.111 -0.1855  0.0136 -1.4459
 8415SOL    HW236882   1.356   1.418  14.174  2.5570  0.6038 -0.2561
 8416SOL     OW36883   2.218   4.683  16.601  0.6351  0.4790  0.5016
 8416SOL    HW136884   2.286   4.676  16.534 -1.1932 -0.7888 -1.2067
 8416SOL    HW236885   2.138   4.652  16.559  0.8850  1.7554 -0.9301
 8417SOL     OW36886   0.254   4.421   4.429  0.0803 -0.2667 -0.1204
 8417SOL    HW136887   0.327   4.394   4.484  1.2733 -1.6904 -2.4217
 8417SOL    HW236888   0.285   4.424   4.338 -1.0130 -1.0613 -0.5235
 8418SOL     OW36889   2.284   2.647   5.651  0.3202 -0.2928 -0.4450
 8418SOL    HW136890   2.330   2.681   5.574  1.5564  0.2566  0.5371
 8418SOL    HW236891   2.308   2.713   5.716 -0.1674 -1.2756  0.7197
 8419SOL     OW36892   3.697   3.039   8.659 -1.0079  0.1348  0.2416
 8419SOL    HW136893   3.747   3.088   8.593  0.6862 -1.9552 -0.0439
 8419SOL    HW236894   3.742   2.954   8.660 -1.1484  0.0625  0.4155
 8420SOL     OW36895   1.656   3.084   8.483  0.5952 -0.3573  0.1663
 8420SOL    HW136896   1.620   3.083   8.394 -1.0652  2.5141  0.7899
 8420SOL    HW236897   1.611   3.163   8.513  1.5743  0.8869 -1.6005
 8421SOL     OW36898   2.650   3.434   4.065  0.6327 -0.2787  0.1465
 8421SOL    HW136899   2.580   3.494   4.042 -1.2167 -2.1010  1.0207
 8421SOL    HW236900   2.616   3.386   4.141  0.1230  0.8750  0.6425
 8422SOL     OW36901   3.099   3.422   1.128 -0.1562 -0.2111 -0.1701
 8422SOL    HW136902   3.069   3.350   1.074  1.5632 -1.3600  0.3819
 8422SOL    HW236903   3.031   3.488   1.144 -0.0100 -0.9318  3.5377
 8423SOL     OW36904   3.968   1.200   3.609 -0.4064  0.0747  0.0291
 8423SOL    HW136905   3.952   1.271   3.546 -0.2277 -0.6659 -0.8515
 8423SOL    HW236906   4.038   1.248   3.653  1.0739 -0.0158 -2.2172
 8424SOL     OW36907   1.137   1.566   4.967 -0.1677 -0.1478  0.2170
 8424SOL    HW136908   1.118   1.555   5.061 -0.0231 -0.5389  0.2019
 8424SOL    HW236909   1.083   1.494   4.934  1.2271 -0.7644 -0.6752
 8425SOL     OW36910   3.501   4.291   3.012  0.1470 -0.0997  0.0671
 8425SOL    HW136911   3.501   4.265   2.920  2.2708 -2.6097  0.7694
 8425SOL    HW236912   3.590   4.269   3.040  0.3288  1.0372  0.3538
 8426SOL     OW36913   2.707   0.746   5.975 -0.0947 -0.1918  0.3451
 8426SOL    HW136914   2.640   0.739   6.043  0.6263 -1.1298  0.9660
 8426SOL    HW236915   2.660   0.724   5.895 -0.2428  0.6841  0.1976
 8427SOL     OW36916   3.790   4.494   8.277  0.0157 -0.3541  0.6212
 8427SOL    HW136917   3.812   4.533   8.362  1.8545 -2.0647  0.9306
 8427SOL    HW236918   3.741   4.567   8.238  2.5088  1.6059  1.1388
 8428SOL     OW36919   0.156   0.083   3.365  0.2962  0.1174  0.1668
 8428SOL    HW136920   0.183   0.113   3.277  0.3805  0.7900  0.4247
 8428SOL    HW236921   0.238   0.046   3.399  0.1409 -1.1158 -0.7907
 8429SOL     OW36922   3.737   3.099  10.669  0.3480  0.0017  0.2712
 8429SOL    HW136923   3.712   3.106  10.761  0.4471 -0.0422  0.3019
 8429SOL    HW236924   3.701   3.183  10.641  0.3965  0.2465  0.9466
 8430SOL     OW36925   1.767   2.260   5.042  0.2918  0.0730 -0.1727
 8430SOL    HW136926   1.800   2.267   4.953 -3.4480  1.6608 -1.4622
 8430SOL    HW236927   1.678   2.292   5.024  0.3227  0.4662  0.3743
 8431SOL     OW36928   0.944   2.006   8.488 -0.1110  0.3625 -0.2250
 8431SOL    HW136929   0.863   1.981   8.532 -0.7629  1.1421 -0.9908
 8431SOL    HW236930   0.943   1.935   8.424  0.2461 -0.8980  1.1527
 8432SOL     OW36931   2.093   1.599   4.428 -0.2829 -0.1037 -0.0428
 8432SOL    HW136932   2.008   1.578   4.467 -1.4418 -0.1292 -2.5616
 8432SOL    HW236933   2.070   1.647   4.348 -0.8428 -0.5616 -0.1588
 8433SOL     OW36934   4.298   3.002  12.008 -0.5292  0.8270 -0.0666
 8433SOL    HW136935   4.321   3.094  11.996 -0.9329  1.0886  1.1652
 8433SOL    HW236936   4.346   2.960  11.937 -1.3227  0.0945 -0.1694
 8434SOL     OW36937   3.921   3.784   9.068 -0.0477 -0.4252 -0.1014
 8434SOL    HW136938   3.936   3.693   9.043  0.2664 -0.7581  1.2609
 8434SOL    HW236939   3.975   3.794   9.147  0.8249 -0.7107 -0.6681
 8435SOL     OW36940   2.811   4.608   4.056 -0.4743  0.0792 -0.0826
 8435SOL    HW136941   2.803   4.625   3.962 -1.3100  3.4610  0.5987
 8435SOL    HW236942   2.820   4.697   4.089  2.1805  0.4601 -1.8578
 8436SOL     OW36943   1.835   3.140   5.207 -0.7902 -0.0266 -0.1188
 8436SOL    HW136944   1.886   3.205   5.256 -0.4512 -0.7493  0.4902
 8436SOL    HW236945   1.814   3.188   5.127  0.7579  1.2355  0.2279
 8437SOL     OW36946   1.758   4.259   1.332  0.4470  0.3228  0.8054
 8437SOL    HW136947   1.723   4.288   1.416  0.5182  1.0585  0.5796
 8437SOL    HW236948   1.675   4.247   1.287  1.7743 -0.4550 -1.4346
 8438SOL     OW36949   0.370   0.382  10.089 -0.3204  0.2026 -0.1240
 8438SOL    HW136950   0.341   0.390   9.998  2.5848 -1.0809 -1.1732
 8438SOL    HW236951   0.393   0.474  10.099 -2.9906  0.4139  4.1402
 8439SOL     OW36952   2.468   1.615  14.708  0.6145 -0.1072 -0.5524
 8439SOL    HW136953   2.420   1.666  14.773  2.5329  3.2960 -1.7704
 8439SOL    HW236954   2.400   1.599  14.643 -0.8612  1.8767  0.5104
 8440SOL     OW36955   4.046   1.341   4.704  0.1292  0.3102 -0.0576
 8440SOL    HW136956   3.986   1.269   4.685  0.5802  0.0061 -0.3011
 8440SOL    HW236957   4.112   1.301   4.760  1.0337  0.9404 -0.6757
 8441SOL     OW36958   2.412   2.786  16.807  0.3421 -0.0662 -0.0842
 8441SOL    HW136959   2.391   2.701  16.844  1.4463 -1.1268 -1.8864
 8441SOL    HW236960   2.380   2.777  16.717  1.1871 -2.3938 -0.1508
 8442SOL     OW36961   2.267   0.890  10.179 -0.1660 -0.2854 -0.5153
 8442SOL    HW136962   2.230   0.846  10.256  1.8359 -2.0399 -0.5443
 8442SOL    HW236963   2.237   0.825  10.115 -0.4658 -1.5997  0.9458
 8443SOL     OW36964   2.207   1.551  17.369 -0.0428 -0.4331 -0.1119
 8443SOL    HW136965   2.173   1.466  17.344  1.2255 -1.1858  0.7465
 8443SOL    HW236966   2.260   1.567  17.291 -0.8723  1.4897 -0.2849
 8444SOL     OW36967   2.496   2.946   6.702 -0.4018  0.0223 -0.4319
 8444SOL    HW136968   2.446   2.875   6.744 -0.7938  0.2757 -0.4699
 8444SOL    HW236969   2.537   2.985   6.779 -0.9016  0.1870 -0.2477
 8445SOL     OW36970   3.470   3.530   5.859  0.2674 -0.5699  0.5364
 8445SOL    HW136971   3.378   3.525   5.831  0.3785  1.7193 -0.2026
 8445SOL    HW236972   3.465   3.511   5.953  0.1583  0.6580  0.7694
 8446SOL     OW36973   3.363   0.944  14.973  0.3760  0.2417 -0.3111
 8446SOL    HW136974   3.400   0.891  14.903 -0.1416  0.0547 -0.4424
 8446SOL    HW236975   3.418   1.022  14.968  3.0338 -1.7429 -2.1532
 8447SOL     OW36976   3.448   2.957   1.782 -0.6490 -0.1887 -0.3912
 8447SOL    HW136977   3.367   2.963   1.832  1.5266 -0.3745  3.1663
 8447SOL    HW236978   3.479   3.046   1.800 -0.5242 -0.4272  0.5515
 8448SOL     OW36979   3.038   1.221   1.435  0.0486  0.0594 -0.3352
 8448SOL    HW136980   3.011   1.182   1.518  1.1229  0.7090  0.3264
 8448SOL    HW236981   3.102   1.285   1.468 -1.1989  1.2448 -0.1868
 8449SOL     OW36982   3.687   3.005  16.678  0.7052 -0.1830 -0.0017
 8449SOL    HW136983   3.647   2.937  16.624  0.9123  1.4519 -2.2153
 8449SOL    HW236984   3.716   2.953  16.753  0.8247  0.2503  0.2532
 8450SOL     OW36985   2.408   2.571   8.230  0.4522  0.3627 -0.2067
 8450SOL    HW136986   2.389   2.485   8.267 -3.2221  1.0499 -0.5199
 8450SOL    HW236987   2.418   2.549   8.138  0.2744 -1.3756  0.1966
 8451SOL     OW36988   0.025   4.230   1.664  0.7617  0.0845  0.0311
 8451SOL    HW136989   4.735   4.161   1.603  0.3203  0.8578 -0.6356
 8451SOL    HW236990   4.685   4.232   1.719  0.1691 -0.6857 -0.7688
 8452SOL     OW36991   3.336   3.846   1.309  0.1295 -0.3227 -0.2676
 8452SOL    HW136992   3.413   3.841   1.251 -1.0481  1.6077 -2.0102
 8452SOL    HW236993   3.305   3.756   1.304  1.5538 -0.9230  1.5014
 8453SOL     OW36994   3.255   1.666   6.855  0.0439  0.2485 -1.1191
 8453SOL    HW136995   3.342   1.695   6.883 -1.2519  1.9198  1.1069
 8453SOL    HW236996   3.287   1.616   6.780 -1.3114  0.5242 -1.8739
 8454SOL     OW36997   0.710   0.789   0.396  0.1786 -0.2537  0.1242
 8454SOL    HW136998   0.716   0.722   0.328 -3.0988  0.3803 -0.7986
 8454SOL    HW236999   0.761   0.750   0.467  1.5071  0.9543 -0.1746
 8455SOL     OW37000   2.009   1.969  16.451 -0.0865 -0.0354  0.0647
 8455SOL    HW137001   1.987   1.943  16.361 -1.2109  2.6251 -0.4376
 8455SOL    HW237002   2.046   1.889  16.488 -0.6180 -0.6906 -0.8023
 8456SOL     OW37003   4.285   2.327   7.693  0.3084 -0.2716  0.4509
 8456SOL    HW137004   4.276   2.286   7.779  0.7163  1.0288  1.1096
 8456SOL    HW237005   4.350   2.395   7.710 -0.1410  0.3775 -0.4059
 8457SOL     OW37006   1.973   3.510   3.793  0.2989  0.0801  0.1044
 8457SOL    HW137007   2.010   3.551   3.715 -1.1767 -0.2254 -0.7563
 8457SOL    HW237008   2.000   3.420   3.779 -1.6534 -0.6144  0.7890
 8458SOL     OW37009   0.026   1.957   2.626  0.5296  0.4114  0.2245
 8458SOL    HW137010   4.669   1.947   2.615  0.5971 -0.4392  0.4324
 8458SOL    HW237011   0.060   1.871   2.651 -0.4721  1.3556  4.7383
 8459SOL     OW37012   2.762   2.836   7.875  0.1249 -0.2020  0.2505
 8459SOL    HW137013   2.845   2.859   7.833  0.0224  0.9958  0.7001
 8459SOL    HW237014   2.776   2.881   7.958 -1.6672 -0.3485  0.6444
 8460SOL     OW37015   0.958   1.354   7.122 -0.2453 -0.8694  0.3250
 8460SOL    HW137016   0.932   1.397   7.203 -0.9670 -1.2421  0.2936
 8460SOL    HW237017   1.033   1.405   7.090 -1.5307  0.2018 -0.9272
 8461SOL     OW37018   4.639   0.765  17.067 -0.5105  0.1004 -0.3034
 8461SOL    HW137019   4.679   0.679  17.061 -0.5210  0.0131  0.9027
 8461SOL    HW237020   4.690   0.813  17.001 -0.1938 -0.8729 -0.7629
 8462SOL     OW37021   2.960   2.369   3.731  0.2924 -0.3883  0.3398
 8462SOL    HW137022   2.875   2.410   3.719  0.7194  0.2522 -0.5926
 8462SOL    HW237023   2.930   2.280   3.747 -0.9413 -0.0721 -0.1940
 8463SOL     OW37024   3.510   3.217   7.525  0.5675 -0.0870 -0.0430
 8463SOL    HW137025   3.474   3.210   7.613 -0.7952  0.0357 -0.5951
 8463SOL    HW237026   3.578   3.279   7.551  1.7479 -0.9730 -0.9942
 8464SOL     OW37027   2.417   3.658   3.097 -0.4178  0.9626 -0.3221
 8464SOL    HW137028   2.333   3.701   3.082 -0.7096 -0.1669 -1.8312
 8464SOL    HW237029   2.407   3.586   3.160 -1.1682 -0.9596 -2.6345
 8465SOL     OW37030   0.261   2.545   8.352 -0.6616  0.4566  0.2191
 8465SOL    HW137031   0.325   2.487   8.394 -1.6579  0.3878  1.6216
 8465SOL    HW237032   0.234   2.591   8.431 -1.7795  0.4827 -0.1739
 8466SOL     OW37033   4.413   3.645   6.167  0.2793  0.5553 -0.0016
 8466SOL    HW137034   4.421   3.617   6.259  0.3833  0.7450  0.0482
 8466SOL    HW237035   4.398   3.739   6.182  1.1154  0.8961 -1.4021
 8467SOL     OW37036   2.720   3.850   7.873  0.1270 -1.0610  0.3390
 8467SOL    HW137037   2.805   3.815   7.846  0.7368  0.7205 -0.0420
 8467SOL    HW237038   2.662   3.814   7.806  1.2397 -1.3288 -0.4782
 8468SOL     OW37039   2.047   3.288  17.192 -0.5818 -0.6752  0.2765
 8468SOL    HW137040   2.035   3.255  17.281  2.2346  0.0912  0.9441
 8468SOL    HW237041   1.957   3.295  17.159 -1.7299 -3.5970  2.8826
 8469SOL     OW37042   4.136   4.680   6.314  0.3354  0.3544  0.7987
 8469SOL    HW137043   4.054   4.713   6.351 -0.3936  0.0726 -0.5535
 8469SOL    HW237044   4.196   4.731   6.368 -0.5226 -1.9312  3.9296
 8470SOL     OW37045   3.043   0.369   9.997 -0.7715 -0.4263 -0.0267
 8470SOL    HW137046   3.108   0.359  10.067  0.5188 -2.5052 -1.5098
 8470SOL    HW237047   3.027   0.275   9.983 -0.3914 -0.3663 -0.8722
 8471SOL     OW37048   0.096   2.768   8.797  0.3006 -0.7009  0.1121
 8471SOL    HW137049   0.028   2.717   8.841  0.5728  0.9471  2.4296
 8471SOL    HW237050   0.179   2.739   8.836  0.1470 -0.5919  0.5237
 8472SOL     OW37051   1.964   1.086   3.392  0.5893 -0.2880 -0.0832
 8472SOL    HW137052   2.020   1.106   3.317  0.9705  0.2803  0.3596
 8472SOL    HW237053   1.991   0.995   3.405  2.0126  0.0098 -1.0117
 8473SOL     OW37054   1.992   2.614   3.950  0.1059 -0.6481  0.1191
 8473SOL    HW137055   1.904   2.643   3.974  0.0003 -0.8081 -0.0811
 8473SOL    HW237056   2.023   2.555   4.019  2.1183  0.5141  0.1945
 8474SOL     OW37057   1.870   1.693   9.000  0.2594 -0.2331  0.1211
 8474SOL    HW137058   1.895   1.750   8.927  2.1487 -0.7983  0.3303
 8474SOL    HW237059   1.860   1.610   8.952  0.3987  0.0886 -0.4689
 8475SOL     OW37060   1.254   3.762   3.929 -0.1445  0.6309 -0.4115
 8475SOL    HW137061   1.251   3.813   3.848  1.3845  1.1342 -0.1505
 8475SOL    HW237062   1.197   3.820   3.980 -0.7874 -0.6249  0.2728
 8476SOL     OW37063   1.226   3.512   5.441 -0.0332 -0.5897  0.2895
 8476SOL    HW137064   1.305   3.464   5.466  0.7662  1.0029  0.8189
 8476SOL    HW237065   1.247   3.598   5.478  0.6974 -1.0843  1.0086
 8477SOL     OW37066   0.780   1.585   3.299  0.4700  0.8310 -0.5314
 8477SOL    HW137067   0.794   1.510   3.241 -0.2158 -0.3832  0.8615
 8477SOL    HW237068   0.760   1.535   3.378  0.8881  2.1291  0.3975
 8478SOL     OW37069   1.815   0.316   3.850 -0.2386  0.0137  0.0147
 8478SOL    HW137070   1.725   0.310   3.816 -1.8728  2.0058  4.0541
 8478SOL    HW237071   1.795   0.347   3.938  2.8913  2.7062 -0.2180
 8479SOL     OW37072   3.662   1.202   6.788  0.5454  0.7688 -0.1995
 8479SOL    HW137073   3.692   1.161   6.870  1.5483 -0.2714 -1.0876
 8479SOL    HW237074   3.728   1.268   6.768  1.0006  0.8664  1.6052
 8480SOL     OW37075   2.066   1.139   7.009  0.1610  0.3007 -0.0239
 8480SOL    HW137076   2.014   1.125   7.088 -0.3057  0.0906 -0.3673
 8480SOL    HW237077   2.150   1.166   7.047  1.4238 -0.1164 -2.5068
 8481SOL     OW37078   2.557   3.224   3.646  0.5721  0.4395  0.1890
 8481SOL    HW137079   2.597   3.219   3.733 -0.6649  1.5627  0.8330
 8481SOL    HW237080   2.610   3.155   3.607 -1.0828 -0.2235 -0.8754
 8482SOL     OW37081   4.592   1.382   4.398 -0.3194 -0.4015  0.9958
 8482SOL    HW137082   4.529   1.368   4.468 -2.7559 -0.4758 -1.2121
 8482SOL    HW237083   4.647   1.453   4.430 -1.4492  1.1820 -0.5482
 8483SOL     OW37084   0.441   2.721   6.170  0.0895  0.1398  0.0306
 8483SOL    HW137085   0.472   2.640   6.132  4.9865  2.1048 -0.1354
 8483SOL    HW237086   0.358   2.687   6.203  0.1835  0.3578  0.4969
 8484SOL     OW37087   4.593   1.452   4.041 -0.7407  0.3784 -0.1932
 8484SOL    HW137088   4.533   1.520   4.009  0.0412  3.0721  4.1016
 8484SOL    HW237089   4.621   1.417   3.957  3.3882 -0.5581  1.5567
 8485SOL     OW37090   3.498   1.852  13.167  0.6661  0.6091  0.0681
 8485SOL    HW137091   3.409   1.885  13.153  0.2939 -0.4566 -0.1054
 8485SOL    HW237092   3.548   1.896  13.098 -0.4556  2.6177  0.5482
 8486SOL     OW37093   4.245   2.054   6.558  0.3116  0.0092  0.3607
 8486SOL    HW137094   4.319   2.028   6.612  3.0512 -2.8112 -4.6903
 8486SOL    HW237095   4.257   2.148   6.569  0.6723  0.2581 -2.1033
 8487SOL     OW37096   1.328   1.456   6.616 -0.4612  0.3506  0.3463
 8487SOL    HW137097   1.265   1.453   6.688 -2.7047  0.1135 -1.6256
 8487SOL    HW237098   1.289   1.531   6.572  0.9885  0.6049 -0.4927
 8488SOL     OW37099   3.382   3.794   8.991  0.0800 -0.3008  0.4055
 8488SOL    HW137100   3.380   3.771   9.083  1.2626  1.3832  0.8478
 8488SOL    HW237101   3.329   3.874   8.988  0.6951  0.1112  0.4409
 8489SOL     OW37102   2.015   0.493  13.768  0.1782  0.4855 -0.0059
 8489SOL    HW137103   1.926   0.526  13.781 -0.6471 -1.3812 -0.9589
 8489SOL    HW237104   2.058   0.545  13.836  1.4871 -0.4274 -0.1361
 8490SOL     OW37105   0.978   4.143   8.786  0.1918  0.2620  0.8370
 8490SOL    HW137106   0.961   4.192   8.705 -1.2327  2.9331  2.7778
 8490SOL    HW237107   0.974   4.214   8.849  0.1290  0.9132  0.0985
 8491SOL     OW37108   0.069   0.902   0.534 -0.2696  0.0012 -0.1673
 8491SOL    HW137109   0.003   0.954   0.488 -0.3957 -0.9160 -1.0176
 8491SOL    HW237110   0.126   0.874   0.463 -0.2823  0.5766 -0.4034
 8492SOL     OW37111   1.519   0.470  15.244 -0.0142 -0.0642  1.0164
 8492SOL    HW137112   1.573   0.529  15.190 -0.9506 -0.5422 -0.4437
 8492SOL    HW237113   1.535   0.511  15.329  1.0305 -0.4207  0.9988
 8493SOL     OW37114   1.345   2.016  15.553  0.5618 -0.5407 -0.1343
 8493SOL    HW137115   1.267   1.963  15.541  0.7748 -0.5756 -1.3347
 8493SOL    HW237116   1.301   2.084  15.605  0.1526 -0.6398 -0.3528
 8494SOL     OW37117   3.719   1.817   6.328  0.2059 -0.0286  0.2204
 8494SOL    HW137118   3.636   1.809   6.375 -0.3004  0.9418 -0.4919
 8494SOL    HW237119   3.769   1.857   6.399 -1.3608  0.7302  0.9052
 8495SOL     OW37120   2.158   1.227   4.701 -0.4744  0.1954 -0.0061
 8495SOL    HW137121   2.074   1.243   4.658 -0.2551 -0.0754 -0.5308
 8495SOL    HW237122   2.228   1.267   4.649 -1.6466  0.3789 -1.4364
 8496SOL     OW37123   4.187   4.548  12.398  0.0162 -1.1296 -0.2908
 8496SOL    HW137124   4.146   4.573  12.481  1.5093 -2.4087  0.8350
 8496SOL    HW237125   4.138   4.469  12.374  0.5341 -2.1968  2.2186
 8497SOL     OW37126   4.146   4.462   6.817  0.0954 -0.3525  0.0219
 8497SOL    HW137127   4.081   4.400   6.782 -1.2487  2.0343 -1.6802
 8497SOL    HW237128   4.224   4.411   6.840 -0.2175 -0.2848  1.2463
 8498SOL     OW37129   4.718   0.745  13.563  0.0320 -0.3056 -0.2765
 8498SOL    HW137130   0.058   0.711  13.518  0.1165  1.6096 -1.5953
 8498SOL    HW237131   4.705   0.830  13.521  0.7828  0.6252  1.3853
 8499SOL     OW37132   0.771   4.700  14.742 -0.1413  0.0091 -0.1643
 8499SOL    HW137133   0.866   4.703  14.725 -0.1292 -1.3053 -0.3150
 8499SOL    HW237134   0.771   4.657  14.827  0.0495 -1.5504 -0.9629
 8500SOL     OW37135   0.405   3.902   6.692  0.2961  0.3142  0.5177
 8500SOL    HW137136   0.339   3.967   6.671 -1.1897 -1.9058 -1.6706
 8500SOL    HW237137   0.355   3.856   6.760 -1.5702 -0.9648 -1.6863
 8501SOL     OW37138   3.987   1.257   2.816 -0.3333  0.3055 -0.0507
 8501SOL    HW137139   3.923   1.314   2.859 -1.5114 -1.1553  0.1404
 8501SOL    HW237140   3.933   1.212   2.752  1.2109 -1.0517 -0.3993
 8502SOL     OW37141   3.921   1.056   1.546  0.3596 -0.0375 -0.3259
 8502SOL    HW137142   3.949   1.013   1.626 -3.7811  0.3803  1.3185
 8502SOL    HW237143   3.893   0.986   1.487 -0.6960  0.3091 -0.2360
 8503SOL     OW37144   0.917   0.912   6.765  0.0769 -0.4284  0.1697
 8503SOL    HW137145   0.988   0.975   6.772  0.6126 -0.8909 -1.0426
 8503SOL    HW237146   0.886   0.920   6.675  0.0413 -1.8458  0.0558
 8504SOL     OW37147   1.479   4.693   6.163  0.0473 -0.1869  0.1733
 8504SOL    HW137148   1.527   4.620   6.124  0.5727 -0.8831  2.1184
 8504SOL    HW237149   1.395   4.684   6.119 -1.3238 -2.4738  3.2062
 8505SOL     OW37150   0.344   3.175   3.272 -0.0505 -0.1565  0.4651
 8505SOL    HW137151   0.312   3.087   3.256 -2.5100  0.7305  0.5557
 8505SOL    HW237152   0.328   3.187   3.366 -2.8340  1.8132 -0.2645
 8506SOL     OW37153   2.065   2.606   3.644 -0.6581  0.1464 -0.0892
 8506SOL    HW137154   2.159   2.602   3.662 -0.7209  0.4398  0.3038
 8506SOL    HW237155   2.039   2.644   3.728  0.0691 -0.2804  0.3354
 8507SOL     OW37156   1.655   3.642   9.404 -0.5446 -0.7904 -0.2881
 8507SOL    HW137157   1.732   3.633   9.348 -1.5393  2.1362 -2.1088
 8507SOL    HW237158   1.657   3.567   9.464  0.5791  0.3878  1.1253
 8508SOL     OW37159   1.499   4.057   6.659  0.3559  1.0791 -0.0029
 8508SOL    HW137160   1.440   4.070   6.585 -2.1346  0.4797  1.8715
 8508SOL    HW237161   1.508   4.150   6.682  1.0618  1.0304 -0.0847
 8509SOL     OW37162   2.668   3.658  12.049 -0.3704  0.2217  0.1395
 8509SOL    HW137163   2.587   3.691  12.088  0.6228 -1.1692  3.4493
 8509SOL    HW237164   2.710   3.737  12.014 -1.3328 -0.4015 -2.3973
 8510SOL     OW37165   2.541   3.504  14.740  0.0174  0.2420 -0.1648
 8510SOL    HW137166   2.476   3.569  14.716 -0.6685  0.9813  3.5906
 8510SOL    HW237167   2.477   3.434  14.756 -1.0211  0.9887 -1.1130
 8511SOL     OW37168   4.173   0.519   5.004  0.1198 -0.2198 -0.0387
 8511SOL    HW137169   4.110   0.449   5.023 -0.9797  0.4243 -1.3168
 8511SOL    HW237170   4.126   0.591   5.045  3.0686  1.5881  0.1337
 8512SOL     OW37171   0.291   2.330  11.360 -0.2253  0.0039 -0.0320
 8512SOL    HW137172   0.358   2.341  11.428 -0.6528  4.7263 -0.3371
 8512SOL    HW237173   0.311   2.237  11.349  0.5604 -0.0645  1.9005
 8513SOL     OW37174   3.234   0.794   7.535 -0.5707  0.1670  0.0801
 8513SOL    HW137175   3.162   0.835   7.584  0.3699  2.5985 -0.5933
 8513SOL    HW237176   3.246   0.715   7.588  0.9527  1.6199  1.8694
 8514SOL     OW37177   3.014   0.956   7.009 -1.0166 -0.2686 -0.4159
 8514SOL    HW137178   3.053   0.926   7.091 -1.8052 -0.1417  0.0099
 8514SOL    HW237179   2.931   0.909   7.008 -1.9416  1.3344  0.7380
 8515SOL     OW37180   2.901   2.587   3.465 -0.0482 -0.6723  0.4408
 8515SOL    HW137181   2.971   2.545   3.416  0.4006  1.7907 -1.0512
 8515SOL    HW237182   2.842   2.516   3.489 -2.1312  0.4540 -1.3729
 8516SOL     OW37183   2.251   2.584   6.115  0.5505  0.2791  0.1755
 8516SOL    HW137184   2.231   2.655   6.054 -0.5900  0.6166  0.9468
 8516SOL    HW237185   2.263   2.509   6.057 -1.5486  0.0012  0.1209
 8517SOL     OW37186   2.613   3.242  15.056 -0.0210  0.1207 -0.1532
 8517SOL    HW137187   2.587   3.155  15.024 -0.2601 -0.9465  2.9090
 8517SOL    HW237188   2.532   3.291  15.042  0.6013  0.9763 -0.6628
 8518SOL     OW37189   1.438   3.129  10.806 -0.2540 -0.8731  0.5561
 8518SOL    HW137190   1.493   3.163  10.877  1.4383  1.3890 -1.8407
 8518SOL    HW237191   1.440   3.196  10.739 -0.5419 -0.5019  0.9212
 8519SOL     OW37192   0.626   1.099   4.791 -0.0570 -0.5608 -0.1894
 8519SOL    HW137193   0.664   1.071   4.875 -4.2028  1.8582  2.4612
 8519SOL    HW237194   0.657   1.034   4.727  0.4266  1.2908 -1.8435
 8520SOL     OW37195   3.847   4.328   4.959  0.2494  0.2381 -0.0630
 8520SOL    HW137196   3.755   4.323   4.932  0.1246 -1.5051  0.6814
 8520SOL    HW237197   3.885   4.332   4.871 -3.7317  0.1686 -1.8085
 8521SOL     OW37198   1.322   0.604  17.098 -0.2812 -0.2015  0.1840
 8521SOL    HW137199   1.387   0.599  17.169 -0.0850  2.0241  0.1617
 8521SOL    HW237200   1.373   0.569  17.025 -1.2647 -3.2843  0.9659
 8522SOL     OW37201   0.898   2.236   8.750  0.1263  0.1034 -0.6569
 8522SOL    HW137202   0.832   2.243   8.819  0.0989 -0.7042 -0.6003
 8522SOL    HW237203   0.963   2.301   8.774  0.1660  0.2346 -1.1128
 8523SOL     OW37204   4.558   3.584   5.023 -0.2908 -0.2263  0.3599
 8523SOL    HW137205   4.619   3.520   5.060 -0.0933 -0.3881 -0.2514
 8523SOL    HW237206   4.521   3.636   5.095 -1.4060  0.5695 -0.7897
 8524SOL     OW37207   3.281   0.726  17.651 -0.2571 -0.5464 -0.0515
 8524SOL    HW137208   3.193   0.707  17.684 -0.5332  2.8556  1.1454
 8524SOL    HW237209   3.261   0.812  17.613 -3.2031 -0.4567  1.6873
 8525SOL     OW37210   3.266   1.145   8.628 -0.3782 -0.0697 -0.1623
 8525SOL    HW137211   3.245   1.214   8.691  0.4763 -0.7686  0.8724
 8525SOL    HW237212   3.188   1.153   8.573  0.9040 -2.9308 -2.4100
 8526SOL     OW37213   3.002   4.345  17.632 -0.1015  0.0625 -0.2657
 8526SOL    HW137214   2.936   4.324  17.698  1.3325 -1.5184  0.6594
 8526SOL    HW237215   2.984   4.281  17.563 -3.4247 -0.0188  0.6326
 8527SOL     OW37216   0.576   3.750   5.820  0.5030 -0.1549 -0.2964
 8527SOL    HW137217   0.481   3.756   5.810  0.4514  0.0016  0.2802
 8527SOL    HW237218   0.585   3.841   5.850  2.2270 -1.2427  2.5285
 8528SOL     OW37219   3.226   3.095  10.153  0.5127  0.2677 -0.2882
 8528SOL    HW137220   3.283   3.018  10.155  0.8593  0.5854  2.0528
 8528SOL    HW237221   3.159   3.058  10.209 -0.6939  2.7294 -0.1068
 8529SOL     OW37222   4.613   0.713   8.835 -0.0174 -0.2045 -0.5107
 8529SOL    HW137223   4.671   0.769   8.887  1.6175 -2.4534  0.1195
 8529SOL    HW237224   4.565   0.667   8.904  1.7061 -0.0560  0.7711
 8530SOL     OW37225   4.181   3.395  11.985  0.2736 -0.0014 -0.0480
 8530SOL    HW137226   4.122   3.423  11.915  2.4272  0.8835 -1.4939
 8530SOL    HW237227   4.107   3.365  12.038 -0.4924 -0.0049 -1.1179
 8531SOL     OW37228   2.366   0.792  11.506  0.1625 -0.3775  0.1476
 8531SOL    HW137229   2.297   0.775  11.569 -1.0223 -1.9148 -1.5536
 8531SOL    HW237230   2.329   0.739  11.436 -0.4911 -0.9394  0.9284
 8532SOL     OW37231   0.384   0.598   9.050 -0.7596 -0.2841 -0.2067
 8532SOL    HW137232   0.472   0.614   9.017 -1.7194  0.4493 -2.4070
 8532SOL    HW237233   0.400   0.529   9.114 -0.1905 -0.7898 -0.8939
 8533SOL     OW37234   2.631   1.128  17.540 -0.2860  0.0450 -0.1237
 8533SOL    HW137235   2.696   1.184  17.580  0.0945 -0.1282 -0.4908
 8533SOL    HW237236   2.656   1.041  17.571 -0.8564 -0.5945 -1.4091
 8534SOL     OW37237   1.678   1.626   2.775 -0.0062  0.3791 -0.4241
 8534SOL    HW137238   1.697   1.712   2.812  1.4340 -0.6411  1.1677
 8534SOL    HW237239   1.764   1.586   2.765 -0.3319 -0.5197  0.4279
 8535SOL     OW37240   2.705   1.817   9.876 -0.4311 -0.6220 -0.1742
 8535SOL    HW137241   2.732   1.744   9.930  0.6014 -0.8323 -0.9772
 8535SOL    HW237242   2.686   1.778   9.790 -0.5252 -0.3688 -0.2695
 8536SOL     OW37243   2.965   0.286   4.869 -0.1556 -0.1444 -0.5331
 8536SOL    HW137244   2.970   0.330   4.954  3.4478  0.6203 -1.1284
 8536SOL    HW237245   2.876   0.253   4.859 -0.8983  1.4904  0.6999
 8537SOL     OW37246   4.545   3.902   9.056 -0.5123 -0.3257  0.0354
 8537SOL    HW137247   4.542   3.808   9.042 -0.3265 -0.1036 -1.5364
 8537SOL    HW237248   4.634   3.904   9.093 -1.3431  1.7063  1.9187
 8538SOL     OW37249   2.214   1.657  14.587  0.0505  0.3240 -0.1168
 8538SOL    HW137250   2.151   1.662  14.659 -1.4067 -1.3147 -1.2649
 8538SOL    HW237251   2.225   1.750  14.570  2.0608  0.1826  0.4620
 8539SOL     OW37252   4.652   2.381   2.366 -0.2693  0.1812 -0.0777
 8539SOL    HW137253   4.708   2.405   2.292 -1.2702 -0.3547 -1.0250
 8539SOL    HW237254   4.571   2.367   2.317 -0.5456 -1.6864  0.9011
 8540SOL     OW37255   1.563   1.853   2.072 -0.5045  0.2476  0.1553
 8540SOL    HW137256   1.546   1.759   2.079  1.8145  0.0011  2.4807
 8540SOL    HW237257   1.646   1.843   2.025 -0.5395 -1.1305  0.3921
 8541SOL     OW37258   1.920   2.258  11.504 -0.3301  0.0515  0.3064
 8541SOL    HW137259   1.848   2.272  11.565 -2.6553 -0.2106 -2.3585
 8541SOL    HW237260   1.879   2.271  11.418  1.3488  1.7754 -0.2370
 8542SOL     OW37261   2.600   2.016   8.191 -0.0932 -0.1986  0.7243
 8542SOL    HW137262   2.658   1.969   8.130 -0.9434  0.2574 -0.4454
 8542SOL    HW237263   2.559   2.082   8.134  1.1436  1.3973  1.7027
 8543SOL     OW37264   4.529   2.187   7.024 -0.6545 -0.4604  0.6565
 8543SOL    HW137265   4.482   2.259   7.068 -0.6989  1.2154 -2.1561
 8543SOL    HW237266   4.616   2.198   7.063 -1.3012  0.3113  1.8845
 8544SOL     OW37267   2.622   2.235   3.357 -0.2568 -0.1054  0.0743
 8544SOL    HW137268   2.611   2.140   3.367  0.8950 -0.2418  0.1042
 8544SOL    HW237269   2.534   2.268   3.377 -0.6514 -0.2572 -1.4542
 8545SOL     OW37270   2.104   0.212   6.406 -0.0361  0.3316  0.3155
 8545SOL    HW137271   2.012   0.232   6.387  0.3506  1.4727 -0.3672
 8545SOL    HW237272   2.139   0.298   6.383 -0.7659  0.3416 -0.7389
 8546SOL     OW37273   2.356   2.122  15.582  0.1164 -0.1038 -0.0030
 8546SOL    HW137274   2.275   2.131  15.632 -0.1235 -0.0906 -0.3863
 8546SOL    HW237275   2.402   2.204  15.603  0.0856  0.3591 -1.7173
 8547SOL     OW37276   3.352   2.537   3.538  0.1476 -0.1677  0.0582
 8547SOL    HW137277   3.369   2.533   3.632  0.3767 -0.9073 -0.0104
 8547SOL    HW237278   3.370   2.630   3.525  1.1188 -0.4920 -1.0021
 8548SOL     OW37279   3.763   3.044   3.248  0.7532  0.1884  0.4986
 8548SOL    HW137280   3.684   2.991   3.259 -0.7903  2.3009 -0.2787
 8548SOL    HW237281   3.797   3.037   3.337  0.8580 -1.8732  0.2765
 8549SOL     OW37282   4.555   4.313   6.556 -0.0791  0.3050 -0.4658
 8549SOL    HW137283   4.528   4.232   6.514  1.9156 -0.1744 -0.8184
 8549SOL    HW237284   4.578   4.370   6.482 -1.5233  2.1353  0.4750
 8550SOL     OW37285   0.662   2.715   4.486  0.1405 -0.7000  0.2012
 8550SOL    HW137286   0.736   2.774   4.500  0.4357 -0.9094 -0.4642
 8550SOL    HW237287   0.615   2.763   4.417  1.7564 -0.6549 -0.8602
 8551SOL     OW37288   4.385   1.654   8.293 -0.1625 -0.6116 -0.0717
 8551SOL    HW137289   4.292   1.676   8.301  0.1283  1.3250 -2.0948
 8551SOL    HW237290   4.392   1.645   8.198 -4.0980  4.1094 -0.7834
 8552SOL     OW37291   1.473   3.575  13.980 -0.0000  0.0991 -0.1844
 8552SOL    HW137292   1.543   3.610  13.925  0.6875  0.3773  0.8648
 8552SOL    HW237293   1.467   3.657  14.030 -1.5262  1.1384 -2.0660
 8553SOL     OW37294   1.090   0.152   3.879  0.3150 -0.6859 -0.2759
 8553SOL    HW137295   1.164   0.210   3.895 -0.1831  0.4958 -2.2509
 8553SOL    HW237296   1.133   0.072   3.909 -1.5848 -1.1212  1.2437
 8554SOL     OW37297   3.975   4.558   0.955 -0.2400  0.3146 -0.1882
 8554SOL    HW137298   4.008   4.564   1.045  0.2618 -0.6394 -0.3118
 8554SOL    HW237299   4.034   4.613   0.904  2.1141  1.6865  3.9563
 8555SOL     OW37300   4.482   3.399   1.777 -0.3300 -0.1082 -0.2165
 8555SOL    HW137301   4.395   3.373   1.809 -0.4381 -0.1179 -0.5234
 8555SOL    HW237302   4.469   3.367   1.688 -1.5476 -0.0555 -0.0643
 8556SOL     OW37303   2.943   3.162   9.895  0.6686  0.1697 -0.4781
 8556SOL    HW137304   2.854   3.187   9.920  0.8133  1.0015 -0.7953
 8556SOL    HW237305   2.936   3.067   9.896 -0.4664  0.2539 -0.5073
 8557SOL     OW37306   2.162   2.598   1.616 -0.3031 -0.7527 -0.7686
 8557SOL    HW137307   2.226   2.670   1.613 -1.1001 -0.1246 -2.4470
 8557SOL    HW237308   2.105   2.627   1.545  1.7743  0.5505 -1.9178
 8558SOL     OW37309   0.327   3.858   3.858  0.0408  0.0905  0.1321
 8558SOL    HW137310   0.304   3.887   3.770  0.6605  0.2951  0.0400
 8558SOL    HW237311   0.240   3.858   3.898  0.3336 -0.4471  0.7674
 8559SOL     OW37312   4.391   0.922   8.642  0.0619  0.4892 -0.3169
 8559SOL    HW137313   4.418   0.962   8.725 -0.3292 -0.1984  0.1428
 8559SOL    HW237314   4.476   0.895   8.605  0.4102  1.1496  0.0099
 8560SOL     OW37315   0.628   1.629   4.301  0.3535  0.0894  0.5090
 8560SOL    HW137316   0.582   1.698   4.349 -0.0544  2.1565 -2.8417
 8560SOL    HW237317   0.560   1.589   4.247  0.2118 -1.4369  1.8128
 8561SOL     OW37318   2.136   1.914   7.725  0.4279 -0.4133  0.0689
 8561SOL    HW137319   2.099   1.881   7.643 -1.2696 -1.5935  1.3135
 8561SOL    HW237320   2.174   1.993   7.688  0.8324 -0.3476  0.6247
 8562SOL     OW37321   2.866   2.248   0.847 -0.1666  0.0597  0.3221
 8562SOL    HW137322   2.945   2.267   0.796 -0.2377  0.8416  0.5131
 8562SOL    HW237323   2.878   2.153   0.856  0.8250  0.0053 -1.6122
 8563SOL     OW37324   2.768   0.054  10.114 -0.3736  0.6618 -0.0387
 8563SOL    HW137325   2.721   0.009  10.185  0.5991 -2.5107 -1.4039
 8563SOL    HW237326   2.750   0.145  10.136 -0.8565  0.8044 -1.0048
 8564SOL     OW37327   4.288   0.799   7.887 -0.3300 -0.3064 -0.9515
 8564SOL    HW137328   4.344   0.788   7.964 -0.1343 -0.1661 -1.0743
 8564SOL    HW237329   4.327   0.875   7.842 -1.2130 -0.2642 -1.6373
 8565SOL     OW37330   3.241   3.447   7.018 -0.2474  0.7194  0.0639
 8565SOL    HW137331   3.215   3.358   6.997 -1.1121  1.2404 -1.0519
 8565SOL    HW237332   3.298   3.437   7.095  1.2571 -0.0599 -1.1375
 8566SOL     OW37333   1.148   3.180   3.671 -0.6847 -0.0217  0.6268
 8566SOL    HW137334   1.230   3.194   3.719 -0.8375  0.4388  0.7558
 8566SOL    HW237335   1.190   3.185   3.585  2.0691 -2.0433  1.8426
 8567SOL     OW37336   1.658   0.078   6.591 -0.3740 -0.3050 -0.9725
 8567SOL    HW137337   1.610   0.109   6.668 -0.7784 -1.4399 -0.7729
 8567SOL    HW237338   1.616   0.137   6.528 -1.3154  2.3419  2.0886
 8568SOL     OW37339   3.127   0.069  14.759  0.4417  0.1527 -0.1813
 8568SOL    HW137340   3.135   0.034  14.670 -1.7508  1.2554 -0.7961
 8568SOL    HW237341   3.147   0.162  14.747  0.0466 -0.2567 -3.7533
 8569SOL     OW37342   3.864   0.754   6.501  0.5250 -0.4492  0.4451
 8569SOL    HW137343   3.894   0.839   6.470  0.8351 -1.1760 -1.2623
 8569SOL    HW237344   3.888   0.697   6.428 -1.1372  1.5805 -1.6593
 8570SOL     OW37345   0.787   3.077  15.728  0.0707 -0.2627  0.1274
 8570SOL    HW137346   0.839   2.997  15.732  0.4979  0.0538  0.8514
 8570SOL    HW237347   0.841   3.139  15.678 -1.7174  0.2556 -1.1659
 8571SOL     OW37348   0.351   3.374   7.871 -0.0279  0.2030 -0.9379
 8571SOL    HW137349   0.336   3.448   7.930  1.1419  1.4308 -2.1878
 8571SOL    HW237350   0.389   3.302   7.921  3.3396  1.8351 -1.1719
 8572SOL     OW37351   2.203   3.608   0.520 -0.0538 -0.1273  0.3878
 8572SOL    HW137352   2.142   3.608   0.447  1.7869  0.2460 -1.1385
 8572SOL    HW237353   2.172   3.689   0.560 -0.9398  0.6027 -1.7980
 8573SOL     OW37354   2.373   1.101  11.280  0.4502  0.7338 -0.2071
 8573SOL    HW137355   2.451   1.124  11.230  0.8937  0.0984  0.1937
 8573SOL    HW237356   2.336   1.030  11.227 -1.6197  1.0088  0.8923
 8574SOL     OW37357   2.684   0.925  11.720 -0.0327  0.1076 -0.2328
 8574SOL    HW137358   2.662   0.832  11.731  2.4472 -0.4398 -0.0891
 8574SOL    HW237359   2.668   0.938  11.626  1.5926 -0.0357 -0.5172
 8575SOL     OW37360   1.809   0.953   5.077 -0.2760 -0.0271  0.1383
 8575SOL    HW137361   1.819   0.858   5.074 -4.5118 -0.5009  0.3306
 8575SOL    HW237362   1.837   0.979   4.989 -1.1372  2.4724  0.6320
 8576SOL     OW37363   4.167   1.667   8.002  0.3326  0.4694 -0.3258
 8576SOL    HW137364   4.253   1.629   7.987  0.7819  1.6694 -0.8291
 8576SOL    HW237365   4.190   1.759   8.016 -0.5927  0.5499  0.6486
 8577SOL     OW37366   2.897   0.095   7.630  0.6027  0.5079  0.1540
 8577SOL    HW137367   2.903   0.067   7.721 -2.5603  0.2426  0.2718
 8577SOL    HW237368   2.811   0.058   7.610  1.5361 -1.0394 -0.9752
 8578SOL     OW37369   1.390   0.752   3.600  0.7318  0.2610  0.5910
 8578SOL    HW137370   1.299   0.732   3.623  0.8270  1.6584  2.2494
 8578SOL    HW237371   1.385   0.845   3.622 -1.4003  0.7887 -2.2243
 8579SOL     OW37372   4.532   1.924   3.191 -0.2950  0.2657 -0.3110
 8579SOL    HW137373   4.621   1.936   3.222  0.3524 -0.7630 -1.7847
 8579SOL    HW237374   4.487   1.992   3.243 -0.8734 -1.2547  1.1635
 8580SOL     OW37375   2.535   0.907  12.054  0.1290  0.6830 -0.1137
 8580SOL    HW137376   2.498   0.819  12.059  0.6538  0.4827  0.2221
 8580SOL    HW237377   2.493   0.945  11.977 -0.4146 -0.6499 -0.4693
 8581SOL     OW37378   4.483   2.978   8.944  0.1646  0.3297 -0.5475
 8581SOL    HW137379   4.497   2.986   8.849 -0.2830  0.3474 -0.6113
 8581SOL    HW237380   4.401   2.930   8.953  1.5504 -2.3284 -2.3982
 8582SOL     OW37381   2.428   2.196   8.892 -0.6710  0.5286  0.3290
 8582SOL    HW137382   2.446   2.259   8.962  3.2080  0.8083 -0.9113
 8582SOL    HW237383   2.496   2.130   8.911 -1.8601 -1.3166 -1.8290
 8583SOL     OW37384   2.765   1.228   6.310 -0.0454  0.2383 -0.0770
 8583SOL    HW137385   2.704   1.278   6.256  0.2123  0.5401 -0.0840
 8583SOL    HW237386   2.793   1.168   6.241  1.6100 -0.1274  0.9049
 8584SOL     OW37387   4.246   3.545   6.985 -0.7528 -0.0444  0.4224
 8584SOL    HW137388   4.325   3.496   7.009 -0.9213 -1.2906 -1.4982
 8584SOL    HW237389   4.195   3.479   6.939 -0.0813 -0.1742 -0.1357
 8585SOL     OW37390   4.231   3.340   5.881  0.0701  0.4083  0.3383
 8585SOL    HW137391   4.187   3.384   5.808  2.6280  1.8694 -0.3205
 8585SOL    HW237392   4.182   3.258   5.889 -0.0739  0.3749 -0.8966
 8586SOL     OW37393   4.717   1.575   0.432 -0.1649 -0.2545  0.6450
 8586SOL    HW137394   4.634   1.534   0.405 -0.4664  1.8666 -1.6761
 8586SOL    HW237395   4.728   1.528   0.514 -0.6336 -1.8001 -0.1759
 8587SOL     OW37396   0.715   3.078   9.111  0.4289  0.5881 -0.3651
 8587SOL    HW137397   0.806   3.049   9.116  0.6983  1.6948  1.0529
 8587SOL    HW237398   0.735   3.162   9.068  0.2550  0.8667  0.1014
 8588SOL     OW37399   4.480   2.596   2.533  0.5558  0.0995  0.0139
 8588SOL    HW137400   4.547   2.535   2.565 -1.2648 -2.7992 -1.7408
 8588SOL    HW237401   4.538   2.663   2.494 -0.0517  0.4695 -0.2609
 8589SOL     OW37402   2.907   3.314  11.487  0.3796 -0.4519  0.5996
 8589SOL    HW137403   2.956   3.277  11.414  0.6857 -0.6302  0.8924
 8589SOL    HW237404   2.816   3.320  11.456  1.3118  0.3683 -1.9091
 8590SOL     OW37405   0.948   1.698   7.104 -0.2084  0.5543 -0.9813
 8590SOL    HW137406   0.908   1.714   7.190  2.7338  1.0338  0.2873
 8590SOL    HW237407   1.010   1.770   7.110 -0.0699  0.3338  0.2589
 8591SOL     OW37408   1.660   4.244  16.425 -0.0602 -0.3353 -0.2407
 8591SOL    HW137409   1.730   4.182  16.445 -0.2085  0.1662  1.8993
 8591SOL    HW237410   1.609   4.201  16.357 -2.2074  0.7381  0.6814
 8592SOL     OW37411   0.657   0.397   2.730  0.0559 -0.4441 -0.1554
 8592SOL    HW137412   0.621   0.485   2.726  1.6338  0.1061 -2.2268
 8592SOL    HW237413   0.653   0.379   2.824  0.5691 -1.4457 -0.3187
 8593SOL     OW37414   3.208   4.354   3.193 -0.1262  0.1165 -0.1070
 8593SOL    HW137415   3.188   4.360   3.100  0.6111  3.3601 -0.0581
 8593SOL    HW237416   3.289   4.403   3.209  0.0371 -1.3894  3.6302
 8594SOL     OW37417   3.946   2.820   3.165 -0.1209  0.1284  0.1460
 8594SOL    HW137418   3.874   2.778   3.118  0.3840 -1.4743  0.8223
 8594SOL    HW237419   3.908   2.908   3.170  0.0259  0.0718  2.1264
 8595SOL     OW37420   2.167   3.110   1.229  0.7722 -0.2855 -0.1036
 8595SOL    HW137421   2.091   3.076   1.181  0.6046  0.5958 -0.4578
 8595SOL    HW237422   2.159   3.065   1.313 -0.5099  1.7956  0.8573
 8596SOL     OW37423   2.230   2.901   7.692 -0.3628  0.6078  0.5135
 8596SOL    HW137424   2.200   2.991   7.675 -0.8536  0.4813  0.7322
 8596SOL    HW237425   2.270   2.903   7.779  0.4797 -0.2258  0.1524
 8597SOL     OW37426   2.546   3.412   8.810  0.5768  0.0354 -0.1073
 8597SOL    HW137427   2.555   3.451   8.723 -1.0428 -1.3004 -0.8837
 8597SOL    HW237428   2.547   3.317   8.793 -0.4821 -0.0461  0.2820
 8598SOL     OW37429   0.214   2.754   2.965  0.2367 -0.4224  0.1023
 8598SOL    HW137430   0.266   2.833   2.978 -0.5155  0.0573  0.1368
 8598SOL    HW237431   0.139   2.785   2.914  0.3849 -0.9722 -0.4507
 8599SOL     OW37432   0.723   1.765   3.115  0.2475  0.3703 -0.7373
 8599SOL    HW137433   0.707   1.671   3.118  1.4875  0.1799  0.0301
 8599SOL    HW237434   0.770   1.770   3.198 -2.8991  2.1643  0.9289
 8600SOL     OW37435   2.209   1.382   7.787  0.4741  0.6567  0.2353
 8600SOL    HW137436   2.238   1.302   7.831  2.6323  0.9414 -0.6652
 8600SOL    HW237437   2.123   1.393   7.826  0.1768  0.5030 -0.3814
 8601SOL     OW37438   3.667   4.721   3.087  0.4438  0.0571 -0.3927
 8601SOL    HW137439   3.759   0.006   3.102  1.1214 -3.4000  0.5994
 8601SOL    HW237440   3.628   0.070   3.100 -0.7747 -0.6538  0.7280
 8602SOL     OW37441   3.941   0.300   5.796 -0.1760 -0.5184  0.1988
 8602SOL    HW137442   3.919   0.209   5.776  0.0145 -0.1624 -1.6758
 8602SOL    HW237443   4.001   0.290   5.870  0.2995 -0.3627 -0.1688
 8603SOL     OW37444   2.206   3.835   3.099  0.0198 -0.7705 -0.6625
 8603SOL    HW137445   2.209   3.913   3.154 -1.9994 -0.4657 -0.9593
 8603SOL    HW237446   2.176   3.879   3.020 -2.7448 -0.7806  0.3683
 8604SOL     OW37447   2.105   0.484   3.982 -0.2738 -0.3881  0.0380
 8604SOL    HW137448   2.083   0.556   3.922  1.7621  0.1028 -0.1276
 8604SOL    HW237449   2.110   0.412   3.919 -1.4198 -1.0490  0.7050
 8605SOL     OW37450   0.614   2.923   4.841  0.5914  0.2907  0.0763
 8605SOL    HW137451   0.701   2.890   4.861  1.8421  2.3466 -2.0443
 8605SOL    HW237452   0.632   2.994   4.779  0.4167 -1.3136 -1.8051
 8606SOL     OW37453   3.010   1.758   4.538 -0.0102  0.2686  0.2338
 8606SOL    HW137454   3.096   1.767   4.497 -0.0585 -0.3923 -0.0137
 8606SOL    HW237455   2.966   1.837   4.508 -0.8787 -0.5024 -0.5203
 8607SOL     OW37456   3.067   2.651   1.503 -0.1855  0.2769 -0.2370
 8607SOL    HW137457   3.121   2.720   1.543 -1.9735  1.5930 -0.0636
 8607SOL    HW237458   2.978   2.684   1.516  0.1739  1.1819 -0.0742
 8608SOL     OW37459   0.273   2.525   6.644  0.0034 -0.3816 -0.5496
 8608SOL    HW137460   0.329   2.579   6.588  1.6515 -1.1047  0.3889
 8608SOL    HW237461   0.315   2.545   6.728 -3.0183  2.3270  0.3392
 8609SOL     OW37462   1.899   1.263  15.598  0.1361 -0.5653  0.6684
 8609SOL    HW137463   1.933   1.236  15.683  0.1080  1.6154  1.3633
 8609SOL    HW237464   1.924   1.191  15.540  0.5830 -0.0289  0.1977
 8610SOL     OW37465   2.824   2.642   5.050 -0.2424  0.1807 -0.7032
 8610SOL    HW137466   2.892   2.684   4.997  0.6011  0.0101  0.2466
 8610SOL    HW237467   2.865   2.628   5.135 -0.6115  1.8596 -0.2481
 8611SOL     OW37468   1.766   0.268  12.809 -0.1705 -0.2086  1.2357
 8611SOL    HW137469   1.766   0.184  12.763  0.0859  0.2550  0.3982
 8611SOL    HW237470   1.858   0.285  12.827 -0.5073  0.9913  1.8800
 8612SOL     OW37471   1.351   2.038   4.627  0.1970 -0.4205  0.1326
 8612SOL    HW137472   1.349   2.005   4.538  0.3226 -0.9768  0.3313
 8612SOL    HW237473   1.425   1.990   4.664 -1.3590 -2.7050  0.2941
 8613SOL     OW37474   1.520   3.372   4.878  0.2072  0.1227  0.5047
 8613SOL    HW137475   1.445   3.325   4.844 -0.3451  3.0223 -2.2561
 8613SOL    HW237476   1.471   3.446   4.914 -0.8570 -0.3140 -0.0463
 8614SOL     OW37477   2.426   1.974  16.261 -0.3604 -0.1419 -0.2624
 8614SOL    HW137478   2.416   2.007  16.350 -0.0686 -0.3546 -0.1524
 8614SOL    HW237479   2.393   1.885  16.261  0.8537 -0.5829  1.5375
 8615SOL     OW37480   3.758   4.305   8.507  0.2531 -0.3761  0.5770
 8615SOL    HW137481   3.793   4.379   8.556 -1.4998  0.5317  0.4499
 8615SOL    HW237482   3.835   4.273   8.460 -0.4817 -1.5584  0.1721
 8616SOL     OW37483   1.698   0.086   4.916  0.0769 -0.1801  0.2594
 8616SOL    HW137484   1.769   0.120   4.862  0.1888 -3.4146 -1.6193
 8616SOL    HW237485   1.632   0.145   4.878  0.8853 -0.4446 -1.5631
 8617SOL     OW37486   2.228   3.067   9.509 -0.0036 -0.1916 -0.1468
 8617SOL    HW137487   2.235   3.120   9.430  0.5655  0.5915  0.4343
 8617SOL    HW237488   2.323   3.067   9.521  0.2201 -0.2512 -1.8058
 8618SOL     OW37489   4.285   2.257   6.039  0.0108  0.0623 -0.5003
 8618SOL    HW137490   4.201   2.289   6.007 -0.1253 -1.6287 -1.8594
 8618SOL    HW237491   4.252   2.216   6.118 -1.0534  1.0570 -0.4377
 8619SOL     OW37492   0.852   0.741  12.307  0.0397  0.1528 -0.6520
 8619SOL    HW137493   0.851   0.834  12.329  0.0197 -0.3715  1.5136
 8619SOL    HW237494   0.885   0.699  12.386  1.6486  2.3051 -0.1786
 8620SOL     OW37495   3.715   1.350   7.131 -0.1147 -0.9192 -0.4517
 8620SOL    HW137496   3.724   1.355   7.036  0.8401  1.6969 -0.2253
 8620SOL    HW237497   3.718   1.257   7.152 -0.1754 -0.5131  1.3805
 8621SOL     OW37498   3.428   3.486  10.898  0.0168 -0.2610 -0.2951
 8621SOL    HW137499   3.429   3.582  10.889 -1.4539 -0.2220 -0.0212
 8621SOL    HW237500   3.347   3.470  10.851  1.1874 -1.4444 -1.8878
 8622SOL     OW37501   4.054   0.214  10.492 -0.2182 -0.4598 -0.3221
 8622SOL    HW137502   4.049   0.298  10.446 -2.0583  0.1190  0.9158
 8622SOL    HW237503   4.039   0.155  10.418  0.9785 -0.1497 -0.8057
 8623SOL     OW37504   2.916   2.731  10.074 -0.2402 -0.0090 -0.5206
 8623SOL    HW137505   2.825   2.716  10.102 -0.2358  1.7868  0.4464
 8623SOL    HW237506   2.959   2.679  10.141 -1.2162 -0.2670 -0.0832
 8624SOL     OW37507   0.446   0.665   4.345  0.3902  0.0144  0.4644
 8624SOL    HW137508   0.483   0.736   4.399 -0.4840  0.1806  0.8580
 8624SOL    HW237509   0.359   0.662   4.385  0.5195  0.5057  0.7832
 8625SOL     OW37510   2.873   4.079   5.833  0.2741  0.7823 -0.5220
 8625SOL    HW137511   2.940   4.088   5.764  0.2812  1.6720 -0.3958
 8625SOL    HW237512   2.830   4.158   5.800  3.5871  2.3875 -1.0756
 8626SOL     OW37513   4.613   4.320   0.712 -0.9583 -0.7022 -0.4752
 8626SOL    HW137514   4.647   4.350   0.796 -3.7807 -2.9256  1.4725
 8626SOL    HW237515   4.620   4.224   0.718  1.6177 -0.7006 -3.0698
 8627SOL     OW37516   3.875   0.012   6.470 -0.2314  0.0912  0.3079
 8627SOL    HW137517   3.937   0.037   6.539  0.3505 -1.1576  0.2466
 8627SOL    HW237518   3.800   0.068   6.487 -1.0841 -1.6430  2.2772
 8628SOL     OW37519   2.695   1.958   9.358 -0.3486 -0.4289 -0.5047
 8628SOL    HW137520   2.730   1.996   9.278 -0.5813  0.1799 -0.3154
 8628SOL    HW237521   2.628   1.901   9.320  0.5925 -0.4559 -2.1036
 8629SOL     OW37522   1.110   3.576   2.582 -0.1915 -0.1945  0.2292
 8629SOL    HW137523   1.121   3.527   2.501 -0.3316 -1.6990  1.1245
 8629SOL    HW237524   1.018   3.588   2.605  0.3556 -0.8911  2.8643
 8630SOL     OW37525   4.583   4.717   7.839 -0.1705  0.2158 -0.0783
 8630SOL    HW137526   4.542   4.653   7.782 -0.6238 -0.2365  0.7576
 8630SOL    HW237527   4.604   0.042   7.770  1.3363  1.0752  1.1415
 8631SOL     OW37528   2.757   4.352   4.728 -0.4685 -0.3467  0.2116
 8631SOL    HW137529   2.681   4.327   4.677  1.2875 -0.4824 -2.3083
 8631SOL    HW237530   2.825   4.288   4.707  0.0140  0.1990  0.1138
 8632SOL     OW37531   2.508   2.537  14.981 -0.6694  0.1263 -0.0138
 8632SOL    HW137532   2.580   2.479  14.954 -0.4342  1.1088 -1.5537
 8632SOL    HW237533   2.441   2.476  15.010 -0.1973 -0.7805 -0.8095
 8633SOL     OW37534   0.837   0.427   6.638  0.3335 -0.3127  0.2053
 8633SOL    HW137535   0.865   0.508   6.681  1.1900 -0.1235 -0.7183
 8633SOL    HW237536   0.769   0.461   6.579 -0.7486 -2.2553  0.3244
 8634SOL     OW37537   3.603   0.500   4.585  0.2775 -0.2210 -0.0134
 8634SOL    HW137538   3.684   0.531   4.625 -0.6820  1.0134  0.9550
 8634SOL    HW237539   3.543   0.541   4.647  1.9904  0.3907  1.2336
 8635SOL     OW37540   1.545   0.697   2.458 -0.1840 -0.1988 -0.2930
 8635SOL    HW137541   1.497   0.645   2.393 -0.2367 -0.3179 -0.1597
 8635SOL    HW237542   1.608   0.746   2.405 -0.4907  0.1007 -0.3830
 8636SOL     OW37543   1.012   2.306   1.880 -0.1672  0.7420  0.3672
 8636SOL    HW137544   1.042   2.341   1.796 -2.9472  5.0832  1.1492
 8636SOL    HW237545   1.018   2.211   1.869 -2.5940  0.8355 -1.7549
 8637SOL     OW37546   3.742   0.915   6.725  0.1491  0.0311 -0.0776
 8637SOL    HW137547   3.700   0.870   6.652  0.3171  0.0088 -0.1609
 8637SOL    HW237548   3.712   1.005   6.716 -0.0868 -0.1753 -1.3795
 8638SOL     OW37549   2.101   0.453   7.463 -0.1371 -0.0916 -0.6910
 8638SOL    HW137550   2.126   0.405   7.542 -0.9413  0.7698  0.0823
 8638SOL    HW237551   2.060   0.384   7.410 -3.4104  0.3227  1.3041
 8639SOL     OW37552   3.416   0.882   6.467  0.0235  0.3732 -0.4673
 8639SOL    HW137553   3.444   0.969   6.494  1.1527  0.1740 -0.9999
 8639SOL    HW237554   3.334   0.872   6.515 -1.1105 -0.1123 -2.4821
 8640SOL     OW37555   2.621   1.139   8.524  0.0910 -0.4696  0.7518
 8640SOL    HW137556   2.593   1.227   8.498  0.4488 -0.6743 -0.3440
 8640SOL    HW237557   2.559   1.090   8.470 -0.0705 -0.2677  0.7549
 8641SOL     OW37558   1.908   1.840   8.192 -0.7929 -0.1175 -0.2112
 8641SOL    HW137559   1.844   1.904   8.162 -0.3411  0.6164  0.3959
 8641SOL    HW237560   1.858   1.788   8.253 -1.5818  0.1338 -0.6456
 8642SOL     OW37561   4.302   3.741  15.132 -0.5377 -0.1216 -0.4208
 8642SOL    HW137562   4.340   3.660  15.167 -0.1063  0.5140  0.5610
 8642SOL    HW237563   4.367   3.803  15.165 -0.4565  0.6167 -1.9699
 8643SOL     OW37564   1.495   4.393  10.951 -0.1779 -0.1528  0.4438
 8643SOL    HW137565   1.530   4.332  11.015  0.8767  1.9746  1.8827
 8643SOL    HW237566   1.503   4.328  10.881 -0.0039  2.3521 -1.9081
 8644SOL     OW37567   1.500   3.868   7.915 -0.1990 -0.5948  0.3341
 8644SOL    HW137568   1.515   3.773   7.920 -0.8143 -0.8347 -2.3548
 8644SOL    HW237569   1.545   3.900   7.993  1.6920 -1.1168 -0.5105
 8645SOL     OW37570   3.876   0.161  13.253 -0.1253  0.5079 -0.3567
 8645SOL    HW137571   3.933   0.171  13.329 -0.1267 -1.3939 -0.0957
 8645SOL    HW237572   3.819   0.089  13.280  1.5786 -1.5637 -2.2428
 8646SOL     OW37573   3.192   1.294  12.072  0.6011 -0.0525 -0.4529
 8646SOL    HW137574   3.167   1.336  11.989  1.3406 -1.7318 -1.5229
 8646SOL    HW237575   3.267   1.348  12.097 -0.4174  0.1232  2.1285
 8647SOL     OW37576   1.985   3.422  16.632  0.4036 -0.2049  0.1986
 8647SOL    HW137577   2.055   3.434  16.696  1.2430 -0.7658 -0.6131
 8647SOL    HW237578   2.019   3.340  16.597 -1.2014 -1.7170  2.1765
 8648SOL     OW37579   4.446   3.128   1.019  0.5933  0.3497 -0.5560
 8648SOL    HW137580   4.364   3.176   1.025  1.1674  1.2029  0.5952
 8648SOL    HW237581   4.464   3.103   1.110  0.8227  1.9436 -0.1573
 8649SOL     OW37582   1.359   2.967   4.633  0.2603  0.4221  0.3444
 8649SOL    HW137583   1.342   3.060   4.619 -2.0243  0.3729  2.8719
 8649SOL    HW237584   1.284   2.927   4.590  0.8961  0.6114 -0.9435
 8650SOL     OW37585   3.437   3.929   6.648 -0.2088  0.6327 -0.3353
 8650SOL    HW137586   3.496   3.996   6.682  2.3406 -1.9147  0.2543
 8650SOL    HW237587   3.495   3.853   6.637  1.2003  1.8804 -1.4071
 8651SOL     OW37588   1.195   4.267   5.309  0.2657  0.2600 -0.0044
 8651SOL    HW137589   1.222   4.204   5.377 -0.2926 -2.5996 -2.4386
 8651SOL    HW237590   1.110   4.293   5.344  0.7476 -0.7544  1.9633
 8652SOL     OW37591   3.851   3.078  15.105  0.3260  0.9154  0.0723
 8652SOL    HW137592   3.776   3.020  15.115 -0.3991  1.4273 -2.5863
 8652SOL    HW237593   3.902   3.058  15.184 -2.2054 -0.1450  1.4377
 8653SOL     OW37594   0.741   3.666  10.727  0.4238 -0.0226  0.2473
 8653SOL    HW137595   0.755   3.679  10.633 -1.3811 -0.7225 -0.1209
 8653SOL    HW237596   0.751   3.754  10.762 -2.0339 -0.1103  1.1663
 8654SOL     OW37597   3.330   3.257   2.623  0.4142  0.7070  0.5449
 8654SOL    HW137598   3.252   3.282   2.574 -0.4892 -1.4194  0.9386
 8654SOL    HW237599   3.385   3.335   2.637  0.5256  0.9187 -1.1238
 8655SOL     OW37600   0.511   0.519   5.540 -0.5914 -0.2085  0.2319
 8655SOL    HW137601   0.461   0.440   5.519  1.2357 -1.0648 -0.8939
 8655SOL    HW237602   0.451   0.582   5.500  1.8052  1.2714 -1.0155
 8656SOL     OW37603   3.374   3.413  16.716  0.2429  0.4663  0.2458
 8656SOL    HW137604   3.459   3.457  16.725 -0.2025  1.1622  1.0306
 8656SOL    HW237605   3.395   3.329  16.756 -2.2433 -0.9211 -1.3187
 8657SOL     OW37606   1.293   4.059   1.356 -0.4305 -0.1856 -0.9041
 8657SOL    HW137607   1.269   4.132   1.413 -3.2461 -3.1280  1.6250
 8657SOL    HW237608   1.287   3.984   1.414  1.2005  1.1535  0.9724
 8658SOL     OW37609   0.507   1.842   9.371 -0.1449  0.5537  0.4903
 8658SOL    HW137610   0.601   1.825   9.369 -0.2559  0.0403 -0.3989
 8658SOL    HW237611   0.475   1.762   9.414  1.9389 -0.2283  0.6292
 8659SOL     OW37612   1.657   0.621   3.860 -0.4286  0.8281 -0.5515
 8659SOL    HW137613   1.721   0.646   3.926 -0.5771 -2.2780  0.7715
 8659SOL    HW237614   1.589   0.575   3.909 -0.8589 -0.8622 -2.7190
 8660SOL     OW37615   1.503   1.456   9.828 -0.5045 -0.4265  0.2559
 8660SOL    HW137616   1.444   1.382   9.812 -0.0434 -0.2188 -2.4098
 8660SOL    HW237617   1.573   1.445   9.764 -0.6433 -0.1093  0.0474
 8661SOL     OW37618   0.368   2.963   5.235 -0.4011 -0.1769  0.4414
 8661SOL    HW137619   0.338   2.949   5.325 -1.6265  1.1956  0.2342
 8661SOL    HW237620   0.326   2.891   5.187  0.7627 -0.5372 -0.0567
 8662SOL     OW37621   3.451   3.834   4.499 -0.0682 -0.3327  0.0289
 8662SOL    HW137622   3.483   3.749   4.529  0.1785 -0.2266  0.0678
 8662SOL    HW237623   3.360   3.833   4.529  0.1642  1.9012  0.7772
 8663SOL     OW37624   2.900   3.100  17.501  0.4970  0.2062 -0.2968
 8663SOL    HW137625   2.947   3.087  17.419 -1.7246  0.7395 -1.6382
 8663SOL    HW237626   2.904   3.195  17.489 -1.5067  0.5100  1.4446
 8664SOL     OW37627   0.940   2.694   6.762 -0.3658 -0.3745  0.4690
 8664SOL    HW137628   0.895   2.776   6.744 -0.7998 -0.6327  0.3679
 8664SOL    HW237629   0.988   2.701   6.679 -0.0858 -2.5796  0.4375
 8665SOL     OW37630   0.132   2.385   6.460 -0.3264  0.1938  0.0175
 8665SOL    HW137631   0.198   2.419   6.520  0.9765 -1.5095 -0.4560
 8665SOL    HW237632   0.114   2.298   6.497  0.3896 -0.8014 -1.9587
 8666SOL     OW37633   2.025   1.547   8.706 -0.0803  0.4011 -0.0751
 8666SOL    HW137634   2.075   1.624   8.733  0.2713 -0.0207  0.4662
 8666SOL    HW237635   2.071   1.479   8.755  0.0164  0.3712 -0.2082
 8667SOL     OW37636   4.432   0.914   1.612 -0.3565  0.6355 -0.7134
 8667SOL    HW137637   4.481   0.831   1.609  2.2111  2.0955  0.5032
 8667SOL    HW237638   4.376   0.899   1.687 -0.1949  0.6644 -0.5865
 8668SOL     OW37639   4.219   3.331   1.825 -0.1031 -0.1121  0.2941
 8668SOL    HW137640   4.209   3.326   1.920 -0.9440 -0.0240  0.2053
 8668SOL    HW237641   4.145   3.276   1.800 -1.6482  1.8115  0.6202
 8669SOL     OW37642   0.567   4.242  16.273 -0.4676 -0.0824  0.1659
 8669SOL    HW137643   0.568   4.337  16.283  0.0561 -0.2785  1.9706
 8669SOL    HW237644   0.586   4.221  16.364 -1.5609 -0.2088  0.3659
 8670SOL     OW37645   0.632   4.706   4.227  0.2271  0.4274 -0.0887
 8670SOL    HW137646   0.667   4.733   4.143 -0.4769  1.1245 -0.1623
 8670SOL    HW237647   0.646   4.613   4.212  1.9238  0.4739  1.2990
 8671SOL     OW37648   1.884   1.375   8.555 -0.4709 -0.1434 -0.1206
 8671SOL    HW137649   1.930   1.425   8.622 -0.6471 -0.4509  0.2238
 8671SOL    HW237650   1.804   1.426   8.562 -1.2370 -1.2457 -0.7471
 8672SOL     OW37651   3.863   2.250   7.916 -0.3181 -0.4391  0.2398
 8672SOL    HW137652   3.951   2.227   7.947 -0.6895 -2.1960 -0.0362
 8672SOL    HW237653   3.863   2.237   7.821  2.3977  1.3858 -0.0173
 8673SOL     OW37654   4.379   2.043   4.361  0.1433 -0.2268 -0.2214
 8673SOL    HW137655   4.407   2.118   4.414 -1.0289 -1.5297  2.2420
 8673SOL    HW237656   4.466   2.015   4.334  0.3917 -0.2817  0.6582
 8674SOL     OW37657   1.499   2.001   6.570  0.6428 -0.4060 -0.5426
 8674SOL    HW137658   1.535   2.081   6.530 -0.0017  0.2998  0.2849
 8674SOL    HW237659   1.549   1.996   6.652 -0.5772 -0.2929  0.2060
 8675SOL     OW37660   3.101   1.594   7.407  0.0361  0.0427  0.0435
 8675SOL    HW137661   3.143   1.627   7.487 -0.4327 -0.5398  0.5267
 8675SOL    HW237662   3.152   1.638   7.339 -0.4780  1.6284  0.6859
 8676SOL     OW37663   4.364   0.362   4.198  0.0276  0.0144 -0.1791
 8676SOL    HW137664   4.312   0.297   4.246 -0.1902  1.3249  1.3490
 8676SOL    HW237665   4.447   0.315   4.192  0.4523  0.5527  1.2798
 8677SOL     OW37666   4.619   4.694   1.629 -0.3458 -0.1693  0.0162
 8677SOL    HW137667   4.623   4.633   1.702  0.0803 -1.2662 -0.9327
 8677SOL    HW237668   4.542   4.674   1.577 -0.4525 -2.4027  1.0255
 8678SOL     OW37669   0.767   2.951  13.530  0.3953  0.1212  0.1372
 8678SOL    HW137670   0.857   2.921  13.547  0.7599  2.1825  1.8724
 8678SOL    HW237671   0.777   3.045  13.547 -2.0528 -0.3209  4.0579
 8679SOL     OW37672   3.367   3.059   2.098  0.3912  0.5404 -0.3274
 8679SOL    HW137673   3.438   3.054   2.162 -0.8314  3.5010  1.2473
 8679SOL    HW237674   3.332   2.970   2.104  0.4464  0.5370 -0.0242
 8680SOL     OW37675   2.015   3.281  17.500  0.1793  0.0577  0.2078
 8680SOL    HW137676   2.049   3.239  17.579  1.0005  2.7510  1.2621
 8680SOL    HW237677   1.920   3.283  17.509 -0.0420  0.4561 -2.2759
 8681SOL     OW37678   2.580   4.369   7.733 -0.2202 -0.7131  0.0508
 8681SOL    HW137679   2.615   4.282   7.753 -0.1713 -0.2622  2.0049
 8681SOL    HW237680   2.538   4.345   7.651 -0.9982  1.3129 -0.1525
 8682SOL     OW37681   0.785   3.314   6.750  0.8209 -0.1702  0.1444
 8682SOL    HW137682   0.739   3.336   6.669  1.6826  1.4050  0.0841
 8682SOL    HW237683   0.727   3.362   6.809  1.6320  0.6347  0.2924
 8683SOL     OW37684   3.897   4.155   5.528 -0.3308 -0.3619 -0.0165
 8683SOL    HW137685   3.918   4.073   5.484 -0.9514  0.0969 -1.1486
 8683SOL    HW237686   3.811   4.141   5.568  0.7465 -1.9764  1.7663
 8684SOL     OW37687   1.284   1.840   2.514  0.5550  0.2066  0.5050
 8684SOL    HW137688   1.349   1.836   2.584  0.1350  0.3256  0.9032
 8684SOL    HW237689   1.306   1.762   2.464 -1.9410 -1.8174  2.5605
 8685SOL     OW37690   0.883   1.165  14.372  0.0662 -0.0435 -0.0043
 8685SOL    HW137691   0.793   1.189  14.353  0.9167  2.5561 -0.7539
 8685SOL    HW237692   0.920   1.250  14.349 -0.4007 -0.1684 -1.1779
 8686SOL     OW37693   3.662   1.957  12.980  0.4127 -0.9862  0.2617
 8686SOL    HW137694   3.638   2.022  12.913 -1.5128 -0.9306  1.0054
 8686SOL    HW237695   3.756   1.949  12.971  0.3231  0.3935 -1.9076
 8687SOL     OW37696   0.081   4.165   3.402 -0.2504  0.0990  0.4625
 8687SOL    HW137697   0.018   4.162   3.474 -2.4497  2.6080 -1.3364
 8687SOL    HW237698   0.140   4.236   3.429 -1.8818  1.9668 -0.8394
 8688SOL     OW37699   3.813   0.524   7.181 -0.4274  0.7218 -0.2276
 8688SOL    HW137700   3.898   0.568   7.173  0.8657 -1.4227  1.7839
 8688SOL    HW237701   3.819   0.496   7.273 -0.2959 -2.8612 -1.3245
 8689SOL     OW37702   2.322   1.993   2.771 -0.7791  0.3099 -0.4072
 8689SOL    HW137703   2.315   2.069   2.713  0.0496  0.2916 -0.5302
 8689SOL    HW237704   2.232   1.962   2.781 -0.1982 -1.2754  0.0180
 8690SOL     OW37705   0.212   3.428   1.251 -0.6984 -0.2153  0.0581
 8690SOL    HW137706   0.285   3.406   1.193  0.8391 -1.5523  2.5031
 8690SOL    HW237707   0.186   3.508   1.205 -0.2608 -0.1654 -0.1070
 8691SOL     OW37708   0.265   3.367  13.444 -0.4118 -0.6294 -0.4147
 8691SOL    HW137709   0.358   3.382  13.462 -0.2021 -2.2506 -0.2234
 8691SOL    HW237710   0.261   3.284  13.397 -1.6462 -0.2467 -0.9869
 8692SOL     OW37711   4.451   0.671   9.059  0.5355 -0.5538  0.9634
 8692SOL    HW137712   4.366   0.708   9.082  1.6759  1.2806  2.2475
 8692SOL    HW237713   4.499   0.727   9.121 -0.7508  0.9627  0.6038
 8693SOL     OW37714   3.996   0.015   7.298 -0.7794 -0.1341 -0.9262
 8693SOL    HW137715   4.057   0.036   7.228 -0.4261 -0.7128 -0.7867
 8693SOL    HW237716   3.979   0.106   7.323  2.2124  0.1629 -0.0026
 8694SOL     OW37717   3.806   4.463  13.569 -0.0017 -0.0427 -0.3688
 8694SOL    HW137718   3.892   4.478  13.531  0.4366  0.9426  1.0056
 8694SOL    HW237719   3.761   4.545  13.549  0.8712  1.2750  3.0041
 8695SOL     OW37720   3.488   3.016   0.572 -0.1600  0.0994 -0.7818
 8695SOL    HW137721   3.568   3.014   0.520  0.2271 -0.9501 -0.1630
 8695SOL    HW237722   3.454   2.929   0.554  2.0779 -0.6754 -1.3329
 8696SOL     OW37723   3.271   0.306   7.455  0.1074  0.5246 -0.2142
 8696SOL    HW137724   3.231   0.221   7.436 -0.8561  1.1539 -0.9777
 8696SOL    HW237725   3.249   0.315   7.548  1.4812  2.5740 -0.0888
 8697SOL     OW37726   3.921   2.864   7.076 -0.4384 -0.3046  0.2852
 8697SOL    HW137727   3.906   2.865   7.171  0.5908 -1.9527  0.4607
 8697SOL    HW237728   3.878   2.945   7.049  0.6547 -0.0306 -0.5925
 8698SOL     OW37729   1.950   1.170   6.533 -0.1287  0.2302 -0.3314
 8698SOL    HW137730   1.984   1.223   6.605 -0.5941 -1.0736  0.8414
 8698SOL    HW237731   2.005   1.091   6.538  1.7741  1.4008 -2.6172
 8699SOL     OW37732   0.713   0.579   0.218  0.3301  0.2723 -0.5103
 8699SOL    HW137733   0.730   0.650   0.156  2.0418 -1.6012 -2.1922
 8699SOL    HW237734   0.661   0.512   0.176 -0.2234 -0.7877  1.8557
 8700SOL     OW37735   1.538   4.550   2.771 -0.4786 -0.4805 -0.0731
 8700SOL    HW137736   1.554   4.636   2.808 -0.3175 -0.5813  0.0877
 8700SOL    HW237737   1.466   4.571   2.711 -0.9999 -0.2711  0.6343
 8701SOL     OW37738   0.719   0.837   8.208 -0.2001 -0.1894  0.1385
 8701SOL    HW137739   0.793   0.835   8.147 -1.0101  0.4339 -0.8729
 8701SOL    HW237740   0.656   0.793   8.151 -0.1431 -2.0423  1.5369
 8702SOL     OW37741   1.018   1.637  12.893 -0.2926 -0.3636 -0.5610
 8702SOL    HW137742   0.993   1.704  12.956 -0.1005  1.1978 -2.1288
 8702SOL    HW237743   0.970   1.664  12.814 -1.7486  1.3503  0.9171
 8703SOL     OW37744   4.395   3.140   5.218 -0.3516 -0.1797  0.3335
 8703SOL    HW137745   4.446   3.103   5.290  0.4653 -2.7727 -1.6078
 8703SOL    HW237746   4.404   3.233   5.240  1.2422  0.1981 -1.9966
 8704SOL     OW37747   4.562   0.886   9.189 -0.3379 -0.7310  0.1514
 8704SOL    HW137748   4.504   0.961   9.180  0.8554  0.1390 -0.3461
 8704SOL    HW237749   4.638   0.926   9.145 -1.9057  0.8910 -1.1014
 8705SOL     OW37750   3.738   3.938   8.957 -0.5883 -0.0346 -0.3790
 8705SOL    HW137751   3.811   3.883   8.986  0.5577  1.6833 -0.0365
 8705SOL    HW237752   3.758   3.952   8.864  0.0059  1.7052  0.0089
 8706SOL     OW37753   1.544   1.822   3.915 -0.0274 -0.6513  0.3915
 8706SOL    HW137754   1.469   1.808   3.856  1.5996  0.8176 -2.0131
 8706SOL    HW237755   1.605   1.872   3.861  1.5934 -0.6891  2.2310
 8707SOL     OW37756   0.417   3.296  10.208  0.2356 -0.5678  0.5563
 8707SOL    HW137757   0.474   3.372  10.224 -0.2908 -0.1359  0.3760
 8707SOL    HW237758   0.381   3.276  10.294 -0.2937 -1.4751  0.1179
 8708SOL     OW37759   0.207   2.614   4.004  0.2931  0.0644  0.3689
 8708SOL    HW137760   0.127   2.572   4.034 -0.0551  0.4711  0.0072
 8708SOL    HW237761   0.273   2.546   3.985 -0.2553 -0.2082 -0.5666
 8709SOL     OW37762   3.897   0.245   5.287  0.1286 -0.0564  0.0648
 8709SOL    HW137763   3.949   0.200   5.353  0.1703 -0.4769 -0.2521
 8709SOL    HW237764   3.819   0.190   5.279 -0.1606  0.3303  0.2406
 8710SOL     OW37765   2.954   4.526  14.223  0.5644  0.4187  0.2986
 8710SOL    HW137766   3.021   4.545  14.158 -0.5258  0.0354 -0.9371
 8710SOL    HW237767   2.880   4.493  14.171 -0.2154 -0.1842  1.7554
 8711SOL     OW37768   0.375   4.548   1.982  0.1977 -0.2593 -0.2314
 8711SOL    HW137769   0.378   4.643   1.993 -1.2090 -0.1095 -1.1429
 8711SOL    HW237770   0.356   4.550   1.888  1.4905  1.0451 -0.4732
 8712SOL     OW37771   1.575   2.854   1.896 -0.1139  0.1014 -0.2722
 8712SOL    HW137772   1.609   2.797   1.828  0.4940  0.6601 -0.4330
 8712SOL    HW237773   1.586   2.794   1.970  0.2851  0.4187 -0.0741
 8713SOL     OW37774   1.906   2.894  14.585  0.3672 -0.1831 -0.7121
 8713SOL    HW137775   1.841   2.912  14.653  0.1399 -0.7699 -0.7795
 8713SOL    HW237776   1.984   2.947  14.604  0.1939  0.8264 -2.8070
 8714SOL     OW37777   1.626   3.542   5.737  0.3493  0.1530 -0.1227
 8714SOL    HW137778   1.645   3.466   5.792  1.1987  0.9675  0.7236
 8714SOL    HW237779   1.676   3.610   5.783 -0.1985 -0.1104  0.8546
 8715SOL     OW37780   4.465   3.282   0.654  0.7569 -0.2279  0.5541
 8715SOL    HW137781   4.546   3.298   0.703  0.6988  1.3395  0.1289
 8715SOL    HW237782   4.443   3.363   0.609  0.4750 -0.0038  1.0972
 8716SOL     OW37783   2.923   0.733   2.712  0.1191 -0.6051 -0.2749
 8716SOL    HW137784   3.001   0.683   2.736 -0.3440 -0.8193  0.7584
 8716SOL    HW237785   2.933   0.725   2.617  0.2345  1.6768 -0.4698
 8717SOL     OW37786   3.915   2.817  11.197  0.4297 -0.3531 -0.0444
 8717SOL    HW137787   3.904   2.817  11.102 -1.6475 -0.2701  0.1905
 8717SOL    HW237788   3.914   2.910  11.218 -0.0360  0.1999 -2.5127
 8718SOL     OW37789   2.101   0.109   6.711  0.2039  0.0662 -0.8021
 8718SOL    HW137790   2.089   0.114   6.616 -0.4072 -0.3552 -0.7432
 8718SOL    HW237791   2.069   0.021   6.731 -0.8273  0.6522  0.0711
 8719SOL     OW37792   2.981   1.743   3.480 -0.4911  0.1290 -0.1937
 8719SOL    HW137793   3.008   1.816   3.425 -2.4080  1.5336  0.7393
 8719SOL    HW237794   2.896   1.723   3.441 -1.1345 -1.5916  2.0781
 8720SOL     OW37795   2.425   1.430   2.147  0.1045 -0.3196 -0.3776
 8720SOL    HW137796   2.516   1.406   2.164 -0.9721 -1.9565  3.1527
 8720SOL    HW237797   2.429   1.521   2.120  1.7200 -0.5826 -1.0211
 8721SOL     OW37798   4.519   4.165  14.786 -0.1309  0.0003 -0.3344
 8721SOL    HW137799   4.611   4.192  14.775  0.3242 -1.1374  0.7215
 8721SOL    HW237800   4.522   4.119  14.869  0.7186  1.4728  0.4505
 8722SOL     OW37801   2.034   1.836  12.344 -0.5313  1.0489 -0.1159
 8722SOL    HW137802   2.081   1.833  12.261  0.0596 -0.3890  0.2755
 8722SOL    HW237803   2.042   1.745  12.373 -0.0554  1.2925  0.5120
 8723SOL     OW37804   0.093   0.085   2.778  0.0947  0.0142 -0.4096
 8723SOL    HW137805   0.038   0.075   2.701  1.1580  0.9040 -1.2794
 8723SOL    HW237806   0.078   0.002   2.824 -0.9613  1.6328  2.1968
 8724SOL     OW37807   2.384   4.588   3.675  0.2577 -0.6689  0.1245
 8724SOL    HW137808   2.351   4.603   3.586  1.5491 -2.4232 -0.6453
 8724SOL    HW237809   2.308   4.536   3.700 -0.0640 -0.8644 -1.2354
 8725SOL     OW37810   1.927   2.475   7.073  0.1390 -0.0009  0.4081
 8725SOL    HW137811   1.983   2.533   7.125 -0.6096  0.8310  0.2799
 8725SOL    HW237812   1.841   2.508   7.100  0.5488  1.4308 -0.0731
 8726SOL     OW37813   0.420   2.929   0.758 -0.3134  0.3509 -0.3103
 8726SOL    HW137814   0.358   2.875   0.806  0.3511 -1.9638 -2.0529
 8726SOL    HW237815   0.385   2.929   0.669 -2.8137  1.0529  0.6690
 8727SOL     OW37816   4.700   3.231   7.403  0.0239 -0.2006  0.7269
 8727SOL    HW137817   4.686   3.172   7.477  0.0478  1.0516  1.7306
 8727SOL    HW237818   0.010   3.165   7.353  0.3457  0.3349  0.3386
 8728SOL     OW37819   0.318   3.465   5.401 -0.2587  0.0820 -0.2696
 8728SOL    HW137820   0.258   3.397   5.432  0.0237 -0.2924 -0.5492
 8728SOL    HW237821   0.290   3.547   5.440  0.1036  0.2842 -0.4389
 8729SOL     OW37822   2.907   0.599  10.950 -0.3793  0.8379 -0.2557
 8729SOL    HW137823   2.873   0.512  10.931  0.5576  0.0289  1.7757
 8729SOL    HW237824   2.996   0.578  10.921 -0.4082  0.5540 -0.1432
 8730SOL     OW37825   1.005   2.070   4.924  0.8850 -0.4669 -0.1738
 8730SOL    HW137826   0.954   1.990   4.909 -1.5704  1.1714 -0.5856
 8730SOL    HW237827   1.077   2.052   4.984  1.4025  0.7237 -0.4413
 8731SOL     OW37828   0.360   4.458   2.443 -0.4459  0.6230 -1.0553
 8731SOL    HW137829   0.289   4.482   2.383  1.4900  2.9409 -2.4143
 8731SOL    HW237830   0.403   4.393   2.387 -0.6309 -0.7063  0.3499
 8732SOL     OW37831   0.686   3.755  11.775 -0.7964  0.1877  0.5026
 8732SOL    HW137832   0.683   3.669  11.816  0.7426 -0.7799 -1.3832
 8732SOL    HW237833   0.780   3.774  11.777 -0.7286 -0.2035  0.9848
 8733SOL     OW37834   3.406   2.974   2.837  0.1274 -0.6077  0.9609
 8733SOL    HW137835   3.317   3.005   2.817  0.3317  0.0790  1.1281
 8733SOL    HW237836   3.385   2.946   2.926 -1.0093 -1.8682  0.3049
 8734SOL     OW37837   1.078   3.284  12.650  0.5710  0.1243 -0.1466
 8734SOL    HW137838   1.171   3.272  12.670  0.5550 -1.3661 -0.9223
 8734SOL    HW237839   1.050   3.354  12.709  1.3000  1.8800 -1.9019
 8735SOL     OW37840   2.702   0.070  12.958  0.0241 -0.1120 -0.6749
 8735SOL    HW137841   2.635   0.103  12.898 -1.4371  1.7536  1.9778
 8735SOL    HW237842   2.698   4.715  12.933 -1.3366  0.5329 -2.8321
 8736SOL     OW37843   1.765   2.993  15.899  0.0143  0.2751 -0.1701
 8736SOL    HW137844   1.806   2.968  15.982 -2.0806 -1.7398  0.2465
 8736SOL    HW237845   1.784   3.081  15.931  1.1453  0.0968 -0.3621
 8737SOL     OW37846   3.517   2.770  10.946  0.2041 -0.0123 -0.2065
 8737SOL    HW137847   3.490   2.810  10.863  2.5120 -0.4323 -1.1592
 8737SOL    HW237848   3.610   2.789  10.936  0.7079 -0.4714  3.6920
 8738SOL     OW37849   3.003   2.015   4.005 -0.3865 -0.0732 -0.0118
 8738SOL    HW137850   3.060   2.010   3.928  0.2498 -0.1015  0.4655
 8738SOL    HW237851   2.972   1.925   4.016 -3.4977  1.0015  0.0889
 8739SOL     OW37852   3.133   3.175   6.482  0.4351 -0.0496  0.2927
 8739SOL    HW137853   3.103   3.167   6.573 -0.6412 -1.5093 -0.1952
 8739SOL    HW237854   3.053   3.149   6.437  0.2381  1.0107  0.0480
 8740SOL     OW37855   0.729   2.717  13.386 -0.0253 -0.4126  0.2497
 8740SOL    HW137856   0.734   2.802  13.430 -1.5081 -1.1683  1.8458
 8740SOL    HW237857   0.784   2.729  13.308  0.3195 -0.5341  0.4773
 8741SOL     OW37858   3.096   2.077  10.792  0.3525  0.2011  0.6834
 8741SOL    HW137859   3.122   2.016  10.861  1.0271  0.5397  0.7249
 8741SOL    HW237860   3.185   2.084  10.757  0.0128  0.9095 -0.0356
 8742SOL     OW37861   1.788   2.049   5.199  0.3214  0.4863  0.4591
 8742SOL    HW137862   1.787   2.115   5.129  1.4796 -0.0387 -0.0558
 8742SOL    HW237863   1.697   2.020   5.195 -0.3934  3.0018 -1.3669
 8743SOL     OW37864   0.916   0.876   8.014  0.5091 -0.1964 -0.9006
 8743SOL    HW137865   1.007   0.890   8.038 -0.4127  0.3112  2.2955
 8743SOL    HW237866   0.910   0.895   7.920 -0.6182 -2.4898 -1.2998
 8744SOL     OW37867   4.438   4.392   5.675  0.8237 -0.1716  0.2140
 8744SOL    HW137868   4.465   4.474   5.716 -0.7954  1.1472 -1.3056
 8744SOL    HW237869   4.464   4.327   5.739  3.7536  1.1717  0.3987
 8745SOL     OW37870   4.289   1.290   8.151  0.5168 -0.2782 -0.6771
 8745SOL    HW137871   4.217   1.291   8.214  1.2025  1.8828  0.0736
 8745SOL    HW237872   4.275   1.207   8.104 -0.4318  0.9912 -2.6584
 8746SOL     OW37873   3.397   0.981   8.232 -0.0128  0.0682  0.2178
 8746SOL    HW137874   3.441   1.025   8.304 -1.2520 -1.5514  1.9835
 8746SOL    HW237875   3.321   0.947   8.280  0.5772 -2.1727 -0.4358
 8747SOL     OW37876   0.877   4.022  11.622  0.0931  0.3335 -0.3683
 8747SOL    HW137877   0.871   3.956  11.553  0.0502 -0.9847  0.8899
 8747SOL    HW237878   0.902   3.971  11.700 -1.5006  0.9307  0.5354
 8748SOL     OW37879   4.468   0.171   2.991  0.0092 -0.0310 -0.0830
 8748SOL    HW137880   4.479   0.109   2.919 -1.6219 -0.8391  0.3558
 8748SOL    HW237881   4.488   0.249   2.940  1.4797  1.3194  2.5661
 8749SOL     OW37882   4.144   1.987   3.913  0.2227 -0.2276  0.3832
 8749SOL    HW137883   4.162   2.081   3.916 -1.4558  0.0550  1.4758
 8749SOL    HW237884   4.166   1.957   4.001  0.6333 -0.8333  0.0751
 8750SOL     OW37885   3.472   0.414   1.802 -0.3312 -0.2947 -0.1050
 8750SOL    HW137886   3.418   0.372   1.869 -0.9512 -1.4507 -1.3419
 8750SOL    HW237887   3.456   0.505   1.828 -0.1091  0.5407 -2.9208
 8751SOL     OW37888   3.704   0.008  15.147 -0.0390 -0.5711 -0.4424
 8751SOL    HW137889   3.780   4.717  15.198 -1.0089  0.6569  1.6855
 8751SOL    HW237890   3.647   4.668  15.138  0.7341 -1.5386  2.8293
 8752SOL     OW37891   2.611   4.388  15.252 -0.8707  0.4599 -0.5395
 8752SOL    HW137892   2.651   4.349  15.330 -0.5612  1.1192 -0.3678
 8752SOL    HW237893   2.664   4.354  15.180  0.2009  1.0056 -0.0124
 8753SOL     OW37894   1.252   3.836   1.781 -0.3937  0.3894 -0.2483
 8753SOL    HW137895   1.262   3.741   1.780  2.0285  0.6393 -0.1085
 8753SOL    HW237896   1.342   3.867   1.773  0.6889 -2.6459  0.3094
 8754SOL     OW37897   0.958   1.558  10.629 -0.3172  0.1051  0.0354
 8754SOL    HW137898   1.042   1.580  10.587 -0.7168  1.0528 -0.2588
 8754SOL    HW237899   0.987   1.523  10.714 -0.2193  2.0020  0.7805
 8755SOL     OW37900   2.189   4.440   3.826 -0.0891  0.8715  0.9113
 8755SOL    HW137901   2.247   4.447   3.902  0.7577  1.0574  0.2474
 8755SOL    HW237902   2.099   4.449   3.854  0.0389 -0.3556  1.7194
 8756SOL     OW37903   1.438   2.049   3.698 -0.5393 -0.3324  0.7992
 8756SOL    HW137904   1.476   1.961   3.695  0.9552  0.3284  0.0545
 8756SOL    HW237905   1.426   2.079   3.608  2.5385  0.2519  0.5688
 8757SOL     OW37906   3.293   3.638  17.266  0.4804  0.1589 -0.8178
 8757SOL    HW137907   3.338   3.620  17.184  1.7788 -0.9416  0.1403
 8757SOL    HW237908   3.203   3.648  17.234  0.3981 -2.5509 -1.3936
 8758SOL     OW37909   1.706   0.793   0.036 -0.0432  0.2483  0.2135
 8758SOL    HW137910   1.635   0.753  17.734  0.4773 -1.6987  1.0371
 8758SOL    HW237911   1.697   0.736   0.112 -1.6661  0.1043 -0.0929
 8759SOL     OW37912   2.104   4.733   0.715  0.3405 -0.7682 -0.2568
 8759SOL    HW137913   2.114   4.685   0.633 -0.5430 -0.9486 -0.2637
 8759SOL    HW237914   2.062   4.673   0.778 -0.9975 -1.1193 -1.4729
 8760SOL     OW37915   3.859   3.355   5.597  0.0102  0.4702 -0.1240
 8760SOL    HW137916   3.808   3.426   5.634  1.3843  1.5305 -0.2479
 8760SOL    HW237917   3.799   3.334   5.525  0.4063  2.9640 -1.1606
 8761SOL     OW37918   1.471   2.577   2.343  0.0280 -0.5260 -0.4877
 8761SOL    HW137919   1.482   2.620   2.428 -1.1023  0.1138 -0.6666
 8761SOL    HW237920   1.449   2.489   2.374  1.4490 -0.3157  1.1373
 8762SOL     OW37921   2.883   2.494   3.138  0.3268 -0.0262 -0.0013
 8762SOL    HW137922   2.794   2.530   3.147  0.5184  1.1055 -2.7923
 8762SOL    HW237923   2.891   2.431   3.209  0.2115  0.6790  0.6374
 8763SOL     OW37924   0.419   0.435   0.390 -0.0497  0.3668 -0.1662
 8763SOL    HW137925   0.403   0.429   0.296 -0.5921  1.9711 -0.1757
 8763SOL    HW237926   0.352   0.496   0.421 -2.1048 -1.4216 -1.1161
 8764SOL     OW37927   1.812   2.367   5.940  0.5968 -0.4145  0.2781
 8764SOL    HW137928   1.825   2.313   5.862  0.7360  0.0595 -0.0315
 8764SOL    HW237929   1.819   2.456   5.903 -1.4401 -0.6234 -0.6309
 8765SOL     OW37930   0.986   4.699   7.104  0.2644  0.2963  0.2058
 8765SOL    HW137931   0.993   0.005   7.189 -3.2904 -0.4673  0.9045
 8765SOL    HW237932   0.891   4.700   7.089  0.6581 -1.2547 -2.2907
 8766SOL     OW37933   3.039   1.412   8.151 -0.0077  0.3169  0.4551
 8766SOL    HW137934   3.133   1.430   8.153  0.0274  0.0544  1.1344
 8766SOL    HW237935   2.997   1.476   8.094 -1.3556  1.1361  2.3465
 8767SOL     OW37936   3.248   0.649   8.235  0.3154 -0.2097 -0.2871
 8767SOL    HW137937   3.222   0.741   8.237 -0.5037 -0.4947  2.1668
 8767SOL    HW237938   3.308   0.632   8.307 -1.7666  0.7834  1.6766
 8768SOL     OW37939   4.194   3.015   1.246  0.2657  0.6152 -0.1671
 8768SOL    HW137940   4.112   3.050   1.280 -1.1388 -2.5185 -0.3241
 8768SOL    HW237941   4.236   3.098   1.225  1.7728 -0.2278 -0.4348
 8769SOL     OW37942   4.315   4.675   8.206 -0.0922  0.2066 -0.6446
 8769SOL    HW137943   4.379   0.005   8.226 -0.4731 -0.0131  1.3258
 8769SOL    HW237944   4.371   4.603   8.233 -0.8068  0.3595  1.2403
 8770SOL     OW37945   0.870   3.462   4.477  0.0911 -0.8312 -0.3759
 8770SOL    HW137946   0.957   3.469   4.437  0.2733  0.6390  0.3018
 8770SOL    HW237947   0.820   3.480   4.398  0.5205 -1.1784 -0.7280
 8771SOL     OW37948   4.421   2.171   8.616  0.2034  0.1430 -0.0476
 8771SOL    HW137949   4.497   2.230   8.617  0.4422 -0.1795  1.0425
 8771SOL    HW237950   4.437   2.125   8.699  1.4870 -1.2268 -1.0369
 8772SOL     OW37951   2.647   3.399   2.981  0.1166 -0.0837 -0.2514
 8772SOL    HW137952   2.589   3.374   3.053  1.1701 -0.1826  0.5568
 8772SOL    HW237953   2.586   3.393   2.907 -0.0128 -0.1208 -0.1429
 8773SOL     OW37954   2.461   0.554   3.070 -0.4824 -0.0049 -0.1143
 8773SOL    HW137955   2.367   0.545   3.059 -0.4837 -0.0119 -0.0984
 8773SOL    HW237956   2.481   0.478   3.015  0.0769 -1.6783  2.4097
 8774SOL     OW37957   0.570   2.052   8.175 -0.0082  0.4516 -0.2025
 8774SOL    HW137958   0.505   2.046   8.105  1.0353  0.0939 -1.1473
 8774SOL    HW237959   0.639   2.095   8.123 -1.2568  1.1917 -1.2509
 8775SOL     OW37960   3.296   3.451   8.801  0.1820  0.3152 -0.1799
 8775SOL    HW137961   3.318   3.536   8.763  1.1653  0.5051  0.8095
 8775SOL    HW237962   3.264   3.403   8.725 -0.9831 -2.1279  1.8932
 8776SOL     OW37963   1.847   1.094   8.549 -0.4763  0.6166 -0.2458
 8776SOL    HW137964   1.931   1.059   8.518 -1.2073 -1.0672 -0.3643
 8776SOL    HW237965   1.861   1.184   8.578 -1.3752  0.9300 -0.7579
 8777SOL     OW37966   3.449   2.433   8.359 -0.6752 -0.4211 -0.0193
 8777SOL    HW137967   3.475   2.469   8.444  1.4876 -0.1755 -0.7773
 8777SOL    HW237968   3.513   2.362   8.358 -0.7994 -0.5023 -1.9016
 8778SOL     OW37969   3.739   4.024   4.985  0.1598 -0.1342  0.5522
 8778SOL    HW137970   3.805   3.956   4.983 -0.4599 -0.7065 -0.6248
 8778SOL    HW237971   3.746   4.069   4.901  2.5143 -1.0660  0.2708
 8779SOL     OW37972   3.522   1.244   4.393 -0.5835 -0.2215 -0.3892
 8779SOL    HW137973   3.582   1.315   4.372 -1.8529  1.2642  0.9915
 8779SOL    HW237974   3.431   1.275   4.392 -0.3193  0.6278  2.8242
 8780SOL     OW37975   3.740   4.082   5.933  0.5114 -0.3225  0.0294
 8780SOL    HW137976   3.729   4.157   5.991  0.3995  1.7423 -2.6431
 8780SOL    HW237977   3.754   4.001   5.982  2.7422 -0.1578 -0.3006
 8781SOL     OW37978   4.203   2.478  14.808 -0.2042 -0.2899 -0.0163
 8781SOL    HW137979   4.264   2.405  14.818 -1.1485 -1.2816 -1.6868
 8781SOL    HW237980   4.169   2.496  14.896  1.0351  1.5317  0.0915
 8782SOL     OW37981   1.876   2.531   9.800 -0.1690  0.1120 -0.0296
 8782SOL    HW137982   1.787   2.528   9.835 -0.6608 -0.1592 -1.3072
 8782SOL    HW237983   1.890   2.623   9.823 -2.3683  0.0666  1.4533
 8783SOL     OW37984   3.750   1.345  17.359 -0.5901 -0.5460 -0.4804
 8783SOL    HW137985   3.814   1.306  17.419 -0.1821 -1.3935 -1.4692
 8783SOL    HW237986   3.687   1.393  17.413  1.0752  0.9032  0.1746
 8784SOL     OW37987   1.761   0.383   4.120 -0.2526 -0.2748  0.3941
 8784SOL    HW137988   1.781   0.424   4.204 -1.1603  1.8957 -0.4736
 8784SOL    HW237989   1.719   0.304   4.155  0.9636  0.1681  2.8371
 8785SOL     OW37990   2.829   2.502   2.862  0.1822  0.0571  0.1145
 8785SOL    HW137991   2.812   2.467   2.949  0.1083  2.4461  1.0453
 8785SOL    HW237992   2.801   2.434   2.800  0.8600 -3.2112  3.4068
 8786SOL     OW37993   2.212   1.743  15.639  0.4835  0.0039  0.2360
 8786SOL    HW137994   2.298   1.771  15.671  0.7913  3.9388 -4.0416
 8786SOL    HW237995   2.219   1.793  15.558 -0.9885 -0.3026 -0.0783
 8787SOL     OW37996   2.610   3.979   1.897  0.0208  0.2172 -0.0361
 8787SOL    HW137997   2.639   3.912   1.959  1.3616  1.1629  0.3461
 8787SOL    HW237998   2.567   4.040   1.957  0.2670 -2.2094  2.6050
 8788SOL     OW37999   0.044   0.503   8.968 -0.3388 -0.1130  0.1405
 8788SOL    HW138000   0.115   0.556   8.931 -2.1289  0.8070 -1.9899
 8788SOL    HW238001   4.715   0.495   8.900 -1.8723 -1.6781  1.8436
 8789SOL     OW38002   3.568   2.028   8.792 -0.3611  0.4166  0.0626
 8789SOL    HW138003   3.657   2.043   8.762 -0.7551  0.6891 -0.9496
 8789SOL    HW238004   3.544   2.112   8.831  1.4144  0.5511  0.8956
 8790SOL     OW38005   0.663   2.930   6.146 -0.5028 -0.3570 -0.1022
 8790SOL    HW138006   0.738   2.940   6.086  1.0309 -0.2537  1.8417
 8790SOL    HW238007   0.633   2.840   6.140 -1.4916  0.0676 -1.4429
 8791SOL     OW38008   1.149   0.501   6.601 -0.3132 -0.3242 -0.3737
 8791SOL    HW138009   1.074   0.538   6.649  0.9740 -0.6608  1.9251
 8791SOL    HW238010   1.185   0.585   6.573 -0.3180  0.3065  1.5026
 8792SOL     OW38011   0.466   1.329   8.292  0.0992  0.1827 -0.2773
 8792SOL    HW138012   0.409   1.285   8.355  0.3083  0.9835  0.4663
 8792SOL    HW238013   0.535   1.264   8.291 -0.1283 -0.0540 -1.4939
 8793SOL     OW38014   2.877   2.936   6.061  0.1979  0.3742  0.0994
 8793SOL    HW138015   2.784   2.920   6.072  0.2123 -0.9909 -1.7696
 8793SOL    HW238016   2.889   3.015   6.114 -0.0722  0.8839 -0.6023
 8794SOL     OW38017   0.016   1.065  13.212 -0.3684  0.0456  0.1323
 8794SOL    HW138018   0.043   1.006  13.282  1.8721  0.3639 -0.4818
 8794SOL    HW238019   4.672   1.026  13.179  0.0341 -1.0209  0.4018
 8795SOL     OW38020   0.611   1.596   3.602  0.6710 -0.2806  0.2858
 8795SOL    HW138021   0.525   1.584   3.563  1.5830  0.5513 -1.9266
 8795SOL    HW238022   0.590   1.683   3.637  0.5788 -0.0109 -0.4549
 8796SOL     OW38023   2.591   0.956   8.944 -0.2843  0.0912 -0.6482
 8796SOL    HW138024   2.639   0.883   8.984 -0.6731 -0.4476 -1.1565
 8796SOL    HW238025   2.655   0.985   8.880  0.0786  1.9108  0.5200
 8797SOL     OW38026   1.032   2.010   3.932  0.3013 -0.2181  0.0524
 8797SOL    HW138027   1.032   2.102   3.958 -2.6099 -0.5042  1.1259
 8797SOL    HW238028   1.068   2.013   3.844  0.5755 -1.5975  0.1232
 8798SOL     OW38029   4.283   0.237   1.471  0.2715  0.0151  0.0446
 8798SOL    HW138030   4.244   0.259   1.386 -0.5019 -0.7852  0.1974
 8798SOL    HW238031   4.214   0.220   1.534 -1.5464  1.8317 -1.4375
 8799SOL     OW38032   2.292   4.429   2.416 -0.3316  0.1531 -0.1656
 8799SOL    HW138033   2.248   4.370   2.355 -2.2700  1.2542  0.1374
 8799SOL    HW238034   2.294   4.359   2.481  1.0352  1.6582  1.3992
 8800SOL     OW38035   2.751   1.315   2.689  0.4255  0.0118 -0.7217
 8800SOL    HW138036   2.665   1.328   2.729  0.3777  0.8746 -1.1148
 8800SOL    HW238037   2.782   1.246   2.747  1.7954 -0.8162 -2.4425
 8801SOL     OW38038   4.413   2.525   6.680 -0.8498 -0.6920  0.5745
 8801SOL    HW138039   4.505   2.507   6.695 -0.6560  0.5691  0.8695
 8801SOL    HW238040   4.386   2.492   6.766 -1.3074 -0.6161  0.4595
 8802SOL     OW38041   0.234   2.079   8.369 -0.0214  0.0155 -0.1012
 8802SOL    HW138042   0.325   2.056   8.351  0.3388 -0.0054  1.8065
 8802SOL    HW238043   0.247   2.100   8.461  0.0748  0.2647 -0.1719
 8803SOL     OW38044   3.840   0.520   3.887  0.0141 -0.6482 -0.0940
 8803SOL    HW138045   3.773   0.575   3.847  0.0989  1.6082  2.9315
 8803SOL    HW238046   3.862   0.560   3.971 -1.2145 -0.2332  0.0246
 8804SOL     OW38047   2.496   1.480  16.819  0.4540  0.1906 -0.5421
 8804SOL    HW138048   2.517   1.424  16.893  0.0375  0.7968  0.0298
 8804SOL    HW238049   2.451   1.411  16.771 -1.4119 -0.2388  1.8415
 8805SOL     OW38050   3.683   2.856  12.342  0.5811  0.2822  0.6535
 8805SOL    HW138051   3.654   2.834  12.253  2.0961 -0.7983  0.4262
 8805SOL    HW238052   3.736   2.932  12.319  0.5996 -0.0687 -0.4523
 8806SOL     OW38053   4.512   0.678   1.811 -0.2905  0.4958  0.2118
 8806SOL    HW138054   4.498   0.644   1.723 -0.1092 -0.2080  0.4537
 8806SOL    HW238055   4.595   0.641   1.842 -0.0951  0.3805 -0.4401
 8807SOL     OW38056   2.804   1.458   5.910 -0.0797 -0.1058  0.0162
 8807SOL    HW138057   2.881   1.511   5.929  0.5576 -1.1993  0.4916
 8807SOL    HW238058   2.832   1.397   5.841  1.4481 -0.8723  1.3362
 8808SOL     OW38059   4.216   4.267   7.838 -0.2987 -0.1055 -0.0496
 8808SOL    HW138060   4.141   4.304   7.885 -0.2310 -1.0454  0.7839
 8808SOL    HW238061   4.281   4.261   7.908 -0.6417  0.2009  0.2998
 8809SOL     OW38062   3.244   0.282   1.293 -0.3008 -0.2969  0.7645
 8809SOL    HW138063   3.319   0.222   1.287 -1.1540 -1.1763 -1.1168
 8809SOL    HW238064   3.201   0.272   1.208 -2.1403 -1.3984  1.8416
 8810SOL     OW38065   2.966   2.105   3.527  0.3769 -0.1569 -0.0377
 8810SOL    HW138066   2.964   2.026   3.581  2.3889 -2.5070 -3.4374
 8810SOL    HW238067   3.046   2.153   3.549 -0.2177  1.4512 -1.3644
 8811SOL     OW38068   1.121   4.309  10.425 -0.2030 -0.1480  0.1039
 8811SOL    HW138069   1.169   4.360  10.360  1.0405 -0.1532  0.9989
 8811SOL    HW238070   1.162   4.352  10.501  1.3264 -0.5886 -0.4576
 8812SOL     OW38071   0.368   3.473   6.139 -0.0107  0.3367  0.0032
 8812SOL    HW138072   0.319   3.545   6.101 -1.8951  0.5472  2.8026
 8812SOL    HW238073   0.330   3.396   6.097 -2.2954  2.8334 -2.4340
 8813SOL     OW38074   4.618   4.029   7.599 -0.0759  0.0619 -0.0901
 8813SOL    HW138075   4.635   4.120   7.575 -1.0374 -0.1133 -1.4704
 8813SOL    HW238076   4.707   4.011   7.629 -0.5216 -1.7177  0.1876
 8814SOL     OW38077   4.292   1.278   6.597  0.0366  0.3951  0.8595
 8814SOL    HW138078   4.382   1.288   6.565 -0.6031  2.3885 -0.3396
 8814SOL    HW238079   4.275   1.372   6.601  0.9997  0.4043  4.8790
 8815SOL     OW38080   0.077   2.179   4.408 -0.2489  0.4098 -0.0092
 8815SOL    HW138081   0.149   2.242   4.399  0.7900 -0.5684  1.3342
 8815SOL    HW238082   0.079   2.147   4.498  0.3896 -1.1543 -0.5732
 8816SOL     OW38083   1.050   3.266   1.112  0.1449  0.1747  0.3026
 8816SOL    HW138084   1.065   3.182   1.155  0.3429  0.0605  0.0107
 8816SOL    HW238085   1.087   3.243   1.027  0.0297 -0.8806  0.5310
 8817SOL     OW38086   3.454   0.592   9.614 -0.2419  0.2379  0.3562
 8817SOL    HW138087   3.470   0.503   9.645  0.9461  1.2462  2.6531
 8817SOL    HW238088   3.544   0.611   9.587 -0.1415 -0.9946 -0.2054
 8818SOL     OW38089   3.491   2.958  15.631  0.2435 -0.1486  0.0122
 8818SOL    HW138090   3.406   2.981  15.595 -0.1613 -1.0307  0.4029
 8818SOL    HW238091   3.488   2.990  15.721  0.1191  0.9521 -0.3889
 8819SOL     OW38092   4.168   0.121  17.587  0.1902  0.0203 -0.1146
 8819SOL    HW138093   4.116   0.198  17.566 -0.9096 -0.4727  0.7677
 8819SOL    HW238094   4.147   0.069  17.509  0.7123 -2.3789  1.3325
 8820SOL     OW38095   3.810   1.053  15.208  0.5485 -0.0683 -0.5021
 8820SOL    HW138096   3.752   1.077  15.281  1.1703 -0.9342  0.2785
 8820SOL    HW238097   3.768   1.098  15.135 -0.1223  0.1738  0.0314
 8821SOL     OW38098   1.997   3.365   9.142  0.1062 -0.9073 -0.1676
 8821SOL    HW138099   2.050   3.395   9.215  1.0520 -3.7239  0.3175
 8821SOL    HW238100   2.000   3.270   9.155  1.4260 -0.6597  1.3504
 8822SOL     OW38101   2.053   4.353   9.434  0.2532 -0.6069  1.3195
 8822SOL    HW138102   2.104   4.272   9.426 -2.6232 -2.2313 -0.6262
 8822SOL    HW238103   2.000   4.345   9.513 -1.9619 -1.1071 -0.2157
 8823SOL     OW38104   1.150   4.588   6.374  0.8023 -0.2187  0.6573
 8823SOL    HW138105   1.220   4.652   6.391  0.6683  0.3844 -1.1547
 8823SOL    HW238106   1.087   4.618   6.441 -1.0893  2.0700 -2.1709
 8824SOL     OW38107   3.110   3.603   5.146  0.1173 -0.2396 -0.6176
 8824SOL    HW138108   3.143   3.691   5.166  0.5458 -0.7880  1.0622
 8824SOL    HW238109   3.185   3.562   5.103  1.2621 -0.1318  1.2690
 8825SOL     OW38110   0.355   1.009  15.165  0.4394  0.0137 -0.2625
 8825SOL    HW138111   0.395   1.063  15.096  0.3220 -2.4409 -2.2546
 8825SOL    HW238112   0.266   1.044  15.171  0.1386 -0.8430  0.3325
 8826SOL     OW38113   1.869   1.199  16.076 -0.2569 -0.0657  0.0652
 8826SOL    HW138114   1.787   1.168  16.038 -0.7430  1.3425 -0.0600
 8826SOL    HW238115   1.865   1.152  16.159 -0.6715  0.3705  0.2885
 8827SOL     OW38116   1.272   1.445   4.239  0.1325  0.3068 -0.4695
 8827SOL    HW138117   1.330   1.493   4.181 -2.6643  2.8804 -1.1318
 8827SOL    HW238118   1.211   1.510   4.274  1.5140  1.8978 -1.0183
 8828SOL     OW38119   2.701   2.679  14.743  0.3722  0.4486  0.3756
 8828SOL    HW138120   2.691   2.590  14.711  1.2430  0.5861 -0.2644
 8828SOL    HW238121   2.789   2.703  14.716 -0.4509 -0.2020 -2.9017
 8829SOL     OW38122   3.570   2.837   6.376 -0.4344 -0.0146  0.4501
 8829SOL    HW138123   3.519   2.908   6.337 -1.1448 -2.0745 -2.3170
 8829SOL    HW238124   3.587   2.786   6.297 -1.5700  1.4415 -0.7386
 8830SOL     OW38125   3.945   2.408   5.534  0.1869  0.9107 -0.2396
 8830SOL    HW138126   3.867   2.357   5.509  0.3063  2.6755 -4.1655
 8830SOL    HW238127   3.915   2.497   5.515 -1.9612  0.0220 -1.0343
 8831SOL     OW38128   4.596   2.694   4.619 -0.6935  0.7693  0.1596
 8831SOL    HW138129   4.508   2.677   4.585 -0.4909  1.5727 -0.7525
 8831SOL    HW238130   4.589   2.658   4.708 -1.4233 -0.9317 -0.5825
 8832SOL     OW38131   3.927   3.302   8.384 -0.3569  0.0569  0.0605
 8832SOL    HW138132   3.883   3.217   8.387 -0.8039  0.2865 -0.1584
 8832SOL    HW238133   4.020   3.280   8.371 -0.5098 -0.8589  0.5030
 8833SOL     OW38134   1.300   1.707   7.859  0.5461  0.1851  0.5788
 8833SOL    HW138135   1.266   1.713   7.948 -3.5295 -2.6860 -0.7836
 8833SOL    HW238136   1.222   1.726   7.808  1.9997 -1.8528 -2.4426
 8834SOL     OW38137   3.560   1.315   3.742  0.5516 -0.2079 -0.2321
 8834SOL    HW138138   3.606   1.270   3.812  0.8718 -0.3713 -0.5472
 8834SOL    HW238139   3.577   1.263   3.663 -2.2928  0.0068 -0.9692
 8835SOL     OW38140   4.671   3.160  11.944 -0.7079 -0.2179 -0.3815
 8835SOL    HW138141   4.597   3.212  11.977  0.0867  2.0171 -2.1405
 8835SOL    HW238142   4.627   3.075  11.943 -0.7169 -0.1962 -1.8474
 8836SOL     OW38143   1.382   3.283   1.586  0.0017  0.0062 -0.1431
 8836SOL    HW138144   1.414   3.197   1.612  0.5591  0.1418 -0.3714
 8836SOL    HW238145   1.460   3.318   1.541  0.2563  1.6616  1.5975
 8837SOL     OW38146   0.289   0.623   0.921 -0.1952 -0.2774 -0.2117
 8837SOL    HW138147   0.342   0.604   0.843  0.6850 -0.7815  0.5033
 8837SOL    HW238148   0.340   0.597   0.998  0.1894  0.7793 -0.1134
 8838SOL     OW38149   4.114   3.000   4.356 -0.1555 -0.1100 -0.0831
 8838SOL    HW138150   4.200   2.969   4.385  0.0798  0.4576 -0.1848
 8838SOL    HW238151   4.103   3.062   4.427  0.1737 -0.4309  0.2486
 8839SOL     OW38152   3.631   3.914  16.969  0.0519 -0.8325 -0.2628
 8839SOL    HW138153   3.612   3.834  16.920 -0.6515 -0.1362 -1.1518
 8839SOL    HW238154   3.585   3.896  17.050 -0.3503 -0.5400 -0.4229
 8840SOL     OW38155   2.588   4.462   3.809  0.2081 -0.3734  0.7110
 8840SOL    HW138156   2.527   4.523   3.770  0.9875 -0.1530 -0.1696
 8840SOL    HW238157   2.669   4.514   3.811 -1.8145  2.8299 -1.2738
 8841SOL     OW38158   4.167   0.022   3.371  0.3377 -0.6774 -0.2582
 8841SOL    HW138159   4.124   0.072   3.440  0.3505 -3.5882  1.8604
 8841SOL    HW238160   4.202   0.088   3.312 -0.1192 -2.0774 -2.0854
 8842SOL     OW38161   0.660   1.040   4.370  0.2165 -0.3966  0.1564
 8842SOL    HW138162   0.593   1.083   4.318  0.9692  0.8348  0.1897
 8842SOL    HW238163   0.732   1.101   4.356  0.3275 -0.2734  1.1967
 8843SOL     OW38164   3.641   1.680  16.249 -0.3200 -0.1477  0.1453
 8843SOL    HW138165   3.724   1.708  16.212 -0.2626  1.1874  1.3030
 8843SOL    HW238166   3.593   1.647  16.173  2.2245 -1.7996 -0.7460
 8844SOL     OW38167   1.459   2.805  10.523  0.3478 -0.0868  0.0851
 8844SOL    HW138168   1.401   2.762  10.460  0.6233  0.8575 -0.7979
 8844SOL    HW238169   1.472   2.732  10.585  1.5325 -0.1278 -0.2148
 8845SOL     OW38170   0.938   2.936   4.209  0.5545  0.3766  0.1717
 8845SOL    HW138171   0.950   2.851   4.250  1.1591  0.2306 -0.3017
 8845SOL    HW238172   0.948   2.996   4.283  2.2984 -0.0609  0.3168
 8846SOL     OW38173   4.219   2.136  11.657  0.0554  0.5968  0.4860
 8846SOL    HW138174   4.282   2.169  11.721  1.2630 -3.5806  1.4788
 8846SOL    HW238175   4.231   2.193  11.582  1.3143 -0.8158 -0.3998
 8847SOL     OW38176   1.694   0.034   2.848  0.6379  0.2617  0.4319
 8847SOL    HW138177   1.676   0.122   2.881 -1.1986  0.6162 -1.4687
 8847SOL    HW238178   1.705   0.038   2.753 -1.0332  0.3467  0.2310
 8848SOL     OW38179   4.492   1.010   2.747  0.1843 -0.4549 -0.1655
 8848SOL    HW138180   4.432   1.050   2.684  0.5681 -1.3827 -1.1194
 8848SOL    HW238181   4.579   1.033   2.713  0.0204 -0.1762 -0.3950
 8849SOL     OW38182   4.436   3.474   8.013 -0.3950  0.7090  0.5006
 8849SOL    HW138183   4.395   3.560   8.027 -1.3960  0.0979  1.3065
 8849SOL    HW238184   4.445   3.455   8.106 -0.1684  0.1886  0.3740
 8850SOL     OW38185   0.250   0.238  12.964  0.0775  0.0481  0.0775
 8850SOL    HW138186   0.164   0.241  13.007  1.1498  1.1061  2.1550
 8850SOL    HW238187   0.222   0.234  12.873 -1.7136  1.2462  0.5764
 8851SOL     OW38188   4.623   2.382   8.631 -0.0017  0.2818 -0.3411
 8851SOL    HW138189   4.636   2.444   8.702  0.8117 -1.7047  1.2730
 8851SOL    HW238190   4.620   2.435   8.552  1.8850 -0.3669 -0.8477
 8852SOL     OW38191   2.931   2.893   9.856 -0.3352 -0.5817 -0.2737
 8852SOL    HW138192   2.908   2.829   9.789 -1.2480 -2.1452  1.5478
 8852SOL    HW238193   2.917   2.846   9.938  2.3555 -0.2396  0.4056
 8853SOL     OW38194   3.911   2.459  14.759  0.0732  0.2649 -0.4276
 8853SOL    HW138195   4.005   2.462  14.745 -0.1102 -0.7720 -1.9631
 8853SOL    HW238196   3.889   2.548  14.786 -0.4963  0.2134 -0.6980
 8854SOL     OW38197   3.087   2.064   2.530 -0.3196  0.1165  0.2433
 8854SOL    HW138198   3.089   1.980   2.484  1.6289 -1.2792  2.8536
 8854SOL    HW238199   3.016   2.111   2.488 -1.3325 -0.0079  1.8089
 8855SOL     OW38200   4.569   4.025  15.657  0.1985  0.4968 -0.4143
 8855SOL    HW138201   4.492   3.983  15.696 -1.0569  1.7485 -1.5554
 8855SOL    HW238202   4.578   3.981  15.573 -3.8063 -2.3110  0.5604
 8856SOL     OW38203   1.909   2.547  17.240 -0.2189 -0.0253 -0.0168
 8856SOL    HW138204   1.841   2.558  17.306  1.3367 -0.9265  1.7442
 8856SOL    HW238205   1.872   2.519  17.157  0.1922 -0.9353  0.1074
 8857SOL     OW38206   4.101   3.515   2.739  0.2248  0.0287  0.1942
 8857SOL    HW138207   4.072   3.604   2.760 -1.7909 -0.5663 -0.0396
 8857SOL    HW238208   4.084   3.512   2.645  1.8147 -1.4239 -0.0441
 8858SOL     OW38209   4.281   0.033   5.643 -0.1911 -0.8610  0.4891
 8858SOL    HW138210   4.313   0.076   5.723 -0.7005 -0.0881  0.2720
 8858SOL    HW238211   4.223   4.707   5.685  0.2969 -1.0960  0.8093
 8859SOL     OW38212   0.516   3.815  13.316 -0.5032  0.7153 -0.3827
 8859SOL    HW138213   0.567   3.862  13.382 -0.1006 -0.1414 -0.0889
 8859SOL    HW238214   0.429   3.833  13.352 -0.8559  0.1658 -0.9749
 8860SOL     OW38215   3.624   3.537   2.512 -0.3736  0.0840  0.1892
 8860SOL    HW138216   3.712   3.575   2.522 -0.1300 -0.9302  1.9535
 8860SOL    HW238217   3.572   3.578   2.582 -0.1269 -0.7687  0.8683
 8861SOL     OW38218   0.760   2.831   7.863 -0.8909  0.7938 -0.3776
 8861SOL    HW138219   0.704   2.820   7.940 -1.2467 -0.3023 -0.7943
 8861SOL    HW238220   0.844   2.792   7.890 -0.4807  0.1930 -2.5507
 8862SOL     OW38221   1.170   0.693   1.653  0.1654  0.3537  0.4475
 8862SOL    HW138222   1.254   0.735   1.638  0.0816  0.5953  0.6564
 8862SOL    HW238223   1.192   0.629   1.720  2.3254 -1.3245 -1.8676
 8863SOL     OW38224   1.855   3.433  16.392  1.0754  0.1407 -0.2335
 8863SOL    HW138225   1.913   3.409  16.319  0.4697 -0.5582 -0.4910
 8863SOL    HW238226   1.905   3.420  16.472  1.6253  1.8981 -0.2982
 8864SOL     OW38227   1.329   0.691  11.062  0.3706  0.1291 -0.2395
 8864SOL    HW138228   1.361   0.615  11.111  1.3262  0.7990  0.1874
 8864SOL    HW238229   1.325   0.755  11.133  3.2173  0.5626 -0.4683
 8865SOL     OW38230   0.863   1.719   3.985  0.0976 -0.3112 -0.2420
 8865SOL    HW138231   0.920   1.644   4.000  2.2567  1.2746 -0.5555
 8865SOL    HW238232   0.805   1.683   3.917 -0.4969  0.5166 -0.1745
 8866SOL     OW38233   2.822   2.997   7.381 -0.3524  0.0930  0.1681
 8866SOL    HW138234   2.828   3.004   7.285 -2.6423 -1.6746 -0.1139
 8866SOL    HW238235   2.866   3.071   7.423  0.8270  0.9694 -2.6194
 8867SOL     OW38236   2.081   2.796   5.431 -0.1674  0.1560 -0.1521
 8867SOL    HW138237   2.176   2.791   5.447 -0.0604 -0.5654 -0.9631
 8867SOL    HW238238   2.078   2.842   5.347 -2.1419  1.3218  0.5657
 8868SOL     OW38239   0.695   1.126  11.639 -0.0114  0.3139 -0.2363
 8868SOL    HW138240   0.600   1.114  11.635 -0.4675  2.6846  2.9446
 8868SOL    HW238241   0.713   1.087  11.725  2.2120  0.5686 -0.5911
 8869SOL     OW38242   4.668   1.662   3.371 -0.1914  0.4792 -0.1539
 8869SOL    HW138243   4.711   1.673   3.286 -2.7723 -0.1767 -1.5499
 8869SOL    HW238244   4.720   1.589   3.404 -1.0702  0.3852  1.0187
 8870SOL     OW38245   2.032   2.504   6.298 -0.0204 -0.3020  0.0338
 8870SOL    HW138246   2.113   2.541   6.262 -1.3916  0.7906 -1.9166
 8870SOL    HW238247   1.979   2.561   6.242 -0.8018 -2.4302 -1.3562
 8871SOL     OW38248   2.892   1.144   5.225  0.0053 -0.4861  0.2784
 8871SOL    HW138249   2.937   1.155   5.309  0.1297 -1.1528  0.3044
 8871SOL    HW238250   2.969   1.141   5.168 -0.6338  0.8708 -0.6642
 8872SOL     OW38251   2.994   2.020   6.592  0.0270 -0.0431 -0.3766
 8872SOL    HW138252   2.924   2.020   6.528 -0.1757 -4.0912 -0.1068
 8872SOL    HW238253   3.050   1.948   6.563 -3.0062 -2.0803 -1.0839
 8873SOL     OW38254   1.155   4.351  12.911 -0.3086 -0.1943  0.0456
 8873SOL    HW138255   1.236   4.301  12.909  0.4266  1.0293 -1.0493
 8873SOL    HW238256   1.176   4.432  12.865 -0.5924  0.1325  0.4940
 8874SOL     OW38257   4.591   4.306   5.466  0.6700  0.6846 -0.3440
 8874SOL    HW138258   4.532   4.331   5.537  0.6133 -1.4567  0.3549
 8874SOL    HW238259   4.585   4.387   5.415 -0.6737  1.4105  0.9635
 8875SOL     OW38260   4.080   2.927   1.939  0.0129  0.4074 -0.5678
 8875SOL    HW138261   4.032   2.868   1.881 -0.0244 -1.2430  1.1370
 8875SOL    HW238262   4.078   3.006   1.886  0.8585  0.3165 -0.7343
 8876SOL     OW38263   3.206   2.167   0.843  0.0276 -0.3130  0.1970
 8876SOL    HW138264   3.300   2.150   0.832  0.1495 -1.1845  2.6073
 8876SOL    HW238265   3.199   2.256   0.807  2.6422  0.5997  1.9343
 8877SOL     OW38266   3.113   2.479   5.540  0.7103  0.1322  0.2576
 8877SOL    HW138267   3.113   2.414   5.470 -0.1076 -0.1555  0.5218
 8877SOL    HW238268   3.137   2.561   5.496  1.6226  0.1078  0.7044
 8878SOL     OW38269   4.174   0.228   0.646 -0.3159  0.2061  0.4150
 8878SOL    HW138270   4.108   0.271   0.591  2.8389  2.3272 -1.7452
 8878SOL    HW238271   4.250   0.232   0.588 -0.5091 -0.8055  0.1017
 8879SOL     OW38272   2.090   0.385  11.319  0.1571 -0.1463  0.0856
 8879SOL    HW138273   2.124   0.349  11.237 -1.6691 -1.4008 -0.1030
 8879SOL    HW238274   2.009   0.338  11.337  0.5649 -0.5947  0.7588
 8880SOL     OW38275   2.247   2.053   3.253 -0.1961 -0.2224 -0.1900
 8880SOL    HW138276   2.231   2.109   3.330  2.4647  0.5228 -0.2048
 8880SOL    HW238277   2.337   2.022   3.261 -0.1472  0.0679  0.3858
 8881SOL     OW38278   0.995   0.347   6.211 -0.6337  0.2592  0.1840
 8881SOL    HW138279   1.057   0.401   6.162 -0.1358 -0.5777 -0.1141
 8881SOL    HW238280   0.929   0.413   6.233 -0.7663  0.4238 -0.7130
 8882SOL     OW38281   4.663   4.350   4.199  0.4649 -0.6622 -0.0107
 8882SOL    HW138282   4.576   4.310   4.202 -0.1926  0.8118  0.4328
 8882SOL    HW238283   4.667   4.407   4.122 -3.2608 -0.9775 -0.4346
 8883SOL     OW38284   2.250   4.573   9.892 -0.6428 -0.0138  0.1759
 8883SOL    HW138285   2.339   4.550   9.918 -0.7487  0.3300  0.8320
 8883SOL    HW238286   2.241   4.663   9.925 -0.6182  0.5359 -1.3096
 8884SOL     OW38287   2.312   2.577  14.609 -0.4879 -0.0227  0.1636
 8884SOL    HW138288   2.286   2.631  14.535 -0.5466  0.1407  0.3036
 8884SOL    HW238289   2.341   2.633  14.681 -1.0543  0.7758 -0.2296
 8885SOL     OW38290   1.151   3.321   2.433  0.5745 -0.3082  0.5261
 8885SOL    HW138291   1.224   3.259   2.427  0.9469  0.2304 -0.6775
 8885SOL    HW238292   1.171   3.378   2.359 -1.4694 -0.7515 -0.3632
 8886SOL     OW38293   0.019   4.294   7.940  0.5542  0.0681  0.5082
 8886SOL    HW138294   0.057   4.209   7.917  2.4325  1.3155 -1.0084
 8886SOL    HW238295   0.008   4.279   8.034  0.3809  1.1796  0.6696
 8887SOL     OW38296   3.365   2.798  10.713  0.0610  0.1590 -0.0214
 8887SOL    HW138297   3.305   2.733  10.678  1.9818 -1.1260 -0.9392
 8887SOL    HW238298   3.326   2.882  10.688 -2.5372 -1.5946 -1.8739
 8888SOL     OW38299   2.533   3.490  15.866 -0.1184  0.7375 -0.0191
 8888SOL    HW138300   2.593   3.417  15.849 -0.7219  0.0161  0.9726
 8888SOL    HW238301   2.502   3.512  15.778  2.4027 -0.5542 -1.2281
 8889SOL     OW38302   2.071   4.716   5.075 -0.7130 -0.0175  0.8854
 8889SOL    HW138303   2.005   4.685   5.012  0.7271 -1.2665  0.0043
 8889SOL    HW238304   2.151   4.691   5.029  0.7993  3.0690  1.8288
 8890SOL     OW38305   0.632   1.796   8.287 -0.2408 -0.0709  0.4906
 8890SOL    HW138306   0.606   1.873   8.235  2.5744  1.6473  1.6233
 8890SOL    HW238307   0.568   1.728   8.268 -0.7168  0.1187  1.4236
 8891SOL     OW38308   0.651   2.026   4.647  0.1340  0.8603 -0.6444
 8891SOL    HW138309   0.694   1.945   4.673 -0.3042 -0.0594 -2.7839
 8891SOL    HW238310   0.707   2.088   4.695  1.7339 -1.9010  1.0548
 8892SOL     OW38311   2.874   4.231  12.116  0.1848 -0.0454 -0.2947
 8892SOL    HW138312   2.796   4.177  12.101  0.4017 -0.2516 -0.7136
 8892SOL    HW238313   2.891   4.197  12.204  0.1565  2.1723  0.5438
 8893SOL     OW38314   0.531   4.350   4.460 -0.0281  0.3982  0.0299
 8893SOL    HW138315   0.604   4.339   4.399  0.8773 -1.8774  1.5067
 8893SOL    HW238316   0.515   4.260   4.489  0.5127  0.1871 -0.3230
 8894SOL     OW38317   3.369   0.303   7.009 -0.4786 -0.5805  0.6508
 8894SOL    HW138318   3.427   0.354   7.066 -0.1147  1.2890 -1.3669
 8894SOL    HW238319   3.376   0.214   7.044 -1.6619 -0.6686  0.6594
 8895SOL     OW38320   0.616   0.964  15.271 -0.2253  0.1448 -0.2091
 8895SOL    HW138321   0.524   0.978  15.251 -0.1464 -0.6706 -1.0946
 8895SOL    HW238322   0.608   1.011  15.354  0.6152 -1.2283  0.6660
 8896SOL     OW38323   1.855   2.630   4.906  0.5261 -0.0065 -0.3059
 8896SOL    HW138324   1.895   2.707   4.947  2.1342 -1.8710  1.6178
 8896SOL    HW238325   1.912   2.557   4.930  0.4181  0.3685  1.1216
 8897SOL     OW38326   0.842   1.682   5.516 -0.2125  0.2870  0.3112
 8897SOL    HW138327   0.748   1.664   5.525 -0.1175  0.3201  1.3758
 8897SOL    HW238328   0.841   1.778   5.511 -0.7157  0.2229 -0.8296
 8898SOL     OW38329   1.665   4.323   8.713  0.1603  0.2994 -0.0126
 8898SOL    HW138330   1.717   4.245   8.691  3.1520  1.6333  2.3082
 8898SOL    HW238331   1.742   4.377   8.731  1.2505 -1.3264  0.2268
 8899SOL     OW38332   2.529   0.331   4.582 -0.5783 -0.2164 -0.4132
 8899SOL    HW138333   2.500   0.415   4.546  1.0371  0.0022 -1.2041
 8899SOL    HW238334   2.512   0.350   4.675  0.0848  0.5709 -0.4512
 8900SOL     OW38335   1.890   2.149   2.885 -0.7412  0.1572  0.1688
 8900SOL    HW138336   1.803   2.122   2.914  0.6952 -1.9263  2.5613
 8900SOL    HW238337   1.933   2.180   2.965 -0.9409 -1.2867  0.8238
 8901SOL     OW38338   3.649   2.956  15.199  0.2665  0.0351  0.0835
 8901SOL    HW138339   3.662   2.964  15.294  0.5339  0.0814  0.0407
 8901SOL    HW238340   3.554   2.943  15.197  0.2203  0.5358 -0.7350
 8902SOL     OW38341   0.322   2.722   8.933  0.4486  0.2233  0.0251
 8902SOL    HW138342   0.303   2.771   9.013  1.9982 -0.2591  0.6978
 8902SOL    HW238343   0.389   2.668   8.976  0.7032  1.9239  1.7901
 8903SOL     OW38344   1.289   2.723   1.447  0.2380 -0.5692 -0.4061
 8903SOL    HW138345   1.312   2.741   1.538 -0.7416  0.0587 -0.2770
 8903SOL    HW238346   1.203   2.680   1.451  0.3787 -0.6925  1.1682
 8904SOL     OW38347   3.113   2.397   8.101  0.0465 -0.3584  0.4233
 8904SOL    HW138348   3.190   2.357   8.060 -0.1861  2.0185 -2.3165
 8904SOL    HW238349   3.086   2.457   8.032 -0.2804 -0.0710  0.8054
 8905SOL     OW38350   1.052   1.071   8.788 -0.0058 -0.2877  0.0895
 8905SOL    HW138351   1.002   1.146   8.821 -1.5798 -0.0666 -2.8159
 8905SOL    HW238352   0.990   1.012   8.746 -0.4705  0.4542 -0.2571
 8906SOL     OW38353   0.085   3.187  12.444  0.2726  0.0488  0.9305
 8906SOL    HW138354   0.054   3.251  12.380 -0.4196 -1.6467 -0.4406
 8906SOL    HW238355   0.088   3.238  12.525  0.1073  1.4278  0.0626
 8907SOL     OW38356   3.287   2.695   1.811  0.8304  0.4188 -0.2320
 8907SOL    HW138357   3.322   2.735   1.891  1.9540  2.8982 -1.9719
 8907SOL    HW238358   3.193   2.701   1.829  0.8426 -0.0806  0.0241
 8908SOL     OW38359   4.623   1.476   7.636 -0.0299  0.3165  1.2143
 8908SOL    HW138360   4.704   1.518   7.606 -2.3098  1.9588 -2.7239
 8908SOL    HW238361   4.565   1.477   7.559 -0.8719  0.6815  1.8478
 8909SOL     OW38362   1.490   2.503  15.253  0.0580  0.5843  0.5290
 8909SOL    HW138363   1.400   2.497  15.221  0.3932  0.0738 -0.3026
 8909SOL    HW238364   1.481   2.592  15.289 -0.1633  0.6549  0.3008
 8910SOL     OW38365   4.727   3.222   3.794 -0.0768 -0.1594 -0.2037
 8910SOL    HW138366   4.682   3.138   3.796  1.6701 -1.1375 -1.4898
 8910SOL    HW238367   0.026   3.228   3.882 -0.0173 -1.2306 -0.1516
 8911SOL     OW38368   2.790   2.825   1.915  0.4910  0.3087 -0.1617
 8911SOL    HW138369   2.706   2.782   1.896  0.6031 -0.4813  1.1342
 8911SOL    HW238370   2.825   2.763   1.979 -0.2372 -0.3972 -0.4547
 8912SOL     OW38371   2.107   1.865   3.456 -0.3840  0.4899  0.3994
 8912SOL    HW138372   2.188   1.907   3.427  1.2498 -3.2403 -0.4516
 8912SOL    HW238373   2.060   1.947   3.471 -1.1224 -0.0600  1.0462
 8913SOL     OW38374   4.642   3.956   8.081 -0.3964  0.0830 -0.1932
 8913SOL    HW138375   4.735   3.966   8.060 -0.9921  2.3127 -1.7158
 8913SOL    HW238376   4.604   3.983   7.998 -0.3734  0.8484  0.0367
 8914SOL     OW38377   0.952   1.703  11.334 -0.1075 -0.3214  0.3370
 8914SOL    HW138378   0.895   1.776  11.310  0.0492 -0.6975 -1.2384
 8914SOL    HW238379   0.897   1.626  11.347 -0.2692 -0.7136 -2.5737
 8915SOL     OW38380   3.296   0.089   7.201  0.0376  0.8105  0.6436
 8915SOL    HW138381   3.227   0.126   7.257  0.0000 -0.5006  1.4643
 8915SOL    HW238382   3.275   4.734   7.194  1.1637  0.7795 -2.0007
 8916SOL     OW38383   2.490   1.338   3.283  0.0813  0.4027 -0.1062
 8916SOL    HW138384   2.501   1.381   3.198 -1.9646  0.0580 -0.5523
 8916SOL    HW238385   2.547   1.397   3.331 -2.2197  0.7411  2.1804
 8917SOL     OW38386   2.701   1.645   9.641  0.0609 -0.1350  0.6454
 8917SOL    HW138387   2.661   1.562   9.667  1.7733 -1.3785 -0.6643
 8917SOL    HW238388   2.793   1.620   9.647 -0.1416 -0.9313  0.3844
 8918SOL     OW38389   4.046   2.407   8.840  0.0220 -0.6830 -0.3180
 8918SOL    HW138390   4.044   2.392   8.746 -2.0026 -3.1203  0.0992
 8918SOL    HW238391   4.091   2.331   8.877  1.6420  1.1688  1.5543
 8919SOL     OW38392   3.488   0.883   7.472  0.0510 -0.4089 -0.1845
 8919SOL    HW138393   3.504   0.956   7.532 -3.2976 -1.3018  1.7700
 8919SOL    HW238394   3.398   0.859   7.490 -0.1454  0.9149  0.6706
 8920SOL     OW38395   4.202   2.310   5.578 -0.7862 -0.0211 -0.4987
 8920SOL    HW138396   4.139   2.378   5.555 -0.6809  0.5390  0.8211
 8920SOL    HW238397   4.251   2.350   5.650  0.8872  0.3469 -1.8371
 8921SOL     OW38398   3.166   3.649   5.468 -0.5202  0.0537  0.7177
 8921SOL    HW138399   3.229   3.702   5.419  0.7093 -1.7099  0.3843
 8921SOL    HW238400   3.228   3.579   5.487 -1.8392 -1.1297  0.6295
 8922SOL     OW38401   1.637   4.333   1.560  0.7853 -0.0651  0.0625
 8922SOL    HW138402   1.614   4.348   1.652  0.7423 -2.0612  0.3622
 8922SOL    HW238403   1.626   4.424   1.530 -1.1909  0.1797  1.4835
 8923SOL     OW38404   2.451   0.388   7.511 -0.2654  0.1602 -0.4564
 8923SOL    HW138405   2.397   0.441   7.454  0.2039  1.6545  0.4925
 8923SOL    HW238406   2.446   0.309   7.458 -0.6832  0.4492 -0.8401
 8924SOL     OW38407   4.520   0.953   3.521  0.7807 -0.2660 -0.0956
 8924SOL    HW138408   4.548   0.862   3.520 -2.4962 -1.2556 -1.9886
 8924SOL    HW238409   4.496   0.964   3.429 -0.2340 -1.1268  0.0602
 8925SOL     OW38410   1.745   1.834  12.871 -0.1253 -0.1823 -0.2557
 8925SOL    HW138411   1.829   1.827  12.917  0.8433  1.2768 -1.7925
 8925SOL    HW238412   1.770   1.781  12.795 -0.4146 -1.4362  0.5235
 8926SOL     OW38413   4.373   1.407   8.501  0.6467 -0.1385  0.2595
 8926SOL    HW138414   4.377   1.501   8.486  0.5821 -0.1815 -0.0120
 8926SOL    HW238415   4.410   1.406   8.590  1.1312 -1.7543  0.0534
 8927SOL     OW38416   1.607   0.920   8.485 -0.3926 -0.0124 -0.0634
 8927SOL    HW138417   1.622   0.832   8.448 -1.5997  0.6289 -2.1411
 8927SOL    HW238418   1.688   0.948   8.526 -1.6570  1.2512  1.5807
 8928SOL     OW38419   1.388   2.377   4.911  0.3847  0.1421  0.4459
 8928SOL    HW138420   1.460   2.435   4.936 -1.5822  1.9913  1.9095
 8928SOL    HW238421   1.319   2.422   4.960 -1.1906  0.1069 -1.7113
 8929SOL     OW38422   2.538   1.992   8.468 -0.6581 -0.0126  0.0167
 8929SOL    HW138423   2.472   1.926   8.447  0.5267 -0.9691 -0.6664
 8929SOL    HW238424   2.559   2.018   8.378  0.0212 -0.3365  0.0776
 8930SOL     OW38425   4.709   0.189   2.331 -0.2002 -0.0959 -0.4574
 8930SOL    HW138426   0.058   0.147   2.337 -0.6888 -1.0587 -0.1628
 8930SOL    HW238427   4.705   0.190   2.235  1.6543  0.8790 -0.5265
 8931SOL     OW38428   2.702   4.168   6.673  0.2394 -0.0702  0.2467
 8931SOL    HW138429   2.768   4.206   6.615 -1.6823  1.8155 -0.7531
 8931SOL    HW238430   2.623   4.216   6.646  1.2325  1.0384 -0.6481
 8932SOL     OW38431   0.281   1.895   5.575  0.1891 -0.2661 -0.2545
 8932SOL    HW138432   0.357   1.906   5.631  0.3366  0.3130 -0.5722
 8932SOL    HW238433   0.320   1.916   5.490 -2.4128  3.5172 -0.5025
 8933SOL     OW38434   1.738   1.181   4.092  0.3553  0.0899  0.0094
 8933SOL    HW138435   1.723   1.086   4.088 -0.8272  0.3342 -1.5009
 8933SOL    HW238436   1.716   1.201   4.000  1.5399  0.4676 -0.1866
 8934SOL     OW38437   4.590   1.925   9.770  0.3576  0.1628  0.9611
 8934SOL    HW138438   4.663   1.971   9.811  2.4440 -0.8520 -1.5968
 8934SOL    HW238439   4.590   1.850   9.830 -0.1199 -0.0890  0.6441
 8935SOL     OW38440   4.137   2.726   6.142 -0.2332  0.8059  0.7551
 8935SOL    HW138441   4.055   2.769   6.169 -0.8248 -0.1866  0.5319
 8935SOL    HW238442   4.204   2.763   6.200  2.7658  1.3129 -3.0488
 8936SOL     OW38443   0.596   2.923   3.258 -0.3253 -0.0148  0.0921
 8936SOL    HW138444   0.519   2.895   3.308 -2.6076  0.6811 -3.0818
 8936SOL    HW238445   0.653   2.859   3.302 -1.3664 -0.2129  1.1670
 8937SOL     OW38446   1.620   4.093   8.129 -0.2398 -0.0188 -0.2683
 8937SOL    HW138447   1.553   4.133   8.074  0.7084  3.3274  0.9836
 8937SOL    HW238448   1.689   4.097   8.063 -0.3043 -0.2258 -0.3476
 8938SOL     OW38449   1.741   4.574  13.901  0.0079 -0.0237  0.0891
 8938SOL    HW138450   1.790   4.589  13.820 -0.7951  0.6026 -0.2820
 8938SOL    HW238451   1.661   4.538  13.863  0.8693  0.9638 -2.6317
 8939SOL     OW38452   2.064   1.682   1.404  0.1335  0.0972  0.7435
 8939SOL    HW138453   1.994   1.682   1.338  1.3239 -1.5850 -0.5255
 8939SOL    HW238454   2.143   1.668   1.352 -0.2336 -1.0066  0.4957
 8940SOL     OW38455   1.389   2.625   0.180  0.4224 -0.1146  0.0133
 8940SOL    HW138456   1.323   2.694   0.166  0.3620 -0.4603 -1.3513
 8940SOL    HW238457   1.467   2.674   0.205  0.1351 -0.6334  1.8949
 8941SOL     OW38458   3.985   1.320   5.022 -0.0406  0.3857  0.0329
 8941SOL    HW138459   3.890   1.327   5.019 -0.1035  0.0885  1.3614
 8941SOL    HW238460   4.002   1.286   4.934  2.4560  1.1416  0.2242
 8942SOL     OW38461   2.079   3.556   8.270 -0.1173 -0.3113  0.3513
 8942SOL    HW138462   2.016   3.490   8.240 -1.0986  0.8144 -0.0906
 8942SOL    HW238463   2.033   3.621   8.323 -0.5452  0.6458 -1.1919
 8943SOL     OW38464   1.656   1.448   5.996  0.0977 -0.3030 -0.4072
 8943SOL    HW138465   1.679   1.383   5.929  1.7458  0.7880 -0.8968
 8943SOL    HW238466   1.694   1.404   6.071  0.7432 -0.8133 -1.0366
 8944SOL     OW38467   3.189   3.152   0.070  0.3322  0.1508  0.2938
 8944SOL    HW138468   3.241   3.126   0.146 -1.4850  0.4003  1.6302
 8944SOL    HW238469   3.136   3.227   0.098 -0.7435 -1.0249  1.4100
 8945SOL     OW38470   2.839   4.216   0.052  0.1807  0.1881  0.5031
 8945SOL    HW138471   2.788   4.239   0.130  2.6537  1.3883  1.7889
 8945SOL    HW238472   2.788   4.153   0.002  0.0570  1.1209 -0.5451
 8946SOL     OW38473   4.601   2.254  15.361 -0.5003 -0.4939 -0.2168
 8946SOL    HW138474   4.529   2.224  15.416 -0.9411  0.2972 -0.3522
 8946SOL    HW238475   4.609   2.344  15.392 -0.6008  0.5278 -3.0848
 8947SOL     OW38476   1.267   4.532  10.996  0.1370  0.0091  0.0393
 8947SOL    HW138477   1.238   4.441  11.008  0.4405 -0.1875 -0.7028
 8947SOL    HW238478   1.360   4.512  10.986  0.2697  0.8747 -0.4222
 8948SOL     OW38479   1.163   1.879  11.868 -0.1482  0.0136 -0.6809
 8948SOL    HW138480   1.102   1.887  11.794  0.1515  1.4577 -0.7748
 8948SOL    HW238481   1.154   1.787  11.893 -0.5285  0.5953  1.3270
 8949SOL     OW38482   2.258   4.301   2.097  0.2636  0.1815 -0.7750
 8949SOL    HW138483   2.263   4.321   2.003 -1.2617  0.8943 -0.7102
 8949SOL    HW238484   2.255   4.391   2.128 -1.6592  0.6174 -2.1953
 8950SOL     OW38485   2.591   4.696   2.752  0.1274 -0.1512  0.2105
 8950SOL    HW138486   2.534   4.721   2.679  0.8913 -1.7262 -0.9251
 8950SOL    HW238487   2.666   0.008   2.719  2.1716 -2.4771  1.4495
 8951SOL     OW38488   0.321   1.995   6.349  0.1076  0.2324  0.5112
 8951SOL    HW138489   0.277   2.023   6.430 -0.4339 -0.6140  0.5071
 8951SOL    HW238490   0.322   1.900   6.357  1.1442  0.1865 -0.2525
 8952SOL     OW38491   0.987   4.461   4.833 -0.1126 -0.1314  0.0337
 8952SOL    HW138492   0.904   4.509   4.832  0.1605  0.3510  0.1749
 8952SOL    HW238493   0.962   4.375   4.865  1.7856  0.0268  1.9584
 8953SOL     OW38494   4.513   2.759  17.711  0.5824  0.0988 -0.6811
 8953SOL    HW138495   4.484   2.814  17.638 -2.0061 -0.3336  0.0098
 8953SOL    HW238496   4.492   2.814   0.037  2.6408 -1.4791  1.0442
 8954SOL     OW38497   2.145   2.357   9.115  0.3100  0.9273  0.1038
 8954SOL    HW138498   2.165   2.412   9.040  2.2647  1.5400  1.0630
 8954SOL    HW238499   2.231   2.321   9.138 -0.6053 -1.6863 -0.6172
 8955SOL     OW38500   2.030   0.376   3.732 -0.5913  0.3911  0.4857
 8955SOL    HW138501   1.955   0.366   3.791 -1.1649 -0.8807 -0.4522
 8955SOL    HW238502   1.988   0.406   3.652  1.7370  0.7680 -0.6095
 8956SOL     OW38503   1.391   2.867   4.241  0.2558  0.2454 -0.2211
 8956SOL    HW138504   1.476   2.909   4.229 -0.7757  2.0517 -1.2436
 8956SOL    HW238505   1.353   2.912   4.316 -0.3995  1.3008 -1.1874
 8957SOL     OW38506   3.297   3.934   6.017  0.4020 -0.5197 -0.2737
 8957SOL    HW138507   3.299   3.843   6.047 -0.8670 -0.3796  0.1991
 8957SOL    HW238508   3.205   3.955   6.032  1.2233  2.3730  0.6601
 8958SOL     OW38509   2.564   2.904   8.327 -0.5695 -0.1748 -0.7494
 8958SOL    HW138510   2.477   2.912   8.289 -2.3265 -0.5471  3.2222
 8958SOL    HW238511   2.577   2.983   8.379 -0.2359 -0.6965 -0.0362
 8959SOL     OW38512   0.543   0.352  10.312  0.2810 -0.2552 -0.6114
 8959SOL    HW138513   0.471   0.336  10.250 -1.2474 -1.4494  1.4654
 8959SOL    HW238514   0.492   0.355  10.393 -1.3100  2.6783 -1.7469
 8960SOL     OW38515   0.130   2.585   9.547  0.3557 -0.5853  0.2139
 8960SOL    HW138516   0.172   2.544   9.472  2.6286 -0.9269  1.6720
 8960SOL    HW238517   0.168   2.673   9.543  0.5152 -0.5467  2.2487
 8961SOL     OW38518   3.657   1.758   5.398  0.1068  0.2702 -0.2732
 8961SOL    HW138519   3.582   1.727   5.449  0.7151  1.5156  1.3752
 8961SOL    HW238520   3.613   1.830   5.351  0.7971 -0.8721 -2.6574
 8962SOL     OW38521   3.746   0.019   4.893  0.2032 -0.0142 -0.6169
 8962SOL    HW138522   3.784   0.102   4.863 -0.8545  1.1365  1.1933
 8962SOL    HW238523   3.800   4.684   4.862 -0.0135  0.0238 -1.0745
 8963SOL     OW38524   4.140   2.539  15.076  0.0255 -0.1827 -0.4003
 8963SOL    HW138525   4.090   2.619  15.059 -0.6371 -1.1779 -3.2098
 8963SOL    HW238526   4.144   2.547  15.171 -0.5618 -0.8770 -0.3182
 8964SOL     OW38527   0.015   3.221  15.440  0.9412  0.0222 -1.0623
 8964SOL    HW138528   0.076   3.201  15.511 -0.5983  0.6608  0.4206
 8964SOL    HW238529   4.720   3.131  15.437 -1.7424  0.8523  3.4582
 8965SOL     OW38530   3.018   3.571   1.853  0.0389 -0.1399  0.3756
 8965SOL    HW138531   2.989   3.545   1.940  0.0381 -2.0238 -0.1842
 8965SOL    HW238532   2.970   3.504   1.803  0.9874  0.0125 -0.7565
 8966SOL     OW38533   1.777   2.649   5.229 -0.0193  0.1986  0.0628
 8966SOL    HW138534   1.830   2.595   5.288  0.9410  0.5025 -0.5132
 8966SOL    HW238535   1.843   2.682   5.168  0.7665 -0.6766  0.4216
 8967SOL     OW38536   3.244   2.905   4.854  0.4986  0.2779  0.1005
 8967SOL    HW138537   3.236   2.990   4.896  0.5587  0.3109  0.0459
 8967SOL    HW238538   3.317   2.920   4.793 -0.2974 -1.3041 -1.2583
 8968SOL     OW38539   1.873   2.994   6.010  0.4497  0.7261  0.0707
 8968SOL    HW138540   1.780   3.014   5.996  0.9378  2.3007 -0.9672
 8968SOL    HW238541   1.880   2.949   6.095  3.7102  0.5529 -0.3132
 8969SOL     OW38542   4.420   3.991   1.963  0.4318  0.3154 -0.6827
 8969SOL    HW138543   4.354   3.943   2.015 -0.3093  0.9823 -1.0152
 8969SOL    HW238544   4.496   3.940   1.989 -0.5408 -0.3034  1.0010
 8970SOL     OW38545   1.166   3.816   6.832  0.3488 -0.0437  0.1868
 8970SOL    HW138546   1.152   3.904   6.866 -0.1213  0.6234 -1.7469
 8970SOL    HW238547   1.258   3.827   6.807  0.3925  0.2777  0.4835
 8971SOL     OW38548   2.555   0.449   3.410 -0.2360 -0.3332  0.5606
 8971SOL    HW138549   2.492   0.492   3.353  1.3209  1.1947 -0.0059
 8971SOL    HW238550   2.625   0.427   3.349 -1.9872 -1.0615 -1.1535
 8972SOL     OW38551   0.619   0.367   2.173  0.7020  0.3744  0.1727
 8972SOL    HW138552   0.641   0.286   2.218 -0.1666 -1.1225 -2.0986
 8972SOL    HW238553   0.688   0.362   2.107  0.5660 -1.4418  0.1629
 8973SOL     OW38554   3.666   2.596   1.824  0.2293 -0.0001 -0.2723
 8973SOL    HW138555   3.719   2.596   1.903  1.8010  0.2525 -1.3392
 8973SOL    HW238556   3.666   2.502   1.806 -1.4180  0.0486 -0.5769
 8974SOL     OW38557   4.503   0.023   1.985  0.1508  0.5156  0.3298
 8974SOL    HW138558   4.443   0.011   2.059 -1.3445  0.6983 -0.8516
 8974SOL    HW238559   4.440   0.013   1.914 -0.8190 -3.1186  1.6923
 8975SOL     OW38560   0.886   0.533  16.544 -0.3160  0.3601  0.0837
 8975SOL    HW138561   0.853   0.516  16.633 -0.5431 -3.6127 -0.7688
 8975SOL    HW238562   0.893   0.445  16.507 -2.3498  0.0244  0.4937
 8976SOL     OW38563   3.924   4.394   7.090 -0.3792 -0.9564 -0.2179
 8976SOL    HW138564   3.840   4.378   7.132  0.0867  1.3009  1.5685
 8976SOL    HW238565   3.899   4.470   7.038  0.1980  0.6079  1.8266
 8977SOL     OW38566   3.611   2.347   9.369  0.0892 -0.1804  0.4008
 8977SOL    HW138567   3.679   2.282   9.351 -1.3090 -1.5805  0.1573
 8977SOL    HW238568   3.619   2.406   9.295 -0.4166 -1.3952 -0.6233
 8978SOL     OW38569   3.360   0.459   5.913 -0.0489 -0.1202  0.2687
 8978SOL    HW138570   3.276   0.422   5.939  1.4303 -1.0639  3.7667
 8978SOL    HW238571   3.374   0.428   5.824  2.6047  1.8566  0.0032
 8979SOL     OW38572   1.582   0.826   7.517  0.6451 -0.1128  0.8058
 8979SOL    HW138573   1.522   0.839   7.444  2.1513 -0.8021 -0.5657
 8979SOL    HW238574   1.523   0.826   7.592 -0.1697  1.5539  0.1548
 8980SOL     OW38575   1.246   0.228  11.939  0.0133  0.0010 -0.7257
 8980SOL    HW138576   1.195   0.157  11.899 -0.6493  1.1233 -1.8937
 8980SOL    HW238577   1.178   0.295  11.949  1.4946  1.1678  1.5845
 8981SOL     OW38578   2.896   0.688   7.501 -0.4532  0.0744  0.2473
 8981SOL    HW138579   2.938   0.727   7.578  0.0786  0.5575 -0.2831
 8981SOL    HW238580   2.919   0.596   7.507 -0.0614  0.1576  0.0716
 8982SOL     OW38581   0.157   4.034   7.973  0.1016  0.7521 -0.2842
 8982SOL    HW138582   0.226   4.065   8.032  0.0108 -2.3836  1.5192
 8982SOL    HW238583   0.216   3.979   7.923  0.4195  1.6675 -0.9040
 8983SOL     OW38584   0.136   4.462  14.846  0.0710 -0.3953  0.1031
 8983SOL    HW138585   0.144   4.369  14.825  1.0292 -0.2740 -0.1046
 8983SOL    HW238586   0.092   4.482  14.764  2.2776 -1.1342 -1.2748
 8984SOL     OW38587   3.475   4.088   4.739  0.1466 -0.2645  0.5500
 8984SOL    HW138588   3.559   4.097   4.694 -0.5034 -1.3049 -0.8832
 8984SOL    HW238589   3.432   4.019   4.687 -0.6489  1.1896 -0.7075
 8985SOL     OW38590   0.936   2.343   5.748 -0.1157 -0.5633 -0.1827
 8985SOL    HW138591   0.885   2.282   5.802 -1.4784  0.6442 -0.1260
 8985SOL    HW238592   0.883   2.349   5.668  0.0913 -3.1445 -0.5331
 8986SOL     OW38593   2.023   2.400   4.913  0.1449  0.0549  0.1021
 8986SOL    HW138594   2.113   2.422   4.888 -1.9015  1.8701 -5.5689
 8986SOL    HW238595   2.027   2.430   5.004  0.4531 -0.5066  0.2773
 8987SOL     OW38596   0.961   1.320   8.892  0.4979 -0.7133 -0.2218
 8987SOL    HW138597   0.887   1.330   8.953  0.4150 -0.4315 -0.3654
 8987SOL    HW238598   0.998   1.408   8.893  2.4086 -1.5158 -1.2909
 8988SOL     OW38599   4.154   0.597   6.747 -0.1039 -0.1041  0.1335
 8988SOL    HW138600   4.163   0.668   6.684  1.7757 -0.5823 -0.1347
 8988SOL    HW238601   4.064   0.620   6.769 -0.1882  1.2282 -1.6861
 8989SOL     OW38602   1.813   1.410   1.668 -0.7635  0.1227 -0.7249
 8989SOL    HW138603   1.810   1.374   1.757 -0.2191 -1.2515 -1.2556
 8989SOL    HW238604   1.786   1.500   1.685  0.8951 -0.2274  3.8783
 8990SOL     OW38605   3.719   1.671   6.096  0.4921  0.3349 -0.1846
 8990SOL    HW138606   3.729   1.738   6.164 -0.7121 -1.9186  2.1775
 8990SOL    HW238607   3.627   1.675   6.070  0.6323 -2.4336 -1.0489
 8991SOL     OW38608   1.048   3.580   4.038  0.0665  0.0613  0.0672
 8991SOL    HW138609   1.092   3.661   4.013 -0.0246  0.5580  1.5059
 8991SOL    HW238610   1.082   3.523   3.969  0.4109 -0.1760  0.4361
 8992SOL     OW38611   1.432   2.773   9.805  0.2684 -0.7363 -0.6797
 8992SOL    HW138612   1.493   2.704   9.833  1.1277  0.2508 -0.1595
 8992SOL    HW238613   1.459   2.768   9.713  0.0933 -0.6876 -0.7341
 8993SOL     OW38614   4.015   0.095   1.358 -0.0950 -0.3345 -0.0988
 8993SOL    HW138615   4.062   0.176   1.380  1.1835 -1.3957  1.0258
 8993SOL    HW238616   3.961   0.091   1.437  0.8810  0.5952  0.6136
 8994SOL     OW38617   2.953   4.640   6.653 -0.0450  0.0907 -0.3345
 8994SOL    HW138618   2.963   4.652   6.747 -2.1059  0.7145 -0.1946
 8994SOL    HW238619   3.040   4.663   6.621  0.0139  2.9871  1.9470
 8995SOL     OW38620   2.612   4.322   3.096 -0.6365  0.1537 -0.3939
 8995SOL    HW138621   2.679   4.266   3.135  1.6659  1.7128 -2.1159
 8995SOL    HW238622   2.564   4.247   3.060 -3.5564  0.4991  2.7590
 8996SOL     OW38623   2.898   3.297   2.925  0.5304  0.2882 -0.1855
 8996SOL    HW138624   2.860   3.210   2.937  1.9279 -0.3394 -0.2723
 8996SOL    HW238625   2.819   3.351   2.931 -0.2015 -0.7643 -0.4494
 8997SOL     OW38626   1.480   2.807   5.006 -0.0320 -0.5835 -0.1012
 8997SOL    HW138627   1.562   2.848   4.977 -1.2511  0.3490 -2.2178
 8997SOL    HW238628   1.468   2.869   5.077 -2.9217  0.3523 -1.4372
 8998SOL     OW38629   1.181   2.044   5.806 -0.1496 -0.3373 -0.1586
 8998SOL    HW138630   1.216   2.133   5.801 -0.2062 -0.3065  0.0016
 8998SOL    HW238631   1.241   2.005   5.743 -0.6532 -0.8411 -0.3261
 8999SOL     OW38632   2.193   3.856   8.045  0.5739 -0.1019 -0.2208
 8999SOL    HW138633   2.283   3.861   8.079  0.2240  1.2418  0.5444
 8999SOL    HW238634   2.162   3.945   8.062  0.9815  0.2728 -1.4666
 9000SOL     OW38635   2.547   2.712   8.526 -0.1159  0.0057  0.4849
 9000SOL    HW138636   2.527   2.773   8.455  0.0357  2.9500  2.9851
 9000SOL    HW238637   2.625   2.754   8.561 -0.3949  0.0046  1.1091
 9001SOL     OW38638   1.212   3.393   7.938  0.6689 -0.1034 -0.0015
 9001SOL    HW138639   1.199   3.372   7.846  2.7251 -0.6010 -0.1713
 9001SOL    HW238640   1.263   3.474   7.934  2.3780 -1.1674  0.3337
 9002SOL     OW38641   1.508   0.515  16.930  0.0673 -0.2993  0.4891
 9002SOL    HW138642   1.505   0.423  16.904 -0.4890  0.0140 -0.5307
 9002SOL    HW238643   1.602   0.529  16.922 -0.0416  0.9853  1.3698
 9003SOL     OW38644   4.086   0.377  17.292  0.2349  0.1949  0.2491
 9003SOL    HW138645   4.050   0.453  17.247 -1.4103  0.6059  2.2280
 9003SOL    HW238646   4.147   0.341  17.228 -0.5803  1.1300 -1.0520
 9004SOL     OW38647   4.737   2.164   8.541  0.2964 -0.1438 -0.2683
 9004SOL    HW138648   4.695   2.245   8.567  1.5551  0.0760  1.0807
 9004SOL    HW238649   0.066   2.159   8.610  2.4588  2.5617 -2.1381
 9005SOL     OW38650   4.561   3.071   2.817  0.1627 -0.3259  0.0718
 9005SOL    HW138651   4.499   3.002   2.795  1.8998 -1.4502 -1.2266
 9005SOL    HW238652   4.613   3.072   2.737  0.4013  1.3862  0.2433
 9006SOL     OW38653   0.578   0.730   6.861 -0.1710  0.1410 -0.3349
 9006SOL    HW138654   0.527   0.730   6.943  1.3771 -3.3521  0.6126
 9006SOL    HW238655   0.567   0.822   6.836  1.0007 -0.3265 -2.4996
 9007SOL     OW38656   2.643   3.363  16.879 -0.4861 -0.4101 -0.6003
 9007SOL    HW138657   2.609   3.297  16.940  1.3577  0.1337  1.0519
 9007SOL    HW238658   2.733   3.369  16.911 -0.8175  0.5675  0.1250
 9008SOL     OW38659   1.514   3.788  13.597  0.0667 -0.3981 -0.4497
 9008SOL    HW138660   1.439   3.757  13.547 -0.1370 -0.8741  0.1555
 9008SOL    HW238661   1.494   3.882  13.603 -0.5956 -0.6370  1.0824
 9009SOL     OW38662   4.308   4.133  12.322 -0.3939  0.2555 -0.4493
 9009SOL    HW138663   4.300   4.132  12.227 -0.2783 -1.4491 -0.4449
 9009SOL    HW238664   4.219   4.104  12.343 -1.1255  1.2410 -2.2648
 9010SOL     OW38665   1.263   2.214   0.306 -0.0464 -0.1076 -0.2641
 9010SOL    HW138666   1.342   2.268   0.310  0.6217 -0.9571 -1.7733
 9010SOL    HW238667   1.255   2.207   0.211  1.5739 -0.5986 -0.3703
 9011SOL     OW38668   4.618   2.124  13.012 -0.3835  0.4683  0.7413
 9011SOL    HW138669   4.676   2.113  13.088 -1.4251 -0.6894  1.3574
 9011SOL    HW238670   4.540   2.075  13.035 -0.6242 -0.7281 -2.5351
 9012SOL     OW38671   3.714   3.397   7.591 -0.4139 -0.1034  0.3860
 9012SOL    HW138672   3.716   3.488   7.562  0.8598  0.0624  1.0319
 9012SOL    HW238673   3.782   3.356   7.538 -1.1075  0.0280 -0.6098
 9013SOL     OW38674   3.050   3.961   4.369  0.2056  0.1305 -0.6404
 9013SOL    HW138675   3.133   3.996   4.337 -1.2102  2.5618 -1.6440
 9013SOL    HW238676   3.016   4.028   4.429  0.4728 -0.2655 -0.0492
 9014SOL     OW38677   4.201   2.833   6.783 -0.0549 -0.4297  0.0034
 9014SOL    HW138678   4.275   2.894   6.783 -0.0923 -0.3837 -0.1984
 9014SOL    HW238679   4.199   2.792   6.869 -0.1934  0.1815  0.2827
 9015SOL     OW38680   1.655   1.731   9.855  0.0877 -0.4553 -0.3669
 9015SOL    HW138681   1.611   1.774   9.781  0.0181  0.0211 -0.0448
 9015SOL    HW238682   1.610   1.646   9.843 -0.2021 -0.4506  0.6805
 9016SOL     OW38683   0.419   0.221   6.088  0.1632  0.4518  0.5656
 9016SOL    HW138684   0.431   0.234   5.994  0.3730 -0.8345  0.4031
 9016SOL    HW238685   0.393   0.308   6.118 -0.1023  0.5223  0.1223
 9017SOL     OW38686   4.148   0.389   2.961 -0.4243 -0.1881 -0.2528
 9017SOL    HW138687   4.169   0.386   2.868 -0.4525  1.9476 -0.3205
 9017SOL    HW238688   4.205   0.459   2.992 -0.4418  1.2441 -3.5216
 9018SOL     OW38689   4.245   3.445  11.377  0.4116 -0.1713  0.1782
 9018SOL    HW138690   4.191   3.502  11.323  1.3050 -0.9749 -1.5784
 9018SOL    HW238691   4.301   3.504  11.426 -0.7753 -1.5908  3.2583
 9019SOL     OW38692   4.088   0.151   3.579 -0.1518  0.0674  0.1230
 9019SOL    HW138693   4.022   0.176   3.643  0.2166 -1.0510  0.9281
 9019SOL    HW238694   4.128   0.237   3.565  1.3607 -0.4302  1.4495
 9020SOL     OW38695   3.571   2.380  13.523 -0.2415  0.3551 -0.1464
 9020SOL    HW138696   3.581   2.292  13.486 -1.7106 -0.2539  0.8977
 9020SOL    HW238697   3.596   2.430  13.446  2.0622 -0.9447 -0.2691
 9021SOL     OW38698   3.726   3.667   7.490 -0.6923 -0.0776 -0.2274
 9021SOL    HW138699   3.798   3.728   7.507 -1.9720  1.5856 -0.8365
 9021SOL    HW238700   3.729   3.655   7.395  0.7077 -2.3560  0.1036
 9022SOL     OW38701   2.472   3.324   5.007 -0.0567  0.1228  0.2731
 9022SOL    HW138702   2.385   3.357   4.982  0.3510  0.0913 -1.1936
 9022SOL    HW238703   2.451   3.232   5.023  2.6517 -0.2558  1.5123
 9023SOL     OW38704   2.324   1.968   9.572 -0.1813 -0.1472  0.0823
 9023SOL    HW138705   2.408   2.000   9.603  0.5218 -1.1758 -0.7488
 9023SOL    HW238706   2.360   1.891   9.528 -2.3946  0.0400 -2.0308
 9024SOL     OW38707   3.236   2.363   7.358 -0.5015 -0.4477  0.1174
 9024SOL    HW138708   3.320   2.383   7.317 -0.2953 -1.6707 -0.0370
 9024SOL    HW238709   3.236   2.268   7.368 -2.2533 -0.4670 -0.0721
 9025SOL     OW38710   4.726   1.721   6.395 -0.0093 -0.2438  0.1943
 9025SOL    HW138711   4.719   1.706   6.489 -2.3407 -0.7406 -0.0614
 9025SOL    HW238712   4.665   1.794   6.384  1.7241  0.9369 -1.5590
 9026SOL     OW38713   1.077   3.542  12.515 -0.2117 -0.2618 -0.1803
 9026SOL    HW138714   1.075   3.462  12.568 -0.1299  0.7874  1.3892
 9026SOL    HW238715   0.982   3.548  12.499 -0.2184  1.8563  0.6876
 9027SOL     OW38716   1.903   3.660   7.845  0.2873  0.8468  0.7100
 9027SOL    HW138717   1.977   3.682   7.789 -0.2647  1.8651  0.3604
 9027SOL    HW238718   1.924   3.571   7.870 -0.2845  0.9135  1.4268
 9028SOL     OW38719   4.687   4.112   4.890  0.0526  0.2586  0.0800
 9028SOL    HW138720   4.618   4.173   4.863 -0.8645 -1.0229 -0.5000
 9028SOL    HW238721   4.625   4.044   4.917 -2.4067  1.6964 -1.9094
 9029SOL     OW38722   0.488   1.631   2.019  0.3671  0.0307  0.2869
 9029SOL    HW138723   0.557   1.695   2.038  0.0962  0.1439  0.8966
 9029SOL    HW238724   0.528   1.549   2.046 -1.0856 -0.8010 -0.0960
 9030SOL     OW38725   1.530   2.206  15.217 -0.0443 -0.0335 -0.0577
 9030SOL    HW138726   1.511   2.216  15.124 -2.7896  1.2447  0.6345
 9030SOL    HW238727   1.533   2.296  15.249 -2.7726  0.5103 -1.3594
 9031SOL     OW38728   0.035   4.197  15.666  0.1810 -0.1622  0.0762
 9031SOL    HW138729   0.013   4.251  15.742  1.0205 -0.4736  0.5361
 9031SOL    HW238730   4.703   4.132  15.679  1.7653 -2.0019 -0.6856
 9032SOL     OW38731   0.989   1.131   6.209  0.0946  0.0584  0.1609
 9032SOL    HW138732   1.058   1.189   6.243 -2.2934  2.4897  0.9198
 9032SOL    HW238733   1.036   1.054   6.179  1.4905  1.1844 -0.5518
 9033SOL     OW38734   3.366   2.754   9.330  0.0830 -0.3667 -0.0168
 9033SOL    HW138735   3.453   2.792   9.341  0.4124 -0.9114 -0.7294
 9033SOL    HW238736   3.343   2.742   9.423  0.7236  0.6976  0.2831
 9034SOL     OW38737   0.723   4.425   9.882 -0.1471 -0.1850  0.1346
 9034SOL    HW138738   0.719   4.505   9.829 -0.4523 -0.2758  0.0222
 9034SOL    HW238739   0.801   4.442   9.934  1.3552 -2.1229 -1.4832
 9035SOL     OW38740   3.920   1.777   6.771 -0.2096  0.9553 -0.4902
 9035SOL    HW138741   3.901   1.717   6.699  3.8945 -1.3674  0.3168
 9035SOL    HW238742   4.015   1.775   6.761 -0.0845  0.5454  0.6983
 9036SOL     OW38743   1.722   1.690  14.307  0.5339 -0.3193  1.2809
 9036SOL    HW138744   1.752   1.614  14.257  2.8326  1.6273 -0.3057
 9036SOL    HW238745   1.803   1.704  14.356  0.1214  1.6103  1.4024
 9037SOL     OW38746   3.120   2.421   0.770 -0.1661  0.1786 -0.8110
 9037SOL    HW138747   3.178   2.468   0.710  2.1045  0.9066  1.9636
 9037SOL    HW238748   3.114   2.486   0.840  0.2292 -0.8243  0.1615
 9038SOL     OW38749   4.531   4.046   6.496  0.0525 -0.3311 -0.2159
 9038SOL    HW138750   4.513   3.953   6.502  0.9902 -0.4024  1.4165
 9038SOL    HW238751   4.589   4.054   6.571 -4.0422 -0.0627  2.8937
 9039SOL     OW38752   4.398   0.793  13.986 -0.1804  0.0656  0.1437
 9039SOL    HW138753   4.350   0.792  13.904 -2.1638  0.1599  1.3142
 9039SOL    HW238754   4.441   0.877  13.969  0.4320 -0.4196 -0.7115
 9040SOL     OW38755   3.629   2.132   8.392 -0.3639  0.1404 -0.2749
 9040SOL    HW138756   3.577   2.076   8.450 -1.9145  3.5336  1.6096
 9040SOL    HW238757   3.602   2.109   8.303 -1.1679  0.0825 -0.0079
 9041SOL     OW38758   0.706   4.326   7.630 -0.1700  0.0555  0.5101
 9041SOL    HW138759   0.755   4.256   7.673 -0.5128 -0.5800 -0.1359
 9041SOL    HW238760   0.701   4.286   7.544 -2.0053  0.9946  0.1626
 9042SOL     OW38761   0.495   3.940  10.342  0.0699 -0.0893  0.4197
 9042SOL    HW138762   0.431   4.000  10.305 -0.3072 -0.5305  0.3522
 9042SOL    HW238763   0.469   3.854  10.310 -1.0393  0.5172 -0.2971
 9043SOL     OW38764   4.569   0.670  15.512 -0.2432  0.0057  0.2760
 9043SOL    HW138765   4.606   0.605  15.571 -0.3108  0.2097  0.5418
 9043SOL    HW238766   4.524   0.609  15.453 -0.3766  0.9910 -0.6466
 9044SOL     OW38767   0.346   0.003  11.855 -0.2349 -0.2096  0.2452
 9044SOL    HW138768   0.406   0.061  11.901 -1.2261  1.6489 -0.7851
 9044SOL    HW238769   0.280   0.073  11.856  0.7147  0.6764  0.9137
 9045SOL     OW38770   3.003   4.004   4.807  0.1898  0.0604  0.1356
 9045SOL    HW138771   2.978   4.062   4.878 -1.7108  0.9670 -1.2630
 9045SOL    HW238772   2.948   3.930   4.834 -1.7891  0.5306 -2.5463
 9046SOL     OW38773   3.793   0.891   8.966  0.0943 -0.4124  0.5942
 9046SOL    HW138774   3.881   0.891   8.928 -0.0737  1.7757  0.2224
 9046SOL    HW238775   3.785   0.980   9.000  0.9464 -0.5310  1.1184
 9047SOL     OW38776   3.681   3.157   0.880 -0.0210 -0.1944 -0.4866
 9047SOL    HW138777   3.739   3.144   0.806  0.2975  1.4278 -0.5110
 9047SOL    HW238778   3.606   3.197   0.835  0.5618  1.4180 -0.0216
 9048SOL     OW38779   0.321   1.551  13.598 -0.2519  0.0834 -0.2652
 9048SOL    HW138780   0.242   1.513  13.559  0.1395 -0.4581 -0.5292
 9048SOL    HW238781   0.296   1.587  13.683 -1.9635 -1.4971 -0.0888
 9049SOL     OW38782   2.867   2.560   8.774 -0.3898  0.6185 -0.2257
 9049SOL    HW138783   2.833   2.644   8.743 -0.5147  0.1279 -1.4099
 9049SOL    HW238784   2.793   2.501   8.762  0.0319  0.0958 -0.2593
 9050SOL     OW38785   0.966   1.330   5.160 -0.2987 -0.7255  0.1996
 9050SOL    HW138786   0.993   1.262   5.222 -0.8777 -0.7944  0.3730
 9050SOL    HW238787   0.964   1.271   5.084  0.8480  0.3156 -0.6488
 9051SOL     OW38788   3.773   3.597   5.709 -0.1424 -0.2662 -0.4874
 9051SOL    HW138789   3.763   3.692   5.716  1.1825 -0.1853  0.3862
 9051SOL    HW238790   3.767   3.571   5.801  0.8142 -0.1715 -0.3963
 9052SOL     OW38791   3.914   1.019   9.516  0.0245 -0.2120  0.4575
 9052SOL    HW138792   3.963   1.065   9.448  0.7942  0.8601  1.7363
 9052SOL    HW238793   3.941   0.927   9.512 -3.1429 -1.1522  0.6261
 9053SOL     OW38794   1.334   4.231   9.282 -0.7934  0.5739 -0.7785
 9053SOL    HW138795   1.338   4.315   9.327 -0.9838  0.5326 -0.6820
 9053SOL    HW238796   1.241   4.208   9.290 -0.2776 -1.1332  0.4103
 9054SOL     OW38797   3.841   1.644   4.156  0.6210 -0.2496  0.2846
 9054SOL    HW138798   3.776   1.713   4.167  0.0490 -0.5736 -0.9705
 9054SOL    HW238799   3.898   1.668   4.228  0.4151  2.2193 -0.3783
 9055SOL     OW38800   1.753   4.512   5.773 -0.3997  0.3568  0.4853
 9055SOL    HW138801   1.800   4.589   5.742  1.3032 -0.5800  0.7448
 9055SOL    HW238802   1.826   4.454   5.794 -2.5697 -1.4603  3.0319
 9056SOL     OW38803   2.635   3.902   6.711  0.2861 -0.2063 -0.3027
 9056SOL    HW138804   2.693   3.855   6.651  0.2779  1.2491 -1.4688
 9056SOL    HW238805   2.688   3.981   6.705  1.0648 -0.8000 -1.3124
 9057SOL     OW38806   2.585   0.944   5.574 -0.0094 -0.7010 -0.0892
 9057SOL    HW138807   2.555   0.927   5.485  0.3722 -1.1645 -0.1340
 9057SOL    HW238808   2.502   0.942   5.622 -0.6401 -0.0318 -1.1714
 9058SOL     OW38809   2.847   3.077  16.992 -0.3451 -0.1349  0.2449
 9058SOL    HW138810   2.761   3.077  17.033 -0.1239  2.0648  0.7073
 9058SOL    HW238811   2.840   3.024  16.913 -0.6562  0.6151 -0.2231
 9059SOL     OW38812   1.253   3.050   9.473  0.0418 -0.5214 -0.1401
 9059SOL    HW138813   1.211   2.966   9.489 -1.6096  0.5063  1.0368
 9059SOL    HW238814   1.281   3.066   9.563  0.1345 -0.8789 -0.1053
 9060SOL     OW38815   1.900   1.766   2.293  0.3286 -0.4294 -0.1116
 9060SOL    HW138816   1.909   1.712   2.215  0.3055  0.2196 -0.5639
 9060SOL    HW238817   1.873   1.847   2.250 -1.3027 -0.8746  0.0680
 9061SOL     OW38818   2.786   0.427  10.031 -0.3298 -0.2050  0.2010
 9061SOL    HW138819   2.764   0.512   9.993 -0.9506 -0.5699 -0.2456
 9061SOL    HW238820   2.881   0.418  10.019 -0.3974  1.0626 -1.2341
 9062SOL     OW38821   4.534   4.137  13.538 -1.1479 -0.1896  0.0549
 9062SOL    HW138822   4.588   4.069  13.497 -0.0791  1.2740 -0.9419
 9062SOL    HW238823   4.515   4.189  13.460 -0.2594 -0.7818 -0.5677
 9063SOL     OW38824   0.114   1.427  10.961  0.1769  0.4596  0.0904
 9063SOL    HW138825   0.166   1.488  11.013 -0.2280 -0.2144  1.2706
 9063SOL    HW238826   0.162   1.345  10.964 -2.4059 -1.1751 -2.4549
 9064SOL     OW38827   1.394   4.670   1.756 -0.4941  0.0973  0.9150
 9064SOL    HW138828   1.322   4.673   1.694 -0.5768 -1.1605  0.9556
 9064SOL    HW238829   1.346   4.675   1.838 -1.5676  1.3382  0.2055
 9065SOL     OW38830   1.752   2.447   2.196 -0.3795  0.9040 -0.3196
 9065SOL    HW138831   1.686   2.508   2.228 -1.9323 -1.6755  1.3444
 9065SOL    HW238832   1.787   2.505   2.128  0.0171  0.4600 -0.4961
 9066SOL     OW38833   4.378   2.389   7.173  0.1886  0.1350  0.6592
 9066SOL    HW138834   4.358   2.368   7.264  0.3255  1.3527  0.9712
 9066SOL    HW238835   4.456   2.444   7.181  0.1322  0.2254  0.5817
 9067SOL     OW38836   4.199   0.638   2.682 -0.6234 -0.3927 -0.0037
 9067SOL    HW138837   4.123   0.623   2.737 -2.3542 -0.6725 -2.4427
 9067SOL    HW238838   4.218   0.730   2.700 -1.3011  0.2154 -2.2852
 9068SOL     OW38839   2.844   2.936  12.436 -0.0182  0.3376  0.0884
 9068SOL    HW138840   2.910   2.872  12.410  1.5504  2.7965 -1.9990
 9068SOL    HW238841   2.819   2.992  12.363  1.4643  0.0666 -0.6314
 9069SOL     OW38842   1.381   3.408   3.545  0.5488  0.3055  0.1918
 9069SOL    HW138843   1.353   3.324   3.509  3.2437 -0.5965  0.2060
 9069SOL    HW238844   1.341   3.466   3.480 -0.1637  0.3088  0.6297
 9070SOL     OW38845   3.310   0.301   1.980  0.5384  0.1366  0.1387
 9070SOL    HW138846   3.234   0.284   1.923  0.7527  3.0832 -1.0202
 9070SOL    HW238847   3.306   0.230   2.044  0.1736 -1.4430 -1.6408
 9071SOL     OW38848   0.312   1.778   2.413 -0.3610  0.8552  0.0909
 9071SOL    HW138849   0.295   1.851   2.353  1.1493  1.3821  0.3080
 9071SOL    HW238850   0.224   1.749   2.440  0.1382  0.3442  1.1659
 9072SOL     OW38851   3.669   1.873   4.148 -0.0349 -0.1123 -0.1730
 9072SOL    HW138852   3.589   1.918   4.177  0.6820 -1.0797  3.3129
 9072SOL    HW238853   3.694   1.924   4.071  0.2792  0.8371  0.5546
 9073SOL     OW38854   0.231   2.995   7.451 -0.5253  0.3276  0.0253
 9073SOL    HW138855   0.221   2.900   7.441 -1.0991  0.3700  0.1842
 9073SOL    HW238856   0.283   3.009   7.530  2.1540  1.9763 -2.0402
 9074SOL     OW38857   0.450   3.156  14.191 -0.1876  0.2165 -0.1656
 9074SOL    HW138858   0.455   3.066  14.223  0.8612 -0.0434 -1.0991
 9074SOL    HW238859   0.380   3.199  14.241  0.3478 -2.1770  2.6666
 9075SOL     OW38860   1.932   4.289   3.089  0.1795 -0.8319  0.0307
 9075SOL    HW138861   1.924   4.379   3.060  2.3772 -0.1138  1.6564
 9075SOL    HW238862   1.865   4.288   3.157 -0.0878  2.8597 -0.2183
 9076SOL     OW38863   2.864   2.315   9.752  0.5558  0.4143 -0.2744
 9076SOL    HW138864   2.778   2.307   9.794  0.7078 -0.2233 -0.0832
 9076SOL    HW238865   2.879   2.221   9.755  0.6397  0.4236 -0.4054
 9077SOL     OW38866   2.628   0.740   4.595  0.1829  0.1943  0.4448
 9077SOL    HW138867   2.704   0.703   4.550 -0.4073  0.9903 -1.1811
 9077SOL    HW238868   2.635   0.692   4.678  2.1916 -2.3795 -1.2371
 9078SOL     OW38869   4.008   3.538   8.968  0.6828  0.1817  0.2702
 9078SOL    HW138870   4.103   3.538   8.963  0.5617  0.4042 -1.9391
 9078SOL    HW238871   3.980   3.556   8.879 -3.0168 -3.0523  0.7967
 9079SOL     OW38872   1.890   1.566   4.810 -0.0054 -0.2881  0.3463
 9079SOL    HW138873   1.796   1.550   4.801 -0.4410  3.2366 -1.3545
 9079SOL    HW238874   1.907   1.619   4.732  1.4825 -2.4552 -0.8181
 9080SOL     OW38875   0.847   0.469   8.160 -0.7759 -0.0825  0.1237
 9080SOL    HW138876   0.891   0.459   8.076 -0.2134  1.0240  0.2851
 9080SOL    HW238877   0.768   0.522   8.149 -1.1866 -0.5740  0.6777
 9081SOL     OW38878   4.614   0.258   6.543  0.0458  0.2151  0.0474
 9081SOL    HW138879   4.660   0.208   6.475  1.9360  0.7292  0.9478
 9081SOL    HW238880   4.562   0.322   6.494  0.6616  0.7782  0.1327
 9082SOL     OW38881   1.970   0.378  13.550 -0.3148 -0.0231  0.0799
 9082SOL    HW138882   1.994   0.401  13.640 -1.4157  0.5268  0.2358
 9082SOL    HW238883   2.049   0.337  13.516 -0.6584 -1.7389  1.3337
 9083SOL     OW38884   0.293   1.922   8.887 -0.0424 -0.3296  0.1369
 9083SOL    HW138885   0.290   1.871   8.806 -1.7490 -0.7602  0.4863
 9083SOL    HW238886   0.304   1.852   8.951  1.4324 -1.3881 -1.2628
 9084SOL     OW38887   3.886   0.467   9.597  0.3735 -0.3661  0.6753
 9084SOL    HW138888   3.816   0.522   9.563 -0.3724 -0.7993  1.5186
 9084SOL    HW238889   3.851   0.424   9.675 -1.4968 -0.5057 -0.2518
 9085SOL     OW38890   4.112   4.148  13.831 -0.1756  0.1901  0.0292
 9085SOL    HW138891   4.190   4.183  13.786 -0.4378  0.3143 -0.3305
 9085SOL    HW238892   4.054   4.159  13.756 -0.3151  2.9182  0.5328
 9086SOL     OW38893   1.131   0.011   4.678 -0.3503 -0.2454 -0.1030
 9086SOL    HW138894   1.102   0.100   4.696  0.2282 -0.1896  0.5851
 9086SOL    HW238895   1.049   4.714   4.644  0.2041  0.5095 -2.1825
 9087SOL     OW38896   2.206   0.305   2.808 -0.5228 -0.1785 -0.2431
 9087SOL    HW138897   2.167   0.359   2.740  1.1380 -0.6936 -1.5817
 9087SOL    HW238898   2.198   0.223   2.760  0.3480  1.0130 -2.4074
 9088SOL     OW38899   1.631   0.139   6.003 -0.3134 -0.4241 -0.0598
 9088SOL    HW138900   1.721   0.114   6.023  0.0093 -0.0080 -0.9952
 9088SOL    HW238901   1.584   0.065   6.042 -1.3617 -0.0468 -0.5976
 9089SOL     OW38902   1.332   3.710  17.684  0.1751 -0.0036 -0.2006
 9089SOL    HW138903   1.326   3.734  17.592 -0.3346 -0.0215 -0.1710
 9089SOL    HW238904   1.367   3.621  17.679  2.0062  0.6777  0.1919
 9090SOL     OW38905   1.060   3.762  13.491  0.0172  0.1657 -0.0697
 9090SOL    HW138906   1.008   3.710  13.552 -0.0776  1.0350  0.5898
 9090SOL    HW238907   1.150   3.734  13.510  0.6774  2.5279  0.2359
 9091SOL     OW38908   4.373   1.289   7.613  0.9189  0.2059 -0.4452
 9091SOL    HW138909   4.375   1.224   7.542  0.1942 -0.4890  0.1723
 9091SOL    HW238910   4.389   1.371   7.566 -1.7932  1.7727  1.4208
 9092SOL     OW38911   4.199   1.670  15.240 -0.2641 -0.5729  0.1027
 9092SOL    HW138912   4.108   1.642  15.234 -0.3003  0.0398 -2.2160
 9092SOL    HW238913   4.241   1.608  15.300  2.1927 -1.1610 -2.1997
 9093SOL     OW38914   4.449   4.002   3.942  0.2019  0.6478 -0.3196
 9093SOL    HW138915   4.411   4.087   3.961 -0.5256 -0.0607  1.4516
 9093SOL    HW238916   4.537   4.012   3.979 -0.4229 -1.1399  1.7055
 9094SOL     OW38917   4.238   2.971   3.865 -0.0556  0.5251  0.3081
 9094SOL    HW138918   4.184   3.051   3.868 -1.3612 -0.3243 -0.5515
 9094SOL    HW238919   4.271   2.980   3.954 -0.7305 -0.4159  0.6488
 9095SOL     OW38920   2.788   1.412   8.681  0.2597 -0.0167 -0.3262
 9095SOL    HW138921   2.802   1.396   8.587 -3.0853  1.1558 -1.0361
 9095SOL    HW238922   2.850   1.350   8.719 -0.6758 -2.7941 -3.3339
 9096SOL     OW38923   3.321   4.156   4.050 -0.1873  0.3843 -0.4012
 9096SOL    HW138924   3.253   4.107   4.005 -3.0592  2.4736  1.7069
 9096SOL    HW238925   3.256   4.210   4.094  1.2891  1.7704  0.0687
 9097SOL     OW38926   2.229   0.965   3.865  0.8298 -0.2692 -0.2604
 9097SOL    HW138927   2.302   0.982   3.806  1.0503 -0.9807 -0.1942
 9097SOL    HW238928   2.183   1.049   3.867 -0.4019 -0.9593  0.2699
 9098SOL     OW38929   4.180   3.730  17.213 -0.1460  0.3328  0.3376
 9098SOL    HW138930   4.219   3.659  17.162  0.2219  0.3214  0.6330
 9098SOL    HW238931   4.169   3.681  17.294  0.7158 -1.1586 -0.4402
 9099SOL     OW38932   2.662   3.477   6.246  0.1653 -0.2019 -0.0680
 9099SOL    HW138933   2.696   3.438   6.166  0.4656  0.3607 -0.2137
 9099SOL    HW238934   2.570   3.450   6.236 -0.3065  0.2831  2.7563
 9100SOL     OW38935   2.654   1.184   1.752  0.2949  0.4560  0.0543
 9100SOL    HW138936   2.592   1.228   1.810  0.7926  0.8368  0.2894
 9100SOL    HW238937   2.630   1.092   1.768  0.5905  0.7450  2.1044
 9101SOL     OW38938   3.147   0.470   7.277 -0.1708  0.3579 -0.6232
 9101SOL    HW138939   3.224   0.427   7.314 -0.0373  0.1487 -1.1374
 9101SOL    HW238940   3.072   0.437   7.327 -0.5488  1.6303 -0.3537
 9102SOL     OW38941   1.611   1.490   3.260 -1.1987 -0.2479  0.0007
 9102SOL    HW138942   1.538   1.479   3.320 -1.7588  0.7325 -0.5070
 9102SOL    HW238943   1.659   1.413   3.291 -1.1204  0.4743  1.6634
 9103SOL     OW38944   1.376   1.536   4.858  0.2023  0.0156 -0.2135
 9103SOL    HW138945   1.300   1.571   4.904  0.8429  0.2891  0.6425
 9103SOL    HW238946   1.376   1.444   4.884 -2.4020 -0.1295 -0.6906
 9104SOL     OW38947   0.244   1.117   5.856 -0.2615  0.2789  0.1400
 9104SOL    HW138948   0.304   1.048   5.882 -2.2155 -1.7155 -0.6743
 9104SOL    HW238949   0.299   1.170   5.797  0.2033  0.5872  0.8529
 9105SOL     OW38950   1.647   4.519   6.024  0.8059  0.0799 -0.6549
 9105SOL    HW138951   1.706   4.518   5.949  1.1547  1.2851 -0.3919
 9105SOL    HW238952   1.701   4.507   6.102 -2.3992  1.1775  1.7465
 9106SOL     OW38953   3.771   3.956   2.199  0.3937  0.0047  0.6417
 9106SOL    HW138954   3.839   3.981   2.262 -0.8263 -1.8496  2.6828
 9106SOL    HW238955   3.688   3.970   2.246 -1.0470 -1.3190 -1.5179
 9107SOL     OW38956   3.773   3.985  15.240 -0.1477  0.8097  0.4318
 9107SOL    HW138957   3.697   4.029  15.279 -1.6318 -0.4842 -0.9562
 9107SOL    HW238958   3.808   4.050  15.178  0.2644 -0.8059 -1.0400
 9108SOL     OW38959   1.139   0.224   2.507 -0.2879 -0.2171 -0.0291
 9108SOL    HW138960   1.050   0.258   2.516  0.1901  0.6637  1.2897
 9108SOL    HW238961   1.192   0.303   2.518 -2.2272  0.9114  1.2635
 9109SOL     OW38962   3.972   3.107   5.495  0.1625  0.7041  0.2822
 9109SOL    HW138963   3.941   3.183   5.544  1.6751  1.0760  0.6551
 9109SOL    HW238964   3.982   3.036   5.559  0.7830 -1.1347 -1.8684
 9110SOL     OW38965   3.460   0.960   9.093 -0.6085 -0.2990  0.2968
 9110SOL    HW138966   3.554   0.967   9.106 -0.3288  0.9602 -2.5635
 9110SOL    HW238967   3.439   0.868   9.110  1.0124 -0.8708 -0.9141
 9111SOL     OW38968   2.808   4.469   6.838 -0.3444 -0.9082  0.0342
 9111SOL    HW138969   2.819   4.504   6.750  0.0454  0.3305  0.5815
 9111SOL    HW238970   2.900   4.465   6.864 -0.6651 -1.7814  1.0392
 9112SOL     OW38971   4.594   3.601  14.797  0.2489  0.6189 -0.1957
 9112SOL    HW138972   4.597   3.601  14.701  3.2639  1.9092 -0.1180
 9112SOL    HW238973   4.501   3.620  14.812  0.6732  0.9925  1.8924
 9113SOL     OW38974   2.745   2.430   9.312  0.6585  0.1668 -0.6284
 9113SOL    HW138975   2.804   2.391   9.377  1.7778  1.2497 -1.0010
 9113SOL    HW238976   2.761   2.376   9.235  4.6539 -2.4400  2.0150
 9114SOL     OW38977   3.414   2.920   3.915 -1.0385 -0.1626  0.0943
 9114SOL    HW138978   3.459   3.001   3.937  0.4718 -0.4996 -1.7524
 9114SOL    HW238979   3.326   2.952   3.895 -1.4270 -1.0414  0.3654
 9115SOL     OW38980   3.716   0.825   3.556 -0.3934 -0.1820 -0.1901
 9115SOL    HW138981   3.658   0.789   3.488  1.2955 -1.7723 -0.7619
 9115SOL    HW238982   3.806   0.812   3.526 -0.6599  0.4823 -1.3091
 9116SOL     OW38983   4.597   4.486   0.502 -0.2494 -0.2976  0.6836
 9116SOL    HW138984   4.548   4.556   0.544 -0.1282  0.3298 -0.2150
 9116SOL    HW238985   4.625   4.431   0.575  1.7089 -0.1410  0.0421
 9117SOL     OW38986   2.158   4.000   1.450 -0.1988  0.0686 -0.2892
 9117SOL    HW138987   2.081   3.953   1.483 -0.4355  1.2992  0.9137
 9117SOL    HW238988   2.137   4.089   1.479 -1.1660  0.4807 -2.2407
 9118SOL     OW38989   2.866   3.216  12.018 -0.5214  0.3109  0.4468
 9118SOL    HW138990   2.910   3.190  12.099 -2.0383  0.0424  1.1876
 9118SOL    HW238991   2.805   3.145  12.000  2.3599 -2.0753  0.1317
 9119SOL     OW38992   3.262   3.114  14.372 -0.1993 -0.4200  0.0003
 9119SOL    HW138993   3.263   3.099  14.278 -2.0594  0.3225 -0.1357
 9119SOL    HW238994   3.172   3.089  14.392 -0.6939  1.6044  0.2540
 9120SOL     OW38995   2.694   4.572  10.297  0.2140  0.0480  0.2609
 9120SOL    HW138996   2.724   4.497  10.348 -2.7422 -1.1019  0.2776
 9120SOL    HW238997   2.601   4.565  10.318  0.5380 -3.0227  0.5740
 9121SOL     OW38998   3.774   2.417   3.802 -0.2554 -0.0777 -0.4136
 9121SOL    HW138999   3.785   2.338   3.749 -2.2588 -0.4824 -0.2611
 9121SOL    HW239000   3.747   2.371   3.882  1.7438  1.8134  1.3322
 9122SOL     OW39001   4.171   3.368   6.532  0.0441 -0.2408 -0.5279
 9122SOL    HW139002   4.166   3.284   6.485 -1.3588  0.6399 -1.9353
 9122SOL    HW239003   4.081   3.392   6.552  0.4297  0.6942  0.0477
 9123SOL     OW39004   2.442   4.012  12.651 -0.3844 -0.4998  0.1493
 9123SOL    HW139005   2.475   4.024  12.740 -4.3732 -1.2009  1.7293
 9123SOL    HW239006   2.370   3.951  12.667 -1.0173  1.0294  3.0301
 9124SOL     OW39007   0.569   0.032   2.838 -0.3997  0.4690  0.1701
 9124SOL    HW139008   0.616   0.060   2.759  1.1086  1.6597  1.4831
 9124SOL    HW239009   0.500   4.721   2.792 -1.0417  0.0131  1.6010
 9125SOL     OW39010   2.015   2.098   3.579 -0.1640 -0.1428  0.7082
 9125SOL    HW139011   2.065   2.095   3.660 -0.5839 -1.7131  0.9073
 9125SOL    HW239012   2.074   2.160   3.535 -1.9487  1.3617  0.3911
 9126SOL     OW39013   4.204   1.878  13.631  0.3973  0.1515 -0.4534
 9126SOL    HW139014   4.213   1.928  13.712  0.6032  0.6424 -0.7800
 9126SOL    HW239015   4.114   1.845  13.638  0.2791  0.4893 -0.3719
 9127SOL     OW39016   2.063   2.192   6.952  0.0191  0.1794 -0.3626
 9127SOL    HW139017   2.106   2.271   6.986  0.6250 -0.0225 -0.6556
 9127SOL    HW239018   2.134   2.139   6.915  1.2749  1.6056  0.0086
 9128SOL     OW39019   0.068   1.438   2.632 -0.1038  0.4682  1.0625
 9128SOL    HW139020   0.092   1.406   2.544 -1.2887 -0.3507  1.0368
 9128SOL    HW239021   0.154   1.456   2.670  1.0165 -2.8207  0.0799
 9129SOL     OW39022   0.641   2.702   8.397 -0.1148 -0.2183 -1.2143
 9129SOL    HW139023   0.668   2.777   8.344 -0.0590 -0.9729 -2.2509
 9129SOL    HW239024   0.588   2.656   8.332  1.0781 -2.5832 -0.4900
 9130SOL     OW39025   0.659   1.521   4.890  0.4931 -0.1714 -0.4741
 9130SOL    HW139026   0.574   1.509   4.848  0.0037  1.2117  0.0974
 9130SOL    HW239027   0.662   1.450   4.953 -2.6929 -0.4510 -0.6049
 9131SOL     OW39028   4.484   0.983   3.253 -0.6789 -0.1120  0.5719
 9131SOL    HW139029   4.497   0.926   3.177  0.4170  1.0778 -0.1288
 9131SOL    HW239030   4.498   1.063   3.203  0.4406 -0.3795  0.4768
 9132SOL     OW39031   1.372   2.858   8.265 -0.0243  0.2614  0.5906
 9132SOL    HW139032   1.368   2.824   8.176  2.4218 -0.7870  0.8778
 9132SOL    HW239033   1.308   2.806   8.313 -0.5879  0.2567 -0.1763
 9133SOL     OW39034   1.285   4.330  12.147 -0.6593  0.4912  0.0734
 9133SOL    HW139035   1.246   4.306  12.231 -0.2108  0.2657  0.2191
 9133SOL    HW239036   1.216   4.309  12.084  0.2855  0.0576 -0.8310
 9134SOL     OW39037   1.479   3.810   2.033  0.0449  0.1023  0.3410
 9134SOL    HW139038   1.532   3.868   2.086  0.0657  0.7454 -0.3889
 9134SOL    HW239039   1.398   3.858   2.047 -1.2544 -1.3760 -2.0231
 9135SOL     OW39040   3.884   1.713  17.043 -0.1390 -0.6666  0.6092
 9135SOL    HW139041   3.905   1.654  17.115 -1.3287 -0.1879  1.3530
 9135SOL    HW239042   3.920   1.675  16.962 -1.7035  0.5194 -0.6389
 9136SOL     OW39043   0.074   1.850  13.866 -0.2695  0.3649  0.1902
 9136SOL    HW139044   0.153   1.888  13.829 -0.8918  1.0744 -0.4193
 9136SOL    HW239045   0.092   1.757  13.853 -1.2838 -0.0487  1.6931
 9137SOL     OW39046   2.542   0.540   6.111 -0.1752  0.0128 -0.3297
 9137SOL    HW139047   2.558   0.459   6.063  0.3939 -0.8594  1.3488
 9137SOL    HW239048   2.453   0.568   6.091  0.1734  2.0687  1.0085
 9138SOL     OW39049   0.392   2.011   3.098  0.1284  0.0712 -0.3163
 9138SOL    HW139050   0.438   1.956   3.035 -2.3813 -1.4394 -0.8122
 9138SOL    HW239051   0.385   1.942   3.164  2.2742  0.8585  0.7380
 9139SOL     OW39052   1.174   2.557  15.158  0.1914  0.0089  0.6432
 9139SOL    HW139053   1.086   2.531  15.184 -0.1150  0.2141 -0.1801
 9139SOL    HW239054   1.161   2.652  15.158 -1.9591 -0.2730 -2.1329
 9140SOL     OW39055   3.143   1.280  17.717  0.5336  0.0709  0.3925
 9140SOL    HW139056   3.200   1.288  17.640 -0.9011  2.5914 -0.3957
 9140SOL    HW239057   3.186   1.354   0.012 -1.3078  1.1407  0.3791
 9141SOL     OW39058   3.583   3.631   7.864  0.6077 -0.3998 -0.0788
 9141SOL    HW139059   3.545   3.702   7.916  0.4153 -1.1213  0.7713
 9141SOL    HW239060   3.532   3.558   7.899 -0.4055 -0.0358 -0.8104
 9142SOL     OW39061   3.156   2.941   9.274 -0.5320  0.8143  0.1010
 9142SOL    HW139062   3.150   3.005   9.344  1.7038  3.4227 -2.0821
 9142SOL    HW239063   3.234   2.890   9.297  0.1088  0.8194 -2.0183
 9143SOL     OW39064   3.820   1.155   3.844  0.4661 -0.1231  0.5871
 9143SOL    HW139065   3.846   1.230   3.897 -3.1317  1.0544  0.6906
 9143SOL    HW239066   3.854   1.180   3.758  0.8164  0.4705  0.8977
 9144SOL     OW39067   2.210   3.394   0.688  0.6900  0.0331 -0.2366
 9144SOL    HW139068   2.173   3.470   0.733 -1.1145 -1.6417  1.0666
 9144SOL    HW239069   2.204   3.426   0.598 -0.0978 -0.9306 -0.5287
 9145SOL     OW39070   0.846   4.398  10.342  0.1400  0.5429  0.1410
 9145SOL    HW139071   0.813   4.309  10.327  3.2598 -1.1578  3.2986
 9145SOL    HW239072   0.914   4.382  10.408  0.1184 -0.6081 -0.1095
 9146SOL     OW39073   3.914   0.781   5.799  0.2992 -0.0260 -0.6886
 9146SOL    HW139074   3.913   0.832   5.880  1.1690  0.2598 -0.8540
 9146SOL    HW239075   3.950   0.701   5.837  0.2566  1.3730  2.3130
 9147SOL     OW39076   4.371   3.181   7.601  0.3551  0.3133  0.4529
 9147SOL    HW139077   4.374   3.088   7.577  0.6783  0.9752 -2.1013
 9147SOL    HW239078   4.434   3.176   7.672  0.1306 -0.0983  0.6280
 9148SOL     OW39079   2.812   0.698   2.142  0.0075  0.0271 -0.4553
 9148SOL    HW139080   2.736   0.643   2.160  1.1412 -1.5549 -0.5208
 9148SOL    HW239081   2.827   0.685   2.048  0.1430  1.8419 -0.7019
 9149SOL     OW39082   2.229   1.336   4.427  0.0305  0.3392  0.0283
 9149SOL    HW139083   2.185   1.410   4.386 -1.3794 -0.0799  0.7916
 9149SOL    HW239084   2.267   1.299   4.347  0.5513  1.8800 -0.4396
 9150SOL     OW39085   3.779   4.484   6.730  0.5350  0.0676  0.3312
 9150SOL    HW139086   3.816   4.522   6.810 -1.1254 -3.5856  2.8058
 9150SOL    HW239087   3.848   4.431   6.689  0.0781 -0.7394  0.6153
 9151SOL     OW39088   3.550   2.229   7.158 -1.0927  0.1771  0.2035
 9151SOL    HW139089   3.547   2.325   7.167 -1.5341  0.1756  0.0703
 9151SOL    HW239090   3.499   2.213   7.079 -2.1109 -1.7115  1.2505
 9152SOL     OW39091   1.122   2.815   9.491  0.0505 -0.2560 -0.1719
 9152SOL    HW139092   1.042   2.762   9.497 -0.1018  0.2192  2.0262
 9152SOL    HW239093   1.188   2.758   9.530 -1.7570 -0.3827  2.7910
 9153SOL     OW39094   0.945   4.561   2.177  0.2841  0.7276  0.5159
 9153SOL    HW139095   0.918   4.498   2.109 -2.0307  1.8277  0.4164
 9153SOL    HW239096   0.863   4.586   2.219  1.3226 -1.7756  4.0115
 9154SOL     OW39097   2.934   3.365   7.260 -0.4130  0.2621 -0.2147
 9154SOL    HW139098   2.908   3.447   7.301 -2.3010 -0.2086 -0.4530
 9154SOL    HW239099   2.845   3.332   7.247  0.0445 -1.1166  0.0547
 9155SOL     OW39100   0.355   3.860   7.839 -0.1884  0.4109  0.4031
 9155SOL    HW139101   0.299   3.788   7.812 -1.0086  0.8333  0.9759
 9155SOL    HW239102   0.430   3.806   7.864  0.6910  1.2661 -0.3769
 9156SOL     OW39103   4.307   4.014  11.106  0.4092 -0.1347 -0.0080
 9156SOL    HW139104   4.295   4.086  11.168  0.8992 -1.4113  1.5427
 9156SOL    HW239105   4.282   3.940  11.161  1.2109 -0.6456 -0.3451
 9157SOL     OW39106   1.767   2.232   8.158  0.5467 -0.7276 -0.1262
 9157SOL    HW139107   1.787   2.197   8.244  1.8172 -0.6553 -0.3949
 9157SOL    HW239108   1.853   2.266   8.134  0.1816  2.1463  2.6142
 9158SOL     OW39109   1.811   2.525   9.126  0.3684  0.1880 -0.1201
 9158SOL    HW139110   1.825   2.510   9.033 -0.4231  0.9643 -0.3677
 9158SOL    HW239111   1.751   2.456   9.153 -0.0068 -0.2993 -2.2089
 9159SOL     OW39112   4.684   1.362   5.443  0.5872 -0.4209  0.2844
 9159SOL    HW139113   4.666   1.366   5.537  0.6419 -2.5807  0.3936
 9159SOL    HW239114   4.737   1.439   5.422 -2.0341  0.8078 -1.8467
 9160SOL     OW39115   0.886   1.007   9.734  0.8538  0.2547 -0.2043
 9160SOL    HW139116   0.931   1.088   9.760  0.5611  0.2678  0.2485
 9160SOL    HW239117   0.817   1.051   9.686  0.5162  1.5488  1.4727
 9161SOL     OW39118   2.971   0.041   7.193  0.6574  0.6673 -0.4930
 9161SOL    HW139119   3.019   0.018   7.114 -0.3765  2.6008 -1.6952
 9161SOL    HW239120   2.879   0.039   7.167 -0.1908 -1.5836  2.7594
 9162SOL     OW39121   1.033   4.555   8.752 -0.0330 -0.2800  0.4011
 9162SOL    HW139122   0.986   4.478   8.785 -0.2986 -0.1776  0.2605
 9162SOL    HW239123   1.043   4.615   8.826 -0.5827 -1.4816  1.4742
 9163SOL     OW39124   0.872   4.589  11.516  0.2240  0.6670 -0.0988
 9163SOL    HW139125   0.782   4.555  11.515  0.5483 -0.2209  1.2349
 9163SOL    HW239126   0.891   4.530  11.443 -2.1997  0.0216 -0.2079
 9164SOL     OW39127   1.950   1.944   0.112  0.3703  0.6062  0.4936
 9164SOL    HW139128   2.024   1.972   0.058  0.8766  0.9934  1.3777
 9164SOL    HW239129   1.959   1.850   0.098 -0.2478  1.0193 -2.5190
 9165SOL     OW39130   2.189   2.006   9.105  0.1697 -0.1305  0.5996
 9165SOL    HW139131   2.264   1.947   9.104  2.1223  2.3630 -0.3068
 9165SOL    HW239132   2.179   2.024   9.199  1.3688  0.2227  0.6555
 9166SOL     OW39133   4.495   0.213  16.908 -0.0742 -0.0825 -0.2425
 9166SOL    HW139134   4.446   0.131  16.915 -0.4812  0.0029 -2.3656
 9166SOL    HW239135   4.442   0.268  16.851 -1.8278 -0.7599  0.6960
 9167SOL     OW39136   0.044   4.596   2.910  0.6637 -0.0902  0.4280
 9167SOL    HW139137   0.028   4.536   2.983 -0.3284 -1.0262 -0.5352
 9167SOL    HW239138   0.111   4.540   2.872  1.5180  0.7218  0.7468
 9168SOL     OW39139   0.267   4.074  17.748 -0.0174 -0.3327  0.8664
 9168SOL    HW139140   0.233   4.147   0.051 -0.6651  0.1646 -0.2742
 9168SOL    HW239141   0.188   4.032  17.716  0.0775 -0.0155  0.2228
 9169SOL     OW39142   4.218   2.086   7.425  0.0831 -0.0180 -0.8060
 9169SOL    HW139143   4.125   2.107   7.416 -0.0809 -0.4061  0.0607
 9169SOL    HW239144   4.213   2.008   7.479  0.6231 -1.1702 -2.4046
 9170SOL     OW39145   4.695   2.040   7.229  0.4479 -0.5588  0.2326
 9170SOL    HW139146   4.606   2.006   7.215 -0.8148  1.2982  3.7887
 9170SOL    HW239147   4.695   2.068   7.320 -0.2288 -0.5499  0.2291
 9171SOL     OW39148   1.089   2.475   7.025 -0.2889  0.0727 -0.2996
 9171SOL    HW139149   1.135   2.546   7.071 -0.9846 -0.2827  0.9290
 9171SOL    HW239150   1.142   2.400   7.050 -1.1279  0.0581  1.3992
 9172SOL     OW39151   3.940   1.493  13.483  0.2725  0.0398 -0.1107
 9172SOL    HW139152   3.859   1.512  13.437  1.3059 -0.0519 -1.9792
 9172SOL    HW239153   3.916   1.492  13.576  0.3336  0.4631 -0.0889
 9173SOL     OW39154   0.107   2.429   9.053  0.0042  0.5111  0.0429
 9173SOL    HW139155   0.088   2.508   9.103 -0.3256 -0.9043  2.1219
 9173SOL    HW239156   0.203   2.434   9.047  0.1841 -1.9678  1.1607
 9174SOL     OW39157   0.893   3.677   5.036  0.3784  0.4814 -0.0051
 9174SOL    HW139158   0.828   3.698   5.104 -1.2985 -0.6204 -1.2506
 9174SOL    HW239159   0.882   3.582   5.042 -1.7861  0.6873 -0.5932
 9175SOL     OW39160   4.577   0.175  10.644 -0.2688  0.2140 -0.2849
 9175SOL    HW139161   4.619   0.175  10.557  0.9768  2.7599  0.3325
 9175SOL    HW239162   4.605   0.260  10.676 -1.7773  0.7963 -0.5330
 9176SOL     OW39163   1.944   3.805   1.751 -0.3486  0.4028  0.0920
 9176SOL    HW139164   2.038   3.813   1.763 -0.0558 -1.1793 -1.0798
 9176SOL    HW239165   1.922   3.747   1.823 -0.2837  0.6407  0.3032
 9177SOL     OW39166   2.107   2.659  11.201 -0.0040 -0.1760 -0.2427
 9177SOL    HW139167   2.159   2.618  11.269  1.6811  0.7563 -0.9711
 9177SOL    HW239168   2.051   2.587  11.170  1.7066 -0.0719 -3.5863
 9178SOL     OW39169   3.457   1.007   1.904  0.2625  0.0540  0.2174
 9178SOL    HW139170   3.462   0.940   1.836  3.0681 -0.0931  0.5585
 9178SOL    HW239171   3.414   1.068   1.846 -0.2438 -0.1817  0.3457
 9179SOL     OW39172   2.809   3.192   8.225  0.1825  0.2047  0.3007
 9179SOL    HW139173   2.715   3.178   8.217  0.1014  0.8390  0.1268
 9179SOL    HW239174   2.814   3.266   8.285 -1.0434 -0.7353  1.5710
 9180SOL     OW39175   1.666   1.985   8.162 -0.0547 -0.2515 -0.2802
 9180SOL    HW139176   1.576   1.998   8.133 -0.3393 -0.9724  0.3056
 9180SOL    HW239177   1.703   2.070   8.137 -0.2159 -0.3037 -0.6958
 9181SOL     OW39178   1.836   0.860   6.668  0.5270  0.2341 -0.0364
 9181SOL    HW139179   1.788   0.790   6.711  2.4465 -1.0905 -0.0358
 9181SOL    HW239180   1.903   0.883   6.733 -0.0708 -0.5842  0.8591
 9182SOL     OW39181   1.505   2.417   4.507  1.2656 -0.0038 -0.1617
 9182SOL    HW139182   1.515   2.496   4.454 -0.7195  1.3356  1.4233
 9182SOL    HW239183   1.418   2.438   4.542  1.1925 -0.7795  0.1252
 9183SOL     OW39184   3.768   4.598  14.414 -0.6570  0.0254  0.0779
 9183SOL    HW139185   3.684   4.565  14.446  0.0426 -0.2882  1.6188
 9183SOL    HW239186   3.822   4.593  14.493 -0.1109  0.7856 -0.2437
 9184SOL     OW39187   3.463   3.778   7.072 -0.4277  0.2146 -0.2619
 9184SOL    HW139188   3.461   3.873   7.058 -4.2191  0.0893 -0.4176
 9184SOL    HW239189   3.408   3.754   6.998 -0.0649 -0.9920 -0.1350
 9185SOL     OW39190   1.387   3.318   9.616  0.0677 -0.4663 -0.1157
 9185SOL    HW139191   1.320   3.384   9.631 -1.3814 -1.9423 -0.1027
 9185SOL    HW239192   1.345   3.236   9.643  2.5397 -0.6826  3.1637
 9186SOL     OW39193   2.682   0.351   5.384  0.0436 -0.3673 -0.0961
 9186SOL    HW139194   2.601   0.334   5.337 -1.1290  3.1107  0.6755
 9186SOL    HW239195   2.709   0.269   5.426 -0.9746 -0.9248 -0.5415
 9187SOL     OW39196   2.360   0.995   7.052 -1.0418  0.3284 -0.1536
 9187SOL    HW139197   2.385   1.039   6.971  1.0516  0.4693  0.5579
 9187SOL    HW239198   2.436   1.007   7.108 -1.6484  0.1679  0.7010
 9188SOL     OW39199   2.555   3.190  17.037  0.4394 -0.4237  0.4540
 9188SOL    HW139200   2.547   3.095  17.050  2.1479 -0.5280  0.6425
 9188SOL    HW239201   2.473   3.228  17.069  0.6472 -1.0063  1.6813
 9189SOL     OW39202   0.512   4.280   9.789  0.6080 -0.2488  0.3750
 9189SOL    HW139203   0.519   4.319   9.702 -2.1096 -2.3556 -0.8100
 9189SOL    HW239204   0.585   4.322   9.834  0.8344 -0.5071  0.2473
 9190SOL     OW39205   1.061   3.948   8.550 -0.0466 -0.7089  0.1745
 9190SOL    HW139206   1.103   3.967   8.633 -0.2986  0.2152  0.0880
 9190SOL    HW239207   1.077   4.027   8.498 -2.7568 -0.6574 -0.5625
 9191SOL     OW39208   1.820   3.606  16.743  0.2545 -0.4217  0.8785
 9191SOL    HW139209   1.746   3.595  16.682  1.0232  0.4110 -0.2067
 9191SOL    HW239210   1.876   3.531  16.724  2.5450  2.2537 -2.9301
 9192SOL     OW39211   3.768   4.620  11.366  0.0007 -0.1642  0.5780
 9192SOL    HW139212   3.708   4.567  11.312 -0.9591  2.9862 -1.4062
 9192SOL    HW239213   3.704   4.676  11.410  0.8061  1.2830 -0.0896
 9193SOL     OW39214   1.447   0.877  17.067  0.1355  0.2705 -0.9265
 9193SOL    HW139215   1.393   0.800  17.084  1.8425 -1.2075 -2.2959
 9193SOL    HW239216   1.389   0.935  17.117  0.0316  2.7953 -3.9165
 9194SOL     OW39217   3.708   1.105   7.352  0.7858 -1.1105 -0.0475
 9194SOL    HW139218   3.692   1.098   7.258  0.4438 -1.1341  0.0109
 9194SOL    HW239219   3.756   1.023   7.364  1.3475 -0.6687  0.7754
 9195SOL     OW39220   0.690   4.472   8.980  0.0022 -0.5657 -0.0262
 9195SOL    HW139221   0.641   4.413   8.923  2.1538 -1.3182 -1.0900
 9195SOL    HW239222   0.651   4.557   8.963 -0.8896 -1.5096 -2.7487
 9196SOL     OW39223   0.780   4.389   9.240  0.0743  0.0356 -0.0793
 9196SOL    HW139224   0.739   4.445   9.174  1.0455 -0.4233 -1.0966
 9196SOL    HW239225   0.814   4.321   9.181 -0.3545  0.1617 -0.4715
 9197SOL     OW39226   2.956   1.222  10.756 -0.8494 -0.1310  0.0338
 9197SOL    HW139227   2.866   1.231  10.724 -0.1601  0.1410 -1.7867
 9197SOL    HW239228   2.937   1.197  10.847 -2.3744  1.0792  0.0525
 9198SOL     OW39229   0.100   4.613   7.488 -0.4637 -0.0874 -1.0835
 9198SOL    HW139230   0.081   4.536   7.434  0.4647 -1.6593  0.8063
 9198SOL    HW239231   0.173   4.653   7.440 -0.4821 -0.5780 -1.5169
 9199SOL     OW39232   1.087   4.592   5.049 -0.1615 -0.2249  0.3926
 9199SOL    HW139233   1.182   4.597   5.050 -0.0973 -1.0592 -1.0478
 9199SOL    HW239234   1.071   4.550   4.964 -0.8650  1.3018 -0.2362
 9200SOL     OW39235   0.438   2.577   8.716  0.0537 -0.1678  0.2003
 9200SOL    HW139236   0.480   2.520   8.779  1.9694 -0.1903 -1.1114
 9200SOL    HW239237   0.410   2.646   8.777  2.7705  0.3782  0.8305
 9201SOL     OW39238   0.409   3.165   4.547  0.0423  0.1356  0.7885
 9201SOL    HW139239   0.371   3.079   4.566 -0.9395  0.1118 -1.2324
 9201SOL    HW239240   0.339   3.201   4.491  0.0819 -1.7283 -0.4721
 9202SOL     OW39241   0.339   1.792   3.268 -0.0207 -0.4062  0.4869
 9202SOL    HW139242   0.321   1.805   3.361 -0.6376 -0.9915  0.4410
 9202SOL    HW239243   0.395   1.715   3.276  1.6616  0.9789  2.0777
 9203SOL     OW39244   4.245   4.402   1.035  0.1051  0.1484  0.5152
 9203SOL    HW139245   4.310   4.364   1.093 -0.1694 -1.7177 -0.4261
 9203SOL    HW239246   4.293   4.396   0.952  0.1527  4.1324  0.2193
 9204SOL     OW39247   3.956   3.712  12.762  0.3246  0.0253 -0.2070
 9204SOL    HW139248   3.912   3.740  12.843  0.2492 -1.1838  0.1609
 9204SOL    HW239249   3.889   3.651  12.730  0.7228 -1.0143  0.9445
 9205SOL     OW39250   2.998   4.529   1.417 -0.5883 -0.2292  0.1089
 9205SOL    HW139251   3.002   4.568   1.329 -1.3631  0.7583  0.5137
 9205SOL    HW239252   3.091   4.508   1.426 -1.0706 -2.8483 -1.2729
 9206SOL     OW39253   3.857   1.941   6.510 -0.4716  0.8184 -0.2299
 9206SOL    HW139254   3.843   2.031   6.542 -0.7221  1.3274 -1.7701
 9206SOL    HW239255   3.872   1.903   6.597  0.7574  0.4726 -0.5824
 9207SOL     OW39256   3.942   0.646  11.054 -0.2635  1.0031 -0.6284
 9207SOL    HW139257   4.012   0.584  11.033 -2.4534 -1.8540  0.5111
 9207SOL    HW239258   3.863   0.596  11.033 -0.0432 -0.0489  0.9998
 9208SOL     OW39259   4.036   2.328  16.303 -0.5995 -0.4102  0.4267
 9208SOL    HW139260   4.057   2.236  16.285  0.3723 -0.6512  2.6761
 9208SOL    HW239261   4.121   2.370  16.296 -0.2098 -1.1932  0.4867
 9209SOL     OW39262   1.284   1.676   3.396 -0.4093 -0.4345  0.1825
 9209SOL    HW139263   1.257   1.765   3.372 -3.1456 -1.2286  0.2221
 9209SOL    HW239264   1.219   1.625   3.347 -2.6127  1.4919  1.0579
 9210SOL     OW39265   3.765   3.738   8.411  0.2951  0.5337  0.6537
 9210SOL    HW139266   3.767   3.767   8.319  0.2256  0.8227  0.7417
 9210SOL    HW239267   3.684   3.778   8.445 -0.3528  0.0569 -0.3331
 9211SOL     OW39268   2.619   0.446   4.237  0.1413  0.4008 -0.9415
 9211SOL    HW139269   2.668   0.529   4.231  1.3936 -0.2279  0.8854
 9211SOL    HW239270   2.559   0.462   4.163 -0.6585  2.2095  0.1046
 9212SOL     OW39271   3.240   1.351   4.846 -0.1084 -0.5148  0.0351
 9212SOL    HW139272   3.222   1.396   4.929  0.2666  1.1891 -0.8061
 9212SOL    HW239273   3.183   1.407   4.793  2.2286  0.5105 -1.3951
 9213SOL     OW39274   4.693   0.409  10.712  0.1264  0.9328 -0.3048
 9213SOL    HW139275   0.050   0.417  10.730  0.1963  1.1507 -0.7694
 9213SOL    HW239276   4.655   0.473  10.773  0.1305 -0.4883  1.1969
 9214SOL     OW39277   4.168   3.861  12.300 -0.5204 -0.3953  0.4007
 9214SOL    HW139278   4.155   3.817  12.384  0.0321  0.7519  1.0899
 9214SOL    HW239279   4.076   3.869  12.274  0.7113  3.5206 -2.7510
 9215SOL     OW39280   3.174   1.640  17.345  0.2488 -0.5857  0.0642
 9215SOL    HW139281   3.269   1.656  17.343  0.0787  0.2301 -1.6762
 9215SOL    HW239282   3.173   1.546  17.323  0.3755 -0.6111  0.1687
 9216SOL     OW39283   3.065   0.301   1.811 -0.5989  0.2973  0.2689
 9216SOL    HW139284   3.059   0.381   1.758  1.6826 -0.2654 -0.8810
 9216SOL    HW239285   3.016   0.329   1.888 -0.2853  0.4577  0.4093
 9217SOL     OW39286   1.088   0.808   5.806 -0.2982 -0.0818  0.1762
 9217SOL    HW139287   1.145   0.880   5.778 -2.0281  1.3682  0.4218
 9217SOL    HW239288   1.066   0.817   5.899 -0.4394  3.2736 -0.1728
 9218SOL     OW39289   1.814   2.201   2.150 -0.1118 -0.2194  0.4988
 9218SOL    HW139290   1.837   2.211   2.058  2.0456  1.0946  1.1673
 9218SOL    HW239291   1.803   2.293   2.176 -0.6421 -0.4104  0.9585
 9219SOL     OW39292   1.776   2.658  15.732 -0.3103  0.0609 -0.0184
 9219SOL    HW139293   1.733   2.668  15.647  1.5694  2.3379 -0.7134
 9219SOL    HW239294   1.777   2.749  15.763 -2.2954  0.1828 -0.3224
 9220SOL     OW39295   2.318   1.220  17.268  0.0235 -0.1361  0.3072
 9220SOL    HW139296   2.224   1.238  17.265  0.0971  0.1092 -0.3424
 9220SOL    HW239297   2.341   1.234  17.360  0.0356  0.2934  0.2376
 9221SOL     OW39298   0.551   0.039  16.593 -0.5839  0.2616 -0.5282
 9221SOL    HW139299   0.610   0.030  16.519  1.2219  2.5951  0.6152
 9221SOL    HW239300   0.475   4.723  16.572 -0.5643  0.0859 -0.1528
 9222SOL     OW39301   3.163   2.978   1.324  0.6378 -0.2108  0.0472
 9222SOL    HW139302   3.183   2.910   1.260 -0.0563 -0.1210 -0.2670
 9222SOL    HW239303   3.178   2.932   1.406  0.6658  1.5836  1.0585
 9223SOL     OW39304   4.693   2.456   0.913  0.0045 -0.2110  0.7462
 9223SOL    HW139305   4.714   2.448   0.820 -2.3613 -0.8463  0.2761
 9223SOL    HW239306   0.045   2.477   0.941  0.1683 -0.5791  0.4991
 9224SOL     OW39307   1.735   3.514  10.552 -0.2587  0.6668 -0.6858
 9224SOL    HW139308   1.828   3.494  10.564 -0.2361  1.3919  0.3599
 9224SOL    HW239309   1.709   3.558  10.633  0.1517  0.3221 -0.3656
 9225SOL     OW39310   2.213   2.508   9.861 -0.0810 -0.3919  0.1962
 9225SOL    HW139311   2.176   2.544   9.781 -3.3859 -0.3264  1.7572
 9225SOL    HW239312   2.137   2.508   9.920 -0.6333  2.6635 -0.5302
 9226SOL     OW39313   1.837   0.514  17.670 -0.2619  0.8661  0.4304
 9226SOL    HW139314   1.907   0.570  17.702 -1.2983  1.8042  1.0727
 9226SOL    HW239315   1.770   0.581  17.656  0.2238  1.9624  3.3668
 9227SOL     OW39316   0.506   2.382   3.521 -0.0932  0.0659  0.0559
 9227SOL    HW139317   0.425   2.394   3.472  0.5298  2.2601 -0.4516
 9227SOL    HW239318   0.491   2.297   3.561 -0.3293  0.8094  1.5276
 9228SOL     OW39319   1.459   1.777   2.716 -0.4026 -0.0347  0.1918
 9228SOL    HW139320   1.530   1.717   2.738 -2.5055 -2.1314  1.2763
 9228SOL    HW239321   1.386   1.720   2.740  0.7821 -0.8154  1.9000
 9229SOL     OW39322   0.244   3.163   3.546 -0.6399 -0.2087 -0.8554
 9229SOL    HW139323   0.157   3.127   3.528 -1.7299  1.3166  1.3743
 9229SOL    HW239324   0.290   3.082   3.565 -0.1781  0.0623 -0.8331
 9230SOL     OW39325   1.576   0.182   6.359 -0.6448 -0.3613 -0.3395
 9230SOL    HW139326   1.506   0.242   6.333  0.1471  0.3720 -0.7974
 9230SOL    HW239327   1.570   0.126   6.282 -1.9477 -0.7348  0.0376
 9231SOL     OW39328   3.829   0.369   8.409  0.2724  0.1075  0.1200
 9231SOL    HW139329   3.819   0.274   8.411 -1.2699  0.2944  1.4065
 9231SOL    HW239330   3.919   0.376   8.379  0.1047  0.5697 -0.2717
 9232SOL     OW39331   4.492   3.031  10.870 -0.3797  0.3802 -0.0677
 9232SOL    HW139332   4.504   3.003  10.779  0.6551 -1.0646  0.5296
 9232SOL    HW239333   4.502   3.125  10.853 -0.6329  0.3779 -0.2360
 9233SOL     OW39334   2.155   0.567  17.070  0.3309 -0.1879  0.7046
 9233SOL    HW139335   2.123   0.650  17.105 -0.1534 -0.3297  0.5931
 9233SOL    HW239336   2.241   0.608  17.061  1.6437 -2.9999  0.5034
 9234SOL     OW39337   2.013   1.527  12.098  0.2693 -0.4256  0.2790
 9234SOL    HW139338   2.077   1.596  12.115 -0.4804  0.5986 -1.0378
 9234SOL    HW239339   1.978   1.506  12.185 -1.4652  0.2981 -0.2478
 9235SOL     OW39340   0.817   1.857   4.442  0.0978  0.2684  0.0904
 9235SOL    HW139341   0.873   1.907   4.501  0.0862 -0.5056  0.7618
 9235SOL    HW239342   0.841   1.768   4.470 -1.6390 -0.3383 -0.3769
 9236SOL     OW39343   2.684   3.501   0.212 -0.2748  0.1470  0.2768
 9236SOL    HW139344   2.764   3.455   0.189 -0.4928  0.5668 -1.3258
 9236SOL    HW239345   2.722   3.587   0.231 -1.6510  0.8482 -0.0837
 9237SOL     OW39346   3.197   2.294   3.523  0.2603  0.8234  0.0637
 9237SOL    HW139347   3.126   2.355   3.504  1.5670  1.6423 -2.1738
 9237SOL    HW239348   3.261   2.352   3.565 -0.1318  1.0991  0.2864
 9238SOL     OW39349   1.263   2.655   8.453  0.0389  0.1064 -0.0178
 9238SOL    HW139350   1.184   2.709   8.444  0.0077 -0.0060 -0.4292
 9238SOL    HW239351   1.270   2.652   8.548  0.4972 -2.2886 -0.1266
 9239SOL     OW39352   4.002   4.085   0.560 -0.2733 -0.1873  0.0793
 9239SOL    HW139353   3.913   4.107   0.587 -0.1120 -0.3862  0.7633
 9239SOL    HW239354   3.999   4.131   0.476  1.2500 -0.6243 -0.2226
 9240SOL     OW39355   0.285   2.682  16.225  0.1720  0.3061 -0.4611
 9240SOL    HW139356   0.330   2.612  16.272 -1.1901 -0.2909 -0.0556
 9240SOL    HW239357   0.357   2.734  16.189  0.0634  0.3713 -0.5838
 9241SOL     OW39358   3.135   2.694  13.703  0.7685 -0.1721  0.4342
 9241SOL    HW139359   3.075   2.683  13.776  1.6197  1.3850  1.3632
 9241SOL    HW239360   3.073   2.711  13.632  1.2175  1.2919  0.3953
 9242SOL     OW39361   0.866   1.176  15.474 -0.1105  0.5149  0.1503
 9242SOL    HW139362   0.852   1.212  15.562  0.0143 -2.7699  1.4845
 9242SOL    HW239363   0.819   1.244  15.425 -0.5338 -1.5799 -2.3434
 9243SOL     OW39364   4.635   3.391   1.987  0.7760 -0.5006 -0.3043
 9243SOL    HW139365   4.580   3.384   1.909  0.8685  0.0151 -0.4140
 9243SOL    HW239366   4.703   3.328   1.966  0.1012 -0.6420 -2.0811
 9244SOL     OW39367   3.761   4.138   0.718 -0.7659  0.6673 -0.7754
 9244SOL    HW139368   3.717   4.171   0.640 -0.6755 -0.1629 -1.1798
 9244SOL    HW239369   3.746   4.208   0.782  0.9304  0.9607 -0.6900
 9245SOL     OW39370   4.388   4.152  10.279 -0.4031  0.0961 -0.0541
 9245SOL    HW139371   4.481   4.138  10.262 -0.4901  2.2318 -2.3112
 9245SOL    HW239372   4.359   4.061  10.289  1.8221 -0.6781 -0.5615
 9246SOL     OW39373   1.412   3.391   0.668  0.5032 -0.4269  0.7081
 9246SOL    HW139374   1.318   3.404   0.658  0.6293  0.0320  0.1249
 9246SOL    HW239375   1.419   3.315   0.726 -2.7976 -2.4418 -1.5568
 9247SOL     OW39376   3.272   0.353  17.470 -0.0684 -0.6849 -0.4887
 9247SOL    HW139377   3.236   0.277  17.515 -0.2451  0.1654  0.8186
 9247SOL    HW239378   3.253   0.327  17.380 -2.8509  0.2995 -0.1719
 9248SOL     OW39379   1.982   1.078   4.858  0.1315 -0.5184 -0.3062
 9248SOL    HW139380   1.939   1.157   4.892 -0.6728 -1.3050  0.4982
 9248SOL    HW239381   2.034   1.112   4.786 -1.3587  0.3469 -0.9702
 9249SOL     OW39382   3.483   2.677   6.569  0.3409  0.3801  0.3912
 9249SOL    HW139383   3.413   2.712   6.625  0.3792  3.1702 -1.3276
 9249SOL    HW239384   3.482   2.729   6.489 -3.8861  0.3191  0.4048
 9250SOL     OW39385   0.703   1.005  14.972 -0.0170 -0.3719  0.0378
 9250SOL    HW139386   0.691   1.049  14.888  0.7469  1.2296  0.7691
 9250SOL    HW239387   0.647   1.058  15.029 -0.1260  1.3042 -1.6232
 9251SOL     OW39388   1.184   0.764   5.018 -0.1918 -0.2236  0.2533
 9251SOL    HW139389   1.132   0.686   5.039  0.2528 -1.2276 -2.4131
 9251SOL    HW239390   1.248   0.765   5.089 -0.6468 -2.3895  0.7174
 9252SOL     OW39391   4.361   4.280  12.000  0.1190 -0.3091 -0.0696
 9252SOL    HW139392   4.423   4.339  11.956  0.7272  0.2904  1.5917
 9252SOL    HW239393   4.420   4.236  12.061  0.7115 -0.1786 -0.5490
 9253SOL     OW39394   3.681   3.836  11.230 -0.1939 -0.0217  0.0063
 9253SOL    HW139395   3.626   3.812  11.304 -1.0274  1.7679 -0.0239
 9253SOL    HW239396   3.611   3.832  11.165 -1.1828  0.7576  1.0348
 9254SOL     OW39397   1.970   0.096   7.727  0.2417 -0.2187 -0.0810
 9254SOL    HW139398   2.028   0.131   7.795  0.2231 -1.9015  0.7966
 9254SOL    HW239399   2.029   0.031   7.687  1.1859  0.2728  0.5097
 9255SOL     OW39400   3.838   4.049   7.961  0.2965 -0.0138  0.4554
 9255SOL    HW139401   3.781   4.074   7.888  0.2947  1.1064  0.8521
 9255SOL    HW239402   3.830   4.125   8.018 -2.0377 -0.7737  1.1288
 9256SOL     OW39403   3.934   3.690  14.419 -0.2090 -0.0751 -0.4286
 9256SOL    HW139404   3.845   3.674  14.388 -0.0639  0.3197 -1.0397
 9256SOL    HW239405   3.923   3.645  14.503 -3.4957  2.2765  0.4032
 9257SOL     OW39406   2.659   2.576   4.610 -0.1135 -0.0300  0.1715
 9257SOL    HW139407   2.633   2.539   4.695 -0.7219  0.7452  0.3252
 9257SOL    HW239408   2.733   2.632   4.635 -1.3751  1.3257  0.8394
 9258SOL     OW39409   0.547   2.706   9.396  0.4878  0.0879 -0.2092
 9258SOL    HW139410   0.501   2.709   9.480  0.6282 -0.9371 -0.0896
 9258SOL    HW239411   0.589   2.792   9.387  2.2006 -0.9349 -1.9626
 9259SOL     OW39412   2.413   1.572  17.576 -0.2718 -0.0318 -0.1143
 9259SOL    HW139413   2.422   1.545  17.484 -0.1172 -0.6881  0.0907
 9259SOL    HW239414   2.324   1.604  17.584  0.2166  0.8426  1.6890
 9260SOL     OW39415   4.546   3.407   7.282  0.6100 -0.1714 -0.0037
 9260SOL    HW139416   4.500   3.405   7.366  1.2233 -2.7951  0.2463
 9260SOL    HW239417   4.601   3.330   7.290  0.5282 -0.3039 -0.6960
 9261SOL     OW39418   3.639   4.294  10.258  0.1802 -0.5468 -0.0892
 9261SOL    HW139419   3.569   4.268  10.319 -0.3475  0.2800 -0.3344
 9261SOL    HW239420   3.650   4.387  10.279 -0.9593 -0.2651 -0.7226
 9262SOL     OW39421   1.360   0.746   5.246  0.0717  0.4141 -0.4618
 9262SOL    HW139422   1.439   0.705   5.211 -0.7863 -0.2416 -1.6261
 9262SOL    HW239423   1.332   0.676   5.305  2.9131 -0.8902 -0.6605
 9263SOL     OW39424   3.338   4.512  13.213 -0.4000 -0.7081  0.6514
 9263SOL    HW139425   3.263   4.570  13.199 -0.7809 -1.1793  0.7202
 9263SOL    HW239426   3.355   4.462  13.132  1.1106  1.0511 -0.1101
 9264SOL     OW39427   4.467   4.332  12.442 -0.8781  0.0702 -0.1257
 9264SOL    HW139428   4.503   4.335  12.353 -1.3037  0.1162 -0.2952
 9264SOL    HW239429   4.396   4.269  12.429  0.1447 -1.0060 -0.5495
 9265SOL     OW39430   4.731   3.827   7.212  0.4248 -0.0343 -0.1827
 9265SOL    HW139431   0.002   3.732   7.207  2.1001  0.1638 -0.9522
 9265SOL    HW239432   4.692   3.825   7.299  1.2107  0.1252  0.1707
 9266SOL     OW39433   2.611   2.031   2.062  0.5349  0.1088 -0.6004
 9266SOL    HW139434   2.652   2.117   2.047  1.5968 -0.0558  1.2827
 9266SOL    HW239435   2.675   1.966   2.033 -0.2543 -0.4136 -1.1547
 9267SOL     OW39436   1.888   1.494  14.185  0.2791  0.0438 -0.5975
 9267SOL    HW139437   1.952   1.453  14.243 -1.4008 -0.1403  1.1249
 9267SOL    HW239438   1.923   1.472  14.099 -1.0220 -1.0747 -0.8571
 9268SOL     OW39439   0.691   3.247   6.388 -0.0507  0.0387 -0.0019
 9268SOL    HW139440   0.685   3.341   6.403 -2.0285 -0.4296  2.1828
 9268SOL    HW239441   0.673   3.242   6.294  1.8977  1.2515 -0.4484
 9269SOL     OW39442   3.098   3.067   8.583 -0.4742  0.0314  0.3730
 9269SOL    HW139443   3.048   2.986   8.590 -1.0892  0.3570 -0.2614
 9269SOL    HW239444   3.185   3.037   8.608 -0.4013 -0.9833 -1.1215
 9270SOL     OW39445   3.609   2.600   3.624 -0.3291 -0.2387 -0.7450
 9270SOL    HW139446   3.668   2.561   3.688 -0.1157  1.9760  0.3941
 9270SOL    HW239447   3.565   2.670   3.673  0.0721  0.2782 -1.1187
 9271SOL     OW39448   0.976   2.428  16.723  0.1417  0.6971 -0.5606
 9271SOL    HW139449   1.022   2.353  16.761 -0.5301  0.5441 -0.0482
 9271SOL    HW239450   0.883   2.421  16.744  0.3728 -0.6951 -0.0026
 9272SOL     OW39451   3.930   0.506  14.838  0.5187  0.0391  0.3149
 9272SOL    HW139452   3.887   0.590  14.853  0.7023  0.1306  0.3281
 9272SOL    HW239453   3.856   0.447  14.823  1.0196  0.3455 -3.3801
 9273SOL     OW39454   1.347   3.607   8.835 -0.0900  0.4450  0.3950
 9273SOL    HW139455   1.424   3.658   8.811  1.7225 -2.1744  0.6359
 9273SOL    HW239456   1.396   3.538   8.880 -0.7578 -1.6920 -2.1781
 9274SOL     OW39457   0.981   2.962   8.089 -0.0412  0.1135  0.0377
 9274SOL    HW139458   0.973   2.920   8.175 -0.3250 -0.3713 -0.2267
 9274SOL    HW239459   1.067   3.004   8.096 -0.9484  1.7472  1.5471
 9275SOL     OW39460   2.716   2.323   4.525  0.5025 -0.1761  0.1665
 9275SOL    HW139461   2.708   2.418   4.527 -0.7247 -0.2512 -1.1895
 9275SOL    HW239462   2.803   2.322   4.566  0.8563 -2.6515 -0.6388
 9276SOL     OW39463   2.967   4.313   2.127  0.2233 -0.0925 -0.4270
 9276SOL    HW139464   3.002   4.285   2.043 -0.0637  0.0621 -0.5988
 9276SOL    HW239465   2.947   4.405   2.106  2.9151  0.4758 -0.4813
 9277SOL     OW39466   3.032   1.806   2.456 -0.1918  0.8342  0.0102
 9277SOL    HW139467   2.955   1.818   2.401  0.7552  0.0314 -1.4973
 9277SOL    HW239468   3.021   1.719   2.494  1.6074  1.2532  1.5017
 9278SOL     OW39469   1.927   4.148  10.511 -0.0226 -0.3341 -0.1962
 9278SOL    HW139470   1.934   4.118  10.421 -1.8682  1.1647 -0.8375
 9278SOL    HW239471   2.019   4.143  10.539  0.5792  3.0796 -1.5535
 9279SOL     OW39472   3.420   1.630   9.121 -0.2818  0.2612  0.1392
 9279SOL    HW139473   3.488   1.675   9.071 -0.3853 -0.3787 -0.5671
 9279SOL    HW239474   3.445   1.658   9.209  1.3833 -2.7846  0.6149
 9280SOL     OW39475   2.952   1.274   8.818 -0.2745  0.1722 -0.0928
 9280SOL    HW139476   2.930   1.282   8.911 -0.8865  0.8112 -0.2863
 9280SOL    HW239477   3.047   1.266   8.810 -0.2135 -0.7248  1.4547
 9281SOL     OW39478   3.301   4.495   6.361 -0.6853  0.3080 -0.5777
 9281SOL    HW139479   3.381   4.479   6.412 -0.9337  1.3717  0.1273
 9281SOL    HW239480   3.269   4.577   6.397 -1.8427 -0.8217  1.0011
 9282SOL     OW39481   1.428   4.411   8.285  0.0930  0.4777 -0.2922
 9282SOL    HW139482   1.461   4.427   8.373 -1.1492 -1.0174  0.4175
 9282SOL    HW239483   1.510   4.409   8.234 -0.9519 -2.8238 -1.8446
 9283SOL     OW39484   3.850   0.439   0.334  0.1818 -0.4951 -0.3487
 9283SOL    HW139485   3.882   0.526   0.308  1.0287 -0.8587 -0.4999
 9283SOL    HW239486   3.868   0.392   0.253  1.6947  0.5092 -0.5933
 9284SOL     OW39487   3.267   0.444  17.071  0.2508 -0.2694 -0.0386
 9284SOL    HW139488   3.302   0.526  17.106 -1.2590  1.1156 -1.8035
 9284SOL    HW239489   3.271   0.380  17.142 -2.7651 -0.6104 -0.1757
 9285SOL     OW39490   2.363   0.990  10.463  0.0449 -0.0426  0.0471
 9285SOL    HW139491   2.320   1.054  10.518 -0.8545 -0.2816 -0.3791
 9285SOL    HW239492   2.295   0.978  10.397 -1.1958 -1.7523  1.6225
 9286SOL     OW39493   2.606   0.374   3.748  0.4223 -0.4370  0.1777
 9286SOL    HW139494   2.551   0.322   3.688 -0.3233 -0.8873  1.2611
 9286SOL    HW239495   2.690   0.366   3.703  0.5834 -0.2012  0.4376
 9287SOL     OW39496   1.685   2.980   1.286 -0.2897 -0.4808 -0.4293
 9287SOL    HW139497   1.589   2.980   1.287 -0.3061  0.9305 -3.1793
 9287SOL    HW239498   1.698   2.885   1.276  0.0555 -0.4243 -0.5109
 9288SOL     OW39499   0.724   1.045   7.314  0.2367  0.4930  0.5446
 9288SOL    HW139500   0.752   1.019   7.227 -0.2857 -4.3532  1.8353
 9288SOL    HW239501   0.809   1.054   7.358  0.4801 -1.8868  0.5358
 9289SOL     OW39502   3.462   2.129   1.711  0.1490 -0.4619  0.2049
 9289SOL    HW139503   3.480   2.038   1.737 -1.0745 -0.7221  0.1528
 9289SOL    HW239504   3.367   2.135   1.719  0.2460  0.5287  0.5940
 9290SOL     OW39505   0.582   1.798   2.403  0.3558 -0.4065 -0.1753
 9290SOL    HW139506   0.625   1.840   2.478 -2.2251  2.4576 -0.3277
 9290SOL    HW239507   0.488   1.805   2.421  0.7305  0.3191  1.5527
 9291SOL     OW39508   3.950   0.170   9.819 -0.7609  0.8496 -0.4108
 9291SOL    HW139509   3.855   0.179   9.829 -0.7534  2.6270 -1.9688
 9291SOL    HW239510   3.952   0.090   9.766  2.5613  0.4021  0.4182
 9292SOL     OW39511   0.214   1.283   7.767 -0.0583 -0.0386  0.2078
 9292SOL    HW139512   0.265   1.228   7.708 -1.3645  0.0702 -1.0263
 9292SOL    HW239513   0.222   1.246   7.855 -0.9607 -0.2890  0.1902
 9293SOL     OW39514   4.499   1.692   7.784 -0.3433  0.4487  0.4773
 9293SOL    HW139515   4.520   1.628   7.716 -0.1682  0.7548  0.2422
 9293SOL    HW239516   4.485   1.770   7.729 -0.8934 -1.0574 -1.4970
 9294SOL     OW39517   0.814   4.062  11.034  0.2308 -0.1661  0.3986
 9294SOL    HW139518   0.809   4.072  10.939  0.6278 -0.1242  0.3834
 9294SOL    HW239519   0.904   4.033  11.046  0.0285 -0.5199  1.0957
 9295SOL     OW39520   2.614   0.817   7.628  0.2625  0.1684 -0.4124
 9295SOL    HW139521   2.526   0.792   7.655  0.2869 -1.2987 -1.7169
 9295SOL    HW239522   2.653   0.731   7.612 -0.1060 -0.1928  0.6321
 9296SOL     OW39523   4.691   0.140   4.829 -0.6263 -0.4962 -0.3091
 9296SOL    HW139524   4.687   0.126   4.924  1.5543  2.3904  0.1983
 9296SOL    HW239525   4.672   0.055   4.789  2.1401 -1.3193  0.0778
 9297SOL     OW39526   1.800   3.629   5.501  0.3478  0.1782 -0.0189
 9297SOL    HW139527   1.885   3.672   5.508  0.6298 -0.0820 -2.0836
 9297SOL    HW239528   1.771   3.645   5.591  1.2534  0.8292  0.1508
 9298SOL     OW39529   2.117   0.735  15.211 -0.0062  0.3108  0.2418
 9298SOL    HW139530   2.180   0.741  15.139 -2.5451 -0.7243 -2.0482
 9298SOL    HW239531   2.159   0.675  15.273  0.0847  0.6940  0.5498
 9299SOL     OW39532   2.046   4.318   6.863  0.1992 -0.3480  0.3109
 9299SOL    HW139533   2.129   4.303   6.818 -0.3157 -0.5394 -0.5681
 9299SOL    HW239534   2.013   4.228   6.861 -0.0552 -0.2450 -0.2012
 9300SOL     OW39535   1.368   1.185   6.952  0.3928 -0.0911 -0.1850
 9300SOL    HW139536   1.400   1.171   7.041 -0.3877  0.2902  0.1549
 9300SOL    HW239537   1.448   1.215   6.908  1.7230  2.3622  3.8969
 9301SOL     OW39538   3.591   3.076   2.265 -0.0315  0.2036 -0.0579
 9301SOL    HW139539   3.665   3.072   2.203 -0.3207  1.0104 -0.4590
 9301SOL    HW239540   3.612   3.153   2.318  0.9354  1.4916 -2.3094
 9302SOL     OW39541   3.106   0.429   3.450  0.0681 -0.0182  0.2382
 9302SOL    HW139542   3.092   0.390   3.537  1.6351 -0.5675  0.2405
 9302SOL    HW239543   3.084   0.520   3.469 -0.4762  0.0391 -0.6964
 9303SOL     OW39544   0.083   3.691   5.295 -0.2208 -0.0538  0.1452
 9303SOL    HW139545   0.124   3.612   5.259  1.3961  1.1716 -0.7489
 9303SOL    HW239546   0.141   3.760   5.261  0.6576 -0.8295  0.0923
 9304SOL     OW39547   1.279   4.324   2.856 -0.5173  0.3558 -0.0695
 9304SOL    HW139548   1.300   4.285   2.772 -1.9975  1.0762 -0.7740
 9304SOL    HW239549   1.368   4.345   2.884  0.7307 -0.7734 -3.2037
 9305SOL     OW39550   3.143   1.875   7.009 -0.3871 -0.3141 -0.3938
 9305SOL    HW139551   3.071   1.920   6.965  0.0764  0.9795  0.1488
 9305SOL    HW239552   3.163   1.809   6.943  1.5333  1.1796 -1.2942
 9306SOL     OW39553   3.473   1.127   6.622  0.4122 -0.2524 -0.2791
 9306SOL    HW139554   3.551   1.181   6.635 -1.2413  1.9139  0.7195
 9306SOL    HW239555   3.444   1.103   6.710  0.7970 -0.3641 -0.1845
 9307SOL     OW39556   2.301   2.717   5.126  0.3634 -0.6628  0.0328
 9307SOL    HW139557   2.389   2.735   5.094  0.4285  0.3959  0.8353
 9307SOL    HW239558   2.257   2.706   5.041  1.0920  0.2276 -0.4528
 9308SOL     OW39559   3.368   1.061   2.374 -0.0173 -0.2691  0.1927
 9308SOL    HW139560   3.372   1.128   2.442  1.3743 -1.0418  0.8665
 9308SOL    HW239561   3.461   1.055   2.352 -0.3039  1.8012 -1.5818
 9309SOL     OW39562   2.957   4.479   7.755 -0.2636 -0.0388  0.2539
 9309SOL    HW139563   2.886   4.529   7.795 -0.8404  0.5202 -1.4721
 9309SOL    HW239564   2.951   4.517   7.667  0.6869  0.7701  0.5323
 9310SOL     OW39565   4.360   3.731   2.735  0.3604  0.9385 -0.1103
 9310SOL    HW139566   4.297   3.719   2.806 -0.9243  0.2343 -1.3607
 9310SOL    HW239567   4.416   3.798   2.774  0.4893  1.8058 -1.8158
 9311SOL     OW39568   1.140   0.692   3.697 -0.8545 -0.4781 -0.0495
 9311SOL    HW139569   1.081   0.765   3.713  0.8338  0.8879 -0.0241
 9311SOL    HW239570   1.074   0.624   3.687 -1.2735  0.0016 -0.5549
 9312SOL     OW39571   3.644   3.332   5.811  0.5767 -0.2191 -1.0693
 9312SOL    HW139572   3.581   3.403   5.811 -0.6131 -1.2908  0.9287
 9312SOL    HW239573   3.593   3.267   5.763 -0.6754  0.2644 -0.3907
 9313SOL     OW39574   1.732   1.293   8.029  0.0315  0.1944  0.5750
 9313SOL    HW139575   1.708   1.385   8.016 -2.1247 -0.6811 -1.6282
 9313SOL    HW239576   1.688   1.273   8.112  1.0829  1.5067  1.4311
 9314SOL     OW39577   2.864   2.204  10.786 -0.2088  0.2264  0.6135
 9314SOL    HW139578   2.953   2.171  10.801 -0.1973  0.5534  1.2975
 9314SOL    HW239579   2.867   2.215  10.691 -0.8836  2.0166  0.7925
 9315SOL     OW39580   2.227   2.057   4.628  0.2553  0.5838 -0.2614
 9315SOL    HW139581   2.309   2.097   4.599 -0.6975  3.8354  1.5401
 9315SOL    HW239582   2.217   1.997   4.554 -0.2744 -0.5680  0.7491
 9316SOL     OW39583   1.797   2.885   6.991  0.2112 -0.4063  0.6550
 9316SOL    HW139584   1.753   2.968   6.972  1.0533  0.3409  2.0197
 9316SOL    HW239585   1.749   2.823   6.936 -1.5422 -0.8430  2.6637
 9317SOL     OW39586   3.974   3.327  13.422  0.0423  0.5852 -0.0385
 9317SOL    HW139587   3.985   3.419  13.399 -2.0563  1.2022  1.3265
 9317SOL    HW239588   4.064   3.297  13.411 -0.4982 -2.2315  2.8394
 9318SOL     OW39589   0.740   0.250   5.386 -0.0995 -0.0106  0.0132
 9318SOL    HW139590   0.713   0.215   5.471  1.4935  0.3945  0.6814
 9318SOL    HW239591   0.663   0.239   5.329 -1.1311  0.1011  1.3728
 9319SOL     OW39592   4.554   1.969   2.033  0.4542  0.2219 -0.4768
 9319SOL    HW139593   4.501   1.943   1.957  1.0696  1.6720 -1.3952
 9319SOL    HW239594   4.642   1.933   2.035 -0.6681 -2.4635  1.3131
 9320SOL     OW39595   3.190   2.239   5.792  0.2691 -0.4520  0.5142
 9320SOL    HW139596   3.122   2.248   5.859 -0.1159 -1.1511  0.2155
 9320SOL    HW239597   3.213   2.328   5.766  1.8182 -1.0386 -0.1365
 9321SOL     OW39598   3.465   2.177   4.947  0.3644  0.0121 -0.0369
 9321SOL    HW139599   3.495   2.191   5.037  2.6103 -2.0320 -0.4552
 9321SOL    HW239600   3.375   2.199   4.971  0.3313  0.6402 -0.7369
 9322SOL     OW39601   2.694   4.634   1.594  0.2528  0.4477  0.2399
 9322SOL    HW139602   2.643   4.563   1.555 -2.6547  2.4909  0.3048
 9322SOL    HW239603   2.735   4.575   1.657 -0.4719 -0.3509 -0.0413
 9323SOL     OW39604   3.384   0.991   1.191 -0.0105  0.0533  0.4742
 9323SOL    HW139605   3.419   1.056   1.252  0.1685 -1.0119  1.5268
 9323SOL    HW239606   3.294   1.024   1.197  0.0670 -0.0706  2.5606
 9324SOL     OW39607   1.275   4.042   5.521 -0.7890  0.6325 -0.5523
 9324SOL    HW139608   1.210   4.090   5.572  0.7864  0.7538  1.3353
 9324SOL    HW239609   1.347   4.064   5.580 -1.3964 -0.5353  0.6297
 9325SOL     OW39610   2.158   2.812  17.418 -0.3508 -0.3844  0.4638
 9325SOL    HW139611   2.153   2.732  17.470  1.3888 -0.6202  0.3000
 9325SOL    HW239612   2.253   2.825  17.416 -0.4308  0.0859 -0.3579
 9326SOL     OW39613   4.549   3.647   9.147  0.2786  0.3340 -0.3658
 9326SOL    HW139614   4.584   3.558   9.154  1.9868  1.1354  1.1233
 9326SOL    HW239615   4.508   3.645   9.233  0.9968  1.7024  0.0069
 9327SOL     OW39616   3.301   2.195   5.443 -0.0629  0.2820 -0.3286
 9327SOL    HW139617   3.220   2.148   5.464  1.4607 -1.6162  1.2658
 9327SOL    HW239618   3.367   2.141   5.486  0.1836  0.9616  0.1490
 9328SOL     OW39619   2.924   2.495   5.299 -0.2086 -0.2719 -0.0525
 9328SOL    HW139620   2.973   2.468   5.221  3.2471  1.4115  1.5212
 9328SOL    HW239621   2.944   2.421   5.356 -1.8743 -1.0484 -0.4761
 9329SOL     OW39622   4.433   1.104   9.162 -0.3935  0.4963 -0.3509
 9329SOL    HW139623   4.428   1.199   9.172 -1.0954  0.3350  0.6922
 9329SOL    HW239624   4.349   1.081   9.201 -0.2147  0.0067 -0.2512
 9330SOL     OW39625   0.816   3.559   2.527 -0.5336  0.0304  0.3249
 9330SOL    HW139626   0.863   3.637   2.498  2.9606 -2.0019  0.4933
 9330SOL    HW239627   0.739   3.600   2.565 -1.4604 -1.6817  0.2971
 9331SOL     OW39628   0.759   2.464   4.783 -0.2075  0.0407  0.1877
 9331SOL    HW139629   0.673   2.482   4.819  0.2856 -0.2804  1.5300
 9331SOL    HW239630   0.765   2.370   4.766 -0.9345  0.1658 -0.7715
 9332SOL     OW39631   2.843   4.140   9.809 -0.2387  0.2758 -0.0991
 9332SOL    HW139632   2.930   4.161   9.775 -0.6408  0.1056 -1.2401
 9332SOL    HW239633   2.790   4.131   9.730 -1.1475  0.4889  0.4937
 9333SOL     OW39634   3.412   0.752   5.532  0.3909  0.4501  0.4390
 9333SOL    HW139635   3.421   0.767   5.437 -3.1367  1.2475  0.2430
 9333SOL    HW239636   3.467   0.677   5.555  1.0051  0.6675 -0.2995
 9334SOL     OW39637   0.468   1.603   9.483 -0.0757 -0.1847 -0.0022
 9334SOL    HW139638   0.439   1.513   9.501 -1.5573 -0.0342 -1.7209
 9334SOL    HW239639   0.490   1.628   9.573 -1.8843 -2.0353  0.9604
 9335SOL     OW39640   0.553   0.670   1.540 -0.0720  0.0355  0.2225
 9335SOL    HW139641   0.532   0.747   1.593 -3.2022  0.4467 -1.6469
 9335SOL    HW239642   0.595   0.710   1.463 -0.6779 -1.5869 -0.9534
 9336SOL     OW39643   4.182   3.487   6.105  0.3484  0.0661 -0.1729
 9336SOL    HW139644   4.252   3.542   6.139 -1.8640  2.6282  0.3198
 9336SOL    HW239645   4.219   3.436   6.033  3.4970 -0.3278  1.7266
 9337SOL     OW39646   2.858   3.738   5.504 -0.2219 -0.5781 -0.0701
 9337SOL    HW139647   2.906   3.691   5.571 -1.0566 -1.5045 -0.1135
 9337SOL    HW239648   2.876   3.682   5.428  0.8395  0.3956 -0.5220
 9338SOL     OW39649   3.865   4.057   0.317  0.5671 -0.0663  0.7286
 9338SOL    HW139650   3.801   3.988   0.299 -0.0558  1.0503 -1.3250
 9338SOL    HW239651   3.826   4.133   0.272  0.7958  0.4751  1.4321
 9339SOL     OW39652   4.485   0.447   6.393 -0.4601  0.6315  0.4349
 9339SOL    HW139653   4.497   0.541   6.408  1.4734  0.5106 -0.3741
 9339SOL    HW239654   4.442   0.451   6.308  0.9112 -1.5965 -0.3604
 9340SOL     OW39655   2.780   2.628  13.932  0.5853  0.3329 -0.6241
 9340SOL    HW139656   2.766   2.722  13.943 -1.8248 -0.0559 -0.2143
 9340SOL    HW239657   2.696   2.582  13.940  0.2598  1.1055  0.3167
 9341SOL     OW39658   3.612   2.726  10.594  0.1983 -0.0338 -0.4650
 9341SOL    HW139659   3.626   2.805  10.541 -1.5819  1.4412  1.2860
 9341SOL    HW239660   3.522   2.734  10.626  1.1905 -1.8555  2.7783
 9342SOL     OW39661   0.038   2.236   3.158  0.2350 -0.0451 -0.2456
 9342SOL    HW139662   4.722   2.184   3.218 -0.6037  0.4556 -0.5611
 9342SOL    HW239663   0.059   2.310   3.216  0.0873  1.5048 -2.1684
 9343SOL     OW39664   3.671   1.249   4.118 -0.1169  0.0957  0.1706
 9343SOL    HW139665   3.670   1.154   4.101 -2.9623  0.4531 -1.5384
 9343SOL    HW239666   3.577   1.258   4.130 -0.5808 -2.5476 -1.5293
 9344SOL     OW39667   3.189   1.387   2.380  0.0752 -0.1444  0.3492
 9344SOL    HW139668   3.163   1.414   2.468 -0.8502  0.7095 -0.1810
 9344SOL    HW239669   3.231   1.306   2.408  0.8965  0.0367 -0.4007
 9345SOL     OW39670   4.088   1.966   2.911  0.6261 -0.0446  0.4205
 9345SOL    HW139671   4.149   1.923   2.971  1.1857 -0.0660 -0.1636
 9345SOL    HW239672   4.113   1.926   2.828  0.5306 -1.6279  1.1575
 9346SOL     OW39673   0.147   1.257   5.282  0.0896 -0.0322 -0.5305
 9346SOL    HW139674   0.078   1.285   5.342 -0.6659 -0.7657 -1.0701
 9346SOL    HW239675   0.209   1.219   5.344 -0.5880  0.7070  0.5964
 9347SOL     OW39676   1.227   2.361  16.573  0.4645 -0.0501 -0.5696
 9347SOL    HW139677   1.143   2.404  16.587  0.6341  0.7614 -1.9781
 9347SOL    HW239678   1.294   2.427  16.589 -0.0943  0.5690 -0.7798
 9348SOL     OW39679   0.349   0.487   6.140 -0.5253 -0.1378 -0.2469
 9348SOL    HW139680   0.343   0.531   6.055  0.8697 -0.5308 -0.5567
 9348SOL    HW239681   0.402   0.543   6.197  0.5665 -0.4443 -0.9387
 9349SOL     OW39682   3.427   0.816   3.430  0.2966  0.2604  0.2595
 9349SOL    HW139683   3.391   0.829   3.518 -1.1051  0.2062 -0.2973
 9349SOL    HW239684   3.343   0.798   3.387 -1.5749  1.3099  3.4205
 9350SOL     OW39685   0.818   3.519  12.479 -0.0704 -0.2141 -0.1261
 9350SOL    HW139686   0.730   3.503  12.515  0.5184 -0.4147  1.2216
 9350SOL    HW239687   0.799   3.576  12.405 -2.6678  0.7738  1.2814
 9351SOL     OW39688   3.407   2.049   0.554 -0.4407 -0.1012  0.1483
 9351SOL    HW139689   3.412   2.132   0.600  0.1758 -0.5837  0.9536
 9351SOL    HW239690   3.349   2.055   0.478 -0.2863  0.9047  0.1088
 9352SOL     OW39691   4.709   2.503   4.066  0.0734  0.6694 -0.3296
 9352SOL    HW139692   4.626   2.537   4.033 -1.3421 -1.0526  1.4834
 9352SOL    HW239693   4.689   2.415   4.097  0.0734  1.2619  1.3336
 9353SOL     OW39694   1.834   4.002  14.363 -0.4255  0.6725  1.0975
 9353SOL    HW139695   1.908   4.061  14.350  2.3590 -2.4419  2.9390
 9353SOL    HW239696   1.882   3.930  14.405 -1.7512 -0.5677  0.4693
 9354SOL     OW39697   0.846   2.707   6.388 -0.2018 -0.2655  0.1000
 9354SOL    HW139698   0.843   2.801   6.403  0.9187 -0.0196 -1.1930
 9354SOL    HW239699   0.846   2.708   6.292  0.1293 -0.7328  0.0931
 9355SOL     OW39700   0.013   4.489   3.485  0.1097  0.5884 -0.6891
 9355SOL    HW139701   0.001   4.474   3.391 -0.6405  0.3479 -0.5526
 9355SOL    HW239702   4.702   4.571   3.495 -1.6006 -0.7028  1.4720
 9356SOL     OW39703   2.389   3.241  14.728  0.0322 -0.3070  0.3913
 9356SOL    HW139704   2.416   3.213  14.640 -0.3881 -1.3904  0.6159
 9356SOL    HW239705   2.403   3.160  14.776  0.7391  0.5990  1.7085
 9357SOL     OW39706   0.954   4.592   9.437 -0.1797  0.2116  0.3408
 9357SOL    HW139707   0.886   4.658   9.449 -0.7866 -0.1101 -1.3134
 9357SOL    HW239708   0.908   4.514   9.469 -0.3584 -0.0233 -0.4760
 9358SOL     OW39709   1.947   1.963   6.543 -0.2116  0.1790  0.0533
 9358SOL    HW139710   1.898   2.023   6.599  1.7906  1.1801  0.7379
 9358SOL    HW239711   1.923   1.879   6.581  2.5399  0.1472  1.6920
 9359SOL     OW39712   3.281   4.024   7.650 -0.3815 -0.0541 -0.1961
 9359SOL    HW139713   3.259   4.117   7.644  2.1773  0.5309 -0.5553
 9359SOL    HW239714   3.226   3.992   7.579 -2.2571  1.0229  0.7358
 9360SOL     OW39715   1.614   1.696   5.922  1.0254  0.2044  0.6910
 9360SOL    HW139716   1.626   1.605   5.948 -2.5518  0.0059  1.6121
 9360SOL    HW239717   1.675   1.747   5.974 -0.0566  1.6196  0.5838
 9361SOL     OW39718   0.186   4.231   3.112 -0.7026 -0.4168 -0.1619
 9361SOL    HW139719   0.262   4.190   3.155  1.7807  0.0491 -4.1538
 9361SOL    HW239720   0.174   4.183   3.030 -2.2609  2.6129 -1.6819
 9362SOL     OW39721   2.556   3.120   7.656  0.3847  0.0508 -0.1215
 9362SOL    HW139722   2.508   3.109   7.574  0.8350  1.5468 -0.6036
 9362SOL    HW239723   2.643   3.139   7.621  0.0827 -0.9557 -1.4049
 9363SOL     OW39724   3.210   1.877   9.469  0.0783 -0.0368 -0.9175
 9363SOL    HW139725   3.119   1.905   9.483 -0.4628 -3.1652  2.0327
 9363SOL    HW239726   3.234   1.966   9.446 -2.2869  0.0132 -3.3280
 9364SOL     OW39727   0.344   2.731   4.367  0.0696  0.4472 -0.1506
 9364SOL    HW139728   0.269   2.786   4.388 -0.8610 -0.5538 -0.8397
 9364SOL    HW239729   0.409   2.793   4.334  0.6301  0.1300  0.3686
 9365SOL     OW39730   1.919   4.575   2.162 -0.3227 -0.4366 -0.1560
 9365SOL    HW139731   1.916   4.480   2.151 -0.9398 -0.4269 -0.0629
 9365SOL    HW239732   2.013   4.590   2.170 -0.6588  0.2656  2.5266
 9366SOL     OW39733   0.936   1.537   3.586 -0.2604 -0.1810  0.1013
 9366SOL    HW139734   0.950   1.443   3.570 -1.1124 -0.5944  1.8662
 9366SOL    HW239735   0.851   1.543   3.629 -0.9236 -3.5190 -0.6785
 9367SOL     OW39736   1.815   2.042  11.736  0.2886 -0.0588  0.1269
 9367SOL    HW139737   1.829   1.962  11.787 -1.2550  0.1460  0.8540
 9367SOL    HW239738   1.855   2.102  11.799  0.5266 -0.0520 -0.0303
 9368SOL     OW39739   0.437   0.223  12.608  0.2114 -0.5636 -0.1299
 9368SOL    HW139740   0.344   0.206  12.620  0.2795 -0.3088  0.7990
 9368SOL    HW239741   0.469   0.165  12.677 -1.5518 -0.1341  1.0494
 9369SOL     OW39742   3.826   2.507   5.838  0.3063 -0.3705 -0.7088
 9369SOL    HW139743   3.826   2.533   5.746 -2.3883 -0.1346 -0.6468
 9369SOL    HW239744   3.828   2.591   5.882  0.1083 -0.9999  0.5002
 9370SOL     OW39745   2.671   1.436   6.815  0.3717 -0.1678 -0.5052
 9370SOL    HW139746   2.709   1.354   6.849  2.0143  0.6785 -0.2857
 9370SOL    HW239747   2.618   1.406   6.741  0.8142 -1.2991 -0.3632
 9371SOL     OW39748   3.912   2.102   3.369 -0.1833 -0.2329  0.0016
 9371SOL    HW139749   3.976   2.061   3.311  1.5137  0.1888  1.5823
 9371SOL    HW239750   3.945   2.190   3.353  0.0513  0.1210  2.3365
 9372SOL     OW39751   0.470   0.113  11.323  0.2006 -0.2083  0.1320
 9372SOL    HW139752   0.442   0.070  11.404 -0.5746 -0.1267 -0.0919
 9372SOL    HW239753   0.564   0.100  11.329 -0.0766 -3.1694 -1.7122
 9373SOL     OW39754   1.941   4.065   6.805  0.2457 -0.0973  0.3077
 9373SOL    HW139755   1.884   4.029   6.737  2.8354 -0.0219 -1.9342
 9373SOL    HW239756   1.926   4.006   6.878  0.9334 -1.7581 -0.9082
 9374SOL     OW39757   4.569   4.552   2.744 -0.6468  0.0994 -0.1224
 9374SOL    HW139758   4.646   4.555   2.800 -0.3064  0.9913 -0.6389
 9374SOL    HW239759   4.551   4.646   2.737  0.4095  0.1783 -1.9313
 9375SOL     OW39760   2.370   1.581   4.916  0.6868 -0.0223  0.1211
 9375SOL    HW139761   2.276   1.570   4.927  0.7844 -0.0471  0.9821
 9375SOL    HW239762   2.374   1.676   4.904  1.6231  0.0107  0.6272
 9376SOL     OW39763   2.786   3.132   4.138 -0.0574  0.3233  0.4495
 9376SOL    HW139764   2.858   3.186   4.106 -0.2533  0.5697  0.4287
 9376SOL    HW239765   2.805   3.145   4.230  1.4355  0.4460  0.1249
 9377SOL     OW39766   0.090   2.185   1.883  0.1613 -0.2688 -0.6104
 9377SOL    HW139767   0.118   2.269   1.847  1.9483 -0.8317 -0.5640
 9377SOL    HW239768   0.024   2.212   1.947  0.5735  1.0458 -0.7470
 9378SOL     OW39769   2.723   3.222  11.304 -0.7071  0.3620  0.2897
 9378SOL    HW139770   2.715   3.127  11.311  0.1105  0.3078  0.5391
 9378SOL    HW239771   2.633   3.251  11.292 -1.7732 -2.7637  0.7868
 9379SOL     OW39772   0.316   4.018   4.293  0.7891  0.4873 -0.1131
 9379SOL    HW139773   0.329   4.038   4.200 -2.6636  1.4097 -0.3799
 9379SOL    HW239774   0.237   4.067   4.314  0.4482 -0.5319  1.0107
 9380SOL     OW39775   0.346   2.233   2.726  0.3748 -0.4712 -0.5908
 9380SOL    HW139776   0.350   2.138   2.723  3.0932 -0.3132 -1.8392
 9380SOL    HW239777   0.323   2.246   2.818  0.3575  2.4735 -1.0091
 9381SOL     OW39778   0.685   3.705   1.237 -0.3356  0.4843 -0.0017
 9381SOL    HW139779   0.765   3.723   1.186 -0.0331 -0.4100  0.1663
 9381SOL    HW239780   0.668   3.615   1.210  1.8085  0.4799 -1.4130
 9382SOL     OW39781   2.609   4.154   5.474  0.4424  0.2157 -0.7384
 9382SOL    HW139782   2.565   4.133   5.557 -0.1856  1.9162 -0.6425
 9382SOL    HW239783   2.605   4.249   5.476  2.4027  0.3404 -2.2777
 9383SOL     OW39784   2.896   3.083   1.858 -0.6589 -0.7158 -0.9603
 9383SOL    HW139785   2.992   3.080   1.853 -0.6476  0.8894 -1.6686
 9383SOL    HW239786   2.883   2.994   1.890  3.0308 -1.6285 -1.9554
 9384SOL     OW39787   0.553   3.536   4.923 -0.4960  0.2677  0.0642
 9384SOL    HW139788   0.599   3.456   4.946  1.2504  1.0424 -0.7652
 9384SOL    HW239789   0.500   3.555   5.001 -0.4918  0.7372 -0.0478
 9385SOL     OW39790   3.110   2.525   9.101 -0.3161 -0.1316 -0.3583
 9385SOL    HW139791   3.074   2.454   9.154  1.7599 -0.5109  0.5477
 9385SOL    HW239792   3.071   2.605   9.136  1.7438 -0.5126  2.8331
 9386SOL     OW39793   1.596   1.105   3.441 -0.0326 -0.3406 -0.4130
 9386SOL    HW139794   1.651   1.027   3.447 -0.4276 -0.6480 -0.8445
 9386SOL    HW239795   1.654   1.182   3.444 -1.5925  0.8500 -0.8761
 9387SOL     OW39796   1.866   0.363   0.826  0.4092 -0.0033 -0.3886
 9387SOL    HW139797   1.790   0.404   0.785  0.9383  0.0425 -1.3142
 9387SOL    HW239798   1.902   0.311   0.755  2.3022  2.3949 -1.1805
 9388SOL     OW39799   2.025   2.957   7.475  0.3033 -0.6526  0.0484
 9388SOL    HW139800   2.111   2.930   7.442  0.6314  1.3711 -0.7569
 9388SOL    HW239801   1.981   2.874   7.458  2.3736 -1.7067 -0.2192
 9389SOL     OW39802   3.330   2.245   2.523 -0.1955 -0.6697  0.3658
 9389SOL    HW139803   3.325   2.230   2.617 -1.0772 -2.2408  0.0631
 9389SOL    HW239804   3.251   2.192   2.508 -1.6659  1.2879  1.2102
 9390SOL     OW39805   3.248   4.253   4.786  0.6861  0.4491 -0.1806
 9390SOL    HW139806   3.302   4.321   4.746 -0.3235  0.2105 -1.9583
 9390SOL    HW239807   3.300   4.175   4.765  0.3495  0.5441 -1.3493
 9391SOL     OW39808   0.034   0.871  11.295  0.2170  0.5671 -0.5427
 9391SOL    HW139809   0.087   0.941  11.333  1.0314  0.6005 -1.7430
 9391SOL    HW239810   4.695   0.917  11.260 -0.1159  1.3703  1.2509
 9392SOL     OW39811   1.685   4.510   7.309 -0.1661 -0.1321 -0.1279
 9392SOL    HW139812   1.610   4.567   7.323  0.2121  0.1297  0.8783
 9392SOL    HW239813   1.701   4.486   7.401  1.5231 -3.1321 -1.2121
 9393SOL     OW39814   0.833   0.489   0.920  0.2985  0.7138 -0.4062
 9393SOL    HW139815   0.906   0.551   0.928 -0.5633  1.5108  1.2175
 9393SOL    HW239816   0.872   0.424   0.861  0.1170  0.4686 -0.2547
 9394SOL     OW39817   1.760   4.613   7.607 -0.3431  0.2474 -0.2414
 9394SOL    HW139818   1.675   4.575   7.628 -1.4991  3.6098  1.1123
 9394SOL    HW239819   1.820   4.565   7.663 -2.2367  0.4280  1.9144
 9395SOL     OW39820   2.868   4.404   6.213  0.2805 -0.2036 -0.1636
 9395SOL    HW139821   2.885   4.483   6.162  0.3677 -0.6177 -0.7769
 9395SOL    HW239822   2.903   4.435   6.296 -0.7280 -2.4560  1.1006
 9396SOL     OW39823   1.837   3.729   6.708 -0.0909  0.1750 -0.1403
 9396SOL    HW139824   1.830   3.810   6.658  2.8789  1.0801  0.8684
 9396SOL    HW239825   1.815   3.758   6.797 -2.1349 -0.6815 -0.3867
 9397SOL     OW39826   4.469   2.991   5.450  0.0447  0.1017  0.2356
 9397SOL    HW139827   4.556   2.953   5.464  0.7223  1.3894 -0.4602
 9397SOL    HW239828   4.419   2.916   5.484 -1.3350  1.5510  1.3702
 9398SOL     OW39829   4.730   0.015  10.947 -0.3914 -0.1930  0.2176
 9398SOL    HW139830   0.079   4.711  10.952  0.8163  2.2446 -0.4418
 9398SOL    HW239831   4.687   4.689  11.005 -1.4094  0.9052  0.6615
 9399SOL     OW39832   3.831   2.616   7.801  0.0106 -0.1200  0.1811
 9399SOL    HW139833   3.797   2.582   7.718  0.5347  2.5597 -1.1315
 9399SOL    HW239834   3.917   2.647   7.770  0.4772 -1.5665 -0.0024
 9400SOL     OW39835   3.042   0.696  10.699  0.7512 -0.1025 -0.1944
 9400SOL    HW139836   2.965   0.714  10.753  0.4362 -2.6038  0.1929
 9400SOL    HW239837   3.088   0.780  10.703  1.0247 -0.1965 -1.3178
 9401SOL     OW39838   4.204   3.279   8.291 -0.1532 -0.1429  0.1957
 9401SOL    HW139839   4.256   3.358   8.272  1.0879 -0.8325  0.7209
 9401SOL    HW239840   4.198   3.239   8.204  0.8258  1.9682 -0.8639
 9402SOL     OW39841   1.862   0.235  11.336  0.5255  0.6591  0.0350
 9402SOL    HW139842   1.918   0.158  11.322  1.1488  0.6037  2.7888
 9402SOL    HW239843   1.776   0.204  11.306  0.6823 -0.3352  0.5972
 9403SOL     OW39844   4.579   3.494  12.791 -0.3854  0.6054 -0.2361
 9403SOL    HW139845   4.610   3.466  12.877  0.6822  1.5252 -0.3144
 9403SOL    HW239846   4.647   3.454  12.735  0.1247 -0.4757  1.1660
 9404SOL     OW39847   2.678   0.194  11.636 -0.1337  0.1194 -0.1697
 9404SOL    HW139848   2.590   0.168  11.663 -1.4797  3.5637 -1.2169
 9404SOL    HW239849   2.732   0.130  11.682  0.4248  0.1274 -0.8153
 9405SOL     OW39850   4.612   0.698  12.257  0.2999 -1.0506 -0.1485
 9405SOL    HW139851   4.559   0.721  12.181 -1.5295  1.6941  1.9502
 9405SOL    HW239852   4.697   0.733  12.229  1.1506 -0.3295  3.3297
 9406SOL     OW39853   3.435   0.421   3.700 -0.1784  0.2204 -0.4745
 9406SOL    HW139854   3.495   0.381   3.763 -0.0963  0.5687 -0.3325
 9406SOL    HW239855   3.479   0.493   3.656 -0.6037 -0.6974 -2.3893
 9407SOL     OW39856   0.594   0.391   7.895  0.0020  0.0226  0.0812
 9407SOL    HW139857   0.505   0.424   7.881  0.0287 -0.1056 -0.3863
 9407SOL    HW239858   0.606   0.328   7.824 -0.3757 -1.1304  1.0515
 9408SOL     OW39859   0.870   0.483   2.971 -0.6443  0.5444  0.0508
 9408SOL    HW139860   0.894   0.415   2.909  1.2030  0.2001  1.1479
 9408SOL    HW239861   0.951   0.527   2.997 -1.0162  1.3360 -0.1211
 9409SOL     OW39862   0.828   2.403   7.720  0.4775  0.0953  0.2739
 9409SOL    HW139863   0.886   2.335   7.755  0.0008 -0.0473  0.7906
 9409SOL    HW239864   0.883   2.465   7.673 -2.1053  1.5990 -0.7601
 9410SOL     OW39865   2.486   0.336   2.926 -0.0082  0.1502  0.5064
 9410SOL    HW139866   2.405   0.304   2.886  0.7358  0.8195 -1.5605
 9410SOL    HW239867   2.520   0.259   2.971 -0.7452 -0.5196 -0.0714
 9411SOL     OW39868   1.513   1.226   2.401  0.3373  0.3135 -0.1779
 9411SOL    HW139869   1.497   1.292   2.469 -0.0145 -0.6037  0.6292
 9411SOL    HW239870   1.425   1.197   2.378  1.1033 -1.4693 -0.8197
 9412SOL     OW39871   0.264   4.040  15.529 -0.3784  0.3494  0.1441
 9412SOL    HW139872   0.335   4.007  15.583 -2.6293 -1.9269  1.6929
 9412SOL    HW239873   0.191   3.989  15.564 -0.2059 -1.6374 -2.3286
 9413SOL     OW39874   3.112   2.029   0.396  0.5228  0.0429  0.2394
 9413SOL    HW139875   3.038   2.029   0.336 -0.5440  1.6867  1.5319
 9413SOL    HW239876   3.081   2.102   0.450 -0.2549 -0.2800  0.2272
 9414SOL     OW39877   2.659   3.211  15.819  0.3996  0.7276  0.6674
 9414SOL    HW139878   2.692   3.126  15.790 -0.3209  0.9125 -0.7063
 9414SOL    HW239879   2.740   3.259  15.805 -0.1119  1.6249  0.7675
 9415SOL     OW39880   3.764   4.260   7.499  0.4991  0.1763  0.8482
 9415SOL    HW139881   3.689   4.311   7.468 -1.1413 -0.5564  3.5039
 9415SOL    HW239882   3.757   4.187   7.438 -2.2337  0.5954  0.6517
 9416SOL     OW39883   4.306   0.317  17.142 -0.2437 -0.7136 -0.3765
 9416SOL    HW139884   4.274   0.337  17.054  3.0546 -0.8089 -1.5919
 9416SOL    HW239885   4.319   0.406  17.175 -0.1923 -1.6604  2.1565
 9417SOL     OW39886   0.769   4.118  10.297 -0.0010 -0.1267 -0.7109
 9417SOL    HW139887   0.841   4.056  10.284 -0.2102  0.1499 -3.1082
 9417SOL    HW239888   0.709   4.052  10.332  1.7238 -1.2433  0.1493
 9418SOL     OW39889   2.892   4.655   8.085  0.3857  0.0777 -0.5121
 9418SOL    HW139890   2.956   4.693   8.145 -1.2313  0.6302  0.8675
 9418SOL    HW239891   2.890   4.718   8.014 -0.0707  1.1279  0.4432
 9419SOL     OW39892   3.589   1.457  14.999 -0.7613 -0.1830 -0.1834
 9419SOL    HW139893   3.679   1.490  14.998 -1.1155  0.7400 -1.0511
 9419SOL    HW239894   3.565   1.463  15.092  0.4269  0.6463  0.0642
 9420SOL     OW39895   4.168   2.630   5.454 -0.3203  0.4639  0.5203
 9420SOL    HW139896   4.130   2.710   5.417 -0.0552  0.4423  0.1997
 9420SOL    HW239897   4.119   2.631   5.536  0.3751 -1.7243  0.9809
 9421SOL     OW39898   2.982   1.226   2.263 -0.1834  0.0040 -0.4162
 9421SOL    HW139899   3.038   1.303   2.277 -2.0622  1.3295 -0.2460
 9421SOL    HW239900   2.916   1.231   2.332  0.2472  0.4737 -0.0369
 9422SOL     OW39901   2.152   2.577   4.605  0.0106  0.1530 -0.4588
 9422SOL    HW139902   2.213   2.588   4.532  0.6772 -2.9585 -0.4130
 9422SOL    HW239903   2.104   2.659   4.604  1.4899  1.0361  0.5116
 9423SOL     OW39904   2.887   2.492  16.426  0.3947  0.4281  0.1421
 9423SOL    HW139905   2.849   2.574  16.456 -1.9482 -0.0961 -1.4204
 9423SOL    HW239906   2.863   2.437  16.501  1.2855  1.8052  1.4439
 9424SOL     OW39907   3.993   0.938   1.918  0.0590 -0.0116 -0.0557
 9424SOL    HW139908   4.015   1.030   1.905  0.0726  0.1495  1.0914
 9424SOL    HW239909   4.026   0.927   2.007 -0.6416  0.8568  0.3196
 9425SOL     OW39910   2.256   3.412  11.335  0.3541 -0.3168 -0.4333
 9425SOL    HW139911   2.332   3.388  11.282 -0.0947 -0.0819 -1.1842
 9425SOL    HW239912   2.212   3.327  11.331  0.3618 -0.2619 -1.9065
 9426SOL     OW39913   1.324   1.659   9.785 -0.0869  0.3388 -0.2969
 9426SOL    HW139914   1.403   1.613   9.755 -1.4681 -1.0853 -1.7274
 9426SOL    HW239915   1.323   1.616   9.871 -0.4494  0.9986  0.0232
 9427SOL     OW39916   0.281   3.867  15.976  0.0313  0.1452  0.4357
 9427SOL    HW139917   0.289   3.950  16.023  1.0327  0.1470  0.2670
 9427SOL    HW239918   0.197   3.881  15.932  1.1633  1.3081 -1.3676
 9428SOL     OW39919   2.442   4.455   8.112  0.2911  0.4284  0.2595
 9428SOL    HW139920   2.401   4.369   8.116 -0.9846  0.9342 -2.0130
 9428SOL    HW239921   2.532   4.425   8.119  0.9190  1.7309 -2.3340
 9429SOL     OW39922   3.140   0.670  12.502 -0.2003  0.0205  0.1573
 9429SOL    HW139923   3.157   0.603  12.568 -1.1645 -0.2850  0.0941
 9429SOL    HW239924   3.205   0.635  12.441 -1.8684 -1.3564 -0.8328
 9430SOL     OW39925   0.651   1.115   8.252 -0.1838 -0.3931 -0.8099
 9430SOL    HW139926   0.711   1.139   8.322 -0.4218 -1.2834 -0.2887
 9430SOL    HW239927   0.641   1.020   8.258  0.4238 -0.5070 -1.5946
 9431SOL     OW39928   1.201   2.522   5.016  0.2377  0.5089 -0.2470
 9431SOL    HW139929   1.124   2.560   4.973  1.5837  3.6120  0.0441
 9431SOL    HW239930   1.196   2.553   5.106 -1.1370 -1.4128  0.3375
 9432SOL     OW39931   4.148   3.082   6.435 -0.9100 -0.6778 -0.9301
 9432SOL    HW139932   4.192   3.013   6.387 -0.5681 -0.7091 -0.5730
 9432SOL    HW239933   4.085   3.041   6.493 -0.9413  0.7100  0.0260
 9433SOL     OW39934   0.628   3.806   9.457  0.2317 -0.4682  0.1053
 9433SOL    HW139935   0.712   3.768   9.484 -0.5499 -1.1732  1.5842
 9433SOL    HW239936   0.630   3.772   9.367 -3.0682 -1.6098  0.4391
 9434SOL     OW39937   2.188   0.925   2.243  0.6601  0.0578  0.1933
 9434SOL    HW139938   2.142   0.849   2.208 -0.0057  0.5365  0.0246
 9434SOL    HW239939   2.119   0.983   2.275 -0.3450 -1.7340  1.2703
 9435SOL     OW39940   3.316   2.797   3.476 -0.0044 -0.0631 -0.1259
 9435SOL    HW139941   3.247   2.801   3.543 -0.0694 -2.1661 -0.0514
 9435SOL    HW239942   3.302   2.872   3.419 -0.5508 -1.2269 -1.5382
 9436SOL     OW39943   2.484   0.905  16.835 -0.0259  0.3056 -0.4930
 9436SOL    HW139944   2.555   0.881  16.775 -0.0197  1.3837 -0.9353
 9436SOL    HW239945   2.537   0.966  16.887  1.5786 -3.0496  1.7897
 9437SOL     OW39946   3.517   0.222   1.416  0.5928  0.1109  0.3077
 9437SOL    HW139947   3.520   0.300   1.362  2.4397 -0.8314 -0.9388
 9437SOL    HW239948   3.438   0.246   1.465  0.5043  1.6362 -0.5997
 9438SOL     OW39949   1.294   0.538  12.496  0.4988 -0.0126  0.7281
 9438SOL    HW139950   1.266   0.582  12.416  0.3557 -2.0847 -0.3787
 9438SOL    HW239951   1.386   0.560  12.513  0.4772 -0.5822  1.5582
 9439SOL     OW39952   2.353   2.267   3.702 -0.2962  0.5047  0.0065
 9439SOL    HW139953   2.292   2.239   3.770 -0.9476  2.3192  0.1602
 9439SOL    HW239954   2.443   2.262   3.735 -0.2383 -0.5625 -0.3187
 9440SOL     OW39955   1.830   3.747   4.895 -0.0531  0.1939 -0.3625
 9440SOL    HW139956   1.810   3.835   4.927  1.0163  1.5443 -3.3644
 9440SOL    HW239957   1.808   3.768   4.804  0.8328  1.6181 -0.2571
 9441SOL     OW39958   3.153   0.875   8.647 -0.0037  0.0445  0.0241
 9441SOL    HW139959   3.159   0.969   8.664 -0.1448 -0.0661  0.7143
 9441SOL    HW239960   3.224   0.845   8.703  0.0652 -2.0607 -1.1896
 9442SOL     OW39961   1.855   1.819  11.869  0.4924  1.0284  0.0578
 9442SOL    HW139962   1.833   1.735  11.830  2.7292  0.2308  0.4946
 9442SOL    HW239963   1.803   1.818  11.949  1.3283 -0.9737  0.5821
 9443SOL     OW39964   4.548   2.700  10.022  0.5352  0.5257  0.3730
 9443SOL    HW139965   4.456   2.712  10.046 -0.3882  0.0367 -2.8969
 9443SOL    HW239966   4.535   2.655   9.938 -0.0465  0.6829  0.3759
 9444SOL     OW39967   4.726   1.061   6.467 -0.4137 -0.2059  0.0435
 9444SOL    HW139968   4.735   1.034   6.375 -0.3267 -0.1951  0.0485
 9444SOL    HW239969   4.692   0.985   6.514 -2.3373  0.7085  0.0991
 9445SOL     OW39970   2.977   0.572   4.770  0.2540  0.0096 -0.8043
 9445SOL    HW139971   2.909   0.531   4.715 -1.0969 -0.6116  1.3472
 9445SOL    HW239972   2.940   0.587   4.857  0.7561  1.8646 -0.9179
 9446SOL     OW39973   4.662   0.395   3.672 -0.0421 -0.4397  0.1696
 9446SOL    HW139974   4.658   0.464   3.738 -0.4891 -0.5056  0.2149
 9446SOL    HW239975   4.667   0.322   3.734  1.0204  0.5582  1.2534
 9447SOL     OW39976   1.518   0.140  11.957  0.3357 -1.0334 -0.5630
 9447SOL    HW139977   1.434   0.169  11.992  0.9875 -0.9738  0.9515
 9447SOL    HW239978   1.585   0.172  12.018  1.4919  0.5899 -2.6823
 9448SOL     OW39979   1.147   0.626   7.812  0.0959 -0.4388 -0.2822
 9448SOL    HW139980   1.080   0.585   7.758 -0.9762 -0.5513  1.1326
 9448SOL    HW239981   1.126   0.595   7.900 -2.0756  1.4032 -0.1587
 9449SOL     OW39982   3.435   1.943   6.812 -0.0182 -0.3179 -0.2596
 9449SOL    HW139983   3.409   1.879   6.746  2.2323  1.4190 -2.8192
 9449SOL    HW239984   3.512   1.902   6.852  0.4107 -0.6634 -1.4469
 9450SOL     OW39985   2.290   2.735   6.350 -0.1063 -0.0279  0.1519
 9450SOL    HW139986   2.253   2.695   6.429  0.9751 -0.5013  0.4288
 9450SOL    HW239987   2.297   2.666   6.284  0.2292 -0.7205  0.9113
 9451SOL     OW39988   0.777   4.680   7.423  0.3277 -0.1491  0.5808
 9451SOL    HW139989   0.769   4.687   7.518 -0.2975  1.4763  0.4119
 9451SOL    HW239990   0.810   4.590   7.421 -1.8052 -0.9118 -0.3307
 9452SOL     OW39991   1.887   3.629   9.238  0.0666 -0.0402 -0.2617
 9452SOL    HW139992   1.961   3.688   9.242  0.8626 -1.0860  0.4904
 9452SOL    HW239993   1.923   3.562   9.180 -1.8816  0.6799 -2.3135
 9453SOL     OW39994   0.883   4.424  11.308 -0.3738  0.1087 -0.3016
 9453SOL    HW139995   0.931   4.445  11.228  0.1377  0.5065  0.1088
 9453SOL    HW239996   0.842   4.340  11.287 -0.0013 -0.5777  1.6643
 9454SOL     OW39997   2.042   2.964  17.672 -0.5672  0.0242  0.3233
 9454SOL    HW139998   2.052   2.880  17.716  2.5976  1.8275  3.0481
 9454SOL    HW239999   2.118   2.967  17.613 -0.7856 -1.8712 -0.0569
 9455SOL     OW40000   2.767   1.090   3.611  0.9520 -0.1736 -0.0661
 9455SOL    HW140001   2.688   1.100   3.663 -1.3223  0.4318 -3.6447
 9455SOL    HW240002   2.738   1.045   3.532 -1.3735  2.8905 -0.9583
 9456SOL     OW40003   4.298   0.620  11.291 -0.3440 -0.4801  0.6788
 9456SOL    HW140004   4.321   0.611  11.384  2.4838  1.8034  0.1762
 9456SOL    HW240005   4.319   0.527  11.281 -1.7936 -0.9237  1.6929
 9457SOL     OW40006   3.621   3.636   9.944  0.4036 -0.0073  0.0371
 9457SOL    HW140007   3.701   3.661   9.899  0.1090  1.6406  0.4227
 9457SOL    HW240008   3.562   3.642   9.868  1.2715 -1.6871 -0.7531
 9458SOL     OW40009   0.024   2.838   9.748  0.5878 -0.4578 -0.2748
 9458SOL    HW140010   4.705   2.915   9.736 -0.6325 -1.4191 -0.6437
 9458SOL    HW240011   0.104   2.856   9.698  0.5927  0.7325  0.1544
 9459SOL     OW40012   3.048   4.123   6.698 -0.3017 -0.1089  0.6694
 9459SOL    HW140013   2.988   4.139   6.625 -0.5028  0.6238  0.9940
 9459SOL    HW240014   3.098   4.204   6.704 -0.7316  0.2948 -0.9876
 9460SOL     OW40015   2.241   0.305   4.973  0.1897  0.3625 -0.7686
 9460SOL    HW140016   2.239   0.284   4.879  1.0739  2.2164 -1.1882
 9460SOL    HW240017   2.336   0.301   4.984  0.3132 -1.2752 -2.4190
 9461SOL     OW40018   2.445   1.100   5.935  0.4881 -0.0631 -0.6163
 9461SOL    HW140019   2.380   1.145   5.988  0.4544 -2.6031  1.4703
 9461SOL    HW240020   2.383   1.072   5.868 -1.2180  2.3280 -0.0540
 9462SOL     OW40021   0.996   1.832  16.338  0.5302 -0.0217  0.5100
 9462SOL    HW140022   1.012   1.766  16.271  1.6938 -1.8598  2.5784
 9462SOL    HW240023   0.960   1.770  16.402  1.1533 -0.7159  0.1819
 9463SOL     OW40024   3.106   3.417   6.353  0.1534  0.1373  0.4401
 9463SOL    HW140025   3.129   3.418   6.260 -1.3165 -0.3281  0.0668
 9463SOL    HW240026   3.134   3.330   6.380 -0.9769  0.0087  1.1739
 9464SOL     OW40027   1.605   2.746   6.519  0.4706  0.4574 -0.4266
 9464SOL    HW140028   1.646   2.683   6.459 -0.4945 -1.7892  1.2826
 9464SOL    HW240029   1.637   2.703   6.598 -0.3574 -1.2087 -0.9918
 9465SOL     OW40030   2.856   1.308   4.277 -0.0867 -0.3298 -0.3606
 9465SOL    HW140031   2.932   1.362   4.300 -0.0774 -0.2920 -0.4805
 9465SOL    HW240032   2.827   1.288   4.366 -0.8526 -1.8742 -0.9642
 9466SOL     OW40033   2.187   0.040  10.403 -0.2332  0.3184  0.1911
 9466SOL    HW140034   2.265   4.726  10.382 -0.1989  0.5499 -0.2399
 9466SOL    HW240035   2.210   0.118  10.353 -1.0448  1.0982  1.0439
 9467SOL     OW40036   0.779   2.272   9.259 -0.3467  0.0045  0.2411
 9467SOL    HW140037   0.873   2.252   9.259 -0.3957 -0.2208 -0.6497
 9467SOL    HW240038   0.777   2.357   9.302  1.5988 -0.4603  1.2778
 9468SOL     OW40039   0.099   0.354   3.442  0.2092  0.4370 -0.4298
 9468SOL    HW140040   0.038   0.369   3.514  0.7578  0.3016  0.0622
 9468SOL    HW240041   0.100   0.259   3.433  0.7421  0.1174  3.2513
 9469SOL     OW40042   0.368   1.942   4.481 -0.1140  0.9852  0.2234
 9469SOL    HW140043   0.426   1.981   4.416  1.8314 -2.2365  0.0343
 9469SOL    HW240044   0.433   1.898   4.536  0.3876  1.4106 -0.0308
 9470SOL     OW40045   4.280   1.608  12.308  0.2252 -0.3883 -0.2613
 9470SOL    HW140046   4.317   1.690  12.275  1.8729 -0.2793  1.8544
 9470SOL    HW240047   4.231   1.573  12.234 -0.4425  0.5063 -0.2408
 9471SOL     OW40048   0.887   1.403   8.627 -0.0210  0.1114 -0.2566
 9471SOL    HW140049   0.800   1.377   8.657 -0.4425  1.6165 -0.1788
 9471SOL    HW240050   0.948   1.372   8.694 -0.5007  0.2670  0.2526
 9472SOL     OW40051   2.941   0.748   1.182  0.4296  0.1633 -0.4774
 9472SOL    HW140052   2.869   0.711   1.130  1.1709 -1.2967 -0.4660
 9472SOL    HW240053   3.010   0.775   1.123  1.4626  2.1744  1.6606
 9473SOL     OW40054   2.421   1.656   7.511 -0.5668 -0.4235  0.9265
 9473SOL    HW140055   2.370   1.575   7.502 -0.3109 -0.5164  0.3521
 9473SOL    HW240056   2.476   1.659   7.433 -1.7765 -0.6462  0.0672
 9474SOL     OW40057   2.912   4.222   6.482 -0.3683 -0.2498 -0.2705
 9474SOL    HW140058   2.995   4.254   6.447 -0.5924 -0.4931 -1.0196
 9474SOL    HW240059   2.887   4.168   6.407 -1.9913  2.3574 -1.6509
 9475SOL     OW40060   1.639   2.836   5.839 -0.2055  0.2892  0.5806
 9475SOL    HW140061   1.702   2.885   5.787 -1.3913 -0.0380 -1.1801
 9475SOL    HW240062   1.606   2.910   5.891  0.9078  3.2519 -2.9558
 9476SOL     OW40063   2.952   3.685   6.098 -0.3598 -0.3966  0.0656
 9476SOL    HW140064   2.950   3.675   6.193  0.0353  0.8847  0.2128
 9476SOL    HW240065   2.858   3.694   6.080 -0.2720 -1.1556 -0.8151
 9477SOL     OW40066   1.963   0.424  16.952  0.2429 -0.0794 -0.1367
 9477SOL    HW140067   2.008   0.340  16.946 -1.0994 -0.9571  1.9103
 9477SOL    HW240068   2.028   0.476  16.999  0.7166  0.7050 -1.6629
 9478SOL     OW40069   3.916   2.037  15.182 -0.1113  0.0651 -0.2621
 9478SOL    HW140070   3.937   1.998  15.267  1.6407  0.3912 -0.5410
 9478SOL    HW240071   3.934   1.965  15.122  0.3206 -0.8296  0.9433
 9479SOL     OW40072   0.451   2.721  15.663  0.5889 -0.3918  0.0083
 9479SOL    HW140073   0.457   2.766  15.747  0.1762 -0.6054  0.1534
 9479SOL    HW240074   0.451   2.788  15.595 -0.4446 -0.4600 -0.0588
 9480SOL     OW40075   3.031   1.933   3.280 -0.2840 -0.3950  0.0363
 9480SOL    HW140076   2.984   2.017   3.275 -1.2190 -0.8869  0.4775
 9480SOL    HW240077   3.116   1.972   3.302 -0.5652  0.3297 -0.1551
 9481SOL     OW40078   4.490   3.908  15.256  0.2790  0.5313 -0.4234
 9481SOL    HW140079   4.582   3.881  15.262 -0.3989 -2.0361 -1.8445
 9481SOL    HW240080   4.492   3.984  15.315 -0.9213 -0.5178  0.9826
 9482SOL     OW40081   1.991   1.110   2.290  0.0904 -0.0495 -0.0418
 9482SOL    HW140082   2.031   1.190   2.255  1.1479 -0.2179  0.7695
 9482SOL    HW240083   1.935   1.148   2.358 -2.1882 -1.8611 -0.8774
 9483SOL     OW40084   1.847   2.564   1.962  0.0585 -0.1499 -0.2042
 9483SOL    HW140085   1.812   2.652   1.950  2.2913  0.8732  0.9475
 9483SOL    HW240086   1.812   2.520   1.885  0.2640  0.2534 -0.5262
 9484SOL     OW40087   2.920   2.450   2.509  0.2017 -0.1527  0.4317
 9484SOL    HW140088   2.869   2.389   2.562  0.3038  1.1769  2.0378
 9484SOL    HW240089   2.990   2.478   2.567 -0.1829  4.7163 -1.4426
 9485SOL     OW40090   0.017   1.696   6.652 -0.7584  0.5674 -0.3861
 9485SOL    HW140091   4.673   1.742   6.671 -1.3875 -0.3255 -0.9101
 9485SOL    HW240092   0.076   1.734   6.717 -0.4758  0.8421 -0.7985
 9486SOL     OW40093   3.766   4.558   8.650 -0.2204  0.4665 -0.6337
 9486SOL    HW140094   3.711   4.516   8.716  1.4065 -0.6489  0.0144
 9486SOL    HW240095   3.746   4.649   8.672 -2.8355  0.1893 -1.8692
 9487SOL     OW40096   1.958   3.872  10.699 -0.2775 -0.1485  0.4952
 9487SOL    HW140097   1.968   3.845  10.608  1.4718 -0.8515  0.8776
 9487SOL    HW240098   2.043   3.848  10.738  0.5400  1.7632 -0.0713
 9488SOL     OW40099   4.723   4.489   3.761 -0.0091 -0.1571 -0.0657
 9488SOL    HW140100   4.632   4.459   3.769 -0.3396  1.0627  0.6455
 9488SOL    HW240101   4.736   4.461   3.670  3.6529  1.4192  0.0009
 9489SOL     OW40102   2.679   1.372   4.075  0.1502  0.0529  0.6940
 9489SOL    HW140103   2.746   1.351   4.140  1.2931  0.7407 -0.2413
 9489SOL    HW240104   2.623   1.296   4.084 -0.7381  0.4924 -1.2200
 9490SOL     OW40105   0.483   1.025  11.399  0.3151  0.4174 -0.7640
 9490SOL    HW140106   0.456   1.024  11.491 -0.4050  2.0804 -0.9613
 9490SOL    HW240107   0.528   0.942  11.388  1.6937  0.8200  1.7810
 9491SOL     OW40108   4.231   2.701   2.402 -0.4203  0.0043 -0.4931
 9491SOL    HW140109   4.323   2.675   2.409 -0.3083  0.9627  1.4254
 9491SOL    HW240110   4.231   2.757   2.324  0.3927 -2.1747 -2.0522
 9492SOL     OW40111   1.093   0.736  13.388  0.2413  0.2269  0.2348
 9492SOL    HW140112   1.150   0.755  13.313  0.4715  2.1607  0.8867
 9492SOL    HW240113   1.022   0.702  13.334  0.5000 -0.8346  0.5639
 9493SOL     OW40114   1.839   0.823   6.406 -0.3047  0.1650 -0.0764
 9493SOL    HW140115   1.853   0.802   6.499 -1.1345  1.5544  0.3563
 9493SOL    HW240116   1.822   0.916   6.422 -0.1240  0.4754 -1.7135
 9494SOL     OW40117   1.208   0.405   2.251 -0.3864  0.4754 -0.0728
 9494SOL    HW140118   1.139   0.453   2.297 -2.2253 -1.0954 -1.2245
 9494SOL    HW240119   1.286   0.460   2.264 -0.5051  0.3566  1.1342
 9495SOL     OW40120   0.458   3.548  15.028 -0.2345 -0.2374  0.0601
 9495SOL    HW140121   0.540   3.512  15.061 -0.4970  0.1184  1.1145
 9495SOL    HW240122   0.443   3.480  14.962  1.5104 -3.0929  2.6216
 9496SOL     OW40123   3.675   1.143   6.113 -0.5665  0.1822  0.6084
 9496SOL    HW140124   3.601   1.203   6.117 -0.5012  0.3004  0.0511
 9496SOL    HW240125   3.651   1.090   6.038 -0.5137  1.0949 -0.0478
 9497SOL     OW40126   1.977   1.018  17.295  0.5806 -0.0543 -0.3558
 9497SOL    HW140127   1.885   1.034  17.317  0.5289  0.6424 -1.0637
 9497SOL    HW240128   2.019   1.088  17.344  0.0050 -0.5143  0.7842
 9498SOL     OW40129   3.688   3.843   3.038  0.3824  0.2823  0.1818
 9498SOL    HW140130   3.642   3.927   3.030 -0.3906 -0.1163  0.4583
 9498SOL    HW240131   3.779   3.870   3.027  0.4852 -1.0883 -2.4373
 9499SOL     OW40132   1.485   3.903   0.067 -0.0344 -0.3698  0.0382
 9499SOL    HW140133   1.427   3.834   0.036  1.1287 -2.1138  1.7392
 9499SOL    HW240134   1.551   3.888  17.748 -0.6698 -0.2110 -0.6199
 9500SOL     OW40135   4.112   1.477  12.074 -0.2690 -0.1839  0.2413
 9500SOL    HW140136   4.038   1.465  12.134 -2.2216 -2.5583 -2.6894
 9500SOL    HW240137   4.119   1.387  12.045 -0.4150  0.2418 -1.1273
 9501SOL     OW40138   0.539   0.687   8.094 -0.0016 -0.2679 -0.0094
 9501SOL    HW140139   0.483   0.617   8.127 -0.2736  0.6093  1.3894
 9501SOL    HW240140   0.520   0.674   8.001  1.7597  1.8339 -0.6691
 9502SOL     OW40141   3.764   1.211   5.603  0.5774 -0.1790 -0.2924
 9502SOL    HW140142   3.673   1.190   5.623 -0.2248  2.2759 -1.3558
 9502SOL    HW240143   3.772   1.300   5.637 -0.7689  0.3533 -1.3859
 9503SOL     OW40144   3.590   2.634   6.939 -0.4596  0.3341  0.4943
 9503SOL    HW140145   3.574   2.685   7.019 -0.3520  2.7338 -1.0226
 9503SOL    HW240146   3.643   2.696   6.890 -1.3030  1.5064  1.0321
 9504SOL     OW40147   1.386   3.754   4.170  0.2996 -0.4008 -0.0735
 9504SOL    HW140148   1.396   3.849   4.169 -0.5849 -0.3064 -0.7910
 9504SOL    HW240149   1.340   3.753   4.086 -0.6698 -1.2421  0.4582
 9505SOL     OW40150   4.289   1.544   4.632  0.4066  0.1904  0.1259
 9505SOL    HW140151   4.255   1.571   4.717 -0.0658  2.7760 -0.8670
 9505SOL    HW240152   4.243   1.603   4.572 -0.2018  0.0573  0.4663
 9506SOL     OW40153   3.245   3.386   0.648 -0.2173 -0.1166  0.0580
 9506SOL    HW140154   3.194   3.450   0.698  1.2812  0.0825  1.3555
 9506SOL    HW240155   3.255   3.434   0.566  0.7259  0.5443  0.5637
 9507SOL     OW40156   3.730   3.257  15.501  0.1608 -0.1521  0.5730
 9507SOL    HW140157   3.770   3.180  15.461  1.8331  1.0935 -0.1509
 9507SOL    HW240158   3.658   3.279  15.442  0.7113  1.0230  0.3541
 9508SOL     OW40159   1.136   1.144   4.305  0.0025 -0.5646 -0.3499
 9508SOL    HW140160   1.174   1.060   4.330 -0.3014 -1.1436 -1.8560
 9508SOL    HW240161   1.212   1.199   4.284  0.0753  0.0153  1.4469
 9509SOL     OW40162   4.134   4.549  16.377 -0.1469  0.6332  0.2984
 9509SOL    HW140163   4.178   4.479  16.328  1.2279 -0.2680  2.8456
 9509SOL    HW240164   4.092   4.500  16.447 -0.8286  0.9618  0.1206
 9510SOL     OW40165   2.280   3.668   1.088  0.2561  0.6433 -0.4926
 9510SOL    HW140166   2.279   3.762   1.073  2.3327  0.4539 -1.7780
 9510SOL    HW240167   2.217   3.656   1.159 -0.3874  0.8155 -1.0395
 9511SOL     OW40168   0.649   0.208   7.682  0.4452  0.0108 -0.0036
 9511SOL    HW140169   0.725   0.153   7.698  0.5666 -0.4757 -2.3412
 9511SOL    HW240170   0.592   0.135   7.660  0.3001  0.4403 -1.0465
 9512SOL     OW40171   1.733   0.084   1.520 -0.1006 -0.2184  0.6398
 9512SOL    HW140172   1.705   0.108   1.432 -0.5603 -1.0968  0.5471
 9512SOL    HW240173   1.709   4.729   1.518 -0.3680 -0.1208 -0.9399
 9513SOL     OW40174   0.566   1.178  15.443  0.1206  0.6183 -0.4532
 9513SOL    HW140175   0.622   1.251  15.418  2.0522 -0.2435  1.3976
 9513SOL    HW240176   0.493   1.231  15.475  1.5878  1.5869  1.2107
 9514SOL     OW40177   2.294   3.244  17.102  0.3806 -0.5913 -0.1745
 9514SOL    HW140178   2.215   3.272  17.147  0.5017 -0.7708  0.1503
 9514SOL    HW240179   2.314   3.160  17.145 -0.4079 -0.8088 -0.2311
 9515SOL     OW40180   1.080   0.591   2.420 -0.4398 -0.3813  0.8397
 9515SOL    HW140181   1.003   0.574   2.474  0.9875 -2.9612  2.0499
 9515SOL    HW240182   1.149   0.567   2.481 -1.3085 -3.0280  0.7619
 9516SOL     OW40183   4.663   3.936   5.609  0.7182 -0.7758  0.4929
 9516SOL    HW140184   4.619   4.015   5.643  2.6846  0.9672 -1.0242
 9516SOL    HW240185   4.661   3.948   5.514  3.0136 -1.3736  0.3841
 9517SOL     OW40186   4.423   2.647   6.435 -0.0504 -0.1598 -0.5139
 9517SOL    HW140187   4.418   2.624   6.528  1.0807  1.2446 -0.1043
 9517SOL    HW240188   4.489   2.585   6.406 -0.4324  0.2561 -2.2819
 9518SOL     OW40189   1.409   0.604  12.847 -0.0562 -0.1650  0.0267
 9518SOL    HW140190   1.452   0.617  12.762 -0.8492 -0.8597 -0.4813
 9518SOL    HW240191   1.442   0.683  12.891  1.5506 -1.3180  0.9064
 9519SOL     OW40192   0.843   4.373   6.181  0.4155  0.0412  0.8490
 9519SOL    HW140193   0.875   4.458   6.152 -1.2842  0.3598 -0.0819
 9519SOL    HW240194   0.925   4.323   6.182  1.3825  1.6432 -0.7173
 9520SOL     OW40195   3.543   4.400  17.573 -0.1438  0.3830 -0.7106
 9520SOL    HW140196   3.550   4.307  17.594  2.0260  0.7078  0.0216
 9520SOL    HW240197   3.633   4.431  17.564 -0.0471 -0.0584 -1.2649
 9521SOL     OW40198   4.127   0.843   1.339  0.8105 -0.5486 -0.5265
 9521SOL    HW140199   4.043   0.872   1.377  0.5625 -0.7257 -0.9422
 9521SOL    HW240200   4.186   0.898   1.391 -0.1365 -0.9144  0.9301
 9522SOL     OW40201   2.142   4.052  17.129  0.2993  0.0463 -0.8366
 9522SOL    HW140202   2.150   4.052  17.034 -0.3998 -2.6419 -0.9144
 9522SOL    HW240203   2.205   3.983  17.150 -0.4579  0.3509  2.5683
 9523SOL     OW40204   1.625   4.512   8.948 -0.3561  0.0361 -0.0329
 9523SOL    HW140205   1.635   4.446   8.879 -2.2091 -0.5974  0.3184
 9523SOL    HW240206   1.656   4.470   9.028  0.4905  0.2764 -0.2292
 9524SOL     OW40207   1.297   4.282   2.583  1.0334  0.6124  0.3815
 9524SOL    HW140208   1.352   4.252   2.511  0.0537  1.8704 -0.8881
 9524SOL    HW240209   1.291   4.196   2.625 -1.0344 -0.1754 -1.5482
 9525SOL     OW40210   1.547   2.111   9.685  0.3371 -0.3763 -0.4078
 9525SOL    HW140211   1.612   2.041   9.689 -0.0232 -0.7295 -0.7745
 9525SOL    HW240212   1.461   2.074   9.708  1.3399 -2.6338 -0.2781
 9526SOL     OW40213   4.481   3.307   6.668 -0.2374  0.3915 -0.3694
 9526SOL    HW140214   4.479   3.219   6.633  2.0512  0.5837 -0.9915
 9526SOL    HW240215   4.407   3.342   6.619 -2.1983 -1.3897  1.3097
 9527SOL     OW40216   0.228   3.703  13.911  1.0321  0.6962 -0.0972
 9527SOL    HW140217   0.295   3.707  13.980  1.2229 -1.0022 -0.1954
 9527SOL    HW240218   0.253   3.615  13.886  0.5574  0.7696 -0.8158
 9528SOL     OW40219   3.639   0.408   4.916  0.2922  0.5619  0.5151
 9528SOL    HW140220   3.612   0.500   4.917  2.5082  1.1833  1.2554
 9528SOL    HW240221   3.559   0.357   4.931 -0.9202  2.1143 -0.5386
 9529SOL     OW40222   0.456   3.324   9.263 -0.3431 -0.0200 -0.1643
 9529SOL    HW140223   0.502   3.376   9.198  0.6744  0.3400  0.8361
 9529SOL    HW240224   0.523   3.267   9.302 -2.6277 -1.5508  1.5201
 9530SOL     OW40225   3.633   3.138  16.321  0.5732  1.1699 -0.3630
 9530SOL    HW140226   3.706   3.165  16.376  0.2782  0.1166  0.5570
 9530SOL    HW240227   3.566   3.160  16.386  0.3333  1.1740 -0.6123
 9531SOL     OW40228   0.900   0.306  10.913  0.1060 -0.1166  0.0087
 9531SOL    HW140229   0.878   0.221  10.952 -1.3983  0.0896 -0.3950
 9531SOL    HW240230   0.965   0.337  10.976 -0.9961  0.7805  0.6922
 9532SOL     OW40231   3.396   4.442   4.657 -0.0213  0.2368 -0.2007
 9532SOL    HW140232   3.475   4.479   4.617  1.6917 -2.0560  1.0180
 9532SOL    HW240233   3.343   4.424   4.580 -4.1189  0.2172  2.6493
 9533SOL     OW40234   0.549   2.911   4.273 -0.3577 -0.1094 -0.0573
 9533SOL    HW140235   0.522   3.000   4.250  0.2933  0.4782  1.4519
 9533SOL    HW240236   0.562   2.886   4.181 -2.2540 -1.6285  0.0969
 9534SOL     OW40237   3.115   3.704   2.253 -0.4355 -0.6859 -0.2350
 9534SOL    HW140238   3.108   3.794   2.286 -1.1758 -0.1728 -1.7975
 9534SOL    HW240239   3.181   3.728   2.187 -0.0714  2.1269  1.1251
 9535SOL     OW40240   2.083   3.136   0.733 -0.1378 -0.4800 -0.6804
 9535SOL    HW140241   2.138   3.212   0.751 -0.6664 -0.0393 -0.9426
 9535SOL    HW240242   2.141   3.093   0.670 -1.0725 -1.3254 -0.9640
 9536SOL     OW40243   2.273   3.993  16.901  0.1365 -0.0487 -0.0991
 9536SOL    HW140244   2.287   3.898  16.901  0.4799  0.0125  0.9103
 9536SOL    HW240245   2.273   4.008  16.806 -0.4326  2.0247  0.2437
 9537SOL     OW40246   1.273   3.690   7.084 -0.5634  0.5662  0.3963
 9537SOL    HW140247   1.265   3.597   7.065  0.2252  0.1059  2.4001
 9537SOL    HW240248   1.236   3.723   7.002  0.9346 -0.5117 -0.7113
 9538SOL     OW40249   4.335   2.963   7.879 -0.7660  0.6411 -0.0760
 9538SOL    HW140250   4.403   2.903   7.911 -0.2745  1.1909 -0.0835
 9538SOL    HW240251   4.390   3.021   7.825  0.6655 -1.0178 -0.4216
 9539SOL     OW40252   3.333   1.742   3.101  0.2431 -0.3331 -0.0844
 9539SOL    HW140253   3.370   1.819   3.059  0.0181 -1.2002 -1.8852
 9539SOL    HW240254   3.246   1.773   3.126  0.8268  0.9279  0.3368
 9540SOL     OW40255   0.051   1.789   4.195 -0.6890  0.3387 -0.2093
 9540SOL    HW140256   0.060   1.860   4.131 -0.0685 -0.8654 -1.4441
 9540SOL    HW240257   0.058   1.706   4.149  1.9420  0.7533 -0.5678
 9541SOL     OW40258   0.541   4.318   8.763 -0.2901  0.4987  0.1119
 9541SOL    HW140259   0.571   4.227   8.753  1.4060  1.0000  0.6490
 9541SOL    HW240260   0.534   4.327   8.668  0.9506  1.0919  0.0785
 9542SOL     OW40261   1.744   3.795   8.339  0.4642  0.1436 -0.4458
 9542SOL    HW140262   1.797   3.753   8.407  1.7289  2.4918  0.0288
 9542SOL    HW240263   1.798   3.784   8.261  0.6877  2.9650 -0.7176
 9543SOL     OW40264   4.648   1.303  13.417 -0.3671  0.0069  0.6368
 9543SOL    HW140265   4.619   1.212  13.411 -0.6696  0.1994 -1.0638
 9543SOL    HW240266   4.604   1.334  13.496  0.2198  1.9107  0.2180
 9544SOL     OW40267   4.459   4.510   7.687 -0.1432  0.1618 -0.0109
 9544SOL    HW140268   4.374   4.502   7.732  0.3784  0.3303  1.0039
 9544SOL    HW240269   4.443   4.552   7.603 -0.7617  2.4400  1.2661
 9545SOL     OW40270   0.676   3.477   8.795 -0.1378 -0.8137  0.5467
 9545SOL    HW140271   0.713   3.547   8.741  0.5645  0.2960  2.4591
 9545SOL    HW240272   0.690   3.404   8.735  1.4372  1.1704 -1.5338
 9546SOL     OW40273   4.224   2.789   3.142  0.0979  0.0440  0.4585
 9546SOL    HW140274   4.142   2.822   3.105  1.4978  0.0181 -2.6477
 9546SOL    HW240275   4.276   2.781   3.062 -0.7380  0.8800 -0.1737
 9547SOL     OW40276   0.411   1.214   0.625  0.0498 -0.5653 -0.5151
 9547SOL    HW140277   0.456   1.136   0.593  0.3381 -0.1450 -1.1196
 9547SOL    HW240278   0.391   1.187   0.715  1.8600 -1.2438 -0.3285
 9548SOL     OW40279   2.416   2.375   4.301 -0.0059 -0.2155 -0.4257
 9548SOL    HW140280   2.374   2.332   4.227 -1.1307  0.7879 -0.3673
 9548SOL    HW240281   2.337   2.389   4.352 -0.7986  0.8769 -1.9565
 9549SOL     OW40282   4.718   0.900   2.261 -0.2743 -0.0924 -0.2646
 9549SOL    HW140283   4.630   0.877   2.292 -1.4984  1.5250 -2.5562
 9549SOL    HW240284   4.729   0.867   2.172  0.6740 -3.5902  1.1632
 9550SOL     OW40285   4.132   1.102   4.147  0.7744 -0.4349 -0.0676
 9550SOL    HW140286   4.106   1.012   4.163 -2.1414  0.4607  0.2386
 9550SOL    HW240287   4.203   1.122   4.209  0.9303 -0.7984 -0.1309
 9551SOL     OW40288   3.521   2.706   0.547 -0.4445  0.9124  0.7432
 9551SOL    HW140289   3.515   2.680   0.455 -2.1581  0.3230  1.0279
 9551SOL    HW240290   3.569   2.635   0.589  1.6710  1.1030 -1.3147
 9552SOL     OW40291   0.737   1.917   2.882 -0.0471  0.0628  0.1038
 9552SOL    HW140292   0.718   2.006   2.911 -1.1297  0.4263 -1.7383
 9552SOL    HW240293   0.735   1.879   2.970  0.0474 -0.2088 -0.0116
 9553SOL     OW40294   1.390   0.401  10.791  0.3540  0.5564  0.2067
 9553SOL    HW140295   1.326   0.435  10.728 -2.5260 -2.4441  1.5122
 9553SOL    HW240296   1.347   0.345  10.855 -1.6765  0.3094 -1.3818
 9554SOL     OW40297   3.838   0.922   3.223  0.3095  0.1882  0.1996
 9554SOL    HW140298   3.862   0.830   3.221 -2.6088 -0.6011  1.0607
 9554SOL    HW240299   3.823   0.939   3.130  1.0245  0.0476  0.0606
 9555SOL     OW40300   3.629   3.541   8.965  0.1857 -0.3316  0.4708
 9555SOL    HW140301   3.588   3.596   8.898  0.5676 -1.6198 -0.8040
 9555SOL    HW240302   3.723   3.534   8.946 -0.0420 -1.8013 -0.0459
 9556SOL     OW40303   2.691   2.144   2.884  0.1416  0.7169 -0.3356
 9556SOL    HW140304   2.724   2.139   2.974  2.5087  1.4690 -1.1606
 9556SOL    HW240305   2.633   2.068   2.873  0.8690  0.2889 -1.1727
 9557SOL     OW40306   1.326   0.936   7.388 -0.2211  0.1742  0.8833
 9557SOL    HW140307   1.380   0.979   7.322 -2.9816  4.7499  1.6143
 9557SOL    HW240308   1.268   0.892   7.326 -0.8651 -0.4689  1.9412
 9558SOL     OW40309   2.765   3.795   2.055  0.1118  0.2410 -0.0216
 9558SOL    HW140310   2.819   3.732   2.007 -0.2216 -2.1073  2.6647
 9558SOL    HW240311   2.749   3.739   2.131  0.0028 -0.7996 -0.8290
 9559SOL     OW40312   4.260   1.087  12.913  0.6408 -0.5668  0.2865
 9559SOL    HW140313   4.243   1.008  12.862 -0.2389  0.3561 -0.8370
 9559SOL    HW240314   4.233   1.162  12.861 -0.1837 -0.5418  0.7447
 9560SOL     OW40315   3.744   2.121   6.978  0.4010  0.2311 -0.3965
 9560SOL    HW140316   3.733   2.177   6.901  2.1451 -1.5184 -1.9077
 9560SOL    HW240317   3.687   2.160   7.045 -0.6688  1.3168 -1.9541
 9561SOL     OW40318   0.306   0.283   7.482  0.3279 -0.0922 -0.7065
 9561SOL    HW140319   0.351   0.256   7.403  0.6940 -1.6938  0.0357
 9561SOL    HW240320   0.343   0.370   7.492 -1.6975  0.5286  1.4688
 9562SOL     OW40321   2.322   3.977   1.034 -0.2265  0.2034 -0.7017
 9562SOL    HW140322   2.387   3.912   1.008 -0.0198 -0.0398  0.4557
 9562SOL    HW240323   2.353   4.006   1.119  1.3814 -3.0629 -0.1811
 9563SOL     OW40324   1.526   2.925   6.266 -0.0139 -0.3478 -0.2475
 9563SOL    HW140325   1.526   2.847   6.320 -0.2078  0.0649  0.3423
 9563SOL    HW240326   1.431   2.928   6.256 -0.1870 -2.5373  0.9070
 9564SOL     OW40327   0.660   0.734   7.624  0.3734  0.3943 -0.5107
 9564SOL    HW140328   0.741   0.784   7.610  0.3948  0.0546 -1.5696
 9564SOL    HW240329   0.657   0.697   7.537 -0.6151  1.7026 -1.0332
 9565SOL     OW40330   4.615   3.917   5.930 -0.2502 -0.3833 -0.2264
 9565SOL    HW140331   4.520   3.918   5.938 -0.0465  2.9110  1.4838
 9565SOL    HW240332   4.627   3.837   5.878  1.4524 -0.0450 -0.3539
 9566SOL     OW40333   4.494   4.463   8.271  0.2767 -0.0784 -0.7844
 9566SOL    HW140334   4.512   4.372   8.248 -1.5902 -0.7278  0.2805
 9566SOL    HW240335   4.542   4.511   8.203  1.2645 -0.5277 -0.3955
 9567SOL     OW40336   3.901   3.064  12.229  0.2301  0.0003  0.3180
 9567SOL    HW140337   3.916   3.055  12.135  0.8326 -0.8922  0.4913
 9567SOL    HW240338   3.964   3.000  12.262  1.1434  1.0860  0.6677
 9568SOL     OW40339   1.305   0.935   8.857 -0.1712 -0.1384  0.5458
 9568SOL    HW140340   1.214   0.966   8.853 -0.3200 -0.7467 -0.8958
 9568SOL    HW240341   1.324   0.933   8.950 -0.0524  0.8679  0.5378
 9569SOL     OW40342   2.939   4.242   8.315 -0.0850 -0.8925  0.1753
 9569SOL    HW140343   2.891   4.287   8.246  0.3323 -0.2818  0.2818
 9569SOL    HW240344   3.028   4.279   8.321 -0.3068 -0.2036 -0.8056
   4.73754   4.73754  17.74838
