Membrane in water
40344
    1TMC1    C1    1   4.268   3.973  11.246 -0.5984  0.1477  0.0876
    1TMC1    C2    2   4.239   4.103  11.222 -0.3670  0.7084  0.4534
    1TMC1    C3    3   4.257   4.150  11.092 -0.0821  0.0127  0.3762
    1TMC1    C4    4   4.325   3.900  11.148  0.1654 -0.1672  0.0023
    1TMC1    C5    5   4.332   3.951  11.023  0.2484  0.4350  0.0399
    1TMC1    C6    6   4.291   4.076  10.985  0.4675  0.9543  0.3120
    1TMC1     C    7   4.264   3.939  11.388 -0.3352 -0.2556  0.7153
    1TMC1     O    8   4.166   3.984  11.448  0.6911 -0.6388 -0.1491
    1TMC1     H    9   4.193   4.163  11.299 -0.9212 -0.3537  0.9454
    1TMC1    H1   10   4.334   3.793  11.163 -0.3560 -0.0277  1.2801
    1TMC1    H2   11   4.296   4.120  10.886 -1.8953 -0.3615 -0.3868
    1TMC1    C7   12   4.401   3.876  10.921  0.2104 -0.4276 -0.9968
    1TMC1    C8   13   4.225   4.282  11.054  0.3088  0.0425  0.4068
    1TMC1    O1   14   4.389   3.898  10.802 -0.2150  0.6456  0.1894
    1TMC1    O2   15   4.251   4.326  10.941  0.4252 -0.0521  0.2342
    1TMC1    O3   16   4.462   3.771  10.974  0.1022 -0.1712  0.6281
    1TMC1    H3   17   4.493   3.773  11.067 -0.3242  0.7716  0.7476
    1TMC1    O5   18   4.168   4.351  11.155 -0.1249  0.1062 -0.3703
    1TMC1    H5   19   4.122   4.289  11.215  1.7601 -0.8460  0.0780
    2MPD2     C   20   4.425   3.657  11.798  0.0472 -0.0244  0.0040
    2MPD2    C1   21   4.338   3.763  11.783 -1.6322 -0.4318 -0.0528
    2MPD2    C2   22   4.307   3.812  11.656 -0.0867 -0.1233 -0.2892
    2MPD2    C3   23   4.386   3.788  11.547  0.3117  0.6038 -0.6013
    2MPD2    C4   24   4.490   3.701  11.563  0.1456  0.3542 -0.4321
    2MPD2    C5   25   4.507   3.636  11.686 -0.1553 -0.7116  0.1456
    2MPD2     H   26   4.240   3.895  11.642 -0.3653 -0.0251  1.5354
    2MPD2    H1   27   4.547   3.672  11.476  0.8699 -0.4974  0.3121
    2MPD2    H2   28   4.457   3.610  11.891 -0.8173 -1.6782 -0.5316
    2MPD2    H3   29   4.580   3.556  11.696 -0.1225 -0.6034  0.7226
    2MPD2     N   30   4.363   3.845  11.418 -0.0154  0.1001 -0.2062
    2MPD2    H5   31   4.416   3.820  11.334 -0.6395  0.7529 -0.7957
    2MPD2    N1   32   4.263   3.815  11.889  0.2200  1.0415  0.1237
    2MPD2    H7   33   4.191   3.876  11.851  0.9152  1.8027  0.0368
    3TMC1    C1   34   3.600   0.720  10.775  0.4241  0.3364 -0.0521
    3TMC1    C2   35   3.694   0.760  10.682  0.2849  0.7584  0.3112
    3TMC1    C3   36   3.809   0.806  10.737  1.0244  0.3514 -0.1102
    3TMC1    C4   37   3.631   0.688  10.906  0.5074 -0.1171 -0.3726
    3TMC1    C5   38   3.758   0.718  10.945 -0.0022 -0.3198 -0.4679
    3TMC1    C6   39   3.843   0.786  10.866 -0.1351 -0.1902 -0.2413
    3TMC1     C   40   3.470   0.703  10.721 -0.6089  0.0573 -0.0553
    3TMC1     O   41   3.460   0.709  10.598  0.0447  0.3671  0.2673
    3TMC1     H   42   3.671   0.794  10.582  3.9417  0.1056 -0.7423
    3TMC1    H1   43   3.556   0.648  10.973  0.4649 -0.7142 -0.7704
    3TMC1    H2   44   3.927   0.836  10.913 -0.2339  0.9374 -1.2690
    3TMC1    C7   45   3.774   0.742  11.089  0.1131  0.1569  0.2478
    3TMC1    C8   46   3.860   0.921  10.660  0.1133 -0.6604  0.2068
    3TMC1    O1   47   3.680   0.739  11.167 -0.0169 -0.0259  0.0056
    3TMC1    O2   48   3.875   0.938  10.542  0.1222  0.6461  0.1144
    3TMC1    O3   49   3.896   0.694  11.116 -0.0087 -0.0437 -0.4071
    3TMC1    H3   50   3.947   0.667  11.036 -0.7140  0.8446 -1.1689
    3TMC1    O5   51   3.870   1.013  10.764  0.0221 -0.3838 -0.8628
    3TMC1    H5   52   3.881   0.985  10.858  2.1311  0.2884 -0.9267
    4MPD2     C   53   2.970   0.659  10.772 -0.0437  0.3821  0.4972
    4MPD2    C1   54   3.019   0.637  10.902  0.7296 -0.4561  0.4481
    4MPD2    C2   55   3.157   0.642  10.911  0.2882  0.2042 -0.3700
    4MPD2    C3   56   3.238   0.664  10.799  0.1973 -0.5134  0.2655
    4MPD2    C4   57   3.176   0.676  10.670 -1.0647 -0.1360  0.2543
    4MPD2    C5   58   3.045   0.673  10.654 -0.4635 -0.0359  0.3859
    4MPD2     H   59   3.209   0.621  11.004 -0.3576 -0.8050 -0.2412
    4MPD2    H1   60   3.238   0.690  10.582  3.2265  2.2274  3.6261
    4MPD2    H2   61   2.863   0.672  10.759 -0.5452 -1.7035  2.4890
    4MPD2    H3   62   2.998   0.693  10.558  1.8578  1.5269 -0.4087
    4MPD2     N   63   3.375   0.682  10.822 -0.0345 -0.4002 -0.0817
    4MPD2    H5   64   3.397   0.665  10.920 -1.6780  3.2591  0.9271
    4MPD2    N1   65   2.937   0.621  11.023  0.5903 -0.3989  0.0938
    4MPD2    H7   66   2.984   0.597  11.109 -0.0103  0.8007  0.7641
    5TCq1    O1   67   4.271   1.744  11.390 -0.1433 -1.1775 -0.0034
    5TCq1    C1   68   4.186   1.791  11.482 -0.1125  0.2260  0.3327
    5TCq1    O2   69   4.201   1.903  11.527  0.2541 -0.5610  0.1149
    5TCq1    C2   70   4.068   1.707  11.500  0.4492 -0.3041 -0.3538
    5TCq1    C3   71   3.988   1.733  11.603  0.5699 -0.2349 -0.2595
    5TCq1    C4   72   3.868   1.678  11.610 -0.2613 -0.6433 -0.0302
    5TCq1    C5   73   3.824   1.582  11.513  0.1564 -0.2198  0.0221
    5TCq1    C6   74   3.907   1.569  11.400 -0.3954 -0.0969  0.5520
    5TCq1    C7   75   4.030   1.624  11.396  0.2196 -0.3638 -0.0830
    5TCq1    C8   76   3.857   1.499  11.284 -0.0272 -0.0971 -0.3283
    5TCq1    O4   77   3.944   1.445  11.215 -0.0662  0.5049 -0.2220
    5TCq1    C9   78   3.759   1.728  11.700 -0.8993  0.7795  0.4193
    5TCq1    O5   79   3.637   1.711  11.672 -0.1258  0.4513 -0.0488
    5TCq1    O6   80   3.795   1.838  11.749 -0.0543  0.7882 -0.2818
    5TCq1    H1   81   4.259   1.647  11.385  0.1293 -1.1159 -1.8578
    5TCq1    H2   82   4.009   1.817  11.669 -0.1998 -0.4921  0.3031
    5TCq1    H3   83   3.735   1.521  11.524  0.9838 -1.3279  0.6430
    5TCq1    H4   84   4.083   1.604  11.304  0.0554  1.5175 -0.5911
    6MPD2     C   85   3.532   1.500  11.142 -0.7178  0.4053 -0.0452
    6MPD2    C1   86   3.665   1.476  11.138  0.0211 -0.4804 -0.2568
    6MPD2    C2   87   3.729   1.433  11.023  0.5870  0.3865 -0.5654
    6MPD2    C3   88   3.657   1.417  10.903 -0.8377  0.6264  0.1371
    6MPD2    C4   89   3.522   1.424  10.914  0.2132  0.0018  0.1761
    6MPD2    C5   90   3.461   1.466  11.030  0.1288 -0.0870  0.3122
    6MPD2     H   91   3.835   1.413  11.029  0.2984 -0.5009  1.5133
    6MPD2    H1   92   3.459   1.390  10.833 -0.1697  1.3372 -0.0851
    6MPD2    H2   93   3.477   1.536  11.229 -0.1509 -0.3917  0.6404
    6MPD2    H3   94   3.352   1.466  11.027  0.0974 -2.8975  1.0252
    6MPD2     N   95   3.716   1.356  10.790  0.0125  0.5835  0.4306
    6MPD2    H5   96   3.812   1.324  10.799  0.8550  2.4893 -1.6147
    6MPD2    N1   97   3.727   1.511  11.258 -0.0182 -0.6487 -0.0702
    6MPD2    H7   98   3.669   1.555  11.329 -1.4666 -0.2078 -1.5075
    7TCq1    O1   99   0.898   1.446  12.179  0.5772 -0.1463 -0.3505
    7TCq1    C1  100   0.985   1.395  12.263  0.3932 -0.1157 -0.0214
    7TCq1    O2  101   1.068   1.308  12.237  0.5091 -0.3141 -0.0363
    7TCq1    C2  102   0.918   1.419  12.394  0.1400  0.5596 -0.8924
    7TCq1    C3  103   0.863   1.539  12.425 -0.4754  0.3010 -0.0873
    7TCq1    C4  104   0.825   1.556  12.561  0.2568  0.8489  0.0799
    7TCq1    C5  105   0.844   1.457  12.652 -0.2349 -0.1098  0.0016
    7TCq1    C6  106   0.907   1.337  12.615 -0.2117 -0.6899  0.3431
    7TCq1    C7  107   0.947   1.321  12.483 -0.3748  0.0575 -0.0199
    7TCq1    C8  108   0.964   1.247  12.714  0.0727  0.4780  0.5224
    7TCq1    O4  109   1.044   1.160  12.680 -0.3519 -0.1525 -0.1677
    7TCq1    C9  110   0.777   1.683  12.593 -0.2411 -0.4046  0.4702
    7TCq1    O5  111   0.752   1.759  12.494 -0.0123  0.0575 -0.2529
    7TCq1    O6  112   0.758   1.708  12.713  0.3754 -0.9718 -0.2617
    7TCq1    H1  113   0.833   1.501  12.227 -0.1268  0.5149 -2.0492
    7TCq1    H2  114   0.863   1.618  12.351  1.2861  0.4343  0.0541
    7TCq1    H3  115   0.807   1.483  12.751  1.4919 -1.2720  0.9714
    7TCq1    H4  116   0.995   1.227  12.455  0.9567  0.2219  1.7413
    8MPD2     C  117   0.967   1.090  13.211 -0.0988 -0.1506 -0.0953
    8MPD2    C1  118   0.997   1.015  13.099 -0.1593  0.2037  0.9613
    8MPD2    C2  119   0.969   1.066  12.972 -0.8289 -0.5243 -0.9251
    8MPD2    C3  120   0.918   1.190  12.954  0.7549  0.6415  0.2844
    8MPD2    C4  121   0.891   1.264  13.069 -0.3745  0.6489  0.2351
    8MPD2    C5  122   0.925   1.216  13.197  0.1766 -0.2155 -0.5791
    8MPD2     H  123   0.977   0.997  12.888  0.0201  1.0238 -2.1182
    8MPD2    H1  124   0.859   1.368  13.064 -0.6711  0.5231 -0.4831
    8MPD2    H2  125   0.993   1.048  13.307 -0.3933 -0.3898 -0.1174
    8MPD2    H3  126   0.911   1.282  13.282  2.4759 -1.5094  0.8107
    8MPD2     N  127   0.907   1.263  12.833 -0.0526 -0.4048 -0.2200
    8MPD2    H5  128   0.843   1.340  12.850 -0.5820 -0.4496 -2.0697
    8MPD2    N1  129   1.058   0.895  13.125  0.2360  0.7630  0.5449
    8MPD2    H7  130   1.085   0.871  13.220  0.7277 -0.1235  0.1832
    9TMC1    C1  131   3.881   4.303  10.427 -1.0673 -0.1447 -0.3691
    9TMC1    C2  132   3.834   4.318  10.298  0.3914 -0.4359  0.6171
    9TMC1    C3  133   3.728   4.231  10.259 -0.5189 -0.7772 -0.3316
    9TMC1    C4  134   3.831   4.208  10.505  0.0329  0.6226  0.0716
    9TMC1    C5  135   3.736   4.117  10.455  0.1163  0.0679 -0.3368
    9TMC1    C6  136   3.682   4.124  10.332  0.3542 -0.4910 -0.9075
    9TMC1     C  137   3.949   4.422  10.475  0.0387  0.1104 -0.0050
    9TMC1     O  138   3.987   4.500  10.385  0.6309 -0.0142 -0.5321
    9TMC1     H  139   3.876   4.393  10.232 -1.8032  1.4450  1.3414
    9TMC1    H1  140   3.872   4.189  10.603 -0.7570 -1.3926  0.0157
    9TMC1    H2  141   3.612   4.048  10.298  0.2379 -2.5491  3.9860
    9TMC1    C7  142   3.703   4.007  10.549  0.1396 -0.7910  1.1987
    9TMC1    C8  143   3.688   4.251  10.120 -0.1075  0.1038 -0.1998
    9TMC1    O1  144   3.686   4.024  10.667  0.0864 -0.1183  0.3103
    9TMC1    O2  145   3.632   4.164  10.056 -0.6371 -0.3427  0.2616
    9TMC1    O3  146   3.771   3.905  10.495  0.2012 -0.0235 -0.3494
    9TMC1    H3  147   3.793   3.916  10.400 -0.2010  0.1923 -0.4148
    9TMC1    O5  148   3.678   4.383  10.090 -0.2991  0.3422  0.1492
    9TMC1    H5  149   3.712   4.436  10.165  0.2481  1.4870 -0.9182
   10MPD2     C  150   4.028   4.659  10.635  0.1093 -0.4217  0.3542
   10MPD2    C1  151   3.983   4.540  10.684  0.1375  0.3179 -0.3131
   10MPD2    C2  152   3.960   4.544  10.818 -0.3801  0.5098 -0.1484
   10MPD2    C3  153   3.976   4.649  10.903  0.0311 -0.1357  0.3990
   10MPD2    C4  154   4.010   0.032  10.847 -0.2617 -0.2237  0.0490
   10MPD2    C5  155   4.041   0.036  10.718  0.4389  0.2537  0.1880
   10MPD2     H  156   3.929   4.454  10.868  1.3141 -1.2058 -2.2026
   10MPD2    H1  157   4.028   0.120  10.907  1.4993 -0.9533  0.6133
   10MPD2    H2  158   4.053   4.678  10.532  3.9409 -0.2363  1.3464
   10MPD2    H3  159   4.077   0.129  10.674  0.6975 -0.4332 -1.0495
   10MPD2     N  160   3.947   4.647  11.040  0.2941  0.0534 -0.1882
   10MPD2    H5  161   3.976   4.725  11.099  0.6984  0.6733 -1.2159
   10MPD2    N1  162   3.945   4.424  10.610  0.5571 -0.6813  0.1149
   10MPD2    H7  163   3.891   4.356  10.662 -0.9238 -0.6944 -1.4196
   11TCq1    O1  164   0.242   0.466  14.197 -0.1542 -0.0044 -0.0704
   11TCq1    C1  165   0.110   0.490  14.175 -0.1932  0.1085 -0.2260
   11TCq1    O2  166   0.055   0.596  14.215 -0.3214  0.0209  0.3011
   11TCq1    C2  167   0.056   0.399  14.075  0.1958  1.1226 -0.1359
   11TCq1    C3  168   0.133   0.325  13.992 -0.0787 -0.3895  0.3335
   11TCq1    C4  169   0.077   0.230  13.921  0.2045 -0.5896  0.7018
   11TCq1    C5  170   4.682   0.203  13.927 -0.1077 -0.8203 -0.2568
   11TCq1    C6  171   4.605   0.287  14.000 -0.7536 -0.4989 -0.6143
   11TCq1    C7  172   4.654   0.388  14.075  0.6625 -0.0112 -0.4167
   11TCq1    C8  173   4.463   0.259  13.994 -0.2821 -0.3670  0.1712
   11TCq1    O4  174   4.395   0.349  14.040 -0.3359  0.0851  0.3318
   11TCq1    C9  175   0.158   0.140  13.844 -0.4605  0.8670  0.5283
   11TCq1    O5  176   0.107   0.079  13.748 -0.0136 -0.3521 -1.0237
   11TCq1    O6  177   0.281   0.150  13.870  0.3861  0.1769  0.1860
   11TCq1    H1  178   0.275   0.375  14.178  0.7643 -0.0505  1.7899
   11TCq1    H2  179   0.239   0.346  13.989 -0.3951  0.9499 -1.6030
   11TCq1    H3  180   4.650   0.123  13.861  1.9747 -1.9429  0.0710
   11TCq1    H4  181   4.595   0.450  14.141 -1.5226  0.3534 -2.7139
   12MPD2     C  182   4.205   0.155  13.925 -0.1711 -0.5675 -0.5901
   12MPD2    C1  183   4.320   0.078  13.917 -0.1138 -0.1110  0.3126
   12MPD2    C2  184   4.322   4.686  13.862  0.8646 -0.0147  0.5757
   12MPD2    C3  185   4.197   4.642  13.811  0.4509  0.2226  0.5089
   12MPD2    C4  186   4.083   4.720  13.826 -0.1982 -0.2963 -0.0828
   12MPD2    C5  187   4.088   0.107  13.885  0.4386  1.2071  0.2422
   12MPD2     H  188   4.414   4.630  13.852  0.0274 -1.6541  1.9745
   12MPD2    H1  189   3.985   4.678  13.807  0.1742 -1.0027 -0.4966
   12MPD2    H2  190   4.210   0.250  13.976  1.2425 -0.4113 -1.0393
   12MPD2    H3  191   3.994   0.158  13.901 -0.8724 -1.7487  2.0379
   12MPD2     N  192   4.177   4.510  13.765  0.1289  0.4779 -0.3064
   12MPD2    H5  193   4.085   4.483  13.732  0.1999  0.0100 -0.1320
   12MPD2    N1  194   4.437   0.127  13.963 -0.0917 -0.0877  0.4765
   12MPD2    H7  195   4.515   0.065  13.983  0.5670  1.1044  1.6073
   13TCq1    O1  196   3.376   4.644  10.082 -0.1105  0.5548 -0.2812
   13TCq1    C1  197   3.399   4.534  10.008  0.3079  0.7964  0.1480
   13TCq1    O2  198   3.462   4.530   9.905 -0.0799 -0.0645  0.0028
   13TCq1    C2  199   3.338   4.412  10.076 -0.2653  0.1614 -0.1752
   13TCq1    C3  200   3.317   4.304   9.995 -0.1555 -0.7476  0.6024
   13TCq1    C4  201   3.268   4.188  10.055 -0.5238  0.2244  0.1470
   13TCq1    C5  202   3.262   4.170  10.190 -0.2849  0.1721  0.0868
   13TCq1    C6  203   3.280   4.286  10.265 -0.0591  0.4465 -0.4718
   13TCq1    C7  204   3.322   4.410  10.211  0.1687 -0.3946 -0.2564
   13TCq1    C8  205   3.277   4.276  10.412  0.1477  0.8135  0.1574
   13TCq1    O4  206   3.273   4.376  10.484 -0.5076  0.3826 -0.2373
   13TCq1    C9  207   3.245   4.075   9.967 -0.9563 -0.4885  0.4317
   13TCq1    O5  208   3.244   4.084   9.842 -0.2534  0.5904 -0.6147
   13TCq1    O6  209   3.227   3.962  10.012 -0.1701 -0.4063 -0.1380
   13TCq1    H1  210   3.285   4.632  10.118  0.2238 -3.0225 -0.6024
   13TCq1    H2  211   3.326   4.316   9.887 -2.6393  1.7070  0.6928
   13TCq1    H3  212   3.236   4.069  10.220 -0.4359 -0.0685 -0.8397
   13TCq1    H4  213   3.353   4.496  10.268  0.4998 -0.5346 -0.2230
   14MPD2     C  214   3.338   3.967  10.588  0.0204 -0.4825 -0.0976
   14MPD2    C1  215   3.303   4.100  10.583 -0.5709 -0.0850 -0.2237
   14MPD2    C2  216   3.306   4.177  10.697 -0.1554 -0.1910 -0.3132
   14MPD2    C3  217   3.335   4.111  10.820  0.3320  0.3758  0.6444
   14MPD2    C4  218   3.362   3.979  10.828 -0.3951 -0.0043  0.2676
   14MPD2    C5  219   3.371   3.907  10.709  0.6495  1.0035 -0.1215
   14MPD2     H  220   3.285   4.283  10.692  0.0093 -0.2256 -1.6218
   14MPD2    H1  221   3.372   3.934  10.926  0.2116  0.5380  0.4595
   14MPD2    H2  222   3.335   3.919  10.491  0.1020  1.2090 -0.9422
   14MPD2    H3  223   3.401   3.803  10.721 -0.6396  0.6485  0.0100
   14MPD2     N  224   3.320   4.193  10.942  0.1797 -0.9259 -0.0104
   14MPD2    H5  225   3.313   4.289  10.910  1.6296 -0.6093  0.6201
   14MPD2    N1  226   3.280   4.142  10.450  0.5583 -0.3951  0.0315
   14MPD2    H7  227   3.293   4.070  10.380 -0.5345 -0.1929 -0.3860
   15TCq1    O1  228   1.977   3.976   2.144 -0.1263 -0.1439 -0.4030
   15TCq1    C1  229   1.923   4.037   2.042  0.1166  0.2204 -0.8790
   15TCq1    O2  230   1.973   4.080   1.938 -0.2809  0.7527  0.1632
   15TCq1    C2  231   1.785   4.011   2.043  0.4140 -0.1970 -0.3926
   15TCq1    C3  232   1.717   4.034   2.160  0.4857  0.4996  0.3316
   15TCq1    C4  233   1.586   4.000   2.155 -0.2964 -0.1975  0.1237
   15TCq1    C5  234   1.535   3.927   2.052  0.4397  0.4542  0.7811
   15TCq1    C6  235   1.614   3.900   1.941 -0.7100 -0.5130 -0.0155
   15TCq1    C7  236   1.738   3.953   1.932  0.4939  0.3345  0.1595
   15TCq1    C8  237   1.583   3.799   1.843 -0.1173  0.3165  0.7677
   15TCq1    O4  238   1.651   3.799   1.742 -0.3765  0.4736  0.1315
   15TCq1    C9  239   1.501   4.032   2.270  0.0109  0.7308  0.3072
   15TCq1    O5  240   1.386   3.980   2.275 -0.0329 -0.2155  0.3282
   15TCq1    O6  241   1.563   4.073   2.375  0.0690  0.1453 -0.1636
   15TCq1    H1  242   1.901   3.931   2.188  1.2199 -1.3421  0.6692
   15TCq1    H2  243   1.763   4.084   2.244 -0.1438 -0.6951  1.3844
   15TCq1    H3  244   1.432   3.896   2.060  0.0276  0.8085 -3.4136
   15TCq1    H4  245   1.813   3.933   1.856 -0.7303 -0.8952 -0.7259
   16MPD2     C  246   1.399   3.484   1.914  0.1514  0.2628  0.4700
   16MPD2    C1  247   1.483   3.572   1.835 -0.3925 -0.3149 -0.5547
   16MPD2    C2  248   1.539   3.531   1.714  0.3727  0.2336 -0.2818
   16MPD2    C3  249   1.512   3.398   1.673  0.3165 -0.4117  0.3956
   16MPD2    C4  250   1.428   3.316   1.744  0.3440  0.0874  0.1666
   16MPD2    C5  251   1.373   3.359   1.860 -0.1960 -0.1131 -0.4345
   16MPD2     H  252   1.616   3.592   1.669 -1.0860  1.7130 -0.7782
   16MPD2    H1  253   1.411   3.217   1.703  0.2211  0.3086 -0.3188
   16MPD2    H2  254   1.356   3.519   2.007  1.3726 -2.7898  2.1878
   16MPD2    H3  255   1.303   3.291   1.906 -0.4134  0.3050 -0.1410
   16MPD2     N  256   1.566   3.359   1.556  0.4024  0.0848 -0.0220
   16MPD2    H5  257   1.617   3.434   1.511 -0.0776  1.3985  1.5812
   16MPD2    N1  258   1.512   3.697   1.904  0.9264  0.0679  0.2846
   16MPD2    H7  259   1.472   3.717   1.996 -0.8446 -3.2549  0.2477
   17TMC1    C1  260   3.875   3.780  11.457  0.5706 -0.1975  0.2660
   17TMC1    C2  261   3.791   3.739  11.554  0.3717  0.1198 -0.4065
   17TMC1    C3  262   3.694   3.829  11.595  1.0069 -0.2980 -0.0950
   17TMC1    C4  263   3.858   3.893  11.386 -0.2972 -0.2210 -0.1980
   17TMC1    C5  264   3.748   3.969  11.415  0.1366 -0.2448  0.4884
   17TMC1    C6  265   3.666   3.942  11.518  0.2078 -0.4641 -0.5565
   17TMC1     C  266   3.987   3.695  11.425 -0.2994 -0.2777  0.3329
   17TMC1     O  267   4.035   3.640  11.518 -0.1683  0.0618  0.3052
   17TMC1     H  268   3.817   3.647  11.605 -2.9599 -0.6476 -0.0594
   17TMC1    H1  269   3.927   3.930  11.310 -1.8859  2.1091 -0.5033
   17TMC1    H2  270   3.583   4.005  11.548 -0.3552 -1.0151 -0.9563
   17TMC1    C7  271   3.748   4.100  11.355  0.6259  0.7541 -0.1376
   17TMC1    C8  272   3.595   3.789  11.693  0.2086 -0.1009 -0.8934
   17TMC1    O1  273   3.847   4.162  11.326 -0.3747 -0.4771 -0.3023
   17TMC1    O2  274   3.475   3.820  11.700  0.4664  0.0270 -0.4959
   17TMC1    O3  275   3.630   4.127  11.297 -0.0655 -0.9314  0.0623
   17TMC1    H3  276   3.565   4.063  11.334  0.1920 -1.6194 -0.7008
   17TMC1    O5  277   3.669   3.737  11.797  0.0441 -0.0786 -0.5891
   17TMC1    H5  278   3.766   3.747  11.784 -0.0430  0.1200 -1.0901
   18MPD2     C  279   4.221   3.574  11.310  0.3298  0.0162 -0.2820
   18MPD2    C1  280   4.120   3.619  11.235 -0.3659 -0.1634  0.0679
   18MPD2    C2  281   4.124   3.610  11.099  0.0870 -0.1647 -0.4096
   18MPD2    C3  282   4.225   3.541  11.038 -0.6370  0.2461  0.8041
   18MPD2    C4  283   4.318   3.482  11.112 -0.3127 -0.0947  0.1043
   18MPD2    C5  284   4.322   3.499  11.251  0.1220 -0.1927 -0.5097
   18MPD2     H  285   4.043   3.652  11.040 -1.5262  0.1831  2.0393
   18MPD2    H1  286   4.396   3.427  11.060 -1.2811  0.9522 -2.4320
   18MPD2    H2  287   4.228   3.579  11.418 -0.4878 -1.0471 -0.1746
   18MPD2    H3  288   4.406   3.464  11.309 -0.4721 -0.2537  0.3095
   18MPD2     N  289   4.241   3.525  10.896  0.2475  0.1249  0.5539
   18MPD2    H5  290   4.321   3.470  10.866 -0.3218  0.5086 -1.6663
   18MPD2    N1  291   4.020   3.690  11.293  0.1075 -0.1317  0.1570
   18MPD2    H7  292   3.955   3.722  11.222  2.8496  0.8200 -1.9258
   19TMC2    C1  293   0.934   0.172  13.301  0.1781  0.3455 -0.0183
   19TMC2    C2  294   0.867   0.277  13.248  0.1189 -0.7199  0.3473
   19TMC2    C3  295   0.743   0.265  13.207  0.2467 -0.9875  0.0053
   19TMC2    C4  296   0.868   0.052  13.308 -0.7370 -0.0773 -0.1035
   19TMC2    C5  297   0.743   0.036  13.258 -0.2067 -0.0074 -0.4367
   19TMC2    C6  298   0.674   0.141  13.205 -0.0704 -0.0724 -0.3317
   19TMC2     C  299   1.066   0.190  13.351  0.1590 -0.1354  0.1439
   19TMC2     O  300   1.125   0.283  13.301 -0.2630  0.7226 -0.1690
   19TMC2     H  301   0.915   0.374  13.245  1.1045 -1.2401 -0.7690
   19TMC2    H1  302   0.920   4.702  13.352  0.0144  0.7595  0.6144
   19TMC2    H2  303   0.572   0.126  13.171  0.6297 -4.1973 -0.5985
   19TMC2    C7  304   0.669   4.659  13.319 -1.2075  0.5725  0.0758
   19TMC2    C8  305   0.705   0.365  13.113  0.0953  0.3099  0.0423
   19TMC2    O1  306   0.736   4.565  13.356  0.0826 -0.0649 -0.2244
   19TMC2    O2  307   0.786   0.409  13.033  0.2010 -0.3439  0.1157
   19TMC2    O5  308   0.574   0.371  13.101 -0.5450  0.2287 -0.2662
   19TMC2    H5  309   0.529   0.356  13.187  1.7192  2.2285  1.2782
   20MPD2     C  310   1.339   0.159  13.460 -0.4795 -0.1174 -0.1922
   20MPD2    C1  311   1.227   0.099  13.514 -0.5631 -0.1477 -0.3327
   20MPD2    C2  312   1.236   0.034  13.632 -0.5655 -0.6039  0.0539
   20MPD2    C3  313   1.346   0.039  13.708  0.2037 -0.0445 -0.1441
   20MPD2    C4  314   1.459   0.102  13.653  0.0039 -0.5691 -0.0875
   20MPD2    C5  315   1.461   0.159  13.524  0.0205  0.1635 -0.3418
   20MPD2     H  316   1.144   4.725  13.670 -0.0950 -0.5972  1.1947
   20MPD2    H1  317   1.553   0.099  13.707 -0.0750 -1.9078 -0.0276
   20MPD2    H2  318   1.336   0.203  13.361  2.7810 -1.9073 -1.1025
   20MPD2    H3  319   1.546   0.204  13.476  2.2930 -1.8419  1.7834
   20MPD2     N  320   1.334   0.011  13.846  0.7440 -0.0576 -0.7016
   20MPD2    H5  321   1.410   0.042  13.905 -0.0412 -0.2365  0.4034
   20MPD2    N1  322   1.102   0.106  13.449  0.2974 -0.5853 -0.5232
   20MPD2    H7  323   1.031   0.047  13.491 -0.9825 -0.0711 -1.9766
   21TMC2    C1  324   3.259   0.187  14.625 -0.2420  0.0411  0.3487
   21TMC2    C2  325   3.249   0.054  14.598  0.3762  0.4440  0.1301
   21TMC2    C3  326   3.148   4.722  14.658 -0.7285  0.1893 -0.2401
   21TMC2    C4  327   3.171   0.253  14.698 -1.0047 -0.0571  0.4697
   21TMC2    C5  328   3.071   0.183  14.761 -1.0317  0.1489  0.1713
   21TMC2    C6  329   3.059   0.047  14.750  0.5505 -1.1496 -0.5498
   21TMC2     C  330   3.396   0.256  14.608 -0.0022 -0.2975 -0.1919
   21TMC2     O  331   3.481   0.194  14.549  0.5331 -0.1490  0.2261
   21TMC2     H  332   3.327   0.007  14.539 -0.8127 -1.5609  0.1642
   21TMC2    H1  333   3.182   0.355  14.732  1.6959  0.4762 -2.0447
   21TMC2    H2  334   2.969   0.003  14.789 -0.7193  2.3502  0.5043
   21TMC2    C7  335   2.952   0.251  14.799 -0.2152  0.7501 -0.0470
   21TMC2    C8  336   3.130   4.582  14.628  0.2682 -0.7069 -0.3614
   21TMC2    O1  337   2.891   0.203  14.893 -0.6339 -0.4801 -0.1248
   21TMC2    O2  338   3.152   4.538  14.515 -0.0355 -0.3160 -0.1022
   21TMC2    O5  339   3.070   4.513  14.726  0.1077 -0.2239 -0.3598
   21TMC2    H5  340   3.078   4.553  14.815 -0.5456 -0.2998 -0.2653
   22MPD2     C  341   3.727   0.650  14.675 -0.6404  0.2645  0.0969
   22MPD2    C1  342   3.746   0.512  14.659  0.4160 -0.7765 -0.3450
   22MPD2    C2  343   3.642   0.426  14.652  0.4546 -0.2612 -0.3482
   22MPD2    C3  344   3.510   0.469  14.676  0.1118  0.5595  0.1441
   22MPD2    C4  345   3.490   0.606  14.704 -0.0995  0.7690 -0.3775
   22MPD2    C5  346   3.601   0.691  14.696 -1.0043 -0.4147 -0.3258
   22MPD2     H  347   3.654   0.320  14.636  0.8540 -0.5690  2.0495
   22MPD2    H1  348   3.392   0.654  14.707 -0.7434 -0.4654 -1.6688
   22MPD2    H2  349   3.807   0.720  14.657  1.4296 -1.5730  2.1141
   22MPD2    H3  350   3.580   0.797  14.708  2.5798  0.2242  0.3063
   22MPD2     N  351   3.400   0.383  14.663  0.4851  0.3384  0.7467
   22MPD2    H5  352   3.313   0.427  14.692  1.2868  2.1836  0.2985
   22MPD2    N1  353   3.862   0.449  14.613  0.1999  0.1592  0.6290
   22MPD2    H7  354   3.851   0.351  14.589  1.0532  0.9732 -3.0747
   23TMC2    C1  355   0.118   1.332  14.191  0.3238  1.0876 -0.7342
   23TMC2    C2  356   0.217   1.327  14.093  0.6052 -0.6021 -0.1426
   23TMC2    C3  357   0.189   1.262  13.979  0.1927 -1.1968  0.1179
   23TMC2    C4  358   4.729   1.274  14.166 -0.3634  0.3759 -0.5926
   23TMC2    C5  359   4.703   1.222  14.044 -0.2934 -0.3669  0.0169
   23TMC2    C6  360   0.067   1.204  13.951 -0.4755  0.8631  0.4508
   23TMC2     C  361   0.163   1.334  14.324 -0.0782 -0.5585 -0.5240
   23TMC2     O  362   0.096   1.273  14.404 -0.6704 -0.0262 -0.4199
   23TMC2     H  363   0.321   1.345  14.115  0.7232  1.1586 -2.2088
   23TMC2    H1  364   4.661   1.272  14.251  2.8258  2.4266  2.0268
   23TMC2    H2  365   0.053   1.149  13.859  0.2383  1.1727  0.1596
   23TMC2    C7  366   4.588   1.140  14.031  0.3024  0.3652  0.2022
   23TMC2    C8  367   0.291   1.256  13.874  0.6528  0.0317  0.3465
   23TMC2    O1  368   4.593   1.055  13.941  0.3583 -0.0091 -0.4983
   23TMC2    O2  369   0.408   1.229  13.901 -0.2547 -0.7319  0.1533
   23TMC2    O5  370   0.252   1.360  13.793  0.1412 -0.1096 -0.4146
   23TMC2    H5  371   0.154   1.367  13.792  0.1827  0.5342 -0.0757
   24MPD2     C  372   0.382   1.553  14.734  0.2271  0.3971 -0.5135
   24MPD2    C1  373   0.340   1.424  14.715  0.0647  0.5556  0.4236
   24MPD2    C2  374   0.288   1.383  14.594  0.1423 -0.2103 -0.3092
   24MPD2    C3  375   0.282   1.472  14.486  0.0992 -0.0164 -0.0254
   24MPD2    C4  376   0.337   1.596  14.499  0.3398 -0.1634 -0.0772
   24MPD2    C5  377   0.390   1.635  14.622 -0.3804 -0.5914  0.4661
   24MPD2     H  378   0.248   1.283  14.592 -0.3016  0.0059 -2.0330
   24MPD2    H1  379   0.339   1.661  14.413 -2.1366 -1.6115 -1.2457
   24MPD2    H2  380   0.424   1.577  14.831  0.0993  1.2934 -0.6842
   24MPD2    H3  381   0.433   1.734  14.636  1.1022 -0.7703 -2.7137
   24MPD2     N  382   0.245   1.434  14.357 -0.3571 -0.0682  0.1776
   24MPD2    H5  383   0.271   1.500  14.284 -2.3369 -0.5023 -0.9301
   24MPD2    N1  384   0.354   1.336  14.830  0.0415  0.1449  0.0213
   24MPD2    H7  385   0.408   1.371  14.909 -0.1938 -1.0660  0.7141
   25TMC2    C1  386   3.569   2.763  11.241 -0.0188 -0.2280 -0.9780
   25TMC2    C2  387   3.703   2.782  11.257 -0.1939  0.4441  0.1918
   25TMC2    C3  388   3.752   2.899  11.287 -0.3065  0.0700 -0.0172
   25TMC2    C4  389   3.480   2.858  11.283 -0.1442  0.6640  0.2678
   25TMC2    C5  390   3.536   2.981  11.304 -0.3381  0.2836 -0.2185
   25TMC2    C6  391   3.669   3.008  11.306  0.3766 -0.2800  1.1247
   25TMC2     C  392   3.527   2.624  11.236 -0.0978  0.4964  0.4251
   25TMC2     O  393   3.610   2.537  11.261  0.0810 -0.5426 -0.2703
   25TMC2     H  394   3.767   2.696  11.240  0.5847  1.4392 -1.9065
   25TMC2    H1  395   3.376   2.834  11.303 -0.7097  1.9496 -1.0967
   25TMC2    H2  396   3.692   3.113  11.315  2.2843 -0.6020 -0.0727
   25TMC2    C7  397   3.451   3.088  11.360 -0.3350  0.1528  0.2368
   25TMC2    C8  398   3.878   2.924  11.214 -0.2387 -0.4171 -0.1931
   25TMC2    O1  399   3.502   3.158  11.445  0.0854  0.4372  0.3762
   25TMC2    O2  400   3.930   2.827  11.156 -0.3130  0.0015 -0.5332
   25TMC2    O5  401   3.946   3.010  11.296  0.4817  0.4004  0.1512
   25TMC2    H5  402   3.895   3.089  11.323 -0.6407 -0.1451 -0.3791
   26MPD2     C  403   3.161   2.277  11.174  0.1917 -0.7041 -0.0377
   26MPD2    C1  404   3.110   2.397  11.138  0.4455  0.0303  0.2833
   26MPD2    C2  405   3.191   2.507  11.154  0.1812  0.4003  0.2880
   26MPD2    C3  406   3.327   2.496  11.187  0.1504  0.6368 -0.8200
   26MPD2    C4  407   3.380   2.371  11.215 -0.4954 -0.6443  0.2212
   26MPD2    C5  408   3.296   2.265  11.199  0.4021  0.3600 -0.7028
   26MPD2     H  409   3.155   2.605  11.124  2.2090  0.6914 -1.1614
   26MPD2    H1  410   3.486   2.352  11.226 -0.2499  0.4878 -0.0843
   26MPD2    H2  411   3.102   2.186  11.161 -1.8640  0.7349 -0.7974
   26MPD2    H3  412   3.346   2.169  11.196 -1.5170 -0.5562 -2.9371
   26MPD2     N  413   3.399   2.613  11.192  0.2501 -0.1952 -0.1346
   26MPD2    H5  414   3.344   2.698  11.180 -0.6593 -0.6002  1.2092
   26MPD2    N1  415   2.970   2.414  11.111  0.4283  0.6651 -0.4513
   26MPD2    H7  416   2.912   2.330  11.112  1.5664 -0.1306 -0.5391
   27TMC2    C1  417   2.535   0.831  11.828  0.3537  0.1518  0.4348
   27TMC2    C2  418   2.478   0.933  11.749  0.1685  0.3944 -0.2570
   27TMC2    C3  419   2.434   1.054  11.799 -0.3789  0.1322 -0.7955
   27TMC2    C4  420   2.563   0.876  11.960 -0.2228  0.0948  0.0238
   27TMC2    C5  421   2.520   1.002  12.007 -0.0726 -0.0697 -0.5421
   27TMC2    C6  422   2.457   1.092  11.925 -0.1296  0.0212  0.3838
   27TMC2     C  423   2.449   0.721  11.822  0.0808 -0.2766  0.5310
   27TMC2     O  424   2.441   0.666  11.713  0.0634 -0.2820 -0.7477
   27TMC2     H  425   2.453   0.897  11.649  0.0622  0.0748 -0.1146
   27TMC2    H1  426   2.618   0.806  12.022  1.8089  1.6291 -0.0443
   27TMC2    H2  427   2.417   1.189  11.952 -3.2425 -1.3600  0.7899
   27TMC2    C7  428   2.494   1.008  12.143  0.5847  0.2818 -0.1701
   27TMC2    C8  429   2.365   1.144  11.708 -0.3476 -0.5508  0.5470
   27TMC2    O1  430   2.525   0.907  12.206 -0.5446 -0.3811  0.3272
   27TMC2    O2  431   2.385   1.123  11.592 -0.8145 -0.7475  0.1229
   27TMC2    O5  432   2.246   1.167  11.768  0.2520 -0.1177 -0.0880
   27TMC2    H5  433   2.238   1.149  11.864 -1.2374  0.4104 -0.1199
   28MPD2     C  434   2.000   0.520  11.987 -0.3743 -0.1313 -0.1304
   28MPD2    C1  435   2.041   0.613  12.077 -0.7294 -0.5485 -0.3338
   28MPD2    C2  436   2.164   0.673  12.054 -0.2595 -0.1161 -0.3687
   28MPD2    C3  437   2.242   0.649  11.944 -0.4423 -0.0689 -0.5256
   28MPD2    C4  438   2.203   0.552  11.851 -0.0610 -0.5649  0.0229
   28MPD2    C5  439   2.079   0.491  11.877  0.7855  0.4541 -0.2782
   28MPD2     H  440   2.201   0.742  12.128  0.3104  0.5077 -1.2371
   28MPD2    H1  441   2.255   0.523  11.761  2.0730 -0.6128  1.2626
   28MPD2    H2  442   1.906   0.466  11.997 -0.2338 -0.3321  0.1121
   28MPD2    H3  443   2.051   0.401  11.823  0.8820 -0.2759  0.8743
   28MPD2     N  444   2.358   0.728  11.928 -0.3091  0.3368 -0.4738
   28MPD2    H5  445   2.391   0.781  12.008  1.4205 -1.4135 -0.0260
   28MPD2    N1  446   1.961   0.621  12.195 -0.4463  0.2553  0.4674
   28MPD2    H7  447   1.874   0.568  12.195 -0.9165  1.0293 -0.0514
   29TMC2    C1  448   1.918   3.116  14.409  0.0220 -0.2486 -0.1598
   29TMC2    C2  449   1.937   3.074  14.535  0.6755 -0.4200 -0.3185
   29TMC2    C3  450   2.003   3.157  14.621 -0.0976  0.2864  0.2013
   29TMC2    C4  451   1.943   3.243  14.370  0.0073  0.0323  0.3753
   29TMC2    C5  452   2.001   3.325  14.464  0.2107  0.6166  0.0753
   29TMC2    C6  453   2.022   3.286  14.591 -0.2670 -0.3680  0.0074
   29TMC2     C  454   1.921   3.021  14.306  0.5224 -0.1975 -0.1371
   29TMC2     O  455   1.985   2.924  14.334 -0.3602 -0.3069  0.0813
   29TMC2     H  456   1.943   2.968  14.559  0.1442  0.0527  1.8735
   29TMC2    H1  457   1.924   3.281  14.271 -0.3450 -0.2212  0.3458
   29TMC2    H2  458   2.061   3.352  14.668 -0.7203 -0.5732  0.4184
   29TMC2    C7  459   2.056   3.454  14.419  0.0228 -0.5758 -0.3581
   29TMC2    C8  460   2.015   3.113  14.760 -0.3341 -0.7184  0.2547
   29TMC2    O1  461   2.001   3.492  14.316  0.1974  0.5674  0.2734
   29TMC2    O2  462   1.932   3.040  14.812 -0.5000 -1.0663  0.7988
   29TMC2    O5  463   2.109   3.183  14.828  0.1622 -0.4009  0.3168
   29TMC2    H5  464   2.180   3.215  14.769 -0.4550 -0.6950 -0.5863
   30MPD2     C  465   1.814   2.802  13.851 -1.0093 -0.1008  0.3266
   30MPD2    C1  466   1.898   2.765  13.952  0.2173 -0.1924  0.4047
   30MPD2    C2  467   1.915   2.850  14.061 -0.3621  0.5818 -0.4610
   30MPD2    C3  468   1.851   2.972  14.073  0.1264  0.4356 -0.7669
   30MPD2    C4  469   1.779   3.015  13.967  0.4896 -0.1611 -0.9994
   30MPD2    C5  470   1.761   2.931  13.862 -0.7217 -0.1404  0.6528
   30MPD2     H  471   1.979   2.818  14.143 -0.5138 -0.0758 -0.5964
   30MPD2    H1  472   1.732   3.111  13.954  1.7914  0.5717 -0.3165
   30MPD2    H2  473   1.797   2.745  13.761 -1.9506 -2.0011  1.7197
   30MPD2    H3  474   1.707   2.972  13.777 -1.1954 -1.5566  0.2801
   30MPD2     N  475   1.854   3.059  14.185 -0.1255 -0.4993  0.2053
   30MPD2    H5  476   1.799   3.143  14.170  0.8946  0.1860  0.3003
   30MPD2    N1  477   1.952   2.636  13.967  0.2366 -0.0949  0.0031
   30MPD2    H7  478   2.031   2.628  14.030  1.1583  1.6799 -0.9144
   31TMC2    C1  479   0.002   1.780  15.478  0.4195  0.1340  0.1409
   31TMC2    C2  480   4.608   1.833  15.468 -0.2173 -0.0721  0.0578
   31TMC2    C3  481   4.533   1.849  15.580 -0.2943 -0.6637 -0.3094
   31TMC2    C4  482   0.050   1.735  15.602 -0.3738  0.8945 -0.1652
   31TMC2    C5  483   4.702   1.737  15.711  0.6756 -1.3040  0.8063
   31TMC2    C6  484   4.577   1.787  15.695 -0.5480  0.3147 -0.5481
   31TMC2     C  485   0.084   1.756  15.357 -0.1114  0.2013 -1.1510
   31TMC2     O  486   0.135   1.650  15.350  0.0164  0.1599  0.0804
   31TMC2     H  487   4.565   1.844  15.370 -0.6892 -0.8272  0.1791
   31TMC2    H1  488   0.144   1.681  15.615 -1.9567 -1.7648  0.3567
   31TMC2    H2  489   4.518   1.801  15.784  0.9793  0.3109  0.4722
   31TMC2    C7  490   0.002   1.652  15.821 -0.0296  0.0443 -0.5071
   31TMC2    C8  491   4.400   1.891  15.579 -0.5415 -0.2918 -0.3600
   31TMC2    O1  492   0.049   1.544  15.794  0.6196  0.3032  0.6385
   31TMC2    O2  493   4.343   1.884  15.686  0.1841 -0.2585 -0.0613
   31TMC2    O5  494   4.386   1.965  15.470  0.0514  0.3805  0.3945
   31TMC2    H5  495   4.467   1.959  15.415 -1.8147  1.7504 -2.5556
   32MPD2     C  496   0.297   1.920  14.926 -0.6061 -0.3817 -0.3251
   32MPD2    C1  497   0.188   2.000  14.957  0.1035  0.5216 -0.5763
   32MPD2    C2  498   0.120   1.976  15.072  0.1252  0.5703 -0.0496
   32MPD2    C3  499   0.150   1.868  15.152 -0.3298 -1.1349 -0.3950
   32MPD2    C4  500   0.255   1.788  15.117 -0.2961 -0.3011 -0.2644
   32MPD2    C5  501   0.326   1.812  15.003  0.0363 -0.5327  0.9011
   32MPD2     H  502   0.036   2.038  15.103 -1.4118 -1.5932  0.0586
   32MPD2    H1  503   0.281   1.698  15.171 -1.4368  0.8367  2.2169
   32MPD2    H2  504   0.357   1.941  14.838 -0.0444  2.8308  0.8368
   32MPD2    H3  505   0.406   1.744  14.976  0.5026  0.1059  0.6803
   32MPD2     N  506   0.071   1.855  15.267  0.3111  0.3538 -0.2684
   32MPD2    H5  507   0.018   1.933  15.304  1.1077  0.4267  0.7410
   32MPD2    N1  508   0.154   2.098  14.865  0.3410  0.1250 -0.1120
   32MPD2    H7  509   0.200   2.096  14.775  1.6410  2.5144  0.4790
   33TMC2    C1  510   3.967   4.056   9.753  0.0051  0.3454  0.1015
   33TMC2    C2  511   3.859   3.983   9.695 -0.6917  0.4757  0.1308
   33TMC2    C3  512   3.820   4.039   9.578 -0.2578  0.1281  0.0081
   33TMC2    C4  513   4.033   4.165   9.698 -0.3947 -0.5778  0.5051
   33TMC2    C5  514   3.981   4.212   9.582 -0.1044  0.3970 -0.3652
   33TMC2    C6  515   3.873   4.155   9.525 -0.9001  0.1883  0.8183
   33TMC2     C  516   4.003   4.024   9.893  0.7752  0.1158  0.5251
   33TMC2     O  517   3.990   3.903   9.919  0.1251  0.0782  0.0381
   33TMC2     H  518   3.801   3.899   9.733 -1.0247  0.7276  0.1857
   33TMC2    H1  519   4.126   4.206   9.738  0.0808 -0.6151 -0.5727
   33TMC2    H2  520   3.842   4.178   9.424 -1.1809 -1.2554  0.5773
   33TMC2    C7  521   4.078   4.285   9.496  0.1479 -0.8605  0.1052
   33TMC2    C8  522   3.710   3.975   9.511 -0.2482 -0.2117  0.5436
   33TMC2    O1  523   4.192   4.290   9.539  0.0020 -0.2846  0.2133
   33TMC2    O2  524   3.696   3.854   9.495 -0.1539  0.5840  0.4136
   33TMC2    O5  525   3.609   4.048   9.575  0.0746  0.1239  0.5403
   33TMC2    H5  526   3.635   4.129   9.623 -1.0584 -0.1949  1.6820
   34MPD2     C  527   4.196   4.130  10.366 -0.3114 -0.2297 -0.3402
   34MPD2    C1  528   4.167   4.006  10.309 -0.0405 -0.3094  0.1230
   34MPD2    C2  529   4.112   4.005  10.181  0.1479  0.1138  1.1670
   34MPD2    C3  530   4.093   4.123  10.108  0.7506 -0.3873 -0.3311
   34MPD2    C4  531   4.139   4.243  10.163 -0.5774 -1.3843 -0.8908
   34MPD2    C5  532   4.186   4.245  10.293  0.0502  0.1184  0.2807
   34MPD2     H  533   4.086   3.913  10.130  0.7176  1.2765 -1.1977
   34MPD2    H1  534   4.136   4.336  10.108 -0.6568 -0.0556  1.3472
   34MPD2    H2  535   4.233   4.141  10.468 -0.8482  1.4446 -0.3324
   34MPD2    H3  536   4.223   4.340  10.330  0.9019 -0.6299  1.3487
   34MPD2     N  537   4.046   4.132   9.974  0.3359 -0.8579 -0.3040
   34MPD2    H5  538   4.042   4.226   9.937 -2.5713 -1.3017 -1.1932
   34MPD2    N1  539   4.186   3.891  10.391  0.4304  0.8436 -0.7089
   34MPD2    H7  540   4.202   3.905  10.491 -3.2578  0.9352 -0.1213
   35TMC2    C1  541   0.774   0.822  10.966 -0.1987  0.2991  0.3338
   35TMC2    C2  542   0.788   0.816  10.828 -0.4431  0.3343  0.0492
   35TMC2    C3  543   0.770   0.696  10.768 -0.2759  0.0878  0.4197
   35TMC2    C4  544   0.731   0.714  11.041 -0.3256  0.1830 -0.4587
   35TMC2    C5  545   0.705   0.596  10.972  0.1535 -0.4099 -0.5803
   35TMC2    C6  546   0.730   0.584  10.838 -0.2176  0.1364 -0.7356
   35TMC2     C  547   0.829   0.942  11.028 -0.1639 -0.0079  0.2596
   35TMC2     O  548   0.813   1.048  10.966 -0.0054 -0.2989  0.3246
   35TMC2     H  549   0.836   0.894  10.771 -0.4925 -0.0540 -0.5257
   35TMC2    H1  550   0.707   0.720  11.146 -0.8916  3.2156 -0.7674
   35TMC2    H2  551   0.727   0.483  10.798  2.7311 -1.0808  2.0558
   35TMC2    C7  552   0.635   0.487  11.034 -0.1122  0.2535  0.0438
   35TMC2    C8  553   0.837   0.666  10.647 -0.3834 -0.0759  0.3266
   35TMC2    O1  554   0.553   0.428  10.963  0.3167  0.3214 -0.4721
   35TMC2    O2  555   0.804   0.567  10.586  0.1235 -0.2427 -0.1069
   35TMC2    O5  556   0.968   0.683  10.670  0.0365 -0.1936 -0.2763
   35TMC2    H5  557   0.984   0.765  10.721 -0.7686 -0.6190  0.6494
   36MPD2     C  558   1.100   1.171  11.398 -0.1749 -0.0247 -0.2917
   36MPD2    C1  559   1.104   1.038  11.413 -0.1553 -0.9000 -0.5320
   36MPD2    C2  560   1.038   0.956  11.328 -0.9248 -0.4507 -0.6430
   36MPD2    C3  561   0.951   1.000  11.229  0.4114 -0.0295  0.4435
   36MPD2    C4  562   0.945   1.142  11.220  0.5669 -0.4258 -0.2711
   36MPD2    C5  563   1.017   1.226  11.300 -0.1851  0.2661 -0.3447
   36MPD2     H  564   1.057   0.850  11.337  1.3856 -0.1653 -2.1968
   36MPD2    H1  565   0.871   1.186  11.154 -1.5619 -1.4439  1.4084
   36MPD2    H2  566   1.153   1.247  11.454 -0.9669  0.3332 -0.0244
   36MPD2    H3  567   1.016   1.333  11.283  0.3859  0.5483  1.3374
   36MPD2     N  568   0.886   0.906  11.147  0.3401 -0.5434 -0.4877
   36MPD2    H5  569   0.882   0.807  11.167 -0.5678 -0.3044  0.4963
   36MPD2    N1  570   1.184   0.992  11.526 -0.3901 -0.2833 -0.4499
   36MPD2    H7  571   1.217   1.064  11.589  0.0048  1.2680 -2.4378
   37TMC2    C1  572   2.856   0.992  11.322  0.6235  0.7009  0.5643
   37TMC2    C2  573   2.773   1.012  11.211  0.6504  0.5390  0.0656
   37TMC2    C3  574   2.819   0.987  11.088  0.6176  0.4983  0.1424
   37TMC2    C4  575   2.985   0.944  11.303  0.3504  0.3494 -0.2944
   37TMC2    C5  576   3.027   0.932  11.177 -0.3997  0.2182 -0.0782
   37TMC2    C6  577   2.945   0.939  11.065 -0.1985  0.3859  0.0000
   37TMC2     C  578   2.811   1.035  11.451 -0.1977  0.2463 -0.2231
   37TMC2     O  579   2.713   1.110  11.453  0.2947  0.1415  0.1033
   37TMC2     H  580   2.670   1.042  11.226  0.0682 -0.9076 -1.0989
   37TMC2    H1  581   3.055   0.941  11.386  0.8912 -0.3801 -0.7869
   37TMC2    H2  582   2.999   0.916  10.974 -1.0634  1.6986 -0.8461
   37TMC2    C7  583   3.168   0.902  11.168 -0.2084  0.3662 -0.1154
   37TMC2    C8  584   2.716   1.007  10.988 -0.2542  0.1812 -0.9948
   37TMC2    O1  585   3.235   0.869  11.266  0.2254 -0.6137 -0.3371
   37TMC2    O2  586   2.599   0.989  11.023  0.3841 -0.3450  0.0304
   37TMC2    O5  587   2.763   0.993  10.860  0.5988  0.6651  0.1378
   37TMC2    H5  588   2.856   1.023  10.846  1.1464 -1.3644 -0.4862
   38MPD2     C  589   2.882   1.103  11.948 -0.2172 -0.0327  0.1400
   38MPD2    C1  590   2.941   0.984  11.912  0.3701  0.3132 -0.1898
   38MPD2    C2  591   2.950   0.950  11.780  0.4149 -0.2427  0.3489
   38MPD2    C3  592   2.882   1.023  11.684  0.3217  0.0686 -0.0741
   38MPD2    C4  593   2.819   1.143  11.723  0.3103 -0.5114 -0.4327
   38MPD2    C5  594   2.823   1.187  11.851  0.2973 -0.2638 -0.4701
   38MPD2     H  595   2.996   0.859  11.745  0.5205 -0.1192  0.1624
   38MPD2    H1  596   2.761   1.211  11.660  1.2669  1.8357  1.2136
   38MPD2    H2  597   2.883   1.142  12.049 -1.1139  0.2716  0.0305
   38MPD2    H3  598   2.774   1.280  11.876 -0.4652 -1.0634  1.0215
   38MPD2     N  599   2.876   0.976  11.552  0.4492 -0.0333  0.1846
   38MPD2    H5  600   2.935   0.898  11.524 -1.0363 -1.6730  1.5802
   38MPD2    N1  601   3.009   0.897  12.001 -0.0115 -0.0571  0.9798
   38MPD2    H7  602   3.064   0.826  11.953  1.8502 -0.2020  3.3235
   39TMC2    C1  603   1.740   2.714   1.500 -0.3434  0.1774  0.7234
   39TMC2    C2  604   1.867   2.658   1.519  0.0200  0.3875 -0.3861
   39TMC2    C3  605   1.951   2.715   1.614 -0.3868 -0.3897 -0.9288
   39TMC2    C4  606   1.694   2.807   1.589  0.1380  0.0568  0.3748
   39TMC2    C5  607   1.784   2.859   1.682  0.4413  0.1516 -0.0150
   39TMC2    C6  608   1.922   2.818   1.696 -0.0686  0.9524 -0.2426
   39TMC2     C  609   1.638   2.639   1.429  0.1814 -0.7014  0.3765
   39TMC2     O  610   1.532   2.694   1.408  0.3606 -0.0709 -0.0662
   39TMC2     H  611   1.910   2.578   1.459 -0.0040 -0.1847  0.3592
   39TMC2    H1  612   1.597   2.852   1.572  1.6917  3.1564 -0.1863
   39TMC2    H2  613   1.983   2.857   1.777  0.6910  1.4634 -1.0712
   39TMC2    C7  614   1.745   2.968   1.772  0.1088 -0.0387  1.4326
   39TMC2    C8  615   2.079   2.654   1.615  0.4262 -0.5663  0.5319
   39TMC2    O1  616   1.636   2.954   1.837 -0.3985  0.0703 -0.0571
   39TMC2    O2  617   2.145   2.642   1.515  0.4686 -0.0008  0.1286
   39TMC2    O5  618   2.125   2.644   1.738 -0.0241 -0.5821 -0.3205
   39TMC2    H5  619   2.050   2.649   1.802  0.8029  2.8641  0.3856
   40MPD2     C  620   1.662   2.290   1.314  0.1514  0.6882  0.6139
   40MPD2    C1  621   1.598   2.405   1.337 -0.0962 -0.4841 -0.1569
   40MPD2    C2  622   1.470   2.421   1.287 -0.5324  0.3904 -0.3330
   40MPD2    C3  623   1.410   2.322   1.208 -0.8102 -0.1282  0.1869
   40MPD2    C4  624   1.486   2.214   1.172 -0.1268  0.5133 -0.3495
   40MPD2    C5  625   1.601   2.200   1.236  0.6011 -0.1050  0.1918
   40MPD2     H  626   1.416   2.507   1.324 -0.7709  0.2867 -0.4451
   40MPD2    H1  627   1.448   2.123   1.127 -2.5237  0.4761  1.7017
   40MPD2    H2  628   1.755   2.266   1.366 -0.0498 -3.0753 -0.7304
   40MPD2    H3  629   1.657   2.112   1.206  0.4679 -0.0469 -0.2335
   40MPD2     N  630   1.271   2.325   1.176 -0.3057  0.1551 -0.2034
   40MPD2    H5  631   1.232   2.251   1.118 -0.5081 -0.4197  0.6760
   40MPD2    N1  632   1.667   2.505   1.420 -0.0680 -0.5619  0.0087
   40MPD2    H7  633   1.759   2.482   1.456  0.6209  1.0228 -0.7456
   41TMC2    C1  634   0.512   1.274  13.401 -0.3965 -0.0183  1.1610
   41TMC2    C2  635   0.393   1.260  13.475 -0.6415  0.6959  0.4009
   41TMC2    C3  636   0.280   1.303  13.410 -0.3998  0.0729 -0.6105
   41TMC2    C4  637   0.521   1.329  13.277 -0.3279  0.1831 -0.1286
   41TMC2    C5  638   0.400   1.368  13.217  0.0881 -0.1316 -0.1973
   41TMC2    C6  639   0.281   1.355  13.283 -0.0538  0.0369 -0.1743
   41TMC2     C  640   0.635   1.276  13.468 -0.1728 -0.6653  0.4442
   41TMC2     O  641   0.718   1.346  13.423  0.6260  0.4124  0.2870
   41TMC2     H  642   0.380   1.220  13.576  1.3947 -0.0201  0.3613
   41TMC2    H1  643   0.609   1.326  13.213  1.4147 -1.4810  2.3671
   41TMC2    H2  644   0.184   1.377  13.239 -0.5864 -1.1724  0.3796
   41TMC2    C7  645   0.389   1.374  13.075 -0.9736  0.1824  0.0143
   41TMC2    C8  646   0.163   1.242  13.455 -0.5537 -0.1473 -0.3190
   41TMC2    O1  647   0.300   1.435  13.015  0.0631 -0.0990  0.2371
   41TMC2    O2  648   0.058   1.304  13.446 -0.3225  0.0694 -0.8168
   41TMC2    O5  649   0.184   1.115  13.488  0.2607  0.3724 -0.1227
   41TMC2    H5  650   0.276   1.085  13.470  0.6674 -0.0251  2.5812
   42MPD2     C  651   0.800   1.333  13.703 -0.6771  0.3679 -0.4703
   42MPD2    C1  652   0.720   1.225  13.689  0.0342 -0.1407  0.4251
   42MPD2    C2  653   0.716   1.123  13.783  0.3859  0.2521  0.1157
   42MPD2    C3  654   0.790   1.120  13.900  0.6962  0.4488  0.0986
   42MPD2    C4  655   0.865   1.238  13.916 -0.5511 -0.1716 -0.2385
   42MPD2    C5  656   0.871   1.338  13.824  0.7917 -0.3292 -0.2902
   42MPD2     H  657   0.645   1.042  13.768  0.7364 -0.4196  2.0785
   42MPD2    H1  658   0.913   1.238  14.013  1.8648  2.8605 -1.4539
   42MPD2    H2  659   0.815   1.406  13.624  2.1858 -1.2724 -1.4361
   42MPD2    H3  660   0.933   1.425  13.844 -0.4172  0.1673  1.3555
   42MPD2     N  661   0.792   1.018  13.994  0.8111 -0.1975 -0.4662
   42MPD2    H5  662   0.841   1.042  14.080 -1.3963 -1.0501  1.0092
   42MPD2    N1  663   0.626   1.211  13.585  0.0390  0.3785 -0.7692
   42MPD2    H7  664   0.555   1.139  13.596  1.8799 -1.3814 -0.3245
   43TMC2    C1  665   1.741   3.878   0.897  0.1486 -0.4028  0.2052
   43TMC2    C2  666   1.655   3.822   0.988 -0.6050 -0.4674 -0.3099
   43TMC2    C3  667   1.684   3.834   1.121 -0.1887  0.2580 -0.0887
   43TMC2    C4  668   1.844   3.949   0.942  0.0313  0.2785 -0.3968
   43TMC2    C5  669   1.863   3.967   1.077  0.3156 -0.4210 -0.0454
   43TMC2    C6  670   1.782   3.913   1.170 -0.1689 -0.7470 -0.5719
   43TMC2     C  671   1.741   3.825   0.767  0.7136 -0.4150  0.9900
   43TMC2     O  672   1.704   3.708   0.762  0.5944  0.5140  0.5777
   43TMC2     H  673   1.559   3.780   0.958 -1.2163  0.1910  0.7285
   43TMC2    H1  674   1.904   4.000   0.867 -2.5670  2.3756 -1.0267
   43TMC2    H2  675   1.808   3.910   1.275 -1.4060 -0.0496 -0.2471
   43TMC2    C7  676   1.953   4.073   1.110  0.5054  0.7758  0.6192
   43TMC2    C8  677   1.571   3.832   1.206  0.2562  0.6724  0.2644
   43TMC2    O1  678   2.025   4.126   1.026  0.8855  0.3210 -0.0921
   43TMC2    O2  679   1.589   3.816   1.324  0.2329 -0.2099 -0.7574
   43TMC2    O5  680   1.491   3.931   1.156  0.1437  0.2402  0.9006
   43TMC2    H5  681   1.520   3.961   1.068  2.6977 -0.8265  1.3839
   44MPD2     C  682   1.797   3.900   0.257  0.3814  0.2584  0.8012
   44MPD2    C1  683   1.757   3.789   0.325 -0.2476  0.7193  0.3192
   44MPD2    C2  684   1.745   3.796   0.464 -0.3015 -0.3029  0.4196
   44MPD2    C3  685   1.757   3.912   0.534 -0.1331 -0.2059  0.6371
   44MPD2    C4  686   1.797   4.028   0.462  0.0725 -0.4988 -0.3729
   44MPD2    C5  687   1.813   4.013   0.326  0.7941  0.0653  0.3133
   44MPD2     H  688   1.725   3.708   0.524 -0.9213  0.6893  1.6776
   44MPD2    H1  689   1.823   4.123   0.508  2.0165 -1.0756 -0.2431
   44MPD2    H2  690   1.814   3.903   0.150 -0.9165  0.7685  0.6093
   44MPD2    H3  691   1.842   4.095   0.262  0.5102 -1.1544 -1.3683
   44MPD2     N  692   1.764   3.922   0.671  0.4554  0.2035 -0.0552
   44MPD2    H5  693   1.788   4.011   0.714  2.6098  0.7448 -2.4047
   44MPD2    N1  694   1.741   3.667   0.260  0.3802 -0.3701 -0.8725
   44MPD2    H7  695   1.741   3.591   0.328  2.0071  1.7698  1.5378
   45TMC2    C1  696   2.972   1.195   9.544  0.3270  0.1738  0.0771
   45TMC2    C2  697   3.109   1.168   9.529  0.2347  0.1410 -0.0923
   45TMC2    C3  698   3.195   1.276   9.526  0.7628  0.2866 -0.5936
   45TMC2    C4  699   2.916   1.316   9.560  0.2327 -0.2086 -0.0450
   45TMC2    C5  700   3.003   1.421   9.553 -0.3992  0.2530 -0.4249
   45TMC2    C6  701   3.141   1.402   9.533 -0.2272 -0.9259  0.2069
   45TMC2     C  702   2.887   1.080   9.537 -0.5878 -0.7845 -0.5817
   45TMC2     O  703   2.944   0.971   9.544  0.3086  0.2948 -0.1154
   45TMC2     H  704   3.141   1.064   9.528  0.0896  0.0967 -0.1086
   45TMC2    H1  705   2.820   1.334   9.608 -0.5037 -0.1688 -1.5460
   45TMC2    H2  706   3.205   1.490   9.533 -1.1648 -0.2380 -0.8277
   45TMC2    C7  707   2.958   1.546   9.607  0.1987 -0.0214 -0.0212
   45TMC2    C8  708   3.335   1.264   9.480  0.1876  0.1658  0.0970
   45TMC2    O1  709   3.037   1.612   9.674 -0.1051 -0.2071 -0.3075
   45TMC2    O2  710   3.419   1.339   9.523  0.0262  0.2993  0.4960
   45TMC2    O5  711   3.354   1.133   9.440  0.6183  0.5476 -0.0135
   45TMC2    H5  712   3.277   1.084   9.404  1.7745 -2.0773  1.0659
   46MPD2     C  713   2.670   0.877   9.497  0.3849  0.1079  0.0870
   46MPD2    C1  714   2.657   1.012   9.463  0.2498 -0.0633 -0.1014
   46MPD2    C2  715   2.537   1.059   9.407 -0.3216 -0.5215  0.5882
   46MPD2    C3  716   2.447   0.968   9.354  0.6644  0.7040 -0.4714
   46MPD2    C4  717   2.460   0.836   9.381  0.5232 -0.7847  0.0502
   46MPD2    C5  718   2.562   0.794   9.466  0.0692 -0.3683 -0.3734
   46MPD2     H  719   2.526   1.166   9.393  0.6455 -0.1142  2.8724
   46MPD2    H1  720   2.387   0.759   9.359 -0.6892  0.5142 -0.4188
   46MPD2    H2  721   2.749   0.836   9.559  0.8787  2.1850  0.8064
   46MPD2    H3  722   2.565   0.693   9.503  2.8321 -0.0440  0.2831
   46MPD2     N  723   2.335   1.009   9.283  0.5426  0.4902 -0.1164
   46MPD2    H5  724   2.321   1.107   9.258 -0.6683  0.4945  0.5526
   46MPD2    N1  725   2.757   1.109   9.491 -0.1029 -0.4097 -0.2926
   46MPD2    H7  726   2.732   1.204   9.468  2.0131  0.5855  1.5562
   47TMC2    C1  727   4.079   1.350   9.227  0.1982  0.0547 -0.4225
   47TMC2    C2  728   3.960   1.416   9.213 -0.0245  0.9016 -0.0792
   47TMC2    C3  729   3.850   1.350   9.165  0.4502 -0.0282  0.2302
   47TMC2    C4  730   4.082   1.217   9.199  0.3681  0.2572 -0.2744
   47TMC2    C5  731   3.988   1.154   9.130  0.6010  0.0588 -0.1018
   47TMC2    C6  732   3.869   1.218   9.125 -0.1710  0.0137  0.3833
   47TMC2     C  733   4.185   1.417   9.281  0.8583 -0.5441  0.3812
   47TMC2     O  734   4.154   1.527   9.329 -0.3222  0.3764 -0.3457
   47TMC2     H  735   3.959   1.523   9.229 -0.0453  0.8731  0.1105
   47TMC2    H1  736   4.176   1.162   9.198 -0.4549 -1.1603 -0.1969
   47TMC2    H2  737   3.782   1.164   9.088  1.0596 -1.2126 -0.6941
   47TMC2    C7  738   3.988   1.011   9.102  0.0560 -0.0726 -0.7006
   47TMC2    C8  739   3.745   1.432   9.126 -0.2203 -0.5435  0.2332
   47TMC2    O1  740   3.923   0.974   9.000  0.0850  0.2275  0.0702
   47TMC2    O2  741   3.755   1.553   9.116 -0.1919  0.1529 -0.6379
   47TMC2    O5  742   3.638   1.366   9.075 -0.3336 -0.1254  0.4824
   47TMC2    H5  743   3.632   1.278   9.117  1.2191 -0.3386  0.2322
   48MPD2     C  744   4.437   1.494   9.416 -0.1024 -0.5999 -0.2067
   48MPD2    C1  745   4.417   1.390   9.334 -0.4077 -0.5439  0.0838
   48MPD2    C2  746   4.531   1.318   9.295 -0.0408 -0.3756  0.4624
   48MPD2    C3  747   4.656   1.345   9.335  0.0603 -0.0843  0.4054
   48MPD2    C4  748   4.679   1.452   9.418 -0.0300 -0.3039  0.3639
   48MPD2    C5  749   4.566   1.525   9.450 -0.5147 -0.5200 -0.0467
   48MPD2     H  750   4.524   1.227   9.237  0.8831  0.7148 -1.3597
   48MPD2    H1  751   0.040   1.474   9.465  0.4297 -1.3074 -0.1123
   48MPD2    H2  752   4.360   1.553   9.465  1.1633 -0.2228  1.3472
   48MPD2    H3  753   4.565   1.600   9.529 -0.4239  0.5092 -1.0151
   48MPD2     N  754   0.021   1.256   9.295  0.1318 -0.3842  0.6123
   48MPD2    H5  755   4.717   1.180   9.240  0.2002 -0.4402  0.6416
   48MPD2    N1  756   4.296   1.347   9.276  0.3717  0.3437 -0.4090
   48MPD2    H7  757   4.282   1.262   9.223 -1.2431  1.1739 -1.3134
   49TMC2    C1  758   2.093   3.344  10.719 -0.7503  0.7377 -0.1316
   49TMC2    C2  759   1.988   3.270  10.668 -0.0368  0.1763  0.2220
   49TMC2    C3  760   1.998   3.217  10.548  0.8012  0.8080 -0.2183
   49TMC2    C4  761   2.208   3.361  10.644  0.5067 -0.2131  0.1281
   49TMC2    C5  762   2.200   3.316  10.515  0.8055  1.4195 -0.1009
   49TMC2    C6  763   2.098   3.249  10.465  0.6970 -0.6320  0.0951
   49TMC2     C  764   2.093   3.387  10.858 -0.1783  0.6522  0.0331
   49TMC2     O  765   1.995   3.348  10.922 -0.3903  0.1834 -0.2040
   49TMC2     H  766   1.893   3.256  10.719 -0.7918 -0.6130 -1.3847
   49TMC2    H1  767   2.296   3.406  10.688  0.2492 -0.5784  1.0305
   49TMC2    H2  768   2.105   3.202  10.367  2.1988  0.9725 -0.5545
   49TMC2    C7  769   2.308   3.345  10.428  0.2534  0.1576 -0.2855
   49TMC2    C8  770   1.876   3.173  10.491  0.0847  0.4032  0.1319
   49TMC2    O1  771   2.317   3.266  10.335  0.1726 -0.2500  0.1316
   49TMC2    O2  772   1.772   3.231  10.513  0.2617  0.3623 -0.0558
   49TMC2    O5  773   1.896   3.087  10.394 -0.2953 -0.3624 -0.0974
   49TMC2    H5  774   1.986   3.048  10.397 -0.1390  0.2058  3.2641
   50MPD2     C  775   2.182   3.447  11.140 -0.3225 -0.1490 -0.1654
   50MPD2    C1  776   2.239   3.502  11.028  0.4070 -0.3468 -0.6825
   50MPD2    C2  777   2.345   3.588  11.044 -0.4911  0.0193 -0.1742
   50MPD2    C3  778   2.383   3.612  11.177  0.6535 -0.5477  0.5345
   50MPD2    C4  779   2.328   3.553  11.284  0.5124  0.0813 -0.1672
   50MPD2    C5  780   2.224   3.472  11.266  0.5407  0.2901  0.0776
   50MPD2     H  781   2.389   3.637  10.958 -0.5648 -0.3708 -0.4355
   50MPD2    H1  782   2.383   3.563  11.377 -0.4952  0.3290  0.4094
   50MPD2    H2  783   2.094   3.384  11.132  0.0323 -0.4782 -1.5282
   50MPD2    H3  784   2.171   3.419  11.345  0.2384  1.9124  0.9655
   50MPD2     N  785   2.485   3.697  11.219 -0.0802  0.0124  0.0143
   50MPD2    H5  786   2.496   3.703  11.320 -1.3699  0.6599  0.1174
   50MPD2    N1  787   2.197   3.467  10.899 -0.1209  0.8189 -0.7717
   50MPD2    H7  788   2.249   3.520  10.829  0.4534 -0.2072 -1.1238
   51TMC2    C1  789   3.809   2.749   0.606 -0.5930  0.4283 -0.5786
   51TMC2    C2  790   3.674   2.790   0.634  0.3310 -0.3347 -0.2421
   51TMC2    C3  791   3.631   2.902   0.572 -0.3120 -0.2945 -0.3081
   51TMC2    C4  792   3.888   2.810   0.513  0.1726 -0.2582  0.0115
   51TMC2    C5  793   3.834   2.918   0.450 -0.0267  0.7426  0.1178
   51TMC2    C6  794   3.706   2.964   0.476 -0.0317  0.0345  0.7695
   51TMC2     C  795   3.871   2.637   0.673  0.9941  0.1451 -0.1434
   51TMC2     O  796   3.986   2.604   0.645  0.1975 -0.5332 -0.0637
   51TMC2     H  797   3.613   2.724   0.695  0.5378 -1.0728 -0.8349
   51TMC2    H1  798   3.989   2.776   0.493  0.4242  1.7708 -2.0766
   51TMC2    H2  799   3.658   3.046   0.423 -0.1218 -2.1013 -2.4834
   51TMC2    C7  800   3.914   2.986   0.341 -0.7151 -0.3651 -0.1462
   51TMC2    C8  801   3.505   2.959   0.610  0.4980  0.8514  0.1274
   51TMC2    O1  802   4.030   2.956   0.337  0.3079  0.9731 -0.0763
   51TMC2    O2  803   3.394   2.919   0.575  0.0936 -0.3253  0.0633
   51TMC2    O5  804   3.539   3.093   0.615  0.3579  0.3371  0.1516
   51TMC2    H5  805   3.632   3.094   0.645  0.8517  1.7187 -1.4250
   52MPD2     C  806   3.764   2.154   0.824  1.0387  0.1979 -0.4648
   52MPD2    C1  807   3.871   2.208   0.753 -0.4584  0.1682 -0.4310
   52MPD2    C2  808   3.875   2.345   0.732 -0.3596 -0.3497 -0.1305
   52MPD2    C3  809   3.780   2.431   0.776  0.2564 -0.1413 -0.0906
   52MPD2    C4  810   3.666   2.379   0.837 -0.0765  0.1358 -0.0627
   52MPD2    C5  811   3.660   2.240   0.866  0.3486  0.0267 -0.1725
   52MPD2     H  812   3.953   2.388   0.670 -0.9866 -1.4653 -1.6742
   52MPD2    H1  813   3.584   2.447   0.856 -0.8671 -0.9382  0.3592
   52MPD2    H2  814   3.752   2.049   0.851 -2.3286  0.8365  0.5522
   52MPD2    H3  815   3.578   2.196   0.921  0.8545 -0.0582  0.5039
   52MPD2     N  816   3.775   2.566   0.741  0.2495 -0.5187  0.1194
   52MPD2    H5  817   3.690   2.618   0.765  0.6707  0.2696 -0.0934
   52MPD2    N1  818   3.973   2.133   0.701  0.0566 -0.0719 -0.3037
   52MPD2    H7  819   4.053   2.180   0.663  2.4841 -3.5553  0.5008
   53TMC2    C1  820   3.891   1.145  11.238 -0.1626  0.4423  0.5449
   53TMC2    C2  821   4.022   1.123  11.212  0.7679 -0.1498  0.4034
   53TMC2    C3  822   4.108   1.175  11.315  0.1305  0.4444 -0.0288
   53TMC2    C4  823   3.843   1.176  11.359 -1.0523  0.1595  0.2976
   53TMC2    C5  824   3.931   1.198  11.463  0.2607  0.3474 -0.7290
   53TMC2    C6  825   4.064   1.204  11.441 -0.0057 -0.2428  0.8339
   53TMC2     C  826   3.798   1.104  11.126  0.2551  0.4817  0.1286
   53TMC2     O  827   3.848   1.062  11.022 -0.2663  0.2336 -0.1599
   53TMC2     H  828   4.060   1.082  11.119 -0.8478 -0.2234 -0.2081
   53TMC2    H1  829   3.739   1.202  11.376 -1.4309  0.9645 -3.2148
   53TMC2    H2  830   4.138   1.226  11.518  1.1868  1.3613 -0.7650
   53TMC2    C7  831   3.873   1.217  11.596  0.4944  0.3787  0.0533
   53TMC2    C8  832   4.249   1.136  11.306  0.4698 -0.6018  0.7584
   53TMC2    O1  833   3.753   1.201  11.596  0.1811  0.0633 -0.4234
   53TMC2    O2  834   4.295   1.053  11.382 -0.2377  0.6534  0.1263
   53TMC2    O5  835   4.291   1.153  11.179 -0.0717 -0.0159 -0.5484
   53TMC2    H5  836   4.227   1.218  11.141  0.1976 -0.8304 -2.4107
   54MPD2     C  837   3.589   1.078  10.929  0.2932 -0.2198  0.1784
   54MPD2    C1  838   3.570   1.065  11.066 -0.5628  0.7928 -0.7546
   54MPD2    C2  839   3.448   1.017  11.114 -0.6233 -0.0797  0.0547
   54MPD2    C3  840   3.347   0.993  11.022 -0.2874 -0.1423  0.5605
   54MPD2    C4  841   3.365   1.011  10.886 -0.9263 -0.7182 -1.0643
   54MPD2    C5  842   3.486   1.048  10.841 -0.1793  0.6861  0.3065
   54MPD2     H  843   3.440   1.001  11.220 -3.2149  0.2913 -0.0771
   54MPD2    H1  844   3.297   0.976  10.810  0.2357 -1.4925 -1.7456
   54MPD2    H2  845   3.681   1.112  10.883  1.7730 -0.9164  2.5981
   54MPD2    H3  846   3.502   1.065  10.735 -0.4571 -0.0625  0.1448
   54MPD2     N  847   3.217   0.944  11.049  0.8000  0.4010  0.4618
   54MPD2    H5  848   3.152   0.949  10.971  1.8717 -0.6235 -0.5058
   54MPD2    N1  849   3.670   1.102  11.156  0.5376 -0.2658 -0.0052
   54MPD2    H7  850   3.638   1.119  11.250 -2.6944 -1.8913 -0.8068
   55TMC2    C1  851   0.526   4.054  17.285 -0.5294  1.1756  0.1985
   55TMC2    C2  852   0.489   3.991  17.170  0.1613 -0.4872  0.1606
   55TMC2    C3  853   0.497   3.855  17.163  0.2856  0.5549 -0.7238
   55TMC2    C4  854   0.557   3.981  17.395  0.3637  0.3618 -0.0527
   55TMC2    C5  855   0.559   3.847  17.386  0.3545  0.1328 -0.2619
   55TMC2    C6  856   0.535   3.781  17.271 -0.8184 -0.7940  0.3802
   55TMC2     C  857   0.468   4.183  17.309 -0.2905  0.0213 -0.3412
   55TMC2     O  858   0.454   4.224  17.426  0.1264  0.3586 -0.3460
   55TMC2     H  859   0.445   4.049  17.089  0.0692  0.1899  0.7038
   55TMC2    H1  860   0.586   4.031  17.488  0.1399  2.7004 -1.2397
   55TMC2    H2  861   0.533   3.673  17.273  2.1356 -0.8731 -0.2427
   55TMC2    C7  862   0.609   3.761  17.495  0.5293 -0.7168 -0.2147
   55TMC2    C8  863   0.426   3.794  17.051 -0.9729  0.1748 -0.4264
   55TMC2    O1  864   0.626   3.646  17.468  0.1738  0.2974  0.0740
   55TMC2    O2  865   0.423   3.854  16.948  0.5295 -0.2828 -0.5927
   55TMC2    O5  866   0.391   3.669  17.079 -0.2060  0.6963  0.2964
   55TMC2    H5  867   0.386   3.650  17.175 -1.7088 -0.2334  0.0341
   56MPD2     C  868   0.301   4.415  17.083 -0.4868 -0.2376 -0.2943
   56MPD2    C1  869   0.324   4.349  17.195 -0.0875 -0.1301 -0.4913
   56MPD2    C2  870   0.231   4.362  17.295  0.9233 -0.4355 -0.5962
   56MPD2    C3  871   0.122   4.449  17.286  0.2273  0.8505  0.0589
   56MPD2    C4  872   0.105   4.520  17.167  0.7234  0.3785 -0.7355
   56MPD2    C5  873   0.200   4.498  17.070  0.4007 -0.6113  0.0357
   56MPD2     H  874   0.242   4.308  17.388  0.4850  0.3820 -0.0672
   56MPD2    H1  875   0.024   4.592  17.156  1.4935  1.3456 -0.0097
   56MPD2    H2  876   0.363   4.398  16.995  0.6249 -0.1330  0.4687
   56MPD2    H3  877   0.193   4.540  16.971  1.2822 -1.7739 -0.5160
   56MPD2     N  878   0.025   4.459  17.388  0.6379  0.3548 -0.1466
   56MPD2    H5  879   0.036   4.390  17.462  0.8033  0.2262 -0.2898
   56MPD2    N1  880   0.423   4.248  17.196  0.9549 -0.9605  0.1197
   56MPD2    H7  881   0.460   4.224  17.105  0.3637  2.2231 -0.9418
   57TMC2    C1  882   3.712   4.545  13.278  0.2053 -0.4548  0.0256
   57TMC2    C2  883   3.598   4.571  13.199  0.6651 -0.3071 -0.0055
   57TMC2    C3  884   3.614   4.603  13.071  0.0056  0.1375 -0.0886
   57TMC2    C4  885   3.832   4.577  13.228 -0.3963 -0.1136  0.6251
   57TMC2    C5  886   3.845   4.621  13.101 -0.4403  0.9683 -0.2382
   57TMC2    C6  887   3.733   4.637  13.019 -0.7428 -0.6749 -0.2049
   57TMC2     C  888   3.678   4.567  13.415 -0.4881  0.4669  0.3518
   57TMC2     O  889   3.570   4.622  13.447  0.5661 -0.0791  0.0406
   57TMC2     H  890   3.504   4.534  13.238  1.0671 -1.0430  0.2564
   57TMC2    H1  891   3.916   4.579  13.297 -1.4518  1.6820  1.8503
   57TMC2    H2  892   3.753   4.663  12.915 -0.1438 -0.2357  0.0144
   57TMC2    C7  893   3.968   4.669  13.049  0.5532  0.1969 -0.1504
   57TMC2    C8  894   3.486   4.619  13.002 -0.6240  0.7280  0.4594
   57TMC2    O1  895   3.961   0.023  12.964  0.3172  0.4983  0.8064
   57TMC2    O2  896   3.383   4.583  13.060 -0.8290 -0.7131 -0.4054
   57TMC2    O5  897   3.497   4.722  12.919  0.2236  0.5542  0.6837
   57TMC2    H5  898   3.588   0.004  12.887 -0.7436  0.1037 -2.2809
   58MPD2     C  899   3.786   4.549  13.917 -0.5140  0.5377 -0.2396
   58MPD2    C1  900   3.700   4.632  13.843  0.4651 -0.0821 -0.0451
   58MPD2    C2  901   3.692   4.619  13.709  0.6402  0.2427 -0.5598
   58MPD2    C3  902   3.764   4.519  13.647 -0.4262  0.3510 -0.6605
   58MPD2    C4  903   3.847   4.435  13.721 -0.0085 -0.4998 -0.3173
   58MPD2    C5  904   3.843   4.441  13.857 -0.0909  0.1789  0.1820
   58MPD2     H  905   3.623   4.683  13.657 -1.6650 -2.1231 -0.4251
   58MPD2    H1  906   3.902   4.354  13.674 -0.1743 -0.3401 -0.7904
   58MPD2    H2  907   3.779   4.549  14.026  1.3866  0.7726 -0.1228
   58MPD2    H3  908   3.902   4.365  13.906 -0.2931 -0.0139  0.1274
   58MPD2     N  909   3.767   4.504  13.500  0.3746 -0.1543 -0.2554
   58MPD2    H5  910   3.834   4.441  13.457 -0.5722 -0.6756 -0.9575
   58MPD2    N1  911   3.620   0.007  13.898  0.5037  0.2988  0.5620
   58MPD2    H7  912   3.567   0.060  13.830 -1.3585  0.3724  2.0923
   59TMC2    C1  913   1.739   0.078  12.530  0.2766 -0.3679  0.3394
   59TMC2    C2  914   1.816   4.702  12.547  0.5664 -0.3589 -0.1414
   59TMC2    C3  915   1.869   4.633  12.446  0.1092 -0.5681 -0.8135
   59TMC2    C4  916   1.706   0.121  12.400 -0.3726 -0.0375 -0.1848
   59TMC2    C5  917   1.763   0.052  12.292 -0.1577 -0.3532  0.2222
   59TMC2    C6  918   1.850   4.672  12.316  0.5591  0.5002 -0.1760
   59TMC2     C  919   1.668   0.133  12.652 -0.0459 -0.3187 -0.8148
   59TMC2     O  920   1.563   0.189  12.644  0.0418 -0.3411  0.1604
   59TMC2     H  921   1.828   4.666  12.649  2.4187  1.6427  0.3479
   59TMC2    H1  922   1.629   0.196  12.384 -0.1316  0.1639 -0.4012
   59TMC2    H2  923   1.908   4.629  12.235  1.3722  1.1276  0.0746
   59TMC2    C7  924   1.737   0.083  12.145  0.5499 -0.4157 -0.1872
   59TMC2    C8  925   1.954   4.521  12.463  0.0422  0.7956 -0.1157
   59TMC2    O1  926   1.782   0.002  12.067 -0.2140 -0.0303  0.5884
   59TMC2    O2  927   2.021   4.508  12.565 -0.0326 -0.1862 -0.1578
   59TMC2    O5  928   1.878   4.417  12.409 -0.0111 -0.0739 -0.3202
   59TMC2    H5  929   1.786   4.438  12.382 -0.2531  2.2810  2.3432
   60MPD2     C  930   1.621   0.198  12.934 -0.2034 -0.0155 -0.0935
   60MPD2    C1  931   1.750   0.169  12.884  0.2059  0.4644 -0.0205
   60MPD2    C2  932   1.852   0.172  12.982  0.3377 -0.3532 -0.2368
   60MPD2    C3  933   1.832   0.197  13.113  0.1944  0.2215 -0.5610
   60MPD2    C4  934   1.702   0.219  13.157  1.0059  0.4600 -0.0171
   60MPD2    C5  935   1.602   0.228  13.065 -0.0460  0.1674 -0.1107
   60MPD2     H  936   1.948   0.140  12.943  0.7429 -0.4785  0.8666
   60MPD2    H1  937   1.672   0.227  13.261 -0.4949  1.4447 -0.5176
   60MPD2    H2  938   1.529   0.201  12.876  0.9756  0.0628 -1.9878
   60MPD2    H3  939   1.510   0.267  13.106 -1.0866 -2.1120 -0.2616
   60MPD2     N  940   1.936   0.184  13.213  0.4203 -0.3456 -0.0172
   60MPD2    H5  941   1.903   0.181  13.309  0.1611  1.2570 -0.0703
   60MPD2    N1  942   1.768   0.136  12.750  0.6083 -0.8602  0.1994
   60MPD2    H7  943   1.866   0.119  12.729  0.5546 -1.1009  0.1430
   61TMC2    C1  944   0.661   2.095  15.559  0.9072 -0.1576  0.3686
   61TMC2    C2  945   0.608   2.130  15.679 -0.5193  0.3484  0.0198
   61TMC2    C3  946   0.543   2.248  15.693 -0.3391 -0.1295  0.3410
   61TMC2    C4  947   0.655   2.176  15.446 -0.3304 -0.4936  0.1934
   61TMC2    C5  948   0.600   2.301  15.467  0.1419  0.2694  0.3656
   61TMC2    C6  949   0.540   2.333  15.583  0.4399 -0.2739  0.2865
   61TMC2     C  950   0.735   1.970  15.549 -0.5161  0.7230  0.2560
   61TMC2     O  951   0.724   1.887  15.638 -0.0378  1.2577 -0.0158
   61TMC2     H  952   0.610   2.061  15.762  2.6042 -0.5554 -0.7986
   61TMC2    H1  953   0.693   2.143  15.350  1.3933  0.4904  0.5436
   61TMC2    H2  954   0.499   2.433  15.593  1.4134  0.1640 -0.1371
   61TMC2    C7  955   0.570   2.378  15.350  0.3995  0.2290  0.4308
   61TMC2    C8  956   0.532   2.301  15.825  0.3768  1.0851  0.8800
   61TMC2    O1  957   0.469   2.450  15.359  0.1300  0.5326  0.0063
   61TMC2    O2  958   0.612   2.253  15.909 -0.2073  0.2934 -0.2900
   61TMC2    O5  959   0.478   2.426  15.825  0.0130  0.6172 -0.4805
   61TMC2    H5  960   0.422   2.452  15.748 -0.5148 -1.3522 -0.7697
   62MPD2     C  961   0.944   1.756  15.500 -0.0057  0.5302 -0.0356
   62MPD2    C1  962   0.894   1.850  15.413 -0.4888 -0.5687 -0.5567
   62MPD2    C2  963   0.937   1.831  15.282  0.7385  0.5990  0.1056
   62MPD2    C3  964   1.024   1.730  15.245 -0.0665 -0.4077  0.8025
   62MPD2    C4  965   1.084   1.649  15.344  0.5068  0.5676  0.2198
   62MPD2    C5  966   1.039   1.658  15.470  0.0705  0.0603  0.2520
   62MPD2     H  967   0.896   1.886  15.198  0.4079 -0.0405 -0.1530
   62MPD2    H1  968   1.150   1.567  15.317 -0.5521 -0.3615  0.4408
   62MPD2    H2  969   0.907   1.757  15.602 -1.3807  3.1880 -0.5611
   62MPD2    H3  970   1.076   1.600  15.554  0.0766 -1.7003 -0.9618
   62MPD2     N  971   1.051   1.700  15.113  0.0974  0.3184 -0.3586
   62MPD2    H5  972   1.102   1.615  15.094 -2.4246 -1.3237  0.2625
   62MPD2    N1  973   0.801   1.947  15.432 -0.5925 -1.1071  1.0098
   62MPD2    H7  974   0.773   2.009  15.356  1.2584 -2.5884 -0.8616
   63TMC2    C1  975   4.515   1.199   9.754  0.6778 -0.0562 -0.5855
   63TMC2    C2  976   4.612   1.183   9.853  0.6167  0.4452 -0.2137
   63TMC2    C3  977   4.658   1.295   9.913  0.7281  0.1382  0.0925
   63TMC2    C4  978   4.452   1.327   9.737 -0.1274  0.2026 -0.4902
   63TMC2    C5  979   4.501   1.437   9.802 -0.3385 -0.2643 -0.1804
   63TMC2    C6  980   4.598   1.418   9.899 -0.4544  0.1604 -0.2536
   63TMC2     C  981   4.468   1.087   9.680 -0.2957 -0.2473  0.6376
   63TMC2     O  982   4.377   1.101   9.603 -0.0217  0.6119 -0.5648
   63TMC2     H  983   4.647   1.086   9.884  0.3999  0.5052  0.2272
   63TMC2    H1  984   4.403   1.338   9.641 -2.7277  0.8158  0.8964
   63TMC2    H2  985   4.630   1.505   9.955  1.4959 -1.4142  1.0735
   63TMC2    C7  986   4.432   1.562   9.813  0.6522  0.7051  0.7564
   63TMC2    C8  987   0.012   1.289  10.029  0.1651  0.6134 -0.0443
   63TMC2    O1  988   4.487   1.658   9.863 -0.5266  0.0814 -0.0014
   63TMC2    O2  989   0.008   1.198  10.108  0.3311 -0.7324 -0.5340
   63TMC2    O5  990   0.129   1.341   9.983  0.6899 -0.4611  0.0333
   63TMC2    H5  991   0.124   1.409   9.912  0.4429  0.5117  0.9839
   64MPD2     C  992   4.411   0.576   9.602  0.2372  0.6821 -0.0013
   64MPD2    C1  993   4.527   0.599   9.675 -1.0842 -0.2162 -0.0320
   64MPD2    C2  994   4.567   0.729   9.701 -0.4195  0.4317 -0.2137
   64MPD2    C3  995   4.493   0.840   9.664 -0.5129  0.1653 -0.5818
   64MPD2    C4  996   4.376   0.815   9.595 -0.1788  0.1475  0.1787
   64MPD2    C5  997   4.338   0.688   9.568  0.3185  0.0441  0.6135
   64MPD2     H  998   4.657   0.744   9.760 -1.6322  0.9602  1.5116
   64MPD2    H1  999   4.309   0.888   9.552  1.8021  1.8743  0.0510
   64MPD2    H2 1000   4.379   0.476   9.577 -0.6587  0.1425  3.4237
   64MPD2    H3 1001   4.247   0.665   9.514  1.5967  1.8875 -2.3000
   64MPD2     N 1002   4.529   0.968   9.710  0.4185 -0.3689  0.4713
   64MPD2    H5 1003   4.617   0.972   9.760  1.1925 -1.8164 -0.7743
   64MPD2    N1 1004   4.600   0.489   9.731  0.2339 -0.6775 -0.0897
   64MPD2    H7 1005   4.553   0.399   9.733 -2.5860  0.7848 -1.2879
   65TMC2    C1 1006   2.188   1.903  15.543  0.4373 -1.3317 -0.3752
   65TMC2    C2 1007   2.179   1.933  15.406 -0.5574  1.1535  0.8223
   65TMC2    C3 1008   2.171   2.066  15.367  0.0523  0.5789 -0.0196
   65TMC2    C4 1009   2.182   2.003  15.633 -0.3450  0.2182  0.5611
   65TMC2    C5 1010   2.164   2.130  15.587 -0.0600 -0.0532  0.4275
   65TMC2    C6 1011   2.150   2.165  15.459  0.2558  0.1466 -0.0593
   65TMC2     C 1012   2.143   1.773  15.594 -0.0340  0.0967 -0.2367
   65TMC2     O 1013   2.157   1.752  15.714  0.2274 -0.1916  0.1269
   65TMC2     H 1014   2.187   1.862  15.325 -1.0656  0.3065  1.5247
   65TMC2    H1 1015   2.180   1.985  15.740  0.4153  1.7168  0.8351
   65TMC2    H2 1016   2.145   2.270  15.435 -0.0584  0.0493 -0.4363
   65TMC2    C7 1017   2.112   2.227  15.682 -0.3443 -0.3618  0.0343
   65TMC2    C8 1018   2.189   2.105  15.228 -0.6263 -0.5504 -0.2735
   65TMC2    O1 1019   2.158   2.347  15.676  0.2754 -0.0125 -0.4679
   65TMC2    O2 1020   2.227   2.033  15.138  0.2856 -0.0611 -0.2536
   65TMC2    O5 1021   2.113   2.221  15.210 -0.3334  0.0710 -0.1868
   65TMC2    H5 1022   2.042   2.246  15.273 -0.5306 -0.9098 -0.0212
   66MPD2     C 1023   2.029   1.500  15.618  0.1217  0.3204 -0.4402
   66MPD2    C1 1024   1.992   1.575  15.512  0.2080  0.6784  0.3684
   66MPD2    C2 1025   1.903   1.523  15.417  0.4082 -0.0826  0.4286
   66MPD2    C3 1026   1.840   1.398  15.439  0.3475 -0.0957  0.0862
   66MPD2    C4 1027   1.883   1.320  15.545 -0.4685  0.4409 -0.2878
   66MPD2    C5 1028   1.984   1.370  15.624  0.2446  0.6266  0.6615
   66MPD2     H 1029   1.872   1.579  15.329  0.3716 -0.3182  0.2926
   66MPD2    H1 1030   1.830   1.231  15.579  1.4445 -0.5188  0.2003
   66MPD2    H2 1031   2.109   1.532  15.685 -0.0369 -1.5593  0.6706
   66MPD2    H3 1032   2.021   1.304  15.701 -1.7524 -0.9370  0.2600
   66MPD2     N 1033   1.738   1.354  15.357  0.4574  0.4986 -0.3460
   66MPD2    H5 1034   1.689   1.267  15.375  1.0331  0.4291  0.8547
   66MPD2    N1 1035   2.061   1.703  15.496  0.2488 -0.2814  0.2433
   66MPD2    H7 1036   2.037   1.750  15.409  0.5086  0.0535  0.3542
   67TMC2    C1 1037   1.974   0.429  13.865 -0.1833 -0.2532 -0.5459
   67TMC2    C2 1038   2.021   0.556  13.841  0.5940 -0.3609  0.0382
   67TMC2    C3 1039   2.083   0.624  13.942 -0.2609  0.1007  0.2113
   67TMC2    C4 1040   1.999   0.367  13.984 -0.3291  0.5162  0.3164
   67TMC2    C5 1041   2.062   0.439  14.081  0.1267 -0.0532  0.3179
   67TMC2    C6 1042   2.102   0.563  14.062 -0.0856  0.4118  0.3591
   67TMC2     C 1043   1.847   0.388  13.801  0.3128 -0.2907 -0.4636
   67TMC2     O 1044   1.756   0.352  13.877  0.3479  0.0776 -0.2644
   67TMC2     H 1045   2.001   0.617  13.754  0.7472  0.1184  0.3377
   67TMC2    H1 1046   1.954   0.272  14.007 -2.7883  1.8516  0.9918
   67TMC2    H2 1047   2.133   0.623  14.147  1.4680 -1.5178  1.1585
   67TMC2    C7 1048   2.116   0.360  14.189 -0.8736  0.6152 -0.4234
   67TMC2    C8 1049   2.072   0.771  13.944  0.1657 -0.7822  0.1689
   67TMC2    O1 1050   2.139   0.243  14.161  0.2517 -0.0610 -0.1667
   67TMC2    O2 1051   2.127   0.841  14.027  0.2362  0.0181  0.5956
   67TMC2    O5 1052   1.983   0.823  13.856  0.4469 -0.1026 -0.1818
   67TMC2    H5 1053   1.906   0.771  13.825  0.6409 -0.0380 -0.7770
   68MPD2     C 1054   1.774   0.474  13.450 -0.2708 -0.0535 -0.3803
   68MPD2    C1 1055   1.740   0.429  13.581  0.4403 -0.1834 -0.3868
   68MPD2    C2 1056   1.600   0.420  13.614  0.3008 -0.2312  0.2236
   68MPD2    C3 1057   1.502   0.458  13.524 -0.0301  0.0490 -0.3616
   68MPD2    C4 1058   1.537   0.506  13.403  0.6071  0.8537 -0.8752
   68MPD2    C5 1059   1.671   0.508  13.368  0.3621 -0.3832  0.9858
   68MPD2     H 1060   1.570   0.377  13.709  0.8015 -2.5933 -0.7065
   68MPD2    H1 1061   1.467   0.521  13.322 -1.5820  0.7573  1.0259
   68MPD2    H2 1062   1.876   0.497  13.420 -0.3015  0.3050 -0.2102
   68MPD2    H3 1063   1.693   0.532  13.265  1.0663 -1.3590  0.9081
   68MPD2     N 1064   1.364   0.473  13.549  0.8390 -0.0144  0.5737
   68MPD2    H5 1065   1.303   0.504  13.474  0.5009  0.8461  1.2003
   68MPD2    N1 1066   1.849   0.413  13.667  0.3423 -0.6233  0.4249
   68MPD2    H7 1067   1.941   0.431  13.627 -0.7274  1.3887 -1.1231
   69TMC2    C1 1068   3.818   1.145  12.240  0.3192 -0.0651  0.6239
   69TMC2    C2 1069   3.927   1.204  12.296 -0.2022  1.0584  0.0070
   69TMC2    C3 1070   4.045   1.220  12.224 -0.3384 -0.4756 -0.2927
   69TMC2    C4 1071   3.827   1.089  12.114  0.0092 -0.3939  0.0947
   69TMC2    C5 1072   3.949   1.092  12.051 -0.6078  0.2944  0.3616
   69TMC2    C6 1073   4.059   1.157  12.101  0.5627  0.3827 -0.2893
   69TMC2     C 1074   3.695   1.140  12.327 -0.2649  0.7688 -0.2515
   69TMC2     O 1075   3.712   1.182  12.440  0.4661 -0.0144  0.0043
   69TMC2     H 1076   3.928   1.233  12.400  0.6193  2.9506 -0.5246
   69TMC2    H1 1077   3.746   1.021  12.088 -0.7173  0.1285  0.9843
   69TMC2    H2 1078   4.153   1.153  12.046  0.8647  1.8348  0.1245
   69TMC2    C7 1079   3.972   1.029  11.918 -0.1952 -0.1042 -0.8609
   69TMC2    C8 1080   4.155   1.290  12.290  0.0088  0.0769  0.4952
   69TMC2    O1 1081   4.079   1.044  11.857  0.3460  0.5268  0.0917
   69TMC2    O2 1082   4.147   1.367  12.381  0.1603 -0.2879 -0.5883
   69TMC2    O5 1083   4.258   1.203  12.291 -0.4570 -0.4722  0.0458
   69TMC2    H5 1084   4.234   1.124  12.238  0.0012 -1.3886  1.2068
   70MPD2     C 1085   3.342   1.139  12.225 -0.3726  0.0132  0.3972
   70MPD2    C1 1086   3.449   1.127  12.316 -0.1446 -0.3115  0.6496
   70MPD2    C2 1087   3.428   1.096  12.450 -0.0749  0.3154 -0.2641
   70MPD2    C3 1088   3.303   1.068  12.497  0.0320  0.8286 -0.2332
   70MPD2    C4 1089   3.201   1.074  12.411 -0.5645 -0.2935 -0.0793
   70MPD2    C5 1090   3.217   1.113  12.277  0.5255 -0.3382 -0.4178
   70MPD2     H 1091   3.507   1.092  12.524 -0.9129 -0.2320  0.5998
   70MPD2    H1 1092   3.100   1.064  12.448 -1.3313  0.2142 -2.0143
   70MPD2    H2 1093   3.358   1.155  12.119 -1.4676 -4.6630 -0.4614
   70MPD2    H3 1094   3.134   1.120  12.208  0.1095  1.2537  0.2549
   70MPD2     N 1095   3.295   1.023  12.629 -0.3732 -0.0123  0.0863
   70MPD2    H5 1096   3.381   1.022  12.683 -0.4509  0.4140  0.2184
   70MPD2    N1 1097   3.575   1.123  12.258 -0.2175  0.0466 -0.3525
   70MPD2    H7 1098   3.582   1.120  12.157  0.4500 -0.4582 -0.2970
   71TMC2    C1 1099   1.509   1.726   1.394 -0.2306 -0.3754 -0.2095
   71TMC2    C2 1100   1.624   1.716   1.466  0.0034 -0.2752 -0.6316
   71TMC2    C3 1101   1.624   1.617   1.561  0.6402  0.2337 -0.1132
   71TMC2    C4 1102   1.391   1.649   1.414  0.1851 -0.3288  0.3481
   71TMC2    C5 1103   1.405   1.549   1.510 -0.6121  0.3762  0.1226
   71TMC2    C6 1104   1.523   1.526   1.574  0.0417 -0.5332 -0.3223
   71TMC2     C 1105   1.519   1.791   1.267 -0.3825 -0.0458  0.0915
   71TMC2     O 1106   1.630   1.842   1.246  0.2318  0.0585 -0.2001
   71TMC2     H 1107   1.710   1.781   1.450  0.5433 -0.2939  2.2304
   71TMC2    H1 1108   1.302   1.668   1.356  0.5730  0.4678  0.0198
   71TMC2    H2 1109   1.527   1.454   1.654  0.2340 -1.7744 -1.4441
   71TMC2    C7 1110   1.286   1.473   1.558 -0.1563 -0.5575 -0.1021
   71TMC2    C8 1111   1.752   1.561   1.597 -0.2616 -0.0623  0.4096
   71TMC2    O1 1112   1.276   1.444   1.673 -0.1520 -0.2802 -0.1913
   71TMC2    O2 1113   1.790   1.449   1.569  0.4633 -0.6812 -0.9918
   71TMC2    O5 1114   1.833   1.667   1.634 -0.0461 -0.6329 -0.0677
   71TMC2    H5 1115   1.772   1.740   1.658 -0.2690 -0.7683 -0.2216
   72MPD2     C 1116   1.406   1.879   0.779 -0.2318 -0.5157 -0.1381
   72MPD2    C1 1117   1.501   1.938   0.861 -0.5873 -0.0717  0.4717
   72MPD2    C2 1118   1.514   1.894   0.993  0.5215  0.6158 -0.4274
   72MPD2    C3 1119   1.432   1.791   1.041  0.0505  0.6289 -0.0298
   72MPD2    C4 1120   1.342   1.739   0.960  0.1642 -1.1214  0.0980
   72MPD2    C5 1121   1.333   1.777   0.830 -0.0056  0.0419  0.3427
   72MPD2     H 1122   1.598   1.936   1.047 -0.4564 -1.6699  2.8871
   72MPD2    H1 1123   1.267   1.673   1.000 -1.3788  1.7830  1.9930
   72MPD2    H2 1124   1.397   1.899   0.673 -1.0565  2.2066  0.4424
   72MPD2    H3 1125   1.246   1.731   0.784  2.4323 -2.3415 -1.8952
   72MPD2     N 1126   1.425   1.756   1.176  0.0204 -0.3223  0.3606
   72MPD2    H5 1127   1.358   1.684   1.200  0.8118 -0.8835  0.9022
   72MPD2    N1 1128   1.582   2.050   0.817  0.2749 -0.5187  0.2130
   72MPD2    H7 1129   1.652   2.098   0.874  0.2217  0.0697 -0.2135
   73TMC2    C1 1130   0.981   3.893  12.895  0.3772 -0.0754 -0.0752
   73TMC2    C2 1131   1.031   3.773  12.930 -0.1205  0.1860 -0.0391
   73TMC2    C3 1132   1.118   3.707  12.844  0.4189 -0.3801 -0.7872
   73TMC2    C4 1133   1.025   3.943  12.780  0.3695  0.0880  0.5257
   73TMC2    C5 1134   1.131   3.888  12.709 -0.1884  0.4786 -0.1594
   73TMC2    C6 1135   1.182   3.766  12.734  0.4465 -0.1531 -0.0704
   73TMC2     C 1136   0.960   4.001  12.998  0.0362 -0.8859  1.1156
   73TMC2     O 1137   0.965   4.117  12.955 -0.4707  0.1704  0.1435
   73TMC2     H 1138   1.001   3.719  13.019  2.2635  0.8184  1.1552
   73TMC2    H1 1139   0.984   4.036  12.742  0.2864  0.1661  0.8046
   73TMC2    H2 1140   1.269   3.717  12.692  1.8385  1.0023  1.4728
   73TMC2    C7 1141   1.222   3.975  12.654 -0.5377  0.1593 -0.1932
   73TMC2    C8 1142   1.171   3.584  12.894 -0.0748 -0.3964  0.2096
   73TMC2    O1 1143   1.313   3.932  12.581 -0.3746 -0.0802  0.2199
   73TMC2    O2 1144   1.108   3.504  12.961  0.7588  0.3677  0.2958
   73TMC2    O5 1145   1.306   3.593  12.910  0.4220  0.1186  0.5044
   73TMC2    H5 1146   1.356   3.666  12.866 -0.3295  1.2434  1.4939
   74MPD2     C 1147   0.975   4.187  13.474 -0.3133 -0.4392  0.1655
   74MPD2    C1 1148   1.025   4.231  13.349  0.3890  0.1707 -0.0218
   74MPD2    C2 1149   1.027   4.153  13.239  0.1669  0.2283  0.4684
   74MPD2    C3 1150   0.970   4.027  13.245  0.7911  0.5328  0.7452
   74MPD2    C4 1151   0.933   3.975  13.369 -0.5279  0.0302 -0.0724
   74MPD2    C5 1152   0.928   4.056  13.477  0.4906 -0.0543 -0.0607
   74MPD2     H 1153   1.067   4.187  13.144 -1.7428  0.4830 -0.2317
   74MPD2    H1 1154   0.889   3.876  13.369  0.2164 -0.2995 -2.0114
   74MPD2    H2 1155   0.986   4.246  13.564  1.8012 -0.0484 -0.3485
   74MPD2    H3 1156   0.911   4.021  13.578  1.6215  0.4964  0.3215
   74MPD2     N 1157   0.951   3.954  13.126 -0.3516 -0.4353 -0.0395
   74MPD2    H5 1158   0.913   3.861  13.136 -1.4866  0.2943  2.3242
   74MPD2    N1 1159   1.079   4.361  13.341  0.2205  0.9897 -0.5838
   74MPD2    H7 1160   1.079   4.425  13.421  0.9152 -1.6427  1.5090
   75TMC2    C1 1161   1.185   0.532  13.675 -0.2845 -0.3742  0.0266
   75TMC2    C2 1162   1.170   0.625  13.770 -0.6181 -0.5308 -0.1938
   75TMC2    C3 1163   1.067   0.712  13.758 -0.1810 -0.4009 -0.4381
   75TMC2    C4 1164   1.094   0.523  13.569  0.8628 -0.3022 -0.2494
   75TMC2    C5 1165   1.005   0.629  13.557 -1.0030  0.1803  0.0717
   75TMC2    C6 1166   0.980   0.728  13.657  0.0347 -0.0319 -0.0038
   75TMC2     C 1167   1.306   0.462  13.668 -0.2534  0.5940  0.2132
   75TMC2     O 1168   1.360   0.436  13.775  0.2338  0.3874 -0.2890
   75TMC2     H 1169   1.230   0.611  13.859  0.8634  2.2129 -0.7713
   75TMC2    H1 1170   1.109   0.452  13.488  0.3096  0.9547 -1.4546
   75TMC2    H2 1171   0.908   0.808  13.655 -0.3312 -0.3100  1.6845
   75TMC2    C7 1172   0.947   0.651  13.422 -0.2962  0.0353 -0.1860
   75TMC2    C8 1173   1.053   0.823  13.849  0.0560  0.8469  1.0589
   75TMC2    O1 1174   1.009   0.588  13.336  0.4374  0.1049  0.3891
   75TMC2    O2 1175   1.065   0.937  13.813 -0.5948  0.5410  0.0962
   75TMC2    O5 1176   1.065   0.775  13.977  0.0071  0.4057  0.0902
   75TMC2    H5 1177   1.080   0.678  13.978  1.4652  0.6533  1.3694
   76TMC2    C1 1178   0.282   0.169  11.758 -0.6802 -0.0659  0.5506
   76TMC2    C2 1179   0.224   0.052  11.783 -0.5945 -0.0598 -0.7486
   76TMC2    C3 1180   0.294   4.695  11.856 -0.6419 -0.2980 -0.0189
   76TMC2    C4 1181   0.413   0.198  11.788  0.0103  0.6114  1.1456
   76TMC2    C5 1182   0.476   0.103  11.863 -0.4208  0.0174 -0.5950
   76TMC2    C6 1183   0.421   4.715  11.892 -0.7546  0.6779  0.4377
   76TMC2     C 1184   0.198   0.269  11.680  0.4676  0.9109 -0.0390
   76TMC2     O 1185   0.092   0.239  11.617  0.7237  0.1851  0.1159
   76TMC2     H 1186   0.121   0.025  11.760 -0.0574 -1.1489 -1.8829
   76TMC2    H1 1187   0.456   0.296  11.779  1.5949 -0.1963 -0.0737
   76TMC2    H2 1188   0.471   4.660  11.970 -1.7967 -1.5344 -0.4577
   76TMC2    C7 1189   0.616   0.126  11.891  0.0174  0.5909  0.5659
   76TMC2    C8 1190   0.220   4.614  11.940 -0.1567 -0.0386 -0.9763
   76TMC2    O1 1191   0.692   0.027  11.882 -0.3360 -0.0837 -0.1521
   76TMC2    O2 1192   0.139   4.673  12.010  0.5554 -0.2092 -0.6452
   76TMC2    O5 1193   0.294   4.511  11.985 -0.0364 -0.3800  0.4847
   76TMC2    H5 1194   0.347   4.479  11.909 -0.2010  3.2475 -1.1606
   77MPD2     C 1195   0.148   0.754  11.485  0.3421 -0.0720 -0.9917
   77MPD2    C1 1196   0.059   0.643  11.482 -0.5528 -0.0286  0.1815
   77MPD2    C2 1197   0.083   0.524  11.549  0.6234 -0.4840  0.0367
   77MPD2    C3 1198   0.212   0.510  11.608 -0.3657  0.5313  0.4136
   77MPD2    C4 1199   0.303   0.621  11.614 -0.6443 -0.1358  0.4695
   77MPD2    C5 1200   0.260   0.741  11.554  0.1582 -0.2096  0.7264
   77MPD2     H 1201   0.015   0.440  11.542 -1.9895  1.4851  2.0286
   77MPD2    H1 1202   0.400   0.610  11.661  0.0040  1.1740 -0.5762
   77MPD2    H2 1203   0.135   0.853  11.445  0.9437  1.3228  2.2598
   77MPD2    H3 1204   0.330   0.824  11.554 -1.4306  1.1380  1.0205
   77MPD2     N 1205   0.259   0.394  11.668  0.1081 -0.1876 -0.0391
   77MPD2    H5 1206   0.349   0.399  11.715  1.8996  1.9035 -3.7628
   77MPD2    N1 1207   4.672   0.655  11.423  0.3904  0.2706 -0.3089
   77MPD2    H7 1208   4.599   0.607  11.473  1.1512 -1.3392 -0.7580
   78TMC2    C1 1209   1.027   0.762   1.192 -0.0892 -0.4962 -0.4518
   78TMC2    C2 1210   0.891   0.803   1.183  0.5161 -0.2642  0.3279
   78TMC2    C3 1211   0.862   0.939   1.191  0.7913 -0.3796  0.6003
   78TMC2    C4 1212   1.130   0.853   1.188 -0.7483  0.4380 -0.3929
   78TMC2    C5 1213   1.096   0.986   1.202  0.4677 -0.4014  0.0728
   78TMC2    C6 1214   0.966   1.028   1.201 -0.4327 -0.1044  0.0098
   78TMC2     C 1215   1.044   0.624   1.158 -0.1980  0.9703  0.3696
   78TMC2     O 1216   0.944   0.567   1.117 -0.0222  0.1730 -0.3403
   78TMC2     H 1217   0.810   0.734   1.164  1.8259 -2.0408  1.1260
   78TMC2    H1 1218   1.231   0.815   1.198 -0.8775  0.1794 -0.0772
   78TMC2    H2 1219   0.944   1.133   1.217 -2.5072 -0.3758 -1.0321
   78TMC2    C7 1220   1.203   1.088   1.225 -0.0016  0.7610  0.7921
   78TMC2    C8 1221   0.725   0.983   1.163  0.0941  0.0234 -0.4309
   78TMC2    O1 1222   1.197   1.193   1.163  0.0306  0.0096  0.0034
   78TMC2    O2 1223   0.697   1.099   1.124 -0.1485 -0.1124 -0.1559
   78TMC2    O5 1224   0.640   0.884   1.196 -0.5927  0.2101 -0.2209
   78TMC2    H5 1225   0.686   0.799   1.215  0.1386  0.7825  0.5917
   79MPD1     C 1226   1.347   0.219   1.054 -0.6387 -0.6161  0.1756
   79MPD1    C1 1227   1.212   0.225   1.059 -0.1011  0.2333  0.2209
   79MPD1    C2 1228   1.152   0.347   1.086 -0.7998 -0.7368 -0.2769
   79MPD1    C3 1229   1.229   0.459   1.113  0.0062 -0.0496 -0.2941
   79MPD1    C4 1230   1.369   0.449   1.109  0.0557 -0.0722 -0.0755
   79MPD1    C5 1231   1.428   0.329   1.064  0.4625 -0.4433 -0.0259
   79MPD1     H 1232   1.046   0.342   1.107 -0.6355 -0.2489  0.6637
   79MPD1    H1 1233   1.440   0.528   1.131  0.8038 -0.4450 -1.0942
   79MPD1    H2 1234   1.396   0.125   1.031 -0.7503 -0.4914 -0.5732
   79MPD1    H3 1235   1.536   0.312   1.068  0.9813  2.5282 -1.5625
   79MPD1     N 1236   1.178   0.585   1.150  0.0573 -0.5838 -0.3939
   79MPD1    H5 1237   1.251   0.650   1.177 -1.6276  0.9441  0.5161
   79MPD1    N1 1238   1.135   0.107   1.047  0.1508 -0.1866  0.1350
   79MPD1    H6 1239   1.038   0.120   1.017  0.8262  1.0926 -1.4876
   79MPD1    H7 1240   1.181   0.036   0.990  1.2420 -0.5481  1.4480
   80TMC2    C1 1241   3.973   0.439  11.775 -0.2004  0.3065 -0.4050
   80TMC2    C2 1242   4.056   0.455  11.667  0.3319 -0.1906  0.2546
   80TMC2    C3 1243   4.011   0.395  11.558  0.6033 -0.1000  0.0224
   80TMC2    C4 1244   3.855   0.368  11.772  0.4245  0.0666  0.7041
   80TMC2    C5 1245   3.817   0.302  11.654  0.1498  0.4419  0.7008
   80TMC2    C6 1246   3.892   0.319  11.540 -0.9487 -0.3021 -0.0224
   80TMC2     C 1247   3.998   0.546  11.872  0.1607 -0.7243  0.4529
   80TMC2     O 1248   4.108   0.592  11.892  0.3360  0.2151 -0.4702
   80TMC2     H 1249   4.137   0.525  11.679 -1.5724  2.2372 -0.9432
   80TMC2    H1 1250   3.801   0.364  11.865 -0.1624 -0.8689  0.3265
   80TMC2    H2 1251   3.858   0.268  11.451  0.0678 -2.5952  0.9203
   80TMC2    C7 1252   3.705   0.210  11.655  0.4345  0.1319 -0.0763
   80TMC2    C8 1253   4.106   0.404  11.450  0.4088 -0.4164  0.0600
   80TMC2    O1 1254   3.687   0.151  11.546 -0.6065 -0.1515  0.5421
   80TMC2    O2 1255   4.220   0.430  11.479 -0.2199 -0.0950 -0.5161
   80TMC2    O5 1256   4.040   0.471  11.354 -0.3752 -0.8936  0.4087
   80TMC2    H5 1257   3.944   0.452  11.359  0.0088 -2.3566  1.8872
   81MPD2     C 1258   3.955   0.671  12.132  0.2187 -1.0180 -0.2985
   81MPD2    C1 1259   3.857   0.657  12.035 -0.1132 -0.0029  0.5101
   81MPD2    C2 1260   3.733   0.706  12.067 -0.3815  0.7167 -0.1016
   81MPD2    C3 1261   3.702   0.750  12.194  0.3354 -0.6094  0.3885
   81MPD2    C4 1262   3.804   0.766  12.292 -0.1814 -0.6265 -0.1243
   81MPD2    C5 1263   3.931   0.735  12.255 -0.3569  0.3278  0.5405
   81MPD2     H 1264   3.658   0.682  11.993 -1.3484 -0.6678  1.3359
   81MPD2    H1 1265   3.789   0.790  12.397 -0.6312  0.2164 -0.3775
   81MPD2    H2 1266   4.059   0.641  12.121  0.2602 -0.8452 -0.3850
   81MPD2    H3 1267   4.007   0.724  12.332  0.1677  1.4977  0.1850
   81MPD2     N 1268   3.564   0.769  12.236  0.1138  0.1980 -0.2988
   81MPD2    H5 1269   3.551   0.771  12.337  1.2545  0.1198 -0.1459
   81MPD2    N1 1270   3.877   0.591  11.910  0.4398 -0.0091 -0.8914
   81MPD2    H7 1271   3.801   0.571  11.845  0.0462  0.5229 -0.5957
   82TMC2    C1 1272   1.661   0.155  10.613 -0.3242 -0.7505 -0.5268
   82TMC2    C2 1273   1.778   0.211  10.669  0.0283 -0.4143 -0.4006
   82TMC2    C3 1274   1.820   0.156  10.790 -0.3192 -0.6483 -0.6611
   82TMC2    C4 1275   1.607   0.040  10.666 -0.7254  0.0554 -0.2123
   82TMC2    C5 1276   1.652   4.721  10.785 -0.0180  0.0127 -0.1478
   82TMC2    C6 1277   1.748   0.056  10.854  0.1664 -0.2400 -0.2379
   82TMC2     C 1278   1.606   0.198  10.483  0.4109  0.2495  0.8519
   82TMC2     O 1279   1.499   0.151  10.450 -0.0591 -0.1173  0.5971
   82TMC2     H 1280   1.820   0.307  10.641 -1.0868  1.0302  2.8121
   82TMC2    H1 1281   1.541   4.725  10.595  0.4138 -1.2771 -0.3307
   82TMC2    H2 1282   1.794   0.013  10.942 -2.1279  1.0976  1.5804
   82TMC2    C7 1283   1.592   4.601  10.843  0.0151  0.0362 -0.2790
   82TMC2    C8 1284   1.939   0.205  10.855 -0.4628 -0.2105 -0.1946
   82TMC2    O1 1285   1.637   4.559  10.945 -0.2443 -0.0490  0.8717
   82TMC2    O2 1286   1.951   0.225  10.975 -0.4988 -0.8533  0.2338
   82TMC2    O5 1287   2.029   0.241  10.762 -0.3253  0.2262 -0.2448
   82TMC2    H5 1288   2.023   0.175  10.690  0.9883  0.2100 -0.3395
   83MPD2     C 1289   1.591   0.491  10.071  0.1253  0.7306 -0.1554
   83MPD2    C1 1290   1.525   0.376  10.099  0.0982 -0.1304  0.0846
   83MPD2    C2 1291   1.547   0.314  10.220 -0.1248  0.3524 -0.2104
   83MPD2    C3 1292   1.647   0.366  10.302 -0.2501  0.2920  0.8458
   83MPD2    C4 1293   1.731   0.474  10.265  0.0922  0.8130 -0.5477
   83MPD2    C5 1294   1.695   0.533  10.150 -0.4783 -0.1094  0.7497
   83MPD2     H 1295   1.493   0.223  10.242  0.2934 -0.0185 -0.7242
   83MPD2    H1 1296   1.811   0.516  10.325 -0.1890 -1.1599  1.2038
   83MPD2    H2 1297   1.574   0.543   9.977  0.5374  2.1857  0.5778
   83MPD2    H3 1298   1.753   0.617  10.114  0.8492 -1.2565  0.1652
   83MPD2     N 1299   1.672   0.305  10.429 -0.3473  0.7320 -0.7564
   83MPD2    H5 1300   1.752   0.339  10.481  0.4347 -2.4103  0.1356
   83MPD2    N1 1301   1.435   0.321  10.005  0.0453  0.4565 -0.9004
   83MPD2    H7 1302   1.403   0.382   9.931 -0.5553  0.6863 -0.4501
   84TMC2    C1 1303   2.821   4.020  11.216  0.7238 -1.0821 -0.1874
   84TMC2    C2 1304   2.849   3.985  11.344 -0.1954  0.0881  0.0518
   84TMC2    C3 1305   2.784   3.878  11.400 -0.4355  0.4364 -0.0484
   84TMC2    C4 1306   2.728   3.952  11.139 -0.4717 -0.2798 -0.3440
   84TMC2    C5 1307   2.673   3.843  11.194 -1.2174  0.3627  0.1298
   84TMC2    C6 1308   2.697   3.803  11.322 -0.5051 -0.8392  0.2591
   84TMC2     C 1309   2.886   4.150  11.188  0.6617  0.3097 -0.7361
   84TMC2     O 1310   2.925   4.220  11.283 -0.8613 -0.6231 -0.1353
   84TMC2     H 1311   2.913   4.043  11.410  1.7222 -1.3807 -0.5345
   84TMC2    H1 1312   2.696   3.993  11.044 -0.2135 -0.1635 -0.3812
   84TMC2    H2 1313   2.654   3.717  11.372 -1.0767 -1.9656 -2.1191
   84TMC2    C7 1314   2.559   3.776  11.132  0.6961  0.1564 -0.5651
   84TMC2    C8 1315   2.796   3.856  11.542  0.3169 -0.0634  0.5465
   84TMC2    O1 1316   2.563   3.782  11.010 -0.2071 -0.1499  0.6588
   84TMC2    O2 1317   2.739   3.761  11.596  0.1199  0.3699 -0.0825
   84TMC2    O5 1318   2.779   3.982  11.590 -0.4755  0.3487 -0.1921
   84TMC2    H5 1319   2.811   4.059  11.539  1.4252  1.2179  2.3384
   85TMC2    C1 1320   4.443   2.780  15.896  0.4608 -0.2023  1.1705
   85TMC2    C2 1321   4.455   2.918  15.892 -0.0353 -0.6939  0.6909
   85TMC2    C3 1322   4.498   2.973  15.776  0.7134 -0.3025  0.7311
   85TMC2    C4 1323   4.495   2.700  15.797 -0.0375 -0.2454  0.5748
   85TMC2    C5 1324   4.535   2.759  15.685  0.8079  0.4100 -0.0439
   85TMC2    C6 1325   4.526   2.893  15.663 -0.5017 -0.7229 -0.2543
   85TMC2     C 1326   4.381   2.721  16.015  0.7266  0.4001 -0.3890
   85TMC2     O 1327   4.368   2.789  16.119  0.5316 -0.4199  0.1123
   85TMC2     H 1328   4.416   2.985  15.968 -0.3776  0.6536 -0.6830
   85TMC2    H1 1329   4.504   2.592  15.801 -2.2040 -0.3573  2.7040
   85TMC2    H2 1330   4.569   2.936  15.574 -0.4074  3.3846  1.7699
   85TMC2    C7 1331   4.577   2.674  15.580  0.0836  0.5778  0.5161
   85TMC2    C8 1332   4.523   3.114  15.774 -0.2101 -0.9312 -0.9769
   85TMC2    O1 1333   4.614   2.566  15.622  0.2013 -0.1603  0.5846
   85TMC2    O2 1334   4.484   3.184  15.868  0.1027  0.6270  0.3093
   85TMC2    O5 1335   4.646   3.113  15.724 -0.5097 -0.2964 -0.2392
   85TMC2    H5 1336   4.655   3.065  15.639 -1.6937 -0.9923  0.0274
   86MPD2     C 1337   4.226   2.300  16.277  0.3809  0.2970  0.6664
   86MPD2    C1 1338   4.201   2.269  16.142  0.4053  0.7505 -0.4834
   86MPD2    C2 1339   4.236   2.372  16.052 -0.7279  0.2805  0.1549
   86MPD2    C3 1340   4.293   2.500  16.089 -0.2526 -0.0572 -0.3681
   86MPD2    C4 1341   4.315   2.527  16.224 -0.6752  0.0895  0.0742
   86MPD2    C5 1342   4.283   2.424  16.309 -0.8154  0.4334 -0.4212
   86MPD2     H 1343   4.223   2.340  15.949  0.6858  2.2170 -0.6160
   86MPD2    H1 1344   4.364   2.613  16.266  3.2497 -2.1807  0.1356
   86MPD2    H2 1345   4.229   2.228  16.358 -0.8108 -0.6969 -0.1702
   86MPD2    H3 1346   4.293   2.443  16.415 -0.1519  2.4976 -0.8599
   86MPD2     N 1347   4.342   2.593  15.993  0.0456 -0.0402  0.4861
   86MPD2    H5 1348   4.346   2.557  15.899 -0.5371  2.5325 -0.5272
   86MPD2    N1 1349   4.143   2.150  16.094  0.1840 -0.1053 -0.0190
   86MPD2    H7 1350   4.134   2.136  15.994 -0.2549  0.7021 -0.0827
   87TMC2    C1 1351   1.653   0.151   1.258  0.5668 -0.3920 -0.2595
   87TMC2    C2 1352   1.542   0.121   1.336  0.1106  0.3593  0.9186
   87TMC2    C3 1353   1.503   0.227   1.417 -0.3421 -0.9228  0.2988
   87TMC2    C4 1354   1.716   0.276   1.260  0.0243 -0.2323  0.3097
   87TMC2    C5 1355   1.668   0.376   1.340 -0.4760 -0.0162 -0.5673
   87TMC2    C6 1356   1.558   0.353   1.418 -0.4367  0.5474 -0.1729
   87TMC2     C 1357   1.689   0.054   1.154  0.3046 -0.6381  0.6163
   87TMC2     O 1358   1.778   0.088   1.074  0.2910  0.2223  0.3453
   87TMC2     H 1359   1.476   0.035   1.343  0.3778  0.1164  0.4561
   87TMC2    H1 1360   1.802   0.288   1.196  1.6472  0.6356  2.6660
   87TMC2    H2 1361   1.511   0.430   1.478  1.2618  1.2230  0.2849
   87TMC2    C7 1362   1.717   0.510   1.321  0.0484  0.2687  0.3617
   87TMC2    C8 1363   1.400   0.203   1.512 -0.2562  0.4513  0.3213
   87TMC2    O1 1364   1.642   0.598   1.361 -0.4465 -0.1603  0.3591
   87TMC2    O2 1365   1.311   0.125   1.482 -0.3599  0.8872 -0.0988
   87TMC2    O5 1366   1.448   0.223   1.640  0.2619 -0.1903 -0.3101
   87TMC2    H5 1367   1.516   0.294   1.640 -1.2890  1.2825 -0.5009
   88MPD2     C 1368   2.029   0.644   1.194 -0.0654 -0.1401  0.5047
   88MPD2    C1 1369   1.898   0.638   1.216  0.7561  0.9942  0.5200
   88MPD2    C2 1370   1.819   0.744   1.178 -0.2119  0.9866 -0.1700
   88MPD2    C3 1371   1.862   0.848   1.099  0.7362 -1.1195  0.2726
   88MPD2    C4 1372   1.995   0.851   1.072  0.4742 -0.4624 -0.2691
   88MPD2    C5 1373   2.079   0.753   1.127  0.2006 -0.7029 -0.9392
   88MPD2     H 1374   1.714   0.744   1.205 -0.2613  0.0795 -0.3809
   88MPD2    H1 1375   2.039   0.931   1.012 -0.2237  0.6228  0.6628
   88MPD2    H2 1376   2.093   0.562   1.224 -1.6967 -2.2177 -1.7231
   88MPD2    H3 1377   2.187   0.762   1.126  0.0054  1.5954 -2.2067
   88MPD2     N 1378   1.767   0.944   1.048  0.1380 -0.0430 -0.9105
   88MPD2    H5 1379   1.802   1.014   0.984  3.6285 -1.0840 -0.1617
   88MPD2    N1 1380   1.846   0.522   1.275  0.2108  0.0788 -0.1086
   88MPD2    H7 1381   1.902   0.438   1.284  0.1609 -0.1278 -1.6906
   89TMC2    C1 1382   2.016   3.763   1.670  0.0919 -0.8365  0.0382
   89TMC2    C2 1383   2.090   3.870   1.721 -0.3343 -0.2524  0.6437
   89TMC2    C3 1384   2.153   3.947   1.621  0.4456  0.4480 -0.6429
   89TMC2    C4 1385   2.009   3.733   1.531  0.5612 -0.4475  0.0629
   89TMC2    C5 1386   2.079   3.806   1.448 -0.0898  0.4099  0.1835
   89TMC2    C6 1387   2.152   3.923   1.484  0.6080 -0.9069  0.9381
   89TMC2     C 1388   1.971   3.667   1.776  0.2364  0.4090 -0.4195
   89TMC2     O 1389   1.960   3.706   1.892  0.3144 -1.1456 -0.2425
   89TMC2     H 1390   2.091   3.882   1.828 -0.1252  0.2251  0.5874
   89TMC2    H1 1391   1.982   3.632   1.500 -2.2507  1.1636 -2.7690
   89TMC2    H2 1392   2.212   3.989   1.423 -0.0894 -0.1685  1.0486
   89TMC2    C7 1393   2.072   3.768   1.309  0.0673 -0.9721  1.0363
   89TMC2    C8 1394   2.232   4.064   1.661 -0.1417  0.0383 -0.4066
   89TMC2    O1 1395   1.975   3.699   1.288  0.3476 -0.0934 -0.2973
   89TMC2    O2 1396   2.338   4.081   1.606 -0.0520  0.0731 -0.0055
   89TMC2    O5 1397   2.207   4.078   1.790 -0.3577  0.5687 -0.3466
   89TMC2    H5 1398   2.113   4.079   1.819 -0.5899 -0.1246 -1.0868
   90MPD2     C 1399   1.733   3.230   1.917  0.5636  0.0958 -0.4060
   90MPD2    C1 1400   1.799   3.208   1.798 -0.1603 -0.6810 -0.1138
   90MPD2    C2 1401   1.868   3.318   1.741  0.7206 -0.0631 -0.7443
   90MPD2    C3 1402   1.873   3.445   1.793 -0.6820  0.5012  0.0802
   90MPD2    C4 1403   1.804   3.460   1.914  0.8604 -0.0737 -0.2640
   90MPD2    C5 1404   1.739   3.353   1.977  0.1060 -0.8500  0.0326
   90MPD2     H 1405   1.921   3.291   1.650 -0.2738 -0.7360 -1.1204
   90MPD2    H1 1406   1.793   3.553   1.969 -0.5975  0.1770 -0.9958
   90MPD2    H2 1407   1.676   3.149   1.961  2.1922  0.1290  1.7555
   90MPD2    H3 1408   1.686   3.362   2.071  0.5083  1.9696  0.0038
   90MPD2     N 1409   1.939   3.547   1.718  0.0351 -0.6545  0.1884
   90MPD2    H5 1410   1.949   3.519   1.621 -1.8904 -1.2840  0.1647
   90MPD2    N1 1411   1.816   3.081   1.737  0.3274  0.3557 -0.4267
   90MPD2    H7 1412   1.888   3.081   1.665  0.6041 -0.4049 -0.1467
   91TMC2    C1 1413   4.161   3.551  15.718  0.6027 -0.0127  0.5366
   91TMC2    C2 1414   4.214   3.670  15.768  0.1512  0.2127  0.2939
   91TMC2    C3 1415   4.142   3.728  15.867 -0.1956 -0.0233 -0.0736
   91TMC2    C4 1416   4.043   3.501  15.759 -0.7354  0.4041  0.6007
   91TMC2    C5 1417   3.977   3.566  15.854 -0.7027 -0.1354  0.1473
   91TMC2    C6 1418   4.027   3.673  15.919 -0.0397  0.8564 -0.3800
   91TMC2     C 1419   4.234   3.492  15.614  0.6183 -0.4400 -0.2840
   91TMC2     O 1420   4.170   3.437  15.525  0.1926  0.4592 -0.3889
   91TMC2     H 1421   4.300   3.724  15.731 -0.5010 -0.0474 -1.6350
   91TMC2    H1 1422   4.005   3.415  15.705 -1.8545  2.8807 -2.5821
   91TMC2    H2 1423   3.973   3.726  15.996 -0.9268  0.2390 -0.5773
   91TMC2    C7 1424   3.855   3.511  15.910  0.4584  0.1006  0.4017
   91TMC2    C8 1425   4.180   3.861  15.906 -0.2844  0.2658  0.0682
   91TMC2    O1 1426   3.821   3.558  16.019  0.0894  0.2479 -0.2241
   91TMC2    O2 1427   4.296   3.896  15.912 -0.0757  0.0548  0.0982
   91TMC2    O5 1428   4.064   3.921  15.948 -0.4632 -0.4325 -0.0729
   91TMC2    H5 1429   3.980   3.882  15.916  0.3846 -2.3176 -0.0531
   92MPD2     C 1430   4.467   3.415  15.440 -0.0371  0.3776 -0.0363
   92MPD2    C1 1431   4.477   3.479  15.558  0.2923  0.3990  0.2417
   92MPD2    C2 1432   4.603   3.506  15.610  0.1057 -1.0265 -0.0024
   92MPD2    C3 1433   4.718   3.464  15.546 -0.6277  1.3702 -0.2309
   92MPD2    C4 1434   4.701   3.407  15.426 -0.5122 -0.5446  0.5694
   92MPD2    C5 1435   4.582   3.383  15.370 -0.1883  0.0767  0.1681
   92MPD2     H 1436   4.617   3.552  15.707  0.7347  0.4777 -0.8073
   92MPD2    H1 1437   0.046   3.362  15.367 -1.4338 -1.6700  0.1810
   92MPD2    H2 1438   4.373   3.393  15.390  0.2528 -1.1733  0.0903
   92MPD2    H3 1439   4.582   3.328  15.277 -0.7100  0.6277 -0.1565
   92MPD2     N 1440   0.108   3.476  15.619 -0.0564 -0.3093 -0.0153
   92MPD2    H5 1441   0.108   3.509  15.715 -0.8979  0.0657 -0.1450
   92MPD2    N1 1442   4.368   3.514  15.632 -0.2499  0.5407 -0.4525
   92MPD2    H7 1443   4.389   3.562  15.719  2.6855 -1.1853 -0.1822
   93TMC2    C1 1444   1.319   2.879  13.500  0.1929 -0.0549 -0.5134
   93TMC2    C2 1445   1.221   2.922  13.592 -0.5498  0.3332  0.4491
   93TMC2    C3 1446   1.253   3.009  13.689 -0.0181  0.9947  0.3906
   93TMC2    C4 1447   1.441   2.944  13.504 -0.3305 -0.0923 -0.3679
   93TMC2    C5 1448   1.473   3.030  13.607 -0.3717 -0.0401  0.0394
   93TMC2    C6 1449   1.383   3.066  13.704  0.0796  0.1257 -0.3023
   93TMC2     C 1450   1.288   2.794  13.387  0.4531 -0.6119  0.2000
   93TMC2     O 1451   1.367   2.788  13.295  0.2540  0.0670  0.3244
   93TMC2     H 1452   1.117   2.890  13.587 -0.7378  0.7364  1.6799
   93TMC2    H1 1453   1.514   2.927  13.426  0.9893  0.8972  0.6559
   93TMC2    H2 1454   1.397   3.123  13.795  0.4831 -1.8123  0.8574
   93TMC2    C7 1455   1.603   3.100  13.590 -0.6681 -0.1699  0.2572
   93TMC2    C8 1456   1.141   3.069  13.763 -0.2752  0.3767 -0.0567
   93TMC2    O1 1457   1.675   3.067  13.497  0.3180 -0.1818 -1.0130
   93TMC2    O2 1458   1.038   3.013  13.790 -0.1640 -0.1051 -0.1350
   93TMC2    O5 1459   1.167   3.194  13.804 -0.4450  0.3467 -0.0279
   93TMC2    H5 1460   1.234   3.242  13.751  2.2664 -0.3885  2.7299
   94MPD2     C 1461   1.121   2.689  13.158 -0.4152 -0.4398 -0.7804
   94MPD2    C1 1462   1.072   2.728  13.281 -0.6631 -0.0624 -0.6397
   94MPD2    C2 1463   0.937   2.749  13.283 -0.3021 -0.5196 -0.0044
   94MPD2    C3 1464   0.859   2.738  13.171  0.1435  0.5754  0.6088
   94MPD2    C4 1465   0.915   2.701  13.052 -0.1612 -0.3062  0.2653
   94MPD2    C5 1466   1.047   2.679  13.047 -0.3850 -0.1655 -0.5683
   94MPD2     H 1467   0.893   2.789  13.373  0.4090  0.0158  0.1085
   94MPD2    H1 1468   0.858   2.692  12.961  0.9256 -2.1908 -0.2335
   94MPD2    H2 1469   1.226   2.667  13.142 -0.7872 -2.8259  0.1775
   94MPD2    H3 1470   1.096   2.652  12.954  0.4837  0.3350 -0.2512
   94MPD2     N 1471   0.723   2.775  13.169 -0.2715 -0.3641 -0.1175
   94MPD2    H5 1472   0.683   2.803  13.080  1.2680 -0.4592 -0.8456
   94MPD2    N1 1473   1.152   2.769  13.388 -0.1438  0.1705 -0.2075
   94MPD2    H7 1474   1.103   2.798  13.473 -2.2913  1.7016 -1.9736
   95TMC2    C1 1475   0.901   0.616  15.484  0.4324 -0.4835  0.1893
   95TMC2    C2 1476   0.816   0.637  15.592  0.0906  0.5367  0.2678
   95TMC2    C3 1477   0.723   0.551  15.624 -0.4381 -0.1610  0.5373
   95TMC2    C4 1478   0.898   0.504  15.409 -0.3329  0.2162 -0.2322
   95TMC2    C5 1479   0.801   0.414  15.440  0.2500  0.2183  0.3053
   95TMC2    C6 1480   0.711   0.438  15.551  0.2306  0.2815  0.4253
   95TMC2     C 1481   0.981   0.735  15.448 -0.2177 -0.0494 -0.1617
   95TMC2     O 1482   1.010   0.745  15.332 -0.1885 -0.2567  0.1132
   95TMC2     H 1483   0.806   0.734  15.641  0.9157  0.6846  0.1472
   95TMC2    H1 1484   0.957   0.504  15.318  0.8795 -4.4738  0.5292
   95TMC2    H2 1485   0.623   0.374  15.550  0.5672 -0.1740 -0.4767
   95TMC2    C7 1486   0.794   0.293  15.358 -0.0147 -0.0759 -0.0476
   95TMC2    C8 1487   0.610   0.595  15.705  0.4550 -0.8145  0.4949
   95TMC2    O1 1488   0.688   0.233  15.346 -0.2826  0.7615  0.1861
   95TMC2    O2 1489   0.585   0.712  15.710  0.3823 -0.1400 -1.2265
   95TMC2    O5 1490   0.568   0.498  15.779  0.4386 -0.1115 -0.1854
   95TMC2    H5 1491   0.598   0.412  15.742  0.2970  0.3648 -1.4209
   96MPD2     C 1492   1.187   1.193  15.565 -0.1414  0.0974 -0.0313
   96MPD2    C1 1493   1.195   1.123  15.449 -0.8293  0.0979 -0.6783
   96MPD2    C2 1494   1.126   1.001  15.444 -0.8951  1.0454 -0.4317
   96MPD2    C3 1495   1.047   0.951  15.552 -0.4156  0.0105  0.5029
   96MPD2    C4 1496   1.037   1.034  15.659  0.1550 -0.8656  0.6095
   96MPD2    C5 1497   1.103   1.153  15.662 -0.2492 -0.1343 -0.3944
   96MPD2     H 1498   1.141   0.936  15.359  1.3316  0.4957  0.3804
   96MPD2    H1 1499   0.974   1.012  15.744  0.3691 -1.9613  0.4822
   96MPD2    H2 1500   1.252   1.279  15.577 -2.5368  1.9772 -0.3749
   96MPD2    H3 1501   1.104   1.205  15.757 -2.7256 -0.8501  0.0305
   96MPD2     N 1502   0.999   0.822  15.559 -0.0667 -0.0242 -0.1001
   96MPD2    H5 1503   0.972   0.799  15.654 -0.2938 -1.3907 -0.5000
   96MPD2    N1 1504   1.286   1.165  15.348  0.1131  0.0330  0.9078
   96MPD2    H7 1505   1.339   1.251  15.360 -0.8557  0.9197 -1.0233
   97TMC2    C1 1506   3.957   2.557   0.261 -0.1329  0.3338  0.1596
   97TMC2    C2 1507   4.066   2.525   0.334 -0.2956  0.4150 -0.3837
   97TMC2    C3 1508   4.180   2.591   0.298 -0.5069 -0.4634  0.5490
   97TMC2    C4 1509   3.950   2.650   0.163  0.3356 -0.1970  0.7027
   97TMC2    C5 1510   4.068   2.705   0.122 -0.2450  0.9582 -0.1744
   97TMC2    C6 1511   4.186   2.676   0.192  0.5338  0.0786 -0.6365
   97TMC2     C 1512   3.823   2.513   0.299  0.9543  0.3164 -0.7620
   97TMC2     O 1513   3.732   2.592   0.279  0.2859  0.0762 -0.4005
   97TMC2     H 1514   4.072   2.448   0.410  0.3104  1.0659  0.2242
   97TMC2    H1 1515   3.870   2.650   0.090  1.5611 -0.7996 -0.6466
   97TMC2    H2 1516   4.275   2.726   0.158  1.6551 -1.4296  0.0676
   97TMC2    C7 1517   4.076   2.784  17.735  0.3251 -0.2437 -0.0343
   97TMC2    C8 1518   4.298   2.564   0.378  0.4534  0.5350 -0.1662
   97TMC2    O1 1519   4.191   2.791  17.686 -0.1018  0.1729  0.7790
   97TMC2    O2 1520   4.311   2.462   0.442 -0.1215 -0.4363  0.4303
   97TMC2    O5 1521   4.381   2.674   0.390  0.2451  0.4460 -0.1069
   97TMC2    H5 1522   4.343   2.751   0.342  1.3011 -1.0276 -3.3180
   98MPD2     C 1523   3.530   2.186   0.550 -0.3216  0.3438  0.5617
   98MPD2    C1 1524   3.512   2.320   0.529  0.0031  0.0216 -0.2658
   98MPD2    C2 1525   3.608   2.392   0.458  1.0454 -0.2686  0.0482
   98MPD2    C3 1526   3.724   2.325   0.416 -1.0134 -0.4680  0.1910
   98MPD2    C4 1527   3.738   2.190   0.434 -0.1373  0.2069  0.2970
   98MPD2    C5 1528   3.641   2.120   0.502  0.3615 -0.1866 -0.2440
   98MPD2     H 1529   3.600   2.498   0.436 -1.0052 -0.5416 -0.5190
   98MPD2    H1 1530   3.822   2.133   0.396  1.1871  2.4707 -0.1848
   98MPD2    H2 1531   3.453   2.130   0.603  0.4465  1.4402  2.8544
   98MPD2    H3 1532   3.656   2.014   0.515  1.2941 -0.0502 -0.1740
   98MPD2     N 1533   3.834   2.393   0.364  0.2030 -0.4093 -0.4807
   98MPD2    H5 1534   3.916   2.337   0.349 -0.2645 -1.3069  0.3165
   98MPD2    N1 1535   3.389   2.379   0.579 -0.3385 -0.0198  0.1200
   98MPD2    H7 1536   3.321   2.323   0.630  0.6407  0.0273  1.5025
   99TMC2    C1 1537   2.040   4.412   1.851  0.1058 -0.1452  0.8436
   99TMC2    C2 1538   2.116   4.437   1.964  0.0336  0.2781 -0.9179
   99TMC2    C3 1539   2.070   4.430   2.090  0.3232  0.1940  0.5887
   99TMC2    C4 1540   1.907   4.382   1.873  1.1564  0.7142  0.4405
   99TMC2    C5 1541   1.865   4.377   2.009 -0.7762  0.5263 -0.1525
   99TMC2    C6 1542   1.938   4.404   2.121 -0.0597 -0.1599 -0.2256
   99TMC2     C 1543   2.105   4.419   1.728  0.1772 -0.3475 -0.3017
   99TMC2     O 1544   2.222   4.452   1.729  0.0362  0.4205 -0.3235
   99TMC2     H 1545   2.224   4.448   1.954 -0.2072  0.4859 -3.1258
   99TMC2    H1 1546   1.839   4.390   1.789  0.5252 -0.0009  0.8741
   99TMC2    H2 1547   1.899   4.421   2.221  1.2916 -1.5037  0.5244
   99TMC2    C7 1548   1.720   4.371   2.042  0.3502  0.4740 -0.4151
   99TMC2    C8 1549   2.151   4.492   2.197  0.0054  0.2675 -0.5196
   99TMC2    O1 1550   1.679   4.420   2.149  0.0543  0.2178  0.6721
   99TMC2    O2 1551   2.256   4.551   2.166 -0.6244  0.2694 -0.3661
   99TMC2    O5 1552   2.142   4.406   2.303 -0.1277  0.5115  0.4410
   99TMC2    H5 1553   2.064   4.346   2.309 -0.1824  0.3178 -2.1065
  100MPD2     C 1554   2.187   4.387   1.451 -0.2571 -0.1832 -0.5645
  100MPD2    C1 1555   2.068   4.339   1.507 -0.3665  0.4053 -0.1153
  100MPD2    C2 1556   1.992   4.250   1.433  0.1127  0.3091  0.4290
  100MPD2    C3 1557   2.028   4.206   1.310  0.0299  0.1737  0.5194
  100MPD2    C4 1558   2.141   4.266   1.252 -0.2860 -0.6491 -0.2218
  100MPD2    C5 1559   2.220   4.351   1.324  0.5064 -0.3876  0.9807
  100MPD2     H 1560   1.902   4.218   1.484 -0.7012  1.0840 -0.5163
  100MPD2    H1 1561   2.173   4.232   1.155  1.1872  1.8224 -0.6178
  100MPD2    H2 1562   2.263   4.453   1.490  0.3322 -0.0903 -1.8679
  100MPD2    H3 1563   2.307   4.402   1.285 -0.7346  0.0971 -1.1578
  100MPD2     N 1564   1.948   4.111   1.243 -0.2937 -0.2209  0.1605
  100MPD2    H5 1565   1.868   4.077   1.294 -1.5495  2.2961 -0.1310
  100MPD2    N1 1566   2.027   4.366   1.633 -0.0510 -0.8576  0.1827
  100MPD2    H7 1567   1.932   4.337   1.656  0.0320 -0.8688  0.5145
  101TMC2    C1 1568   2.496   1.084  12.881 -0.2080  0.6789 -0.1034
  101TMC2    C2 1569   2.388   1.160  12.900  0.6941  0.0185  0.1879
  101TMC2    C3 1570   2.397   1.283  12.842 -0.6696  0.5334 -0.3012
  101TMC2    C4 1571   2.606   1.119  12.808 -0.3392  0.2481  0.6142
  101TMC2    C5 1572   2.603   1.233  12.748  0.1589 -0.2988  0.1150
  101TMC2    C6 1573   2.493   1.316  12.753 -0.3680 -0.2378 -0.1957
  101TMC2     C 1574   2.492   0.951  12.935  0.0709 -0.1360 -0.5714
  101TMC2     O 1575   2.427   0.941  13.039  0.1414  0.1163  0.1169
  101TMC2     H 1576   2.311   1.136  12.972  0.9206  0.0640  0.4476
  101TMC2    H1 1577   2.683   1.045  12.789  0.1879  1.0821 -0.4471
  101TMC2    H2 1578   2.498   1.410  12.698 -0.8747 -0.0995 -0.0035
  101TMC2    C7 1579   2.720   1.267  12.672 -0.2125  0.4005  0.1615
  101TMC2    C8 1580   2.286   1.377  12.872  0.3745 -0.9129 -0.1607
  101TMC2    O1 1581   2.716   1.353  12.585  0.4333  0.1625 -0.3478
  101TMC2    O2 1582   2.285   1.499  12.844  0.5664  0.4408 -0.6979
  101TMC2    O5 1583   2.170   1.310  12.889 -0.7601 -0.1232  0.5592
  101TMC2    H5 1584   2.180   1.216  12.865  0.6300  0.1215  0.1729
  102MPD2     C 1585   2.558   0.637  12.739 -0.4722  1.3027 -0.2493
  102MPD2    C1 1586   2.525   0.718  12.849  0.3776 -0.3833 -0.1392
  102MPD2    C2 1587   2.488   0.652  12.966 -0.0632  0.1207  0.3042
  102MPD2    C3 1588   2.486   0.518  12.984 -0.2965 -0.0932  1.0541
  102MPD2    C4 1589   2.541   0.442  12.876  1.0657  0.3480  0.1678
  102MPD2    C5 1590   2.566   0.505  12.762 -0.3517  0.6511 -0.1221
  102MPD2     H 1591   2.468   0.711  13.055  0.0045  0.9149 -0.2102
  102MPD2    H1 1592   2.535   0.334  12.875  0.8791  0.3428  1.0724
  102MPD2    H2 1593   2.591   0.680  12.645  0.5783 -0.0249 -0.4741
  102MPD2    H3 1594   2.604   0.436  12.687  0.8767  1.1502  0.0395
  102MPD2     N 1595   2.442   0.461  13.103  0.2741 -0.5425  0.1663
  102MPD2    H5 1596   2.393   0.523  13.168  2.1168  2.5841 -1.4207
  102MPD2    N1 1597   2.530   0.859  12.840 -0.2626 -0.8198 -0.7003
  102MPD2    H7 1598   2.551   0.899  12.749 -2.3047 -0.6962 -1.1274
  103TMC2    C1 1599   0.850   0.743  12.353 -0.7282  0.5392 -0.2620
  103TMC2    C2 1600   0.955   0.722  12.439 -0.4218 -0.1542  0.0331
  103TMC2    C3 1601   0.968   0.813  12.536 -0.0489 -0.0078 -0.3426
  103TMC2    C4 1602   0.756   0.841  12.367  0.2176 -0.1760  0.3306
  103TMC2    C5 1603   0.772   0.925  12.474 -0.2264  0.3276 -0.2036
  103TMC2    C6 1604   0.880   0.912  12.559 -0.0373 -0.0992 -0.1738
  103TMC2     C 1605   0.816   0.633  12.262 -1.4851  0.0939 -0.1003
  103TMC2     O 1606   0.702   0.638  12.222 -0.0890  0.0792  0.0834
  103TMC2     H 1607   1.024   0.639  12.429  3.6706  3.2397  0.1949
  103TMC2    H1 1608   0.678   0.858  12.294  0.9911  1.9757 -0.0016
  103TMC2    H2 1609   0.899   0.987  12.635 -1.5975  1.2449 -1.1260
  103TMC2    C7 1610   0.677   1.030  12.488  0.2243  0.3629 -0.3544
  103TMC2    C8 1611   1.079   0.790  12.625 -0.2195  0.1718 -0.5197
  103TMC2    O1 1612   0.651   1.089  12.388 -0.2214 -0.9016 -0.2668
  103TMC2    O2 1613   1.123   0.674  12.626  0.2675 -0.6475 -0.1192
  103TMC2    O5 1614   1.151   0.903  12.615 -0.4042  0.5169 -0.3827
  103TMC2    H5 1615   1.092   0.981  12.605  1.3032  2.0190  1.0273
  104MPD2     C 1616   1.020   0.362  12.093  0.0914  0.6154  0.0376
  104MPD2    C1 1617   0.906   0.441  12.128 -0.4719  0.7922 -0.2524
  104MPD2    C2 1618   0.786   0.398  12.080  0.2067  0.6905  0.4677
  104MPD2    C3 1619   0.776   0.282  11.996  0.1854  0.3726 -0.7628
  104MPD2    C4 1620   0.893   0.201  11.977  0.2924  0.4225  0.4499
  104MPD2    C5 1621   1.013   0.249  12.021 -0.1748 -0.0545 -0.5214
  104MPD2     H 1622   0.694   0.453  12.092  0.0273  0.2107  1.2220
  104MPD2    H1 1623   0.902   0.104  11.930 -1.0346 -0.2250  1.5232
  104MPD2    H2 1624   1.115   0.387  12.138  1.0997 -1.0489 -1.1565
  104MPD2    H3 1625   1.099   0.184  12.010  0.0671  0.1633  0.0711
  104MPD2     N 1626   0.643   0.252  11.953  0.0138 -0.7355 -0.1620
  104MPD2    H5 1627   0.569   0.320  11.967  1.9197  1.4239 -0.8057
  104MPD2    N1 1628   0.923   0.552  12.217 -0.1716 -0.0672 -0.5792
  104MPD2    H7 1629   1.012   0.578  12.258 -0.5671  1.2429 -0.5517
  105TMC2    C1 1630   1.892   4.541   0.245  0.5651  0.7331 -0.2823
  105TMC2    C2 1631   1.882   4.673   0.222  0.1269 -0.1965  0.5634
  105TMC2    C3 1632   1.817   0.019   0.309 -0.6059 -0.6910 -0.6351
  105TMC2    C4 1633   1.842   4.482   0.356 -0.6636 -0.1632 -0.1396
  105TMC2    C5 1634   1.786   4.570   0.449 -0.2109  0.0139  0.7036
  105TMC2    C6 1635   1.767   4.707   0.425  0.1717 -0.1538  0.0333
  105TMC2     C 1636   1.969   4.456   0.153 -0.8846 -0.1478  0.1781
  105TMC2     O 1637   1.987   4.336   0.184  0.0379  0.0038 -0.2390
  105TMC2     H 1638   1.916   4.721   0.131 -2.6687 -1.1234 -0.9669
  105TMC2    H1 1639   1.846   4.374   0.367  3.1589  0.1550  1.4607
  105TMC2    H2 1640   1.699   0.029   0.488  2.0235  0.1927  1.7283
  105TMC2    C7 1641   1.726   4.504   0.567  0.4848  0.1268  0.0066
  105TMC2    C8 1642   1.809   0.166   0.280  0.7375  1.0098 -0.0946
  105TMC2    O1 1643   1.699   4.384   0.556  0.4465 -0.1514 -0.2773
  105TMC2    O2 1644   1.886   0.213   0.197  0.2009  0.1375 -0.6026
  105TMC2    O5 1645   1.672   0.207   0.286  0.1160  1.0230  0.6839
  105TMC2    H5 1646   1.608   0.158   0.342  1.4604  0.8552  2.0387
  106MPD2     C 1647   2.354   4.415  17.566 -0.4075 -0.6112  0.2415
  106MPD2    C1 1648   2.278   4.528  17.533  0.2823 -0.6182  0.5424
  106MPD2    C2 1649   2.170   4.569  17.606 -0.2089  0.1590 -0.7036
  106MPD2    C3 1650   2.129   4.487  17.708 -0.0412  0.5013  0.3576
  106MPD2    C4 1651   2.200   4.371  17.733  0.8980  0.4577 -0.5784
  106MPD2    C5 1652   2.308   4.331  17.659  0.1136 -0.5472  0.2536
  106MPD2     H 1653   2.113   4.653  17.570  2.4750  2.3535  0.1685
  106MPD2    H1 1654   2.179   4.309   0.081 -0.0293  0.2750 -0.9439
  106MPD2    H2 1655   2.443   4.393  17.509 -0.3419 -1.3226  0.6264
  106MPD2    H3 1656   2.364   4.249  17.704  1.7427  0.3045 -0.2180
  106MPD2     N 1657   2.014   4.523   0.048  0.6357 -0.0191 -0.1433
  106MPD2    H5 1658   1.974   4.610   0.013 -0.0447 -0.9474 -1.6975
  106MPD2    N1 1659   2.312   4.614  17.421 -0.1470 -0.4656  0.6408
  106MPD2    H7 1660   2.251   4.691  17.396 -1.7316 -0.9594  2.9698
  107TMC2    C1 1661   2.916   0.174  11.309 -0.6801 -0.1528  0.1756
  107TMC2    C2 1662   3.021   0.232  11.371 -0.3088 -0.8062  0.5007
  107TMC2    C3 1663   3.143   0.230  11.315 -0.0467  0.8354  0.2074
  107TMC2    C4 1664   2.931   0.132  11.179  0.5758  0.4555 -0.1839
  107TMC2    C5 1665   3.056   0.128  11.121 -0.0669 -0.0071  0.0320
  107TMC2    C6 1666   3.161   0.187  11.187  0.7093 -0.2362 -0.6976
  107TMC2     C 1667   2.797   0.137  11.385  0.1253 -1.0613 -0.0212
  107TMC2     O 1668   2.807   0.095  11.498 -0.0236 -0.0358  0.2551
  107TMC2     H 1669   3.019   0.274  11.471  2.2253  2.9309 -0.9953
  107TMC2    H1 1670   2.843   0.085  11.135  0.1642  0.2044  0.8915
  107TMC2    H2 1671   3.259   0.179  11.142  0.5190 -0.5799 -1.0584
  107TMC2    C7 1672   3.073   0.026  11.024 -0.0137  0.0844 -0.5643
  107TMC2    C8 1673   3.248   0.316  11.370 -0.4995  0.3585 -0.2121
  107TMC2    O1 1674   3.176   0.041  10.960  0.3140  0.2883  0.1616
  107TMC2    O2 1675   3.222   0.403  11.454 -0.1000 -0.4707  0.4167
  107TMC2    O5 1676   3.362   0.240  11.371  0.6416  0.1118 -0.3158
  107TMC2    H5 1677   3.367   0.158  11.318  1.7944 -0.3409  0.4974
  108MPD2     C 1678   2.457   0.079  11.236 -0.2477  0.1794 -0.3011
  108MPD2    C1 1679   2.553   0.082  11.335 -0.0015  0.3153  0.0017
  108MPD2    C2 1680   2.519   0.018  11.455 -0.4306 -0.5944 -0.3973
  108MPD2    C3 1681   2.400   4.677  11.457 -0.4663 -0.4269  0.3680
  108MPD2    C4 1682   2.321   4.663  11.346  0.6629  0.4260  0.2377
  108MPD2    C5 1683   2.345   0.012  11.243  0.0328  0.2802 -0.4777
  108MPD2     H 1684   2.575   0.029  11.546 -1.2700 -0.1072  0.0662
  108MPD2    H1 1685   2.230   4.603  11.343  0.7064  0.3753 -0.1216
  108MPD2    H2 1686   2.473   0.129  11.141 -0.2347  0.3769 -0.1966
  108MPD2    H3 1687   2.285   0.012  11.153 -2.3407 -1.0964  1.1214
  108MPD2     N 1688   2.346   4.614  11.568 -0.5303 -0.3813 -0.0176
  108MPD2    H5 1689   2.252   4.577  11.555 -0.7876  0.1083  0.4311
  108MPD2    N1 1690   2.682   0.145  11.305 -0.1114 -0.5515 -0.6624
  108MPD2    H7 1691   2.692   0.196  11.218  2.3055 -0.8068 -0.5270
  109TMC2    C1 1692   2.037   2.218   0.464 -0.1660 -0.0507 -0.1272
  109TMC2    C2 1693   1.970   2.324   0.403  0.0843 -0.2668  1.0526
  109TMC2    C3 1694   2.052   2.435   0.384  0.7218 -0.7755 -0.4393
  109TMC2    C4 1695   2.172   2.221   0.493  0.4355  0.3324  0.5750
  109TMC2    C5 1696   2.244   2.330   0.450  0.5656 -0.3790 -1.0733
  109TMC2    C6 1697   2.188   2.446   0.406 -0.4107  0.0998 -0.9753
  109TMC2     C 1698   1.975   2.094   0.514  0.3150  0.0239  0.4864
  109TMC2     O 1699   2.045   2.033   0.591  0.4757  0.2422 -0.4028
  109TMC2     H 1700   1.867   2.311   0.373  0.3778  0.5682 -0.3168
  109TMC2    H1 1701   2.225   2.128   0.509 -0.0767 -0.0158  0.2518
  109TMC2    H2 1702   2.248   2.530   0.374  2.5807 -1.2356  1.1663
  109TMC2    C7 1703   2.385   2.331   0.472 -0.2421  0.3139  0.3996
  109TMC2    C8 1704   1.979   2.548   0.333 -0.0176  0.7609 -0.0617
  109TMC2    O1 1705   2.442   2.436   0.483 -0.3013  0.2908  0.6112
  109TMC2    O2 1706   1.871   2.528   0.273  0.3141 -0.0631 -0.2245
  109TMC2    O5 1707   2.008   2.651   0.415  0.3229  0.4550 -0.1671
  109TMC2    H5 1708   2.088   2.648   0.472 -1.1409  1.7905  1.9803
  110MPD2     C 1709   1.621   1.732   0.581  0.3585  0.5205 -0.7271
  110MPD2    C1 1710   1.724   1.764   0.665  0.5715  0.2196  0.2184
  110MPD2    C2 1711   1.813   1.865   0.616 -0.6010 -0.9156 -0.0342
  110MPD2    C3 1712   1.786   1.944   0.494 -1.1011  0.7206  0.6933
  110MPD2    C4 1713   1.674   1.905   0.425 -0.8470 -0.3450  0.2143
  110MPD2    C5 1714   1.594   1.809   0.471  0.1754  0.4028 -0.5219
  110MPD2     H 1715   1.892   1.894   0.685 -0.7465 -0.2113 -0.1597
  110MPD2    H1 1716   1.635   1.955   0.337  2.0155 -0.1608 -0.9593
  110MPD2    H2 1717   1.554   1.649   0.598  0.5444  0.9430  2.0061
  110MPD2    H3 1718   1.512   1.784   0.405 -1.6130 -0.2207  1.9429
  110MPD2     N 1719   1.861   2.058   0.450  0.8028 -0.0641 -1.0700
  110MPD2    H5 1720   1.819   2.111   0.374 -1.7760 -0.1274  0.2894
  110MPD2    N1 1721   1.739   1.699   0.791 -1.0431 -0.0393 -0.5910
  110MPD2    H7 1722   1.674   1.624   0.812  0.1135 -0.8626  0.0391
  111TMC2    C1 1723   2.210   1.455  11.554 -0.2006 -0.1555 -0.2361
  111TMC2    C2 1724   2.128   1.509  11.652 -0.3365  0.1504  0.0915
  111TMC2    C3 1725   2.188   1.569  11.759  0.1871 -0.6297 -0.1597
  111TMC2    C4 1726   2.347   1.480  11.561 -0.4892 -0.3419  0.4143
  111TMC2    C5 1727   2.402   1.525  11.680  0.3558 -0.4661  0.4139
  111TMC2    C6 1728   2.324   1.580  11.781 -0.9393  0.4473  0.2105
  111TMC2     C 1729   2.161   1.413  11.427 -0.1796 -0.2035 -0.1553
  111TMC2     O 1730   2.243   1.399  11.339 -0.9056 -0.3442 -0.0393
  111TMC2     H 1731   2.021   1.509  11.635 -0.2090  2.5091 -0.7504
  111TMC2    H1 1732   2.411   1.437  11.485 -1.1987  0.0740 -0.4098
  111TMC2    H2 1733   2.359   1.607  11.880  2.8563 -1.7587 -0.5296
  111TMC2    C7 1734   2.540   1.501  11.705  0.9206 -0.1037 -0.2321
  111TMC2    C8 1735   2.104   1.601  11.868  0.9316 -0.1447 -0.4378
  111TMC2    O1 1736   2.572   1.530  11.822 -0.2833  0.1937 -0.8335
  111TMC2    O2 1737   2.005   1.535  11.896 -0.3023  0.4377 -0.0521
  111TMC2    O5 1738   2.120   1.731  11.894  0.0910 -0.3270 -0.8987
  111TMC2    H5 1739   2.186   1.777  11.839 -1.4908  3.1271  0.1038
  112MPD2     C 1740   1.804   1.228  11.133 -0.7795 -0.8013  0.0343
  112MPD2    C1 1741   1.922   1.291  11.109 -0.0155 -0.0523  0.2348
  112MPD2    C2 1742   1.999   1.331  11.213 -0.6462 -0.4661 -0.3552
  112MPD2    C3 1743   1.961   1.300  11.342  1.1002 -0.7096 -0.8400
  112MPD2    C4 1744   1.854   1.221  11.362 -0.1591  0.2178 -0.1072
  112MPD2    C5 1745   1.774   1.183  11.254  0.0291  0.6246  0.0229
  112MPD2     H 1746   2.092   1.379  11.183 -0.0736 -0.0341  2.1477
  112MPD2    H1 1747   1.827   1.191  11.463  0.6277 -0.7302 -0.1871
  112MPD2    H2 1748   1.745   1.201  11.046 -1.2415  1.7698 -0.4693
  112MPD2    H3 1749   1.680   1.130  11.261 -0.3575  1.1959 -0.8520
  112MPD2     N 1750   2.038   1.354  11.447  0.3136 -0.3330  0.1054
  112MPD2    H5 1751   2.002   1.349  11.542  0.3348  0.6281  0.1569
  112MPD2    N1 1752   1.966   1.330  10.982 -0.7407 -0.2941 -0.5669
  112MPD2    H7 1753   2.052   1.382  10.966 -0.9504 -0.3526 -1.8996
  113TMC2    C1 1754   0.923   4.529   0.641 -0.1845  1.0679  0.0598
  113TMC2    C2 1755   0.825   4.623   0.633  0.6861  0.4213 -0.9658
  113TMC2    C3 1756   0.763   4.626   0.505 -0.1035  0.6119 -1.0270
  113TMC2    C4 1757   0.963   4.448   0.540  0.3112 -0.0740 -0.0538
  113TMC2    C5 1758   0.898   4.460   0.418  0.0471 -1.0032 -0.0097
  113TMC2    C6 1759   0.799   4.548   0.400 -0.0238 -0.1162  0.3245
  113TMC2     C 1760   0.959   4.492   0.783  0.3447 -0.3801 -0.3484
  113TMC2     O 1761   0.917   4.567   0.869 -0.4646  0.2003  0.0892
  113TMC2     H 1762   0.778   4.676   0.715  2.4294 -0.2095  0.4537
  113TMC2    H1 1763   1.045   4.377   0.544 -0.7471 -1.2239  1.3940
  113TMC2    H2 1764   0.742   4.552   0.307  0.7479 -0.2794 -0.1530
  113TMC2    C7 1765   0.866   4.342   0.339 -0.1216  0.0615  0.5872
  113TMC2    C8 1766   0.645   4.707   0.502 -0.0049 -0.3294 -0.2716
  113TMC2    O1 1767   0.847   4.360   0.220  0.2013 -0.5675  0.1765
  113TMC2    O2 1768   0.624   0.058   0.582  0.2077 -0.2838 -0.0923
  113TMC2    O5 1769   0.554   4.650   0.412 -0.0279 -0.1566  0.4059
  113TMC2    H5 1770   0.576   4.560   0.382 -1.2416 -0.5328  0.6584
  114MPD2     C 1771   1.226   4.230   1.142  0.0842  0.9072  0.7068
  114MPD2    C1 1772   1.151   4.353   1.149 -0.1489  0.3191  0.4617
  114MPD2    C2 1773   1.090   4.397   1.035  0.2777 -0.6049  0.3428
  114MPD2    C3 1774   1.105   4.331   0.910  0.4247  0.2013  0.4985
  114MPD2    C4 1775   1.176   4.212   0.910  0.0743 -0.7017 -0.2212
  114MPD2    C5 1776   1.238   4.160   1.018  0.5578 -0.1288 -0.0179
  114MPD2     H 1777   1.047   4.495   1.052 -1.5770 -1.5795  1.2401
  114MPD2    H1 1778   1.175   4.150   0.821  0.1785  0.7651 -1.2282
  114MPD2    H2 1779   1.270   4.184   1.230  2.1976 -0.7381 -1.1993
  114MPD2    H3 1780   1.289   4.065   1.007 -0.3879 -1.0669  3.4450
  114MPD2     N 1781   1.050   4.382   0.789 -0.0262 -0.7481 -0.1136
  114MPD2    H5 1782   1.073   4.338   0.701 -1.0512  1.9440 -1.7083
  114MPD2    N1 1783   1.139   4.429   1.261  0.0541  1.0135 -0.5654
  114MPD2    H7 1784   1.077   4.509   1.261 -1.7101 -0.3436 -0.2683
  115TMC2    C1 1785   2.127   2.308  17.319 -0.1167 -0.2925  0.3923
  115TMC2    C2 1786   2.233   2.338  17.398 -0.0215  0.3133 -0.0392
  115TMC2    C3 1787   2.299   2.457  17.386  0.7831 -0.0684 -0.1442
  115TMC2    C4 1788   2.095   2.387  17.211  0.3385 -0.6529  0.0592
  115TMC2    C5 1789   2.161   2.508  17.206 -0.8719 -0.1794  0.5494
  115TMC2    C6 1790   2.269   2.543  17.285 -0.6951  0.5141 -0.2533
  115TMC2     C 1791   2.061   2.174  17.319  0.0625 -0.4881  0.1765
  115TMC2     O 1792   1.953   2.170  17.267 -0.4565  0.1631 -0.5419
  115TMC2     H 1793   2.254   2.281  17.488 -0.1667  0.3857  0.0412
  115TMC2    H1 1794   2.006   2.368  17.153 -0.3403 -0.9642  1.2061
  115TMC2    H2 1795   2.330   2.633  17.281 -1.9839  1.4162  0.3024
  115TMC2    C7 1796   2.116   2.597  17.106 -0.3616 -0.3113  0.2352
  115TMC2    C8 1797   2.413   2.497  17.467  0.6107 -0.0891 -0.5655
  115TMC2    O1 1798   2.019   2.554  17.040  0.1975  0.1533  0.0586
  115TMC2    O2 1799   2.474   2.602  17.450 -0.3629  0.1137 -0.4339
  115TMC2    O5 1800   2.468   2.388  17.531  0.2194 -0.4609 -0.2983
  115TMC2    H5 1801   2.421   2.305  17.507 -1.4625 -0.1800  2.0008
  116MPD2     C 1802   2.043   1.669  17.415  0.3414 -0.1269  1.2406
  116MPD2    C1 1803   1.954   1.752  17.349  0.7200  0.4762 -0.9931
  116MPD2    C2 1804   1.980   1.884  17.343  0.8126  0.2003  0.0529
  116MPD2    C3 1805   2.107   1.935  17.371  0.1632 -0.0533 -0.1322
  116MPD2    C4 1806   2.200   1.845  17.430 -0.2754  0.5537  0.2228
  116MPD2    C5 1807   2.167   1.713  17.457  0.7284 -0.0012  0.3871
  116MPD2     H 1808   1.905   1.952  17.304  0.4544  0.9272  2.0207
  116MPD2    H1 1809   2.294   1.881  17.468  0.2992  2.5475 -3.0547
  116MPD2    H2 1810   2.007   1.568  17.435  0.9477 -0.0278  2.8639
  116MPD2    H3 1811   2.230   1.657  17.526  2.1149 -0.4841 -1.2571
  116MPD2     N 1812   2.140   2.069  17.362 -0.4789 -0.9905  0.4183
  116MPD2    H5 1813   2.233   2.095  17.396 -1.1620  4.0012 -1.5288
  116MPD2    N1 1814   1.833   1.693  17.304  0.0719 -0.0411  0.2292
  116MPD2    H7 1815   1.834   1.593  17.287 -0.6347  0.2994 -1.7505
  117TMC2    C1 1816   0.357   3.820  13.472 -0.2463  0.3858 -0.4113
  117TMC2    C2 1817   0.469   3.746  13.513 -0.0375  0.4218 -0.6153
  117TMC2    C3 1818   0.583   3.814  13.554  0.2412 -0.1628 -0.8614
  117TMC2    C4 1819   0.370   3.953  13.445  0.5041  0.8361  0.2806
  117TMC2    C5 1820   0.491   4.013  13.461 -0.3667  0.1478  0.3532
  117TMC2    C6 1821   0.600   3.941  13.512 -0.5049  0.0830 -0.1071
  117TMC2     C 1822   0.236   3.753  13.433 -0.0673  0.0668 -0.4416
  117TMC2     O 1823   0.240   3.639  13.390  0.2588 -0.5974  0.3975
  117TMC2     H 1824   0.458   3.642  13.539 -0.0056  0.5303 -0.1699
  117TMC2    H1 1825   0.289   3.999  13.389 -1.9615 -1.6192  1.8005
  117TMC2    H2 1826   0.679   4.004  13.551 -2.5454  1.9852  0.9499
  117TMC2    C7 1827   0.504   4.156  13.426  0.6500 -0.3887 -0.3556
  117TMC2    C8 1828   0.697   3.731  13.580 -0.4109 -0.1084 -0.1200
  117TMC2    O1 1829   0.617   4.199  13.425  0.9134 -0.1329 -0.0808
  117TMC2    O2 1830   0.715   3.613  13.548 -0.8076 -0.3353  0.2527
  117TMC2    O5 1831   0.777   3.794  13.665 -0.2360 -0.0016 -0.7759
  117TMC2    H5 1832   0.735   3.880  13.688 -0.0982  0.4294 -2.1334
  118MPD2     C 1833   0.248   4.417  13.484  0.3196 -0.6837  0.1888
  118MPD2    C1 1834   0.373   4.369  13.443  0.3666  0.6609 -0.3520
  118MPD2    C2 1835   0.464   4.453  13.385 -0.0369 -0.2087  0.2179
  118MPD2    C3 1836   0.439   4.587  13.384  0.4959 -0.2404 -0.3178
  118MPD2    C4 1837   0.312   4.627  13.428 -0.2574  0.1654 -0.1281
  118MPD2    C5 1838   0.222   4.544  13.470  0.2651  0.4838 -0.3943
  118MPD2     H 1839   0.563   4.417  13.358  1.1503  1.5359  2.1688
  118MPD2    H1 1840   0.290   4.733  13.439  2.3118  0.6530  0.3874
  118MPD2    H2 1841   0.172   4.358  13.534 -0.2842 -1.5052 -1.6669
  118MPD2    H3 1842   0.134   4.587  13.518  2.0148  0.6025  2.7393
  118MPD2     N 1843   0.538   4.685  13.340  0.6808 -0.2709  0.4789
  118MPD2    H5 1844   0.511   0.046  13.319  2.0468 -0.5516 -2.5351
  118MPD2    N1 1845   0.389   4.223  13.445 -0.0985  0.2235 -0.2671
  118MPD2    H7 1846   0.314   4.165  13.481 -0.0932 -0.4686 -1.3971
  119TMC2    C1 1847   3.077   0.574  13.342 -0.7949  0.2920 -0.0588
  119TMC2    C2 1848   3.091   0.577  13.210 -0.0065  0.6490 -0.5840
  119TMC2    C3 1849   2.970   0.555  13.152 -0.3409 -0.5279 -0.2361
  119TMC2    C4 1850   2.968   0.545  13.414 -0.1822 -0.8339 -0.2421
  119TMC2    C5 1851   2.854   0.516  13.341 -0.8332 -0.4273 -0.7751
  119TMC2    C6 1852   2.852   0.516  13.207  0.1610  0.1684  0.9433
  119TMC2     C 1853   3.190   0.611  13.423 -0.2376 -0.1011 -0.3807
  119TMC2     O 1854   3.160   0.637  13.538 -0.3927 -0.1015 -0.4034
  119TMC2     H 1855   3.177   0.620  13.162  1.4353 -1.3902  0.2005
  119TMC2    H1 1856   2.972   0.530  13.521 -1.0567 -1.4893 -0.2925
  119TMC2    H2 1857   2.756   0.509  13.156  1.0221  2.8983 -1.0431
  119TMC2    C7 1858   2.749   0.436  13.399 -0.9124 -0.7167 -0.1072
  119TMC2    C8 1859   2.969   0.584  13.005 -0.9403 -0.6678  0.5189
  119TMC2    O1 1860   2.646   0.425  13.337  0.1497 -0.0967  0.1326
  119TMC2    O2 1861   3.059   0.646  12.944 -0.1734 -0.3405 -0.4333
  119TMC2    O5 1862   2.862   0.521  12.952 -0.3679  0.0798  0.4237
  119TMC2    H5 1863   2.829   0.442  13.000 -0.0988  1.5030  2.9033
  120MPD2     C 1864   3.669   0.485  13.556  0.1212 -0.0786 -0.1826
  120MPD2    C1 1865   3.554   0.499  13.628  0.8355  0.5735 -0.5165
  120MPD2    C2 1866   3.430   0.536  13.570 -0.3925 -0.2178  0.4259
  120MPD2    C3 1867   3.431   0.558  13.433 -0.4335 -0.5739 -0.0925
  120MPD2    C4 1868   3.548   0.538  13.358 -0.3982 -0.2822  0.3084
  120MPD2    C5 1869   3.662   0.506  13.421 -0.5089 -0.6546  0.3527
  120MPD2     H 1870   3.344   0.552  13.633 -0.6378  0.8919 -0.1998
  120MPD2    H1 1871   3.552   0.547  13.250 -1.0850  1.9806  0.4662
  120MPD2    H2 1872   3.768   0.468  13.599 -0.5475  2.1070  2.2153
  120MPD2    H3 1873   3.749   0.494  13.357  0.5735  1.0631  1.5054
  120MPD2     N 1874   3.311   0.588  13.365  0.1911 -0.3969  0.0182
  120MPD2    H5 1875   3.321   0.590  13.264  1.1702  0.1315  0.1244
  120MPD2    N1 1876   3.567   0.456  13.764  0.2767  0.4576  0.5139
  120MPD2    H7 1877   3.666   0.443  13.786  0.2235  1.9187  1.6517
  121TMC2    C1 1878   0.242   1.996  14.194 -0.1470  0.5200 -0.1889
  121TMC2    C2 1879   0.230   2.019  14.331 -0.1484 -0.1528 -0.1408
  121TMC2    C3 1880   0.160   1.928  14.404 -0.4171 -0.5716  0.2642
  121TMC2    C4 1881   0.178   1.898  14.127  0.1968  0.5936 -0.7603
  121TMC2    C5 1882   0.106   1.814  14.206 -0.3849  0.4301 -0.1678
  121TMC2    C6 1883   0.091   1.835  14.340 -0.2650  0.4170  0.0739
  121TMC2     C 1884   0.336   2.081  14.124  0.4243 -0.6086  0.4593
  121TMC2     O 1885   0.407   2.151  14.193  0.1523 -0.3424 -0.1857
  121TMC2     H 1886   0.297   2.089  14.380  1.1558 -1.6788  0.2493
  121TMC2    H1 1887   0.186   1.869  14.022 -0.5974 -2.7958  0.0966
  121TMC2    H2 1888   0.040   1.753  14.389  0.2825 -1.1390 -1.9220
  121TMC2    C7 1889   0.008   1.724  14.141  0.3462 -0.2570  0.4729
  121TMC2    C8 1890   0.132   1.940  14.545 -0.6800 -0.7230  0.3106
  121TMC2    O1 1891   0.032   1.605  14.145 -0.4475  0.1229 -0.0069
  121TMC2    O2 1892   0.030   1.890  14.593 -0.0447 -0.1384 -0.2606
  121TMC2    O5 1893   0.213   2.029  14.590  0.3269  0.2285 -1.0025
  121TMC2    H5 1894   0.304   2.032  14.554  1.2918 -0.2979  1.4638
  122MPD2     C 1895   0.531   2.216  13.933  0.1468  0.5631  0.0109
  122MPD2    C1 1896   0.413   2.163  13.896  0.2931  0.4923 -0.0005
  122MPD2    C2 1897   0.365   2.196  13.768  0.0692  0.2615  0.2876
  122MPD2    C3 1898   0.447   2.264  13.677 -0.5073  0.2377  0.2123
  122MPD2    C4 1899   0.554   2.331  13.728 -0.2034 -0.0556  0.2693
  122MPD2    C5 1900   0.602   2.301  13.851 -0.8106  0.0926 -0.2432
  122MPD2     H 1901   0.262   2.166  13.748 -0.0519  0.5578  0.4691
  122MPD2    H1 1902   0.609   2.391  13.656 -0.8058  1.1396  0.8106
  122MPD2    H2 1903   0.570   2.182  14.028  3.3515 -1.4458 -2.0012
  122MPD2    H3 1904   0.692   2.353  13.883  0.3041 -1.4913 -0.7769
  122MPD2     N 1905   0.417   2.282  13.541  0.3372 -0.0332  0.8328
  122MPD2    H5 1906   0.479   2.350  13.499 -0.2066 -0.5500 -0.8160
  122MPD2    N1 1907   0.324   2.087  13.987  0.3751 -0.6101  0.2336
  122MPD2    H7 1908   0.240   2.059  13.937  1.5399 -0.7596 -1.6432
  123TMC2    C1 1909   3.025   0.306  10.661 -0.3598  0.0057 -0.0706
  123TMC2    C2 1910   3.148   0.309  10.731 -0.4590  0.6547  0.2397
  123TMC2    C3 1911   3.261   0.296  10.664  0.5227  0.7860  0.1984
  123TMC2    C4 1912   3.027   0.303  10.523  0.2540  0.1408  0.7089
  123TMC2    C5 1913   3.151   0.305  10.460  0.6639  0.4825 -0.3522
  123TMC2    C6 1914   3.274   0.300  10.529 -0.0179  0.1747  0.1765
  123TMC2     C 1915   2.924   0.220  10.723  0.1205  0.2658  0.9320
  123TMC2     O 1916   2.929   0.215  10.846 -0.0159  0.1401  0.6190
  123TMC2     H 1917   3.155   0.311  10.839 -1.1831 -0.9358  0.3150
  123TMC2    H1 1918   2.939   0.309  10.459 -0.8718 -0.2887  2.2165
  123TMC2    H2 1919   3.367   0.276  10.478 -0.3450 -0.3205 -0.1896
  123TMC2    C7 1920   3.147   0.269  10.321  0.1196  0.7112  0.3799
  123TMC2    C8 1921   3.378   0.326  10.742 -0.2303 -0.0048  0.6167
  123TMC2    O1 1922   3.073   0.179  10.290 -0.0605 -0.4099 -0.0863
  123TMC2    O2 1923   3.387   0.299  10.859  0.4513  0.3607  0.3045
  123TMC2    O5 1924   3.476   0.378  10.669 -0.1399  0.0184  0.1320
  123TMC2    H5 1925   3.445   0.391  10.577  1.0311 -3.1774 -0.7179
  124MPD2     C 1926   2.657   4.521  10.685 -0.2601 -1.0305 -0.5689
  124MPD2    C1 1927   2.667   4.576  10.564  0.1351 -0.5367 -0.8151
  124MPD2    C2 1928   2.737   4.697  10.552 -0.6532  0.1884 -0.1227
  124MPD2    C3 1929   2.796   0.021  10.659 -0.3198  0.2391  0.3277
  124MPD2    C4 1930   2.761   4.703  10.781 -0.2703  0.2703  0.1655
  124MPD2    C5 1931   2.694   4.592  10.797 -0.0193  0.0417  0.0065
  124MPD2     H 1932   2.756   4.728  10.449 -1.6867 -0.2270 -0.4465
  124MPD2    H1 1933   2.792   0.009  10.877  0.3639  1.2385 -0.4546
  124MPD2    H2 1934   2.597   4.432  10.703 -1.5355  0.2731  1.6846
  124MPD2    H3 1935   2.670   4.559  10.897  0.5931 -1.5515 -0.3743
  124MPD2     N 1936   2.859   0.144  10.630 -0.4802  0.9488  0.6704
  124MPD2    H5 1937   2.879   0.157  10.531 -1.0809 -4.8824 -0.2061
  124MPD2    N1 1938   2.609   4.504  10.453 -0.1442 -0.4817 -0.1497
  124MPD2    H7 1939   2.549   4.424  10.472 -2.4375  1.5309  1.1403
  125TMC2    C1 1940   4.041   0.220   8.546  0.0032  0.4121 -0.8020
  125TMC2    C2 1941   3.915   0.258   8.526 -0.3402  0.1869 -1.0452
  125TMC2    C3 1942   3.856   0.345   8.611 -0.1582 -0.6581  0.3741
  125TMC2    C4 1943   4.113   0.268   8.652 -0.3898 -0.7152  0.0897
  125TMC2    C5 1944   4.047   0.361   8.734  0.0235 -0.6329 -0.2765
  125TMC2    C6 1945   3.919   0.396   8.717  0.5453 -0.8157  0.0245
  125TMC2     C 1946   4.091   0.111   8.461 -0.6795  0.6086 -0.5187
  125TMC2     O 1947   4.051   0.104   8.346  0.1843  0.2649  0.1997
  125TMC2     H 1948   3.865   0.211   8.442 -0.0901 -3.4555  0.8645
  125TMC2    H1 1949   4.220   0.251   8.656 -0.3834 -0.6343  0.2767
  125TMC2    H2 1950   3.860   0.458   8.783 -2.2278 -1.0642 -2.1942
  125TMC2    C7 1951   4.109   0.400   8.862  0.5644 -0.0201 -0.3522
  125TMC2    C8 1952   3.717   0.372   8.584 -0.0823  0.4260  0.1505
  125TMC2    O1 1953   4.194   0.326   8.914 -0.2489  0.4096  0.8467
  125TMC2    O2 1954   3.643   0.289   8.530 -0.5450 -0.1821  0.0045
  125TMC2    O5 1955   3.706   0.503   8.587 -0.0560 -0.6034  0.6082
  125TMC2    H5 1956   3.788   0.550   8.611 -1.3106  1.8119  0.2330
  126MPD1     C 1957   4.363   4.414   8.416 -0.5030 -0.0270 -0.0065
  126MPD1    C1 1958   4.344   4.448   8.546  0.2777  0.1548  0.4208
  126MPD1    C2 1959   4.273   4.563   8.585  0.0149  0.0324  0.0291
  126MPD1    C3 1960   4.227   4.644   8.490  0.1300 -0.4989 -0.2232
  126MPD1    C4 1961   4.235   4.606   8.359  1.5692  0.4979 -0.0283
  126MPD1    C5 1962   4.303   4.494   8.321 -0.6087 -0.2271 -0.3880
  126MPD1     H 1963   4.266   4.595   8.688 -0.8185 -0.7997  0.2346
  126MPD1    H1 1964   4.192   4.663   8.278 -0.8195  0.4507  1.1930
  126MPD1    H2 1965   4.418   4.326   8.385 -0.0871  0.1203  0.3221
  126MPD1    H3 1966   4.298   4.468   8.215  2.7422  2.2977 -1.1566
  126MPD1     N 1967   4.166   0.032   8.537 -0.4664  0.0796  0.6023
  126MPD1    H5 1968   4.169   0.064   8.633  0.9567  0.8264  0.3119
  126MPD1    N1 1969   4.382   4.365   8.649  0.2527 -0.2463 -0.3435
  126MPD1    H6 1970   4.464   4.308   8.628 -0.4595 -0.7024 -1.9010
  126MPD1    H7 1971   4.392   4.416   8.736  0.8587  0.5183 -0.8660
  127TMC2    C1 1972   0.091   0.108   9.200  0.3309 -0.1688  0.3015
  127TMC2    C2 1973   0.157   0.039   9.298 -0.0440  0.0290  0.5456
  127TMC2    C3 1974   0.092   4.671   9.355 -0.2405 -0.7989 -0.2167
  127TMC2    C4 1975   4.698   0.077   9.158  0.6443 -0.2570 -0.5443
  127TMC2    C5 1976   4.634   4.709   9.223  0.7317  0.0944 -0.6062
  127TMC2    C6 1977   4.699   4.640   9.320 -0.2689 -0.0192 -0.1900
  127TMC2     C 1978   0.142   0.238   9.163  0.0975  0.0973  0.0794
  127TMC2     O 1979   0.218   0.297   9.240 -0.0698 -0.0610 -0.4834
  127TMC2     H 1980   0.259   0.066   9.322  0.6317 -1.5731 -0.4748
  127TMC2    H1 1981   4.633   0.135   9.093 -1.0607 -0.4086  1.0699
  127TMC2    H2 1982   4.645   4.560   9.370  2.0168 -0.2483  1.9417
  127TMC2    C7 1983   4.499   4.686   9.185 -0.2419  0.1980 -0.1702
  127TMC2    C8 1984   0.167   4.600   9.457 -0.3385 -0.2936  0.4328
  127TMC2    O1 1985   4.438   0.040   9.121 -0.0594  0.1099  0.4483
  127TMC2    O2 1986   0.291   4.597   9.466 -0.8018  0.2830  0.1681
  127TMC2    O5 1987   0.082   4.522   9.530 -0.0460  0.1948  0.0221
  127TMC2    H5 1988   4.720   4.516   9.515 -0.0685  0.5428  0.0354
  128MPD2     C 1989   0.025   0.415   8.856  0.5239 -0.4684  0.5290
  128MPD2    C1 1990   0.109   0.395   8.974 -0.0254 -0.6739  0.0849
  128MPD2    C2 1991   0.175   0.506   9.026  1.0488  1.1226 -0.5108
  128MPD2    C3 1992   0.160   0.637   8.979 -0.0749 -0.9465 -0.9201
  128MPD2    C4 1993   0.088   0.649   8.860 -0.4717  0.7534 -0.8611
  128MPD2    C5 1994   0.029   0.540   8.798 -0.7780 -0.6206 -0.2190
  128MPD2     H 1995   0.240   0.490   9.112  0.2394 -1.3633 -0.3742
  128MPD2    H1 1996   0.062   0.747   8.820 -0.0374  1.7204  1.2148
  128MPD2    H2 1997   4.691   0.341   8.815 -0.2161 -0.3777  1.5892
  128MPD2    H3 1998   4.700   0.554   8.711  0.4752  0.0263 -1.0413
  128MPD2     N 1999   0.220   0.745   9.056 -0.0410  0.3692 -0.5412
  128MPD2    H5 2000   0.273   0.730   9.141 -0.7698  0.7094 -0.0303
  128MPD2    N1 2001   0.099   0.273   9.038 -0.5654  0.3743  0.5510
  128MPD2    H7 2002   0.023   0.222   8.995  0.7333 -0.6421 -0.5637
  129TMC2    C1 2003   3.767   1.072   0.925  0.2032  0.4676  0.4069
  129TMC2    C2 2004   3.698   1.157   0.845  0.2571 -0.0791  0.6105
  129TMC2    C3 2005   3.561   1.127   0.840 -0.4881 -1.1780  0.4404
  129TMC2    C4 2006   3.715   0.975   1.005  0.4872  0.4764 -0.6388
  129TMC2    C5 2007   3.585   0.947   0.984  0.1124 -0.5665  1.0837
  129TMC2    C6 2008   3.506   1.020   0.901 -0.4660  0.4443  0.2797
  129TMC2     C 2009   3.914   1.101   0.934  0.2856 -0.1186  0.0498
  129TMC2     O 2010   3.995   1.018   0.976  0.4016 -0.3421 -0.2780
  129TMC2     H 2011   3.740   1.221   0.769 -1.3305  0.0191 -0.1956
  129TMC2    H1 2012   3.775   0.923   1.079 -2.0315 -1.8959 -0.3040
  129TMC2    H2 2013   3.406   0.990   0.869  1.3563 -1.9116 -3.2260
  129TMC2    C7 2014   3.519   0.869   1.088  0.5206 -1.1221 -0.1018
  129TMC2    C8 2015   3.486   1.185   0.726 -0.7701 -0.2582  1.0351
  129TMC2    O1 2016   3.403   0.893   1.115 -0.3597 -0.4603 -0.4893
  129TMC2    O2 2017   3.386   1.135   0.680 -0.3736  0.3685 -0.4140
  129TMC2    O5 2018   3.533   1.309   0.712 -0.4204  0.7470 -0.3207
  129TMC2    H5 2019   3.607   1.336   0.772  0.4420 -1.6145 -0.2986
  130MPD2     C 2020   4.203   1.213   0.925  0.7722  0.3269  0.0467
  130MPD2    C1 2021   4.085   1.280   0.881  0.1413 -0.6389  0.2365
  130MPD2    C2 2022   4.109   1.395   0.821  0.7472  0.2305 -0.2244
  130MPD2    C3 2023   4.229   1.455   0.811 -0.1728 -0.2789  0.3558
  130MPD2    C4 2024   4.349   1.395   0.849  0.4716 -0.5779 -0.3936
  130MPD2    C5 2025   4.336   1.272   0.913 -0.0690 -0.1686 -0.2514
  130MPD2     H 2026   4.020   1.454   0.804  0.4450 -0.4059 -0.8415
  130MPD2    H1 2027   4.448   1.439   0.844  0.1705  0.1513  0.1362
  130MPD2    H2 2028   4.203   1.115   0.972 -0.9405  0.0130 -0.6142
  130MPD2    H3 2029   4.427   1.220   0.939 -0.5000  0.1872  2.0289
  130MPD2     N 2030   4.225   1.585   0.760  0.2191  0.3059  0.3224
  130MPD2    H5 2031   4.133   1.607   0.722  0.2003 -2.0435 -1.0436
  130MPD2    N1 2032   3.951   1.227   0.883  0.0530 -0.4392  0.1153
  130MPD2    H7 2033   3.878   1.296   0.866 -0.3200 -1.2913 -1.8280
  131TMC2    C1 2034   2.890   0.464   9.687  0.3162  0.7306 -0.2749
  131TMC2    C2 2035   2.977   0.485   9.586  0.2866  0.3854  0.5097
  131TMC2    C3 2036   3.048   0.604   9.584  0.0210 -0.3958  0.3119
  131TMC2    C4 2037   2.851   0.565   9.765 -0.0389  0.0310  0.2226
  131TMC2    C5 2038   2.916   0.689   9.752 -0.3918 -0.3012 -0.3317
  131TMC2    C6 2039   3.021   0.709   9.669  0.7035 -0.3640 -0.0320
  131TMC2     C 2040   2.853   0.329   9.728  1.1500  0.3705 -0.1834
  131TMC2     O 2041   2.811   0.317   9.843 -0.0927  0.5223  0.0565
  131TMC2     H 2042   3.023   0.405   9.529  1.5321  0.4771  1.3887
  131TMC2    H1 2043   2.765   0.545   9.827 -0.8175  1.8369 -0.2546
  131TMC2    H2 2044   3.057   0.807   9.642 -0.0335  0.0415  0.4529
  131TMC2    C7 2045   2.867   0.800   9.840 -0.3061  0.3194  0.1171
  131TMC2    C8 2046   3.145   0.630   9.480  0.2538  0.3441  0.3283
  131TMC2    O1 2047   2.755   0.797   9.887  1.0340 -0.0668  0.0276
  131TMC2    O2 2048   3.155   0.569   9.375 -0.1891  0.7593  0.1318
  131TMC2    O5 2049   3.235   0.702   9.538 -0.3452 -0.2724  0.0230
  131TMC2    H5 2050   3.222   0.712   9.635 -0.4794  2.9584 -0.3385
  132MPD2     C 2051   2.733   0.060   9.495 -1.0476  0.0271 -0.4128
  132MPD2    C1 2052   2.759   0.125   9.612 -0.3862  0.9904  0.1830
  132MPD2    C2 2053   2.720   0.062   9.724 -0.1639 -0.4286 -0.1596
  132MPD2    C3 2054   2.646   4.678   9.726 -0.0479  0.3341 -0.4592
  132MPD2    C4 2055   2.615   4.619   9.603 -0.2341 -0.6218 -0.1827
  132MPD2    C5 2056   2.666   4.674   9.491  0.3634  0.6040  0.4939
  132MPD2     H 2057   2.731   0.106   9.823  0.5397  1.9009 -1.2698
  132MPD2    H1 2058   2.591   4.514   9.588  0.1295 -1.0761  2.4272
  132MPD2    H2 2059   2.759   0.104   9.400 -0.9425 -0.8855 -0.8114
  132MPD2    H3 2060   2.666   4.624   9.394 -2.5572 -3.0050  2.3367
  132MPD2     N 2061   2.626   4.615   9.849 -0.3549 -0.1317  0.4791
  132MPD2    H5 2062   2.663   4.658   9.933  0.2304  0.2316  0.0359
  132MPD2    N1 2063   2.826   0.255   9.616 -0.2405 -0.0096  0.3319
  132MPD2    H7 2064   2.852   0.293   9.526  0.7302  0.2933  0.7430
  133TMC2    C1 2065   2.328   1.687   9.754 -0.0104  0.0521  0.6910
  133TMC2    C2 2066   2.450   1.627   9.785 -0.7592 -0.2737 -0.7902
  133TMC2    C3 2067   2.511   1.661   9.902  0.4415 -0.0336  0.2045
  133TMC2    C4 2068   2.265   1.778   9.835 -0.8456  0.0007  0.3316
  133TMC2    C5 2069   2.333   1.820   9.943  0.4273 -0.4186  0.4240
  133TMC2    C6 2070   2.459   1.766   9.973 -0.1084  0.7112 -0.2652
  133TMC2     C 2071   2.255   1.618   9.652 -0.3645 -0.2078 -0.0358
  133TMC2     O 2072   2.285   1.499   9.642 -0.3584  0.3134  0.5016
  133TMC2     H 2073   2.497   1.569   9.706 -1.0669 -0.8521 -0.5504
  133TMC2    H1 2074   2.167   1.816   9.807 -0.4987  0.0854 -0.7860
  133TMC2    H2 2075   2.505   1.801  10.064 -0.5977 -2.6358  1.2628
  133TMC2    C7 2076   2.298   1.946  10.006 -0.3343 -0.1896  0.7783
  133TMC2    C8 2077   2.640   1.613   9.933 -0.1022  0.2959 -1.0172
  133TMC2    O1 2078   2.363   1.975  10.109 -0.3432 -0.3749  0.1034
  133TMC2    O2 2079   2.713   1.670  10.016 -0.0662 -0.0241 -0.9346
  133TMC2    O5 2080   2.654   1.486   9.880 -0.2663 -0.2044 -0.0749
  133TMC2    H5 2081   2.585   1.452   9.819 -1.5070  1.7013  0.2532
  134MPD2     C 2082   1.983   1.764   9.445  0.7305 -0.4430 -0.2593
  134MPD2    C1 2083   2.076   1.669   9.479  0.7160 -0.1978  0.1285
  134MPD2    C2 2084   2.090   1.555   9.406  0.1360  0.0396 -0.7225
  134MPD2    C3 2085   2.005   1.540   9.298 -0.4514 -0.2963 -0.3676
  134MPD2    C4 2086   1.918   1.633   9.266  0.2507 -0.4640  0.2358
  134MPD2    C5 2087   1.905   1.749   9.334 -0.3992 -0.0934  0.1403
  134MPD2     H 2088   2.153   1.475   9.441  0.5003  2.1171  3.3667
  134MPD2    H1 2089   1.849   1.621   9.183 -0.1389 -1.2638  0.6744
  134MPD2    H2 2090   1.979   1.851   9.509 -0.0305 -0.8558  0.2541
  134MPD2    H3 2091   1.826   1.820   9.310  0.3415  1.2392  1.5922
  134MPD2     N 2092   2.010   1.431   9.210  0.4119 -0.3947  0.0889
  134MPD2    H5 2093   1.944   1.421   9.134  0.2674  0.3327  0.1198
  134MPD2    N1 2094   2.162   1.700   9.588  0.3992  0.1029 -0.7822
  134MPD2    H7 2095   2.137   1.791   9.625  0.5294 -0.2791  0.2452
  135TMC2    C1 2096   4.162   2.293   9.673 -0.0848  0.6625  0.3130
  135TMC2    C2 2097   4.086   2.291   9.561  0.4868 -0.2587  0.5261
  135TMC2    C3 2098   3.969   2.366   9.560 -0.0490 -0.2948  0.0012
  135TMC2    C4 2099   4.130   2.375   9.773 -0.0377  0.0680  0.2200
  135TMC2    C5 2100   4.007   2.433   9.775 -0.5047  1.0763  0.4306
  135TMC2    C6 2101   3.930   2.441   9.663  0.5715  0.5769 -0.6470
  135TMC2     C 2102   4.280   2.211   9.678  0.0207  0.3423 -0.5449
  135TMC2     O 2103   4.353   2.228   9.777 -0.2459  0.5327  0.0693
  135TMC2     H 2104   4.118   2.251   9.466  0.0876 -0.2643  0.3941
  135TMC2    H1 2105   4.196   2.377   9.859 -1.7080 -1.6100  1.5243
  135TMC2    H2 2106   3.830   2.483   9.665 -0.0114 -0.7947 -0.8300
  135TMC2    C7 2107   3.988   2.521   9.887 -0.4691  0.2686 -0.2295
  135TMC2    C8 2108   3.883   2.360   9.446  0.3506  0.4551 -0.2139
  135TMC2    O1 2109   4.080   2.565   9.951  0.2417  0.1867 -0.6366
  135TMC2    O2 2110   3.803   2.440   9.409 -0.3122  0.3243  0.5004
  135TMC2    O5 2111   3.863   2.229   9.433 -0.3454 -0.5874  0.4273
  135TMC2    H5 2112   3.937   2.169   9.456 -0.9878 -1.6725 -0.3396
  136MPD2     C 2113   4.487   2.014   9.642 -0.7099  0.1310 -0.2580
  136MPD2    C1 2114   4.385   2.019   9.557 -0.1131 -0.0302  0.1972
  136MPD2    C2 2115   4.383   1.939   9.445  0.0894  0.0654 -0.4988
  136MPD2    C3 2116   4.499   1.863   9.422  0.2274  0.2635 -0.4436
  136MPD2    C4 2117   4.594   1.849   9.520 -0.1364  0.4927 -0.0230
  136MPD2    C5 2118   4.593   1.921   9.634 -0.1978 -0.0527  0.5201
  136MPD2     H 2119   4.308   1.957   9.369  0.1626  0.6844 -0.4238
  136MPD2    H1 2120   4.670   1.771   9.510 -1.5235 -0.3036 -4.3781
  136MPD2    H2 2121   4.492   2.081   9.727 -2.0169 -1.4320  1.0640
  136MPD2    H3 2122   4.670   1.913   9.710  0.4897  1.9788  0.0302
  136MPD2     N 2123   4.529   1.796   9.303  0.3025 -0.2597  0.6112
  136MPD2    H5 2124   4.612   1.738   9.303 -0.0020 -0.6944  1.1534
  136MPD2    N1 2125   4.282   2.109   9.582 -0.1426 -0.0361 -0.4126
  136MPD2    H7 2126   4.202   2.089   9.523 -1.7154  1.3124  1.2883
  137TMC2    C1 2127   4.340   1.491  10.498 -0.3615 -0.8284  0.0456
  137TMC2    C2 2128   4.454   1.427  10.538  0.0039  0.7000  0.8227
  137TMC2    C3 2129   4.539   1.392  10.437 -0.2975 -0.5821 -0.2112
  137TMC2    C4 2130   4.300   1.495  10.367 -0.1072 -0.2952 -0.0480
  137TMC2    C5 2131   4.379   1.444  10.271  0.1831  0.3266  0.0923
  137TMC2    C6 2132   4.501   1.396  10.305 -0.5275 -0.6251  0.1353
  137TMC2     C 2133   4.239   1.515  10.597 -0.5865 -0.1619 -0.0532
  137TMC2     O 2134   4.129   1.534  10.548 -0.0173 -0.0361  0.0054
  137TMC2     H 2135   4.479   1.399  10.640 -0.6157 -0.9943  0.5069
  137TMC2    H1 2136   4.203   1.534  10.338  0.1892 -1.2665 -2.3984
  137TMC2    H2 2137   4.568   1.357  10.229 -0.1218 -0.8297  0.5981
  137TMC2    C7 2138   4.333   1.373  10.155 -0.6217 -0.2907  0.3900
  137TMC2    C8 2139   4.672   1.347  10.483  0.4862  0.6199 -0.1385
  137TMC2    O1 2140   4.393   1.274  10.122  0.1545  0.1854  0.5511
  137TMC2    O2 2141   4.692   1.304  10.591  0.4987 -0.0543 -0.2536
  137TMC2    O5 2142   0.026   1.418  10.411  0.2633 -0.5540 -0.8349
  137TMC2    H5 2143   4.721   1.452  10.328  0.4872 -0.1466 -0.7746
  138MPD2     C 2144   4.319   1.618  10.939  0.6055 -0.5650  0.3288
  138MPD2    C1 2145   4.233   1.583  10.832 -0.0942  0.1783 -0.2728
  138MPD2    C2 2146   4.093   1.613  10.843  0.3799  0.0230 -0.3083
  138MPD2    C3 2147   4.043   1.669  10.962 -0.3763  0.2935  0.1501
  138MPD2    C4 2148   4.132   1.703  11.060  0.2765 -0.0672  0.2012
  138MPD2    C5 2149   4.266   1.671  11.050  0.6812  0.5412 -0.0192
  138MPD2     H 2150   4.028   1.605  10.756  2.4630 -1.3937 -1.7313
  138MPD2    H1 2151   4.105   1.755  11.152 -0.2871  1.2803 -0.7238
  138MPD2    H2 2152   4.426   1.601  10.932  0.5443 -1.4681  1.5915
  138MPD2    H3 2153   4.331   1.694  11.133  0.1020  0.5395  0.4350
  138MPD2     N 2154   3.911   1.721  10.965 -0.1616  0.3996 -0.1016
  138MPD2    H5 2155   3.876   1.732  10.870 -0.9824 -2.3056 -0.1022
  138MPD2    N1 2156   4.294   1.531  10.721 -0.0114  0.1751 -0.5498
  138MPD2    H7 2157   4.396   1.530  10.724 -0.0233  2.7763  0.2367
  139TMC2    C1 2158   0.071   4.728  13.071 -0.2049  0.0199 -0.6739
  139TMC2    C2 2159   0.084   0.067  12.955 -0.0257 -0.7158  0.8626
  139TMC2    C3 2160   4.723   0.148  12.914 -0.2054 -0.0232  0.3726
  139TMC2    C4 2161   4.695   0.002  13.149  0.0102  0.3115 -0.1842
  139TMC2    C5 2162   4.598   0.089  13.106 -0.0935  0.2085  0.0892
  139TMC2    C6 2163   4.611   0.164  12.989  0.1043  0.3452  0.3176
  139TMC2     C 2164   0.149   4.614  13.086  0.3078  0.1552 -0.2445
  139TMC2     O 2165   0.265   4.612  13.038  0.6184  0.2712  0.3334
  139TMC2     H 2166   0.166   0.028  12.896 -1.7524 -3.1100  0.0441
  139TMC2    H1 2167   4.697   4.686  13.245 -0.3311  1.0232  0.2009
  139TMC2    H2 2168   4.538   0.232  12.948  1.1245  0.2664 -1.6291
  139TMC2    C7 2169   4.483   0.130  13.187  1.0449  0.2405 -0.7251
  139TMC2    C8 2170   4.694   0.141  12.774 -0.1566  0.3015 -0.2703
  139TMC2    O1 2171   4.420   0.229  13.153 -0.7739 -0.1705 -0.2908
  139TMC2    O2 2172   4.588   0.105  12.731 -0.7821 -0.6664 -0.3143
  139TMC2    O5 2173   0.070   0.130  12.707 -0.4428 -0.0686  0.3384
  139TMC2    H5 2174   0.148   0.172  12.749 -0.1501  0.2563 -0.5323
  140MPD2     C 2175   0.031   4.290  13.206  0.1208  0.1807  0.5924
  140MPD2    C1 2176   0.118   4.371  13.144 -0.3566  0.1629  0.3953
  140MPD2    C2 2177   0.239   4.320  13.101  0.0920 -0.4076  0.4829
  140MPD2    C3 2178   0.274   4.188  13.121  0.0270 -0.2115 -0.1588
  140MPD2    C4 2179   0.180   4.105  13.179  0.3949  0.1684  0.2899
  140MPD2    C5 2180   0.062   4.154  13.220  0.0438 -0.9119 -0.0470
  140MPD2     H 2181   0.315   4.381  13.053 -0.3610  0.0986  0.4107
  140MPD2    H1 2182   0.196   4.001  13.204 -0.4147  0.1664  0.7758
  140MPD2    H2 2183   4.666   4.329  13.227 -0.0546  1.5035 -2.7031
  140MPD2    H3 2184   4.722   4.094  13.272  1.4617 -3.2385 -0.6694
  140MPD2     N 2185   0.403   4.148  13.070 -0.4712 -0.0062 -0.5769
  140MPD2    H5 2186   0.463   4.220  13.030  0.0298  0.3184  0.7712
  140MPD2    N1 2187   0.078   4.512  13.144  1.0109  0.2952  0.1445
  140MPD2    H7 2188   4.725   4.536  13.189  1.9078  2.4344  0.7428
  141TMC2    C1 2189   0.741   0.805  14.112  0.3286  0.0703 -0.0594
  141TMC2    C2 2190   0.718   0.672  14.099  0.3618  0.1505 -0.3146
  141TMC2    C3 2191   0.712   0.600  14.208  0.4600 -0.4024 -0.5693
  141TMC2    C4 2192   0.780   0.857  14.232  0.4994 -0.2332  0.4057
  141TMC2    C5 2193   0.786   0.769  14.341 -0.4027 -0.1216  0.8090
  141TMC2    C6 2194   0.747   0.636  14.334 -0.4590 -0.2545 -0.0441
  141TMC2     C 2195   0.743   0.889  13.984 -0.4934 -0.1235 -0.8331
  141TMC2     O 2196   0.698   0.832  13.888  0.2725  0.2937  0.3421
  141TMC2     H 2197   0.705   0.620  14.005  2.5616 -1.0879  0.0741
  141TMC2    H1 2198   0.765   0.963  14.247 -1.5007 -0.5962  0.9170
  141TMC2    H2 2199   0.740   0.562  14.413  0.3821 -0.3100 -0.0221
  141TMC2    C7 2200   0.832   0.813  14.469 -0.5871  0.8972 -0.4366
  141TMC2    C8 2201   0.680   0.461  14.184  0.5259  0.4380 -0.7592
  141TMC2    O1 2202   0.813   0.735  14.560  0.2767  0.1113 -0.4449
  141TMC2    O2 2203   0.724   0.364  14.240  0.0504 -0.3322  0.4285
  141TMC2    O5 2204   0.553   0.472  14.137  0.3636  0.0318 -0.5832
  141TMC2    H5 2205   0.516   0.561  14.117  0.5707  0.3182  0.3318
  142TMC2    C1 2206   2.989   4.433   9.770 -0.2603 -0.2369  0.6912
  142TMC2    C2 2207   2.952   4.448   9.638 -0.0621  0.7961  0.6046
  142TMC2    C3 2208   2.997   4.555   9.571 -0.0611  0.3995 -0.5603
  142TMC2    C4 2209   3.067   4.531   9.833  0.2708 -0.0869  0.6607
  142TMC2    C5 2210   3.087   4.645   9.760  0.1430 -0.2218  1.0044
  142TMC2    C6 2211   3.058   4.657   9.631  0.2705  0.3292 -0.5545
  142TMC2     C 2212   2.910   4.345   9.852  0.7579 -0.4680  0.0220
  142TMC2     O 2213   2.869   4.247   9.793  0.2122 -0.9174  0.7220
  142TMC2     H 2214   2.877   4.386   9.590 -1.2542  0.9518  2.2908
  142TMC2    H1 2215   3.099   4.518   9.935 -1.5012 -1.1227  1.0856
  142TMC2    H2 2216   3.098   0.008   9.579  0.1359  1.9243  1.9863
  142TMC2    C7 2217   3.095   0.021   9.853  0.1938 -0.1174 -0.4593
  142TMC2    C8 2218   3.003   4.555   9.425  0.2790  0.1673 -0.6357
  142TMC2    O1 2219   3.059   4.724   9.962  0.3407 -0.2348 -0.2707
  142TMC2    O2 2220   3.005   4.658   9.358  0.1751 -0.4295  0.7060
  142TMC2    O5 2221   3.038   4.431   9.380 -0.0517  0.1078  0.5918
  142TMC2    H5 2222   3.030   4.355   9.441 -0.7011  0.4643  0.9510
  143MPD2     C 2223   2.734   4.161  10.309 -0.1534  0.5479 -0.7003
  143MPD2    C1 2224   2.697   4.137  10.184 -0.6310 -0.1357 -0.2600
  143MPD2    C2 2225   2.759   4.204  10.070  0.2631 -0.5259  0.6286
  143MPD2    C3 2226   2.857   4.300  10.094  0.0112 -0.1021  0.0967
  143MPD2    C4 2227   2.888   4.330  10.220  0.6239  0.2678  0.9991
  143MPD2    C5 2228   2.831   4.266  10.326  0.1532  0.5133 -0.8715
  143MPD2     H 2229   2.727   4.181   9.969  0.2422  0.9135  0.3121
  143MPD2    H1 2230   2.949   4.418  10.232  0.1333  0.5311  1.5774
  143MPD2    H2 2231   2.694   4.124  10.403  1.8817 -0.6476 -0.3163
  143MPD2    H3 2232   2.852   4.302  10.426 -0.9564  1.9646 -1.1528
  143MPD2     N 2233   2.904   4.383   9.989  0.3468  0.4258 -0.6285
  143MPD2    H5 2234   2.940   4.472  10.022  2.1892 -0.6403  0.2427
  143MPD2    N1 2235   2.594   4.038  10.170  0.3357  0.6837  0.8317
  143MPD2    H7 2236   2.542   4.015  10.254 -0.6534 -0.6044 -0.1208
  144TMC2    C1 2237   1.180   3.135   0.744 -0.0963  0.5630 -0.3729
  144TMC2    C2 2238   1.194   3.004   0.728  0.7045  0.1705 -0.4291
  144TMC2    C3 2239   1.248   2.923   0.826 -0.1465  0.0831 -0.3589
  144TMC2    C4 2240   1.212   3.198   0.859  0.5429 -0.8433 -0.3087
  144TMC2    C5 2241   1.246   3.114   0.967 -0.5548  0.2750  0.4291
  144TMC2    C6 2242   1.262   2.981   0.951 -0.5923  0.7616  0.5391
  144TMC2     C 2243   1.141   3.209   0.624  0.6442  0.2645 -0.3118
  144TMC2     O 2244   1.101   3.139   0.535 -0.1841  0.3730  0.1588
  144TMC2     H 2245   1.155   2.957   0.639 -0.3548 -0.4181  0.3525
  144TMC2    H1 2246   1.209   3.306   0.863  1.0181 -0.8936  1.2333
  144TMC2    H2 2247   1.276   2.918   1.038 -0.8094 -0.2010 -0.1207
  144TMC2    C7 2248   1.257   3.161   1.105  0.2939  0.6315 -0.3669
  144TMC2    C8 2249   1.225   2.780   0.807 -0.2080 -0.7574  0.3457
  144TMC2    O1 2250   1.282   3.076   1.187 -0.2414 -0.4323 -0.3640
  144TMC2    O2 2251   1.147   2.746   0.720 -0.0590 -0.2712  0.9654
  144TMC2    O5 2252   1.273   2.707   0.907 -0.2847  0.0377 -0.3789
  144TMC2    H5 2253   1.343   2.734   0.971 -0.3555  0.2690 -0.3989
  145MPD2     C 2254   1.038   3.611   0.327  0.1702  0.6087  0.1074
  145MPD2    C1 2255   1.008   3.477   0.307  0.0133  0.7059  0.1113
  145MPD2    C2 2256   1.039   3.394   0.417  0.4926 -0.2562 -0.7394
  145MPD2    C3 2257   1.091   3.436   0.536  0.1059 -0.2970  0.6140
  145MPD2    C4 2258   1.111   3.571   0.549  0.0458  0.2985 -0.9030
  145MPD2    C5 2259   1.083   3.659   0.447  0.0868 -0.3609  0.6288
  145MPD2     H 2260   1.031   3.289   0.392  0.3067 -0.1578 -1.1090
  145MPD2    H1 2261   1.156   3.617   0.636 -2.1635  0.5117  0.1198
  145MPD2    H2 2262   1.014   3.695   0.263  1.7059  2.1071  1.5094
  145MPD2    H3 2263   1.104   3.765   0.459  0.4505 -0.7750  3.7821
  145MPD2     N 2264   1.129   3.347   0.646 -0.1471  0.3299  0.1431
  145MPD2    H5 2265   1.164   3.405   0.720 -0.9587 -0.4768  1.1636
  145MPD2    N1 2266   0.989   3.406   0.188 -0.5437 -0.1887  0.2241
  145MPD2    H7 2267   0.978   3.305   0.191 -0.4166 -0.1905  0.6311
  146TMC2    C1 2268   1.875   1.947  12.765 -0.3949 -0.1040  0.3488
  146TMC2    C2 2269   1.744   1.923  12.754  0.3276  0.2082 -0.3939
  146TMC2    C3 2270   1.710   1.842  12.653 -0.1645  0.1382  0.4384
  146TMC2    C4 2271   1.975   1.883  12.687 -0.3433  0.1228 -0.2220
  146TMC2    C5 2272   1.934   1.792  12.594 -0.5802  0.4685  0.2136
  146TMC2    C6 2273   1.798   1.769  12.579 -0.3839  0.3755 -0.1412
  146TMC2     C 2274   1.922   2.043  12.863  0.2863 -0.2505  0.5722
  146TMC2     O 2275   1.851   2.139  12.888  0.0591 -0.8775  0.3121
  146TMC2     H 2276   1.668   1.977  12.809  0.8608 -0.7500  1.2831
  146TMC2    H1 2277   2.073   1.929  12.680 -0.4871  0.4760  0.0734
  146TMC2    H2 2278   1.757   1.704  12.503 -2.8659  0.9275  0.7110
  146TMC2    C7 2279   2.018   1.749  12.494  0.4208 -0.0135  0.7060
  146TMC2    C8 2280   1.569   1.816  12.628 -0.2941  0.7642 -0.5529
  146TMC2    O1 2281   1.965   1.708  12.394 -0.2127  0.2245 -0.0887
  146TMC2    O2 2282   1.479   1.900  12.645 -0.3949  0.2827 -0.1728
  146TMC2    O5 2283   1.543   1.685  12.612 -0.3519 -0.4984 -0.5075
  146TMC2    H5 2284   1.621   1.636  12.644  1.1483  1.8340 -0.6294
  147MPD2     C 2285   2.488   1.630  12.309 -0.7081  0.8066 -1.2587
  147MPD2    C1 2286   2.499   1.667  12.449  0.7187 -0.4591 -0.0677
  147MPD2    C2 2287   2.379   1.703  12.521 -0.5234 -0.9510  0.1075
  147MPD2    C3 2288   2.261   1.695  12.456 -0.1498  0.0749 -0.2265
  147MPD2    C4 2289   2.243   1.645  12.331  0.5447  0.7759 -0.2063
  147MPD2    C5 2290   2.356   1.626  12.259 -0.1160 -0.6688  0.5056
  147MPD2     H 2291   2.388   1.735  12.624 -0.9495 -0.3888 -0.0261
  147MPD2    H1 2292   2.148   1.649  12.280  1.0143  1.3850 -1.0357
  147MPD2    H2 2293   2.571   1.605  12.245 -0.6591 -1.7657 -0.2001
  147MPD2    H3 2294   2.342   1.596  12.156  0.0410  0.0720  0.2659
  147MPD2     N 2295   2.154   1.748  12.533 -1.0917  0.0878  0.0903
  147MPD2    H5 2296   2.168   1.772  12.631 -2.1086 -1.2037  0.5530
  147MPD2    N1 2297   2.625   1.654  12.521  0.1803  0.3737  0.7068
  147MPD2    H7 2298   2.702   1.640  12.456 -0.7912 -2.8019  0.2247
  148TMC2    C1 2299   2.391   0.926  10.511 -0.7115  0.9007 -0.1125
  148TMC2    C2 2300   2.439   1.050  10.555 -0.4653 -0.2456 -0.7529
  148TMC2    C3 2301   2.577   1.051  10.578 -0.3422 -0.1934  0.5008
  148TMC2    C4 2302   2.472   0.814  10.514 -1.1029 -0.6377 -0.5748
  148TMC2    C5 2303   2.603   0.825  10.556 -0.0820  0.2909 -0.6679
  148TMC2    C6 2304   2.660   0.944  10.582 -0.2305 -0.1063  0.0298
  148TMC2     C 2305   2.298   0.941  10.409  0.0815  0.3839 -0.0361
  148TMC2     O 2306   2.293   1.054  10.367  0.1470  0.1112  0.4398
  148TMC2     H 2307   2.375   1.137  10.554 -0.3965 -0.1855  0.8955
  148TMC2    H1 2308   2.439   0.715  10.484 -2.0709 -0.8884  1.2774
  148TMC2    H2 2309   2.764   0.949  10.613 -0.1852 -0.0703 -0.1283
  148TMC2    C7 2310   2.682   0.709  10.519  0.4168  0.5290  0.2350
  148TMC2    C8 2311   2.650   1.172  10.609  0.8717  0.4055 -0.1260
  148TMC2    O1 2312   2.635   0.600  10.546 -0.0530  0.4021  0.2066
  148TMC2    O2 2313   2.773   1.185  10.613 -0.3350  0.0024  0.5970
  148TMC2    O5 2314   2.571   1.237  10.694  0.0624  0.2438  0.0649
  148TMC2    H5 2315   2.478   1.212  10.680 -0.2154  0.6492  1.1855
  149MPD2     C 2316   2.186   0.901  10.141 -0.9481  0.2657 -0.1779
  149MPD2    C1 2317   2.197   0.800  10.235  0.3559 -0.6846  0.2672
  149MPD2    C2 2318   2.150   0.677  10.203  0.2302  0.0672  0.2448
  149MPD2    C3 2319   2.101   0.642  10.076  0.6048 -0.4768  0.5104
  149MPD2    C4 2320   2.095   0.737   9.982 -0.8769  0.2987 -0.1437
  149MPD2    C5 2321   2.136   0.864  10.016 -0.5982 -0.1851 -0.2070
  149MPD2     H 2322   2.161   0.604  10.282  1.2219  0.8036  0.7922
  149MPD2    H1 2323   2.043   0.719   9.888 -0.0763 -0.4462 -0.4501
  149MPD2    H2 2324   2.211   1.005  10.158  0.9933  0.2213 -2.5701
  149MPD2    H3 2325   2.131   0.942   9.940 -0.7556 -0.7254 -0.7531
  149MPD2     N 2326   2.058   0.513  10.044 -0.2754  0.0027 -0.0771
  149MPD2    H5 2327   2.018   0.510   9.951  2.0984 -1.4239 -1.0512
  149MPD2    N1 2328   2.259   0.818  10.359 -0.4505  0.6973 -0.0487
  149MPD2    H7 2329   2.264   0.733  10.414  0.9174 -0.3311 -1.7700
  150TMC2    C1 2330   4.634   0.256  11.909  0.6168  0.3081  0.0204
  150TMC2    C2 2331   4.612   0.382  11.847 -0.5099  0.3089 -0.5617
  150TMC2    C3 2332   4.665   0.497  11.902  0.3173  0.2735 -0.0058
  150TMC2    C4 2333   4.733   0.248  12.004 -0.2569 -0.3635  0.0732
  150TMC2    C5 2334   0.078   0.358  12.031 -0.0281  0.5317  0.3868
  150TMC2    C6 2335   0.046   0.487  11.984  0.6332  0.2440 -0.5974
  150TMC2     C 2336   4.535   0.155  11.908  0.3577  0.0864  0.0732
  150TMC2     O 2337   4.550   0.066  11.984  0.0283 -0.1373 -0.5081
  150TMC2     H 2338   4.529   0.392  11.778  0.0965 -3.6259 -1.8812
  150TMC2    H1 2339   0.020   0.157  12.059  1.0397 -0.0594  0.0464
  150TMC2    H2 2340   0.097   0.574  12.024  0.1687  0.1899  0.1272
  150TMC2    C7 2341   0.202   0.349  12.106  0.0922  0.2240  0.0475
  150TMC2    C8 2342   4.654   0.620  11.827  0.3438 -0.2745 -0.0332
  150TMC2    O1 2343   0.278   0.449  12.103  0.1751  0.1990 -0.0130
  150TMC2    O2 2344   0.006   0.711  11.822 -0.0219 -0.1912 -0.3269
  150TMC2    O5 2345   4.534   0.628  11.766 -0.2758  0.4223 -0.8516
  150TMC2    H5 2346   4.467   0.567  11.805  0.9478  1.1569  2.4140
  151MPD2     C 2347   4.080   4.714  11.896  0.8930 -0.1009 -0.2210
  151MPD2    C1 2348   4.108   0.021  11.766 -0.5850 -0.1757  0.6044
  151MPD2    C2 2349   4.223   0.090  11.743  0.4860  0.5101  0.8722
  151MPD2    C3 2350   4.310   0.113  11.849  0.6955 -0.1163  0.1884
  151MPD2    C4 2351   4.275   0.075  11.981 -0.0882  0.1030 -0.0507
  151MPD2    C5 2352   4.166   4.735  11.998  0.0127 -0.7708 -0.7092
  151MPD2     H 2353   4.246   0.130  11.645 -0.5710 -2.9829 -0.7874
  151MPD2    H1 2354   4.330   0.097  12.071 -0.3582  2.6597 -0.5134
  151MPD2    H2 2355   3.994   4.652  11.914  0.2125  1.1793  0.9184
  151MPD2    H3 2356   4.133   4.704  12.097 -1.5089 -3.3386 -2.0154
  151MPD2     N 2357   4.435   0.177  11.823  0.4731  0.0658  0.8909
  151MPD2    H5 2358   4.443   0.237  11.742  1.0623  0.9865  1.6357
  151MPD2    N1 2359   4.011   4.727  11.664  0.3413 -0.2585 -0.2112
  151MPD2    H7 2360   3.935   4.666  11.694 -0.3385  1.0320  0.7188
  152TMC2    C1 2361   4.364   4.695  12.541 -0.4687  0.4243  0.2466
  152TMC2    C2 2362   4.456   4.601  12.585 -0.1828  0.0333 -0.0169
  152TMC2    C3 2363   4.586   4.609  12.541  0.0908  0.7414 -0.6327
  152TMC2    C4 2364   4.406   0.064  12.462  0.0244  0.4300 -0.0244
  152TMC2    C5 2365   4.542   0.072  12.435  0.1762 -0.5400 -0.4751
  152TMC2    C6 2366   4.637   4.717  12.471 -0.0786  0.0449 -0.2014
  152TMC2     C 2367   4.215   4.679  12.565  0.0285  0.1534 -0.2429
  152TMC2     O 2368   4.136   0.012  12.505 -0.4443  0.0336  0.2550
  152TMC2     H 2369   4.434   4.523  12.658  1.9891 -2.1607 -1.7471
  152TMC2    H1 2370   4.339   0.148  12.446 -0.3384 -0.0891 -1.1627
  152TMC2    H2 2371   0.007   4.725  12.445 -0.0665  0.8436  0.0912
  152TMC2    C7 2372   4.582   0.202  12.388 -0.3249  0.5672 -0.3796
  152TMC2    C8 2373   4.682   4.515  12.594  0.3755 -0.2934 -0.2894
  152TMC2    O1 2374   4.498   0.273  12.338  0.1514  0.0096 -0.3322
  152TMC2    O2 2375   4.666   4.450  12.698  0.3451 -0.2601  0.7167
  152TMC2    O5 2376   0.057   4.516  12.524 -0.1783 -0.4649 -0.0802
  152TMC2    H5 2377   0.038   4.526  12.428 -1.6554  0.9346  0.3705
  153MPD2     C 2378   4.053   4.441  12.792  0.2376  0.5797  0.6326
  153MPD2    C1 2379   4.052   4.540  12.696  1.0994  0.5454 -0.4105
  153MPD2    C2 2380   3.929   4.562  12.630 -0.2464  0.6776  0.1476
  153MPD2    C3 2381   3.812   4.503  12.674  0.2764 -0.4172 -0.0764
  153MPD2    C4 2382   3.815   4.408  12.776 -0.5530 -0.5257 -0.2870
  153MPD2    C5 2383   3.939   4.377  12.834  0.0363 -0.2366 -0.4693
  153MPD2     H 2384   3.921   4.627  12.543 -1.1826  0.8405  0.3493
  153MPD2    H1 2385   3.726   4.359  12.815  0.8516 -1.9257  1.1056
  153MPD2    H2 2386   4.142   4.412  12.847 -0.8097 -0.6785  1.6550
  153MPD2    H3 2387   3.937   4.299  12.910 -0.7114  0.1634 -0.0740
  153MPD2     N 2388   3.692   4.547  12.610 -0.3353  0.5893  0.0998
  153MPD2    H5 2389   3.702   4.624  12.545 -1.3402  0.5943 -0.0425
  153MPD2    N1 2390   4.183   4.585  12.659  0.2107  0.2204  0.2444
  153MPD2    H7 2391   4.255   4.556  12.724  0.7447 -1.9858 -1.3316
  154TMC2    C1 2392   1.338   4.469   0.414 -0.0767  0.6852 -0.8681
  154TMC2    C2 2393   1.339   4.371   0.507 -0.2593  0.1180 -0.7535
  154TMC2    C3 2394   1.408   4.255   0.477  0.0272 -0.6727  0.6569
  154TMC2    C4 2395   1.426   4.461   0.311 -0.4186  0.5496  0.5187
  154TMC2    C5 2396   1.508   4.347   0.290 -0.3286 -0.7762  0.4467
  154TMC2    C6 2397   1.497   4.238   0.366  0.2254  1.2198 -0.5020
  154TMC2     C 2398   1.269   4.592   0.444 -0.8257 -0.0905 -0.1218
  154TMC2     O 2399   1.219   4.594   0.554  0.1067  0.9166  0.2923
  154TMC2     H 2400   1.269   4.370   0.589 -0.6964 -0.5375 -1.1332
  154TMC2    H1 2401   1.448   4.542   0.243  1.0049 -0.2503  0.0176
  154TMC2    H2 2402   1.566   4.156   0.352 -0.0711  0.8791  0.0248
  154TMC2    C7 2403   1.578   4.349   0.163  0.6019 -0.6756  0.3564
  154TMC2    C8 2404   1.424   4.166   0.589 -0.8242  0.0177  0.5091
  154TMC2    O1 2405   1.595   4.457   0.108  0.2034  0.2882  0.3696
  154TMC2    O2 2406   1.399   4.194   0.706  0.2538 -0.2346  0.0655
  154TMC2    O5 2407   1.407   4.047   0.540  0.2174  0.3892 -0.1789
  154TMC2    H5 2408   1.411   4.054   0.443 -1.1525 -0.1537 -0.2739
  155MPD2     C 2409   1.104   0.072   0.190 -0.8939  0.3985 -0.1990
  155MPD2    C1 2410   1.139   0.028   0.319 -0.6753  0.3142 -0.4031
  155MPD2    C2 2411   1.067   0.076   0.427  0.9391 -0.0784 -0.4786
  155MPD2    C3 2412   0.992   0.190   0.417  0.5988  0.1356  0.4064
  155MPD2    C4 2413   0.966   0.241   0.290  0.6886 -0.3539 -0.2041
  155MPD2    C5 2414   1.024   0.180   0.181 -0.1815 -1.0009  0.0942
  155MPD2     H 2415   1.071   0.026   0.523 -0.5168  0.7042  0.0021
  155MPD2    H1 2416   0.912   0.333   0.272  1.5621  0.7968  3.1291
  155MPD2    H2 2417   1.148   0.029   0.101  0.7891  1.4643  0.0959
  155MPD2    H3 2418   1.014   0.230   0.085 -0.4350 -1.2327 -0.0024
  155MPD2     N 2419   0.923   0.243   0.528  0.6957 -0.1661 -0.4986
  155MPD2    H5 2420   0.928   0.196   0.618  0.3363  0.1850 -0.2925
  155MPD2    N1 2421   1.232   4.660   0.329 -0.1983 -0.0657  0.5910
  155MPD2    H7 2422   1.256   4.623   0.238  0.1234  1.6967 -0.0449
  156TMC2    C1 2423   3.869   2.196  11.613  0.8907  0.5980  0.4806
  156TMC2    C2 2424   3.762   2.112  11.604 -0.1094  0.5389 -1.1227
  156TMC2    C3 2425   3.650   2.165  11.544 -0.3761 -0.2888  0.4774
  156TMC2    C4 2426   3.850   2.332  11.606 -0.3012 -0.2167  0.6173
  156TMC2    C5 2427   3.727   2.378  11.565 -0.1345 -0.0305 -0.9963
  156TMC2    C6 2428   3.633   2.294  11.524  0.3315 -0.7113 -0.4538
  156TMC2     C 2429   3.981   2.158  11.703  0.9266 -0.6812  0.7587
  156TMC2     O 2430   4.051   2.260  11.729 -1.0026  0.1445  0.6182
  156TMC2     H 2431   3.760   2.004  11.610 -1.9592  0.6229  0.0008
  156TMC2    H1 2432   3.933   2.401  11.612  0.0761 -0.6470  0.3119
  156TMC2    H2 2433   3.543   2.322  11.471  0.6774  0.0436 -0.6498
  156TMC2    C7 2434   3.698   2.525  11.566  0.0913 -0.7541 -0.1751
  156TMC2    C8 2435   3.562   2.071  11.470  0.5707 -0.1140  0.3457
  156TMC2    O1 2436   3.792   2.596  11.602  0.8102 -1.1020  0.1296
  156TMC2    O2 2437   3.441   2.089  11.454  0.3229  0.1571 -0.2980
  156TMC2    O5 2438   3.638   1.978  11.397 -0.0571  0.9691 -0.0654
  156TMC2    H5 2439   3.734   1.990  11.413 -0.0524  1.1212 -0.2040
  157MPD2     C 2440   4.041   1.894  11.950  0.0650  0.1339 -0.9497
  157MPD2    C1 2441   4.045   2.018  11.894 -0.6085  0.3420 -0.4852
  157MPD2    C2 2442   4.139   2.103  11.950 -0.4889  1.0186 -0.2130
  157MPD2    C3 2443   4.211   2.069  12.064  0.6283  0.7854 -0.1411
  157MPD2    C4 2444   4.183   1.950  12.133 -0.0573  0.6106  0.8868
  157MPD2    C5 2445   4.098   1.862  12.072 -0.1939 -0.7631 -0.1878
  157MPD2     H 2446   4.163   2.203  11.915  3.2536 -0.2583 -1.3490
  157MPD2    H1 2447   4.236   1.916  12.221  2.5697  2.3258 -0.0369
  157MPD2    H2 2448   3.992   1.814  11.896 -0.6288  0.3240 -0.6031
  157MPD2    H3 2449   4.090   1.765  12.120  2.7917  0.3219  2.4616
  157MPD2     N 2450   4.301   2.167  12.123  0.4111 -0.6817 -0.2419
  157MPD2    H5 2451   4.321   2.253  12.073 -2.1082  1.0334  1.7300
  157MPD2    N1 2452   3.975   2.037  11.771  0.1420 -0.9065  0.1217
  157MPD2    H7 2453   3.906   1.964  11.755  1.5832 -2.3126  0.3387
  158TMC2    C1 2454   0.061   1.111  13.113 -0.2601  0.0630  0.3648
  158TMC2    C2 2455   0.104   1.181  13.003 -0.2453  0.3845 -0.3461
  158TMC2    C3 2456   0.019   1.263  12.945  0.1391  0.9750 -0.8574
  158TMC2    C4 2457   4.674   1.127  13.172  0.2168 -0.1399 -0.2306
  158TMC2    C5 2458   4.585   1.213  13.109  0.2256  0.0768  0.5981
  158TMC2    C6 2459   4.628   1.277  12.990 -0.3179  0.2463 -0.6394
  158TMC2     C 2460   0.166   1.020  13.167 -0.0323  0.0927 -0.4525
  158TMC2     O 2461   0.278   1.030  13.123 -0.2664 -0.3677  0.3845
  158TMC2     H 2462   0.202   1.161  12.962  0.0228  0.9060  0.0415
  158TMC2    H1 2463   4.673   1.082  13.271  0.3626  0.1074 -0.1172
  158TMC2    H2 2464   4.555   1.326  12.927 -0.7443  0.3747 -0.0412
  158TMC2    C7 2465   4.451   1.239  13.166 -0.1074  0.2351 -0.0759
  158TMC2    C8 2466   0.048   1.301  12.805 -0.0696  0.2892 -0.2193
  158TMC2    O1 2467   4.382   1.326  13.113 -0.4620 -0.2296  0.0433
  158TMC2    O2 2468   4.703   1.288  12.713 -0.1304 -0.4490  0.3169
  158TMC2    O5 2469   0.172   1.360  12.806  0.5293 -0.4515  0.1512
  158TMC2    H5 2470   0.198   1.381  12.898  2.6985  0.7284 -0.7481
  159MPD2     C 2471   0.367   0.637  13.459 -0.6483 -0.3038  0.6043
  159MPD2    C1 2472   0.241   0.660  13.502 -0.0612  0.0380  0.1225
  159MPD2    C2 2473   0.162   0.742  13.423  0.2101  0.5798  0.4629
  159MPD2    C3 2474   0.204   0.817  13.320 -0.2195  0.0029  0.4244
  159MPD2    C4 2475   0.330   0.786  13.274 -0.0151 -0.4701  0.1332
  159MPD2    C5 2476   0.406   0.693  13.343  0.0641 -0.6943  0.9358
  159MPD2     H 2477   0.068   0.766  13.471  0.4878  2.7386 -0.0813
  159MPD2    H1 2478   0.383   0.840  13.196 -0.2211 -1.0675 -0.4241
  159MPD2    H2 2479   0.436   0.568  13.506  0.8039  1.4316  1.0332
  159MPD2    H3 2480   0.509   0.685  13.308  0.1601  0.1404  1.0390
  159MPD2     N 2481   0.121   0.919  13.260 -0.1394  0.2278  0.6661
  159MPD2    H5 2482   0.024   0.920  13.288  0.2649 -0.7784  2.1271
  159MPD2    N1 2483   0.190   0.588  13.616  0.4544  0.0990  0.0010
  159MPD2    H7 2484   0.257   0.556  13.685  2.8368 -0.1865 -2.4391
  160TMC2    C1 2485   4.616   3.574   0.946 -0.1674 -0.5579  0.7008
  160TMC2    C2 2486   4.688   3.503   1.038  0.1957 -0.4625  0.1714
  160TMC2    C3 2487   0.073   3.558   1.073 -0.2446 -0.1746 -0.0579
  160TMC2    C4 2488   4.649   3.702   0.904 -0.0324 -0.7185 -0.3974
  160TMC2    C5 2489   0.050   3.735   0.933 -0.2449  0.7585 -0.0561
  160TMC2    C6 2490   0.127   3.668   1.017 -0.2604 -0.0912  0.2596
  160TMC2     C 2491   4.481   3.524   0.914 -0.1560 -0.1288  0.2144
  160TMC2     O 2492   4.460   3.408   0.936  0.3503  0.7593 -0.2076
  160TMC2     H 2493   4.655   3.408   1.077  2.7910 -1.1595  0.6171
  160TMC2    H1 2494   4.588   3.752   0.829  0.8449 -0.9459 -1.2512
  160TMC2    H2 2495   0.227   3.697   1.047  0.0585  0.8196 -1.6835
  160TMC2    C7 2496   0.100   3.853   0.875  0.0171 -0.1301 -0.0651
  160TMC2    C8 2497   0.164   3.474   1.153  0.7094 -0.0828  0.1779
  160TMC2    O1 2498   0.021   3.940   0.832 -0.1831 -0.1453 -0.1745
  160TMC2    O2 2499   0.288   3.461   1.132 -0.2984  0.4755  0.9418
  160TMC2    O5 2500   0.087   3.418   1.254 -0.3568 -0.2872  0.1484
  160TMC2    H5 2501   4.732   3.453   1.270 -0.0814  0.8884 -0.8956
  161MPD2     C 2502   4.200   3.468   0.821 -0.3442  0.2176 -0.9265
  161MPD2    C1 2503   4.257   3.595   0.843 -0.0988 -0.5186  0.1537
  161MPD2    C2 2504   4.172   3.706   0.843  0.6724 -0.0813 -0.1047
  161MPD2    C3 2505   4.034   3.689   0.812 -0.5931 -0.0464 -0.1320
  161MPD2    C4 2506   3.988   3.563   0.781  0.6176 -0.2388 -0.3458
  161MPD2    C5 2507   4.070   3.456   0.781 -0.1577  0.1136 -0.1365
  161MPD2     H 2508   4.222   3.802   0.854  1.5201 -0.5667  0.2975
  161MPD2    H1 2509   3.887   3.536   0.752  0.8150 -1.8267  0.4250
  161MPD2    H2 2510   4.261   3.379   0.815  0.1754  0.4562  0.9897
  161MPD2    H3 2511   4.021   3.361   0.761  1.9336 -0.5749 -1.9095
  161MPD2     N 2512   3.941   3.796   0.811  0.6002 -0.2668  0.1257
  161MPD2    H5 2513   3.844   3.767   0.803  0.6759  0.0581 -1.9724
  161MPD2    N1 2514   4.390   3.615   0.875  0.1164  0.2942 -0.0078
  161MPD2    H7 2515   4.408   3.715   0.874  2.0632 -0.0931 -2.2688
  162TMC2    C1 2516   2.333   1.092   1.096 -0.0349 -0.3052 -0.3221
  162TMC2    C2 2517   2.205   1.136   1.091 -0.2864 -0.2438  0.1471
  162TMC2    C3 2518   2.142   1.174   1.202 -0.8711  0.1074  0.4420
  162TMC2    C4 2519   2.393   1.089   1.217 -0.5833 -0.3353 -0.5052
  162TMC2    C5 2520   2.324   1.122   1.331  0.1757  0.6889  0.2586
  162TMC2    C6 2521   2.194   1.162   1.330 -0.0102  0.2763 -0.7477
  162TMC2     C 2522   2.408   1.053   0.976 -1.1648 -0.2780  0.3217
  162TMC2     O 2523   2.360   1.104   0.873  0.1111 -0.2636 -0.2358
  162TMC2     H 2524   2.158   1.135   0.993 -2.1584  2.3194  1.0325
  162TMC2    H1 2525   2.498   1.064   1.205 -0.4146  0.4337 -0.6649
  162TMC2    H2 2526   2.132   1.189   1.414 -1.3288 -0.5527 -1.4445
  162TMC2    C7 2527   2.374   1.097   1.464  0.0472  0.4576  0.1171
  162TMC2    C8 2528   2.011   1.234   1.189  0.4511 -0.4261 -0.2107
  162TMC2    O1 2529   2.311   1.148   1.553  0.1274  0.4038  0.2624
  162TMC2    O2 2530   1.965   1.273   1.087 -0.3896  0.7632 -0.4736
  162TMC2    O5 2531   1.939   1.185   1.282  0.1822  0.1224  0.8195
  162TMC2    H5 2532   1.987   1.111   1.325  4.4358  1.7511 -1.1224
  163MPD2     C 2533   2.679   0.736   0.685 -0.7331  0.0602 -0.0549
  163MPD2    C1 2534   2.585   0.826   0.654 -0.3473  0.0218  0.5505
  163MPD2    C2 2535   2.530   0.910   0.748  0.3664 -0.3953  0.1593
  163MPD2    C3 2536   2.557   0.883   0.880 -0.1264 -0.5700  0.2551
  163MPD2    C4 2537   2.648   0.782   0.917 -0.0470  0.1158 -0.2387
  163MPD2    C5 2538   2.708   0.709   0.815  0.1315 -0.4006  0.2148
  163MPD2     H 2539   2.451   0.979   0.717  0.3708 -1.0362 -1.2935
  163MPD2    H1 2540   2.665   0.768   1.023 -2.9530 -0.0364  0.2037
  163MPD2    H2 2541   2.715   0.672   0.606  0.3605  2.2942 -1.3643
  163MPD2    H3 2542   2.769   0.624   0.842 -0.5618 -0.5816  1.1990
  163MPD2     N 2543   2.500   0.953   0.989 -0.2247  0.5828 -0.0762
  163MPD2    H5 2544   2.521   0.920   1.083 -0.3495 -0.1203 -0.2919
  163MPD2    N1 2545   2.567   0.835   0.515  0.4198 -0.5143  0.0538
  163MPD2    H7 2546   2.615   0.776   0.448  2.7699 -0.6645  1.8438
  164TMC2    C1 2547   2.734   0.621  11.145  0.5214  1.0293 -0.3436
  164TMC2    C2 2548   2.803   0.608  11.264 -0.3018 -0.3731  0.2719
  164TMC2    C3 2549   2.741   0.627  11.382 -0.0309 -0.2903  0.0091
  164TMC2    C4 2550   2.605   0.659  11.150 -0.5609 -0.5096 -0.6646
  164TMC2    C5 2551   2.543   0.684  11.276  0.4315  0.0346  0.4919
  164TMC2    C6 2552   2.612   0.671  11.399 -0.2301  0.8176  0.3656
  164TMC2     C 2553   2.798   0.611  11.020  0.2262  0.5474 -0.5440
  164TMC2     O 2554   2.724   0.621  10.923 -0.0984  0.0270 -0.0839
  164TMC2     H 2555   2.906   0.578  11.257 -0.3123 -0.2208 -0.5416
  164TMC2    H1 2556   2.564   0.677  11.052  1.5609  4.2130 -0.6922
  164TMC2    H2 2557   2.571   0.691  11.498  0.4594 -0.7606  0.9820
  164TMC2    C7 2558   2.417   0.737  11.278 -0.5719  0.1112  0.1481
  164TMC2    C8 2559   2.833   0.650  11.487  0.0832 -0.1667 -0.5328
  164TMC2    O1 2560   2.386   0.775  11.165 -0.1844 -0.2951  0.2163
  164TMC2    O2 2561   2.949   0.684  11.476 -0.5224  0.1575  0.0449
  164TMC2    O5 2562   2.767   0.596  11.591 -0.0294 -0.3309  0.2631
  164TMC2    H5 2563   2.688   0.546  11.561  1.5979 -2.3248 -0.7303
  165TMC2    C1 2564   4.378   3.411   0.121 -0.3550  0.1947  1.3587
  165TMC2    C2 2565   4.372   3.531   0.058 -0.0832 -0.1190  0.2297
  165TMC2    C3 2566   4.480   3.618   0.071  0.3776 -0.0492 -0.6577
  165TMC2    C4 2567   4.501   3.369   0.172 -0.5625  0.1451 -0.3874
  165TMC2    C5 2568   4.603   3.457   0.179  0.4622 -0.5126  0.3155
  165TMC2    C6 2569   4.596   3.582   0.135 -0.7630  0.2173 -0.9022
  165TMC2     C 2570   4.280   3.306   0.126  0.2169  0.4209 -0.1662
  165TMC2     O 2571   4.304   3.197   0.174 -0.3528  0.6351 -0.4304
  165TMC2     H 2572   4.285   3.566   0.005 -0.0872  0.5775  0.6995
  165TMC2    H1 2573   4.513   3.266   0.203  0.7262  1.7670  4.5018
  165TMC2    H2 2574   4.687   3.637   0.116  0.2025 -1.3086 -0.6854
  165TMC2    C7 2575   4.730   3.432   0.250  0.1066  0.2327  0.6092
  165TMC2    C8 2576   4.461   3.762   0.033  0.9695  0.2169 -0.4323
  165TMC2    O1 2577   0.076   3.521   0.266 -0.2543  0.7936  0.2786
  165TMC2    O2 2578   4.364   3.826   0.064 -0.2751  0.1661  0.1594
  165TMC2    O5 2579   4.549   3.792  17.671 -0.2565 -0.6480  0.1903
  165TMC2    H5 2580   4.609   3.718  17.650  1.0191  0.2405  0.6904
  166MPD2     C 2581   3.784   3.209   0.078  0.1942  0.2181  0.6831
  166MPD2    C1 2582   3.882   3.146   0.153  0.2034  0.5170  0.2872
  166MPD2    C2 2583   4.011   3.189   0.154  0.9056 -0.0367  0.1393
  166MPD2    C3 2584   4.043   3.294   0.071 -0.2829 -0.3004 -0.6964
  166MPD2    C4 2585   3.952   3.344  17.720  0.1357  0.5658 -0.4914
  166MPD2    C5 2586   3.824   3.299  17.720  0.2935 -0.6165 -0.5972
  166MPD2     H 2587   4.082   3.157   0.229  0.5085  1.0934  0.9917
  166MPD2    H1 2588   3.977   3.421  17.647  3.2109 -0.4065 -0.4652
  166MPD2    H2 2589   3.678   3.187   0.083  0.3757 -0.1153  2.7202
  166MPD2    H3 2590   3.758   3.354  17.654 -0.2345 -0.8205 -0.2444
  166MPD2     N 2591   4.167   3.352   0.064  0.1529  0.1819 -0.4961
  166MPD2    H5 2592   4.159   3.439   0.012  2.7853  0.3943 -0.5140
  166MPD2    N1 2593   3.838   3.050   0.251 -0.4301 -0.0682  0.5218
  166MPD2    H7 2594   3.741   3.022   0.252 -0.5430  0.3254  0.9013
  167TMC2    C1 2595   2.186   0.814  12.790  0.3377  0.4922 -0.3192
  167TMC2    C2 2596   2.147   0.798  12.921  0.1722  0.8304 -1.2028
  167TMC2    C3 2597   2.116   0.678  12.971 -0.3576  0.0792  0.5787
  167TMC2    C4 2598   2.198   0.703  12.710 -0.1045 -0.1950 -0.0828
  167TMC2    C5 2599   2.167   0.584  12.761  0.0872  0.4875 -0.0331
  167TMC2    C6 2600   2.134   0.562  12.892 -0.7289  0.1327  0.6163
  167TMC2     C 2601   2.194   0.949  12.724  0.7385  0.3747  0.0799
  167TMC2     O 2602   2.151   1.041  12.788 -0.3892  0.0628  0.4837
  167TMC2     H 2603   2.156   0.874  12.998 -0.9497  0.4299 -0.6810
  167TMC2    H1 2604   2.195   0.710  12.602  0.3699  1.3763 -0.0028
  167TMC2    H2 2605   2.099   0.468  12.933 -1.7069 -0.3717 -1.4100
  167TMC2    C7 2606   2.158   0.467  12.671  0.4364 -0.6663  0.5395
  167TMC2    C8 2607   2.127   0.649  13.113  0.3674  0.1196  0.4866
  167TMC2    O1 2608   2.074   0.381  12.706 -0.0868 -0.2256 -0.2834
  167TMC2    O2 2609   2.224   0.680  13.179 -0.6020 -0.2258 -0.2553
  167TMC2    O5 2610   2.033   0.557  13.146  0.0626  0.3026 -0.6774
  167TMC2    H5 2611   1.967   0.553  13.074 -0.8389 -0.1714  0.1870
  168MPD2     C 2612   2.243   1.190  12.546 -0.0820  0.6002 -0.1504
  168MPD2    C1 2613   2.295   1.064  12.519 -0.2965  0.3160  0.1517
  168MPD2    C2 2614   2.350   1.044  12.394  0.4153 -0.0018  0.5546
  168MPD2    C3 2615   2.382   1.147  12.312 -0.6536  0.4475  0.1586
  168MPD2    C4 2616   2.357   1.273  12.355  0.7265 -0.3138  0.6365
  168MPD2    C5 2617   2.284   1.301  12.474  0.1354 -0.0415 -0.7113
  168MPD2     H 2618   2.366   0.938  12.375 -0.4331 -0.5543  2.9330
  168MPD2    H1 2619   2.379   1.356  12.289  1.0010 -1.4341 -0.6877
  168MPD2    H2 2620   2.195   1.210  12.641 -1.7327  0.0716 -0.8827
  168MPD2    H3 2621   2.265   1.404  12.501  0.1111  0.0592 -1.1092
  168MPD2     N 2622   2.443   1.130  12.186 -0.8684  0.0967  0.5739
  168MPD2    H5 2623   2.464   1.210  12.126 -1.8595  0.3442  0.5503
  168MPD2    N1 2624   2.267   0.948  12.607  0.9151 -0.1588  0.7055
  168MPD2    H7 2625   2.307   0.860  12.577  0.8820  0.2264 -0.4838
  169MPD1     C 2626   3.742   4.454   8.416 -0.3301 -0.0550 -0.1314
  169MPD1    C1 2627   3.874   4.448   8.389  0.0719 -0.2972  0.2274
  169MPD1    C2 2628   3.953   4.404   8.499  0.3756 -0.3181 -0.1008
  169MPD1    C3 2629   3.894   4.381   8.619  0.0576 -0.5908 -0.3600
  169MPD1    C4 2630   3.762   4.409   8.637  0.5621 -0.5288  0.7117
  169MPD1    C5 2631   3.691   4.443   8.536  0.2098 -0.5650 -0.5725
  169MPD1     H 2632   4.061   4.399   8.497  0.3168 -0.8586 -2.8931
  169MPD1    H1 2633   3.707   4.398   8.730  0.4985  0.2734  0.7654
  169MPD1    H2 2634   3.682   4.477   8.328 -1.9208  1.6072  1.3707
  169MPD1    H3 2635   3.589   4.476   8.551  0.1880 -0.1204 -1.6900
  169MPD1     N 2636   3.966   4.333   8.727  0.0335 -0.2492  0.0668
  169MPD1    H5 2637   4.066   4.324   8.713 -0.2290 -0.8050 -1.4976
  169MPD1    N1 2638   3.927   4.468   8.266 -0.6726 -0.0562 -0.5074
  169MPD1    H6 2639   4.022   4.505   8.272 -0.4332 -0.9106  0.8947
  169MPD1    H7 2640   3.873   4.528   8.204 -0.5227 -0.1862 -0.7645
  170MPD1     C 2641   3.523   2.766  12.962 -0.3062 -0.3261 -0.0095
  170MPD1    C1 2642   3.546   2.756  13.099  0.1835  0.4671 -0.5404
  170MPD1    C2 2643   3.522   2.866  13.178 -0.2784  0.2760  0.7587
  170MPD1    C3 2644   3.445   2.969  13.131 -0.5092 -0.4901  0.1123
  170MPD1    C4 2645   3.422   2.978  12.997 -0.0015  0.3876 -0.3299
  170MPD1    C5 2646   3.469   2.882  12.908 -0.5828  0.3977 -0.4025
  170MPD1     H 2647   3.550   2.859  13.282 -2.1950 -0.0202  1.2382
  170MPD1    H1 2648   3.373   3.066  12.958  0.7130 -0.1193 -2.4010
  170MPD1    H2 2649   3.533   2.676  12.902 -0.5699 -0.1778 -0.2769
  170MPD1    H3 2650   3.451   2.891  12.802 -0.4229  3.3795 -0.1694
  170MPD1     N 2651   3.412   3.074  13.221  0.1781 -0.3613  0.1182
  170MPD1    H5 2652   3.467   3.078  13.306  2.9210 -0.3324 -1.6814
  170MPD1    N1 2653   3.629   2.653  13.144  0.4859 -0.2289 -0.4500
  170MPD1    H6 2654   3.619   2.631  13.243 -1.1424  0.1958 -0.5240
  170MPD1    H7 2655   3.597   2.568  13.098  0.2378 -0.5295  0.2689
  171MPD1     C 2656   2.019   4.319  15.037  0.5656 -0.6654 -0.2408
  171MPD1    C1 2657   2.034   4.202  14.961  0.0020  0.0852 -0.0727
  171MPD1    C2 2658   2.052   4.085  15.021 -0.2559  0.5343  0.2824
  171MPD1    C3 2659   2.073   4.077  15.157  0.2453  0.4662 -0.1251
  171MPD1    C4 2660   2.043   4.187  15.236 -0.0437 -0.7650  0.3139
  171MPD1    C5 2661   2.030   4.310  15.173  0.0941 -0.1002 -0.4105
  171MPD1     H 2662   2.064   3.998  14.959  0.4224  0.6715  0.2237
  171MPD1    H1 2663   2.064   4.197  15.341  1.8035 -0.3208 -0.0947
  171MPD1    H2 2664   2.012   4.415  14.988  2.9841 -0.3570  0.0180
  171MPD1    H3 2665   2.021   4.398  15.235  1.4025 -0.5139  0.3766
  171MPD1     N 2666   2.110   3.959  15.220  0.0580  0.1021  0.1316
  171MPD1    H5 2667   2.105   3.968  15.321 -1.4881 -1.7911  0.2340
  171MPD1    N1 2668   2.028   4.220  14.823  0.4995 -0.5697 -0.0681
  171MPD1    H6 2669   2.056   4.134  14.776  2.2285 -0.6307  1.0558
  171MPD1    H7 2670   2.101   4.287  14.795 -0.1319 -0.6454 -1.9033
  172MPD1     C 2671   1.550   3.304   0.919  0.0054  0.9104 -0.4396
  172MPD1    C1 2672   1.504   3.438   0.919  0.1272 -0.1498 -0.2103
  172MPD1    C2 2673   1.485   3.492   0.793  0.0321  0.4820  0.1772
  172MPD1    C3 2674   1.490   3.414   0.673 -0.3051 -0.7083 -0.1347
  172MPD1    C4 2675   1.512   3.275   0.690 -0.0089 -0.5314  0.3474
  172MPD1    C5 2676   1.543   3.223   0.811  0.4806  0.3319  0.3524
  172MPD1     H 2677   1.459   3.597   0.787 -0.4214  0.4191  1.0484
  172MPD1    H1 2678   1.499   3.211   0.603  0.6820 -0.2291  0.0257
  172MPD1    H2 2679   1.572   3.247   1.008 -0.9918 -1.6274 -1.8261
  172MPD1    H3 2680   1.571   3.118   0.811 -1.0704 -0.0769  0.3138
  172MPD1     N 2681   1.472   3.470   0.541 -0.0130  0.2196  0.7490
  172MPD1    H5 2682   1.500   3.412   0.462 -0.0952  0.0610  0.8387
  172MPD1    N1 2683   1.493   3.504   1.038 -0.4330  0.6030  0.7420
  172MPD1    H6 2684   1.439   3.451   1.107 -0.7387  0.5066  0.4294
  172MPD1    H7 2685   1.451   3.597   1.033 -1.1691  0.3818  2.6082
  173MPD1     C 2686   2.453   3.777  13.825 -0.5806  0.6511 -0.0093
  173MPD1    C1 2687   2.381   3.689  13.747 -0.3619 -0.2175  0.4080
  173MPD1    C2 2688   2.351   3.566  13.795 -0.2823  0.4916 -0.1489
  173MPD1    C3 2689   2.395   3.540  13.926  0.6745  0.3597 -0.3329
  173MPD1    C4 2690   2.451   3.628  14.006 -0.3752 -0.5958 -0.0448
  173MPD1    C5 2691   2.495   3.748  13.951 -0.2816  0.0401  0.2448
  173MPD1     H 2692   2.296   3.499  13.730  0.7870 -0.5250 -0.0044
  173MPD1    H1 2693   2.477   3.622  14.111 -0.4525 -0.7099 -0.0324
  173MPD1    H2 2694   2.487   3.866  13.773  0.8993  0.3361  0.4229
  173MPD1    H3 2695   2.547   3.822  14.010 -0.0743  0.7888 -0.8726
  173MPD1     N 2696   2.356   3.417  13.984 -0.1883  0.6558 -0.1632
  173MPD1    H5 2697   2.287   3.364  13.932  0.1235  0.6163 -0.5322
  173MPD1    N1 2698   2.366   3.723  13.609  0.6148 -0.0244 -0.2645
  173MPD1    H6 2699   2.357   3.823  13.594 -0.5133 -0.3870 -1.9507
  173MPD1    H7 2700   2.279   3.683  13.575  0.5521 -0.3345  0.2528
  174MPD1     C 2701   2.014   2.799  13.488  0.4491  0.7531  0.4032
  174MPD1    C1 2702   2.112   2.742  13.562  0.2185  0.0205 -0.2660
  174MPD1    C2 2703   2.170   2.803  13.669 -0.8119  0.4248  0.2485
  174MPD1    C3 2704   2.129   2.934  13.706 -0.8899 -0.2569 -0.5418
  174MPD1    C4 2705   2.037   2.996  13.619 -0.1574 -0.6147  0.7158
  174MPD1    C5 2706   1.983   2.931  13.511  0.1807  0.4385 -0.2660
  174MPD1     H 2707   2.249   2.758  13.728  0.7097  1.8716 -0.6753
  174MPD1    H1 2708   1.998   3.095  13.640 -0.5412 -0.8517  1.1204
  174MPD1    H2 2709   1.965   2.742  13.410  1.5123  0.1858  0.1548
  174MPD1    H3 2710   1.920   2.992  13.446 -0.8960  0.1168  0.4772
  174MPD1     N 2711   2.165   2.999  13.830  0.0119 -0.2890 -0.0126
  174MPD1    H5 2712   2.126   3.090  13.855  1.4883  0.5393 -0.7783
  174MPD1    N1 2713   2.139   2.606  13.535  0.7107  0.3476 -0.6332
  174MPD1    H6 2714   2.116   2.573  13.442 -0.0561 -0.9201  0.0019
  174MPD1    H7 2715   2.237   2.579  13.544  0.0413 -0.4389  4.2125
  175MPD1     C 2716   1.538   4.048  15.160  0.2542  0.1494  0.3902
  175MPD1    C1 2717   1.413   4.105  15.166  0.0077  0.2291 -0.5007
  175MPD1    C2 2718   1.339   4.125  15.284  0.2485 -0.1846 -0.0178
  175MPD1    C3 2719   1.398   4.093  15.401 -0.2429  0.2258  0.9517
  175MPD1    C4 2720   1.526   4.048  15.394  0.1111  0.5486 -0.0724
  175MPD1    C5 2721   1.594   4.016  15.276  0.4059  0.6336 -0.4028
  175MPD1     H 2722   1.236   4.157  15.273  1.2657  2.7772 -0.9400
  175MPD1    H1 2723   1.571   4.019  15.488  1.6193  1.1901 -0.5845
  175MPD1    H2 2724   1.583   4.034  15.062  1.1985  0.0784  0.8354
  175MPD1    H3 2725   1.689   3.965  15.276 -0.9129 -1.8119 -0.2889
  175MPD1     N 2726   1.332   4.089  15.530  0.5627 -0.0884  0.2075
  175MPD1    H5 2727   1.389   4.069  15.611  2.3240 -1.2985 -1.3205
  175MPD1    N1 2728   1.346   4.129  15.046  0.4570  0.5839 -0.0189
  175MPD1    H6 2729   1.257   4.171  15.070  0.4465  3.0668 -4.4237
  175MPD1    H7 2730   1.308   4.047  15.000 -0.7147  0.6709  0.8006
  176MPD1     C 2731   2.360   1.562   0.296 -0.6462 -0.1132  0.0458
  176MPD1    C1 2732   2.484   1.535   0.348  0.4447  0.0312  0.3266
  176MPD1    C2 2733   2.591   1.589   0.284 -0.2106 -0.3401  0.1728
  176MPD1    C3 2734   2.580   1.624   0.152 -0.4662 -0.1225  0.3543
  176MPD1    C4 2735   2.458   1.638   0.094  0.0331 -0.2232 -0.0820
  176MPD1    C5 2736   2.345   1.592   0.161 -0.4150 -0.1137  0.1216
  176MPD1     H 2737   2.674   1.606   0.350 -1.0455  1.1800  0.8298
  176MPD1    H1 2738   2.446   1.678  17.732 -0.1421  0.2430  0.1245
  176MPD1    H2 2739   2.271   1.531   0.348  1.6538 -2.9530  2.2714
  176MPD1    H3 2740   2.249   1.610   0.113  0.7194 -1.5752 -2.6395
  176MPD1     N 2741   2.708   1.660   0.103  0.1030 -0.4136  0.5574
  176MPD1    H5 2742   2.785   1.657   0.170 -0.0335  0.1851  0.7482
  176MPD1    N1 2743   2.492   1.502   0.484  0.2768  0.4094  0.6863
  176MPD1    H6 2744   2.571   1.442   0.502  0.3334  0.2850  0.0373
  176MPD1    H7 2745   2.403   1.463   0.515  1.1352 -2.7069 -0.8403
  177MPD1     C 2746   0.778   0.598   9.634 -0.9032  0.3350 -0.0549
  177MPD1    C1 2747   0.680   0.527   9.563  0.3113  0.3231  1.0628
  177MPD1    C2 2748   0.574   0.606   9.513  0.6580  0.4324  0.1617
  177MPD1    C3 2749   0.588   0.749   9.509  0.6700  0.0186 -0.4853
  177MPD1    C4 2750   0.692   0.814   9.585  0.3760  0.3540 -0.8094
  177MPD1    C5 2751   0.783   0.736   9.646 -0.4463 -0.4038 -0.2889
  177MPD1     H 2752   0.487   0.570   9.460 -0.3617  0.7779  1.6155
  177MPD1    H1 2753   0.712   0.920   9.573  1.3247  0.1301 -1.2670
  177MPD1    H2 2754   0.851   0.547   9.696 -0.4757  1.1564  0.1193
  177MPD1    H3 2755   0.867   0.785   9.694 -1.0497 -0.6236  0.9661
  177MPD1     N 2756   0.498   0.816   9.424  0.0445 -0.2550 -0.2430
  177MPD1    H5 2757   0.422   0.758   9.390 -1.6677  1.8851 -0.0520
  177MPD1    N1 2758   0.663   0.391   9.589 -0.7644 -0.0377  0.1081
  177MPD1    H6 2759   0.613   0.338   9.517  0.8278  1.3407 -1.9933
  177MPD1    H7 2760   0.749   0.348   9.622 -0.6368  0.3966  0.3377
  178MPD1     C 2761   3.678   1.627   0.078 -0.2587 -0.0881  0.0895
  178MPD1    C1 2762   3.768   1.688  17.728 -0.0626  0.1477  0.4348
  178MPD1    C2 2763   3.731   1.771  17.623  0.2857  1.2219  0.4606
  178MPD1    C3 2764   3.600   1.812  17.618  0.1335  0.3253  0.1297
  178MPD1    C4 2765   3.510   1.752  17.709  0.4770 -0.1069 -0.5388
  178MPD1    C5 2766   3.553   1.666   0.068 -0.0209  0.0582 -0.2118
  178MPD1     H 2767   3.809   1.816  17.563 -0.7241  1.1635 -0.8857
  178MPD1    H1 2768   3.407   1.770  17.681  0.2199 -0.9599 -0.1057
  178MPD1    H2 2769   3.716   1.571   0.163  0.5379 -0.2105 -0.3437
  178MPD1    H3 2770   3.479   1.623   0.134 -1.0024  0.7156 -0.8874
  178MPD1     N 2771   3.547   1.898  17.522 -0.1523  0.1448  0.1816
  178MPD1    H5 2772   3.447   1.913  17.518  0.2691  2.9448 -0.0902
  178MPD1    N1 2773   3.901   1.644  17.736 -0.8974 -0.2896  0.2675
  178MPD1    H6 2774   3.927   1.623   0.094 -0.1441  1.3622  0.4227
  178MPD1    H7 2775   3.965   1.719  17.710 -1.6049 -0.3386 -1.6434
  179MPD1     C 2776   3.082   1.229  15.285 -0.4641 -0.7329  0.2233
  179MPD1    C1 2777   2.953   1.229  15.320  0.3118  0.3880  0.1045
  179MPD1    C2 2778   2.907   1.130  15.403 -0.0942  0.4897  0.7799
  179MPD1    C3 2779   2.997   1.035  15.456 -0.0503 -0.4982  0.1112
  179MPD1    C4 2780   3.135   1.047  15.423 -0.1809 -0.1652 -0.3585
  179MPD1    C5 2781   3.176   1.144  15.338 -0.3755 -0.1011  0.7825
  179MPD1     H 2782   2.801   1.130  15.428  0.1916 -0.2052  1.9672
  179MPD1    H1 2783   3.204   0.967  15.452  1.5556  1.2829 -0.5005
  179MPD1    H2 2784   3.120   1.303  15.216  1.4996 -1.7801  0.1730
  179MPD1    H3 2785   3.277   1.146  15.300  0.4887  0.5909  3.1172
  179MPD1     N 2786   2.950   0.922  15.532  0.0676  0.1687 -0.0523
  179MPD1    H5 2787   3.023   0.854  15.550  0.5595  1.3659  2.4219
  179MPD1    N1 2788   2.866   1.319  15.253  0.0320  0.1570 -0.1247
  179MPD1    H6 2789   2.800   1.351  15.324 -1.6429 -2.3147 -0.5935
  179MPD1    H7 2790   2.915   1.398  15.210  0.4056  0.0489  0.1000
  180MPD1     C 2791   3.424   1.906  14.970  0.3310 -0.2439 -0.1997
  180MPD1    C1 2792   3.438   2.005  14.884 -0.5831 -0.1097  0.0348
  180MPD1    C2 2793   3.338   2.037  14.790  0.5634 -0.6365 -0.1745
  180MPD1    C3 2794   3.222   1.957  14.778 -0.5356  0.1771  0.4730
  180MPD1    C4 2795   3.212   1.854  14.869 -0.1805 -0.0297 -0.6423
  180MPD1    C5 2796   3.314   1.826  14.957  0.0088  0.4262 -0.8331
  180MPD1     H 2797   3.351   2.124  14.727 -1.2809 -0.2379 -0.0276
  180MPD1    H1 2798   3.123   1.793  14.879 -0.0282 -0.0824  0.4534
  180MPD1    H2 2799   3.497   1.887  15.048 -0.9823 -3.6397  0.2074
  180MPD1    H3 2800   3.302   1.745  15.028  0.1001  0.5530 -0.6749
  180MPD1     N 2801   3.119   1.992  14.684  0.1063 -0.2014  0.4854
  180MPD1    H5 2802   3.161   2.049  14.611  0.4132  0.1644  0.9453
  180MPD1    N1 2803   3.551   2.089  14.901 -0.3332 -0.1705 -0.3192
  180MPD1    H6 2804   3.630   2.048  14.951  0.0583  1.4124  0.3577
  180MPD1    H7 2805   3.577   2.143  14.819  2.4759  1.0607  1.3600
  181MPD1     C 2806   3.886   3.198  10.667 -0.0622 -0.3156  0.2997
  181MPD1    C1 2807   3.848   3.124  10.553  0.1118  0.9181  0.6145
  181MPD1    C2 2808   3.942   3.108  10.448  0.1260  0.2338 -0.1188
  181MPD1    C3 2809   4.068   3.160  10.457 -0.5532  0.3777  0.2861
  181MPD1    C4 2810   4.101   3.227  10.572  0.5875 -0.1044  0.3143
  181MPD1    C5 2811   4.013   3.243  10.675  0.1642  0.5036  0.4145
  181MPD1     H 2812   3.920   3.045  10.362  0.4722  0.6290 -0.4937
  181MPD1    H1 2813   4.203   3.261  10.574  0.4604  0.2573  0.5580
  181MPD1    H2 2814   3.817   3.222  10.747  4.1595  1.7795  3.3231
  181MPD1    H3 2815   4.035   3.300  10.765  0.2979  3.0280 -1.2223
  181MPD1     N 2816   4.166   3.146  10.357 -0.5779  0.0101 -0.3463
  181MPD1    H5 2817   4.250   3.203  10.357  0.9889 -2.3106 -1.6276
  181MPD1    N1 2818   3.718   3.071  10.549 -0.2280 -0.0918 -0.2245
  181MPD1    H6 2819   3.682   3.058  10.454  0.6618 -2.1001 -0.2982
  181MPD1    H7 2820   3.650   3.131  10.594 -1.0604 -0.2937 -1.2052
  182MPD1     C 2821   4.320   3.063   0.901  0.2286 -0.0293 -0.3779
  182MPD1    C1 2822   4.445   3.049   0.840  0.8010 -0.2502  0.2781
  182MPD1    C2 2823   4.482   2.917   0.808  0.2385  0.1837 -0.4913
  182MPD1    C3 2824   4.388   2.817   0.806  0.6309 -0.1282  0.3613
  182MPD1    C4 2825   4.260   2.837   0.851 -0.5087 -0.4374 -0.3192
  182MPD1    C5 2826   4.228   2.966   0.895 -0.1817 -0.4157 -0.4077
  182MPD1     H 2827   4.586   2.894   0.791  0.2477  0.1039 -0.3299
  182MPD1    H1 2828   4.184   2.759   0.855 -0.2356 -0.6661  0.3356
  182MPD1    H2 2829   4.296   3.162   0.937  1.6601  0.0317  0.4309
  182MPD1    H3 2830   4.125   2.970   0.931  0.4277  1.9663  1.1134
  182MPD1     N 2831   4.419   2.687   0.761  0.1652 -0.0392 -0.2818
  182MPD1    H5 2832   4.341   2.622   0.765  0.3221 -0.1627  0.8429
  182MPD1    N1 2833   4.548   3.145   0.843 -0.0969  0.0395  0.0041
  182MPD1    H6 2834   4.523   3.243   0.855  1.0188  0.6580 -2.6750
  182MPD1    H7 2835   4.620   3.130   0.773 -0.7026 -2.0438 -0.1810
  183MPD1     C 2836   4.576   2.482   8.863 -0.7047 -0.1351 -0.2230
  183MPD1    C1 2837   4.600   2.617   8.846 -0.0428  0.1053  0.4179
  183MPD1    C2 2838   4.642   2.696   8.959  0.3120  0.0744 -1.2770
  183MPD1    C3 2839   4.683   2.628   9.076 -0.2091 -0.4154  0.3904
  183MPD1    C4 2840   4.652   2.492   9.096  0.3958  0.9577 -0.0760
  183MPD1    C5 2841   4.600   2.421   8.992  0.0132  0.2775  0.6914
  183MPD1     H 2842   4.655   2.804   8.961 -0.0886  0.1122 -0.3495
  183MPD1    H1 2843   4.667   2.434   9.186 -2.5084  0.0669 -0.1954
  183MPD1    H2 2844   4.521   2.427   8.787 -3.2969 -0.0254  1.5700
  183MPD1    H3 2845   4.580   2.317   9.014  1.7413  0.1562  1.6340
  183MPD1     N 2846   4.717   2.710   9.194  0.0361  0.2601  0.1047
  183MPD1    H5 2847   4.721   2.811   9.184  0.7285  0.3130  0.9279
  183MPD1    N1 2848   4.563   2.680   8.727  0.2569  0.3907 -0.7135
  183MPD1    H6 2849   4.620   2.761   8.701  0.8130 -0.2820 -1.5954
  183MPD1    H7 2850   4.565   2.614   8.649 -0.2174  0.3532 -0.6926
  184MPD1     C 2851   4.688   0.034   9.648  0.5491  0.4049 -0.2586
  184MPD1    C1 2852   4.566   0.077   9.597 -0.0266  0.5360 -0.1384
  184MPD1    C2 2853   4.566   0.188   9.514 -0.1063  0.6074 -0.1912
  184MPD1    C3 2854   4.679   0.251   9.470 -0.5445 -0.1008 -0.1917
  184MPD1    C4 2855   0.064   0.216   9.528  0.6448  0.0795 -0.5703
  184MPD1    C5 2856   0.062   0.110   9.621  0.0882 -0.2262  0.2977
  184MPD1     H 2857   4.469   0.213   9.474 -0.9885 -1.3664  0.7288
  184MPD1    H1 2858   0.158   0.267   9.510 -0.3281  1.9596 -0.3809
  184MPD1    H2 2859   4.703   4.698   9.729 -2.6370 -2.2198 -1.9786
  184MPD1    H3 2860   0.155   0.082   9.669  0.6933  0.7036 -0.3336
  184MPD1     N 2861   4.682   0.361   9.389 -0.2149 -0.2969 -0.2403
  184MPD1    H5 2862   0.039   0.403   9.378  0.2122 -0.7333  1.7850
  184MPD1    N1 2863   4.443   0.023   9.635  0.1182 -0.5831 -0.1433
  184MPD1    H6 2864   4.447   4.667   9.679  0.8468 -1.5585 -2.2259
  184MPD1    H7 2865   4.365   0.036   9.571  0.3418  0.8621 -0.1311
  185MPD1     C 2866   4.330   0.664   8.488  0.9884  0.6683  0.1136
  185MPD1    C1 2867   4.337   0.780   8.550  0.5636  0.1927  0.5914
  185MPD1    C2 2868   4.374   0.779   8.686  0.7179 -0.1940 -0.6772
  185MPD1    C3 2869   4.410   0.656   8.748  0.3129 -0.4520  0.9237
  185MPD1    C4 2870   4.393   0.540   8.675 -0.0951  0.6443 -0.6093
  185MPD1    C5 2871   4.365   0.548   8.539 -0.3217 -0.2508  0.0468
  185MPD1     H 2872   4.363   0.868   8.747 -0.2304 -0.7321 -0.0569
  185MPD1    H1 2873   4.410   0.442   8.718 -1.7971  0.2827 -0.7785
  185MPD1    H2 2874   4.311   0.657   8.381  0.2676  1.2906  0.2087
  185MPD1    H3 2875   4.359   0.461   8.474  0.6796 -0.3816  0.1298
  185MPD1     N 2876   4.466   0.633   8.877 -0.1766 -0.6611  0.7263
  185MPD1    H5 2877   4.485   0.536   8.903 -0.0619 -0.2790  2.0424
  185MPD1    N1 2878   4.289   0.899   8.496 -0.0933 -0.2484  0.1049
  185MPD1    H6 2879   4.298   0.890   8.395 -0.3847 -4.0614  0.3989
  185MPD1    H7 2880   4.354   0.971   8.527  1.1793 -2.1557  1.8961
  186MPD1     C 2881   3.613   1.001  15.282 -0.1231 -0.4110 -0.3789
  186MPD1    C1 2882   3.536   0.918  15.356  0.0539  0.1636  0.1081
  186MPD1    C2 2883   3.534   0.932  15.493  0.2470 -0.0199 -0.2105
  186MPD1    C3 2884   3.585   1.047  15.549 -0.4064 -0.8941 -0.9611
  186MPD1    C4 2885   3.638   1.147  15.466  0.3449  0.2349  0.5799
  186MPD1    C5 2886   3.667   1.123  15.335 -0.0476 -0.0568 -0.5558
  186MPD1     H 2887   3.479   0.859  15.552  0.9644 -1.1492 -0.9352
  186MPD1    H1 2888   3.691   1.235  15.501  0.3832  0.7384 -0.7508
  186MPD1    H2 2889   3.628   0.988  15.175 -2.2604 -0.1339 -0.7018
  186MPD1    H3 2890   3.725   1.190  15.274  1.5623 -1.0409 -0.1095
  186MPD1     N 2891   3.571   1.083  15.689  0.6068  0.9515  0.1858
  186MPD1    H5 2892   3.613   1.172  15.714  1.6792  0.5094 -0.0587
  186MPD1    N1 2893   3.497   0.796  15.297 -0.3147 -0.3067 -0.1122
  186MPD1    H6 2894   3.460   0.815  15.204  0.7525  0.1776 -0.4377
  186MPD1    H7 2895   3.420   0.753  15.348  0.8370 -1.7274  0.4389
  187MPD1     C 2896   3.537   2.683  16.591 -0.0433  0.3263  0.2806
  187MPD1    C1 2897   3.455   2.582  16.629  0.4633  0.0484 -0.1933
  187MPD1    C2 2898   3.344   2.624  16.704 -0.0249  0.0460 -0.0902
  187MPD1    C3 2899   3.333   2.750  16.766  0.0233 -0.1905  0.1743
  187MPD1    C4 2900   3.435   2.838  16.736 -0.3276  0.2441  0.0203
  187MPD1    C5 2901   3.539   2.809  16.651  0.3502 -0.6846 -0.6102
  187MPD1     H 2902   3.264   2.551  16.713  0.1366 -0.4435 -2.5840
  187MPD1    H1 2903   3.434   2.935  16.785  0.7272  1.3513 -2.1625
  187MPD1    H2 2904   3.614   2.666  16.517 -0.7895  0.1257 -0.4448
  187MPD1    H3 2905   3.617   2.879  16.627  0.3341  0.0356  1.4026
  187MPD1     N 2906   3.230   2.788  16.857  0.1803  0.5942  1.1101
  187MPD1    H5 2907   3.232   2.881  16.896 -0.1249  1.2943 -0.5300
  187MPD1    N1 2908   3.468   2.453  16.577  0.5889  0.3944  0.0693
  187MPD1    H6 2909   3.427   2.377  16.631  0.0281 -1.0030 -2.2904
  187MPD1    H7 2910   3.568   2.437  16.568  0.2870 -2.0423  1.1325
  188MPD1     C 2911   2.025   2.517  10.611  0.0466  0.7126 -0.2497
  188MPD1    C1 2912   1.911   2.498  10.536  0.4595  0.5469  0.2359
  188MPD1    C2 2913   1.900   2.375  10.473 -0.3648  0.4612 -0.4048
  188MPD1    C3 2914   2.012   2.287  10.463  0.8616 -0.0829  0.1609
  188MPD1    C4 2915   2.130   2.316  10.532  0.2587 -0.4061  0.4939
  188MPD1    C5 2916   2.130   2.427  10.610 -0.8517 -1.0283  0.1286
  188MPD1     H 2917   1.807   2.361  10.419  0.2895  1.3239 -1.7587
  188MPD1    H1 2918   2.214   2.248  10.548  1.4930  0.4109 -2.5313
  188MPD1    H2 2919   2.036   2.598  10.682  0.2783  1.4397 -1.1081
  188MPD1    H3 2920   2.214   2.453  10.674 -1.8199 -0.8769  1.3439
  188MPD1     N 2921   2.017   2.170  10.379 -0.3752 -0.0280 -0.1479
  188MPD1    H5 2922   2.106   2.121  10.387 -0.4945 -0.2673 -0.2860
  188MPD1    N1 2923   1.792   2.569  10.560  0.3453 -0.0258  0.2838
  188MPD1    H6 2924   1.812   2.668  10.570 -1.1312  0.3399 -0.3843
  188MPD1    H7 2925   1.725   2.557  10.485  1.1753 -0.2950 -0.4219
  189MPD1     C 2926   0.268   3.164  17.687  0.2660 -0.0093  0.0276
  189MPD1    C1 2927   0.226   3.104  17.566 -0.0203  0.8217  0.3178
  189MPD1    C2 2928   0.124   3.173  17.504  1.1489 -0.5224  0.0324
  189MPD1    C3 2929   0.063   3.295  17.549 -0.2436 -0.2895  0.0905
  189MPD1    C4 2930   0.111   3.346  17.665 -0.0108 -0.1272  0.6045
  189MPD1    C5 2931   0.210   3.284  17.731 -0.2959 -0.1192 -0.3617
  189MPD1     H 2932   0.077   3.132  17.416  1.1500 -0.0087 -0.2126
  189MPD1    H1 2933   0.071   3.442  17.698  0.2713  1.0741 -2.5767
  189MPD1    H2 2934   0.344   3.111   0.006  2.0899  2.2479 -0.3296
  189MPD1    H3 2935   0.234   3.323   0.091  1.0228  0.5147 -0.9390
  189MPD1     N 2936   4.695   3.350  17.475  0.0960 -0.1455  0.0951
  189MPD1    H5 2937   4.672   3.303  17.388 -0.2414 -0.7031  0.4864
  189MPD1    N1 2938   0.278   2.978  17.532 -0.4121  0.1993 -0.6790
  189MPD1    H6 2939   0.260   2.930  17.620 -0.9261 -0.4876 -1.1617
  189MPD1    H7 2940   0.213   2.933  17.468 -1.0300  1.3688 -0.8888
  190MPD1     C 2941   2.907   1.987  15.303 -0.1691 -0.2989  0.6475
  190MPD1    C1 2942   2.988   1.983  15.192 -0.3966 -0.8541  0.2904
  190MPD1    C2 2943   3.116   2.027  15.202  0.0844 -0.3948 -0.2025
  190MPD1    C3 2944   3.170   2.059  15.325 -0.6756 -0.7724  0.2618
  190MPD1    C4 2945   3.094   2.050  15.435  0.1649  0.0123 -0.1402
  190MPD1    C5 2946   2.960   2.012  15.423  0.1530 -0.4752 -0.1785
  190MPD1     H 2947   3.175   2.020  15.111  1.4966  1.5988  0.5622
  190MPD1    H1 2948   3.133   2.071  15.534 -0.3973 -0.4595  0.1865
  190MPD1    H2 2949   2.802   1.961  15.297  0.0566 -1.4532  1.5878
  190MPD1    H3 2950   2.907   2.007  15.517  1.3415 -0.1865  0.5052
  190MPD1     N 2951   3.309   2.093  15.329  0.4597 -0.9442 -0.0481
  190MPD1    H5 2952   3.357   2.101  15.240 -2.0417 -2.8876 -1.5551
  190MPD1    N1 2953   2.949   1.913  15.076  0.3348  0.1197 -0.6224
  190MPD1    H6 2954   2.848   1.910  15.062 -0.0595 -3.6076  3.1111
  190MPD1    H7 2955   2.991   1.951  14.992  2.5195 -0.0585  0.3925
  191MPD1     C 2956   2.670   4.535  12.263 -0.5284  0.1592  0.6173
  191MPD1    C1 2957   2.595   4.428  12.308 -0.9093 -0.6058  0.3987
  191MPD1    C2 2958   2.540   4.343  12.211  0.0216 -0.1483  0.0403
  191MPD1    C3 2959   2.542   4.373  12.077  0.0058  0.7310  0.0474
  191MPD1    C4 2960   2.621   4.480  12.036 -0.7583  0.8128 -0.1299
  191MPD1    C5 2961   2.673   4.568  12.129 -0.0136  0.5690  0.2513
  191MPD1     H 2962   2.482   4.256  12.241 -0.0736 -0.8043 -2.0625
  191MPD1    H1 2963   2.640   4.500  11.932  2.1439  0.0466  0.2647
  191MPD1    H2 2964   2.705   4.614  12.329  1.4441 -1.7622  1.8735
  191MPD1    H3 2965   2.718   4.663  12.101  0.5756  0.3198  0.3356
  191MPD1     N 2966   2.489   4.283  11.987  0.0324  0.0127 -0.2859
  191MPD1    H5 2967   2.449   4.199  12.026 -1.8077  0.0097 -2.1513
  191MPD1    N1 2968   2.590   4.388  12.445  0.8250  0.4148  0.1778
  191MPD1    H6 2969   2.493   4.372  12.471  1.4301 -0.8912  1.5961
  191MPD1    H7 2970   2.616   4.457  12.515 -1.2419  0.6812  0.6909
  192MPD1     C 2971   2.444   4.320  11.008 -0.1794  0.6999 -0.3677
  192MPD1    C1 2972   2.408   4.191  11.026  0.0939  0.6548 -0.6218
  192MPD1    C2 2973   2.413   4.128  11.154 -0.2198 -0.1527  0.1009
  192MPD1    C3 2974   2.453   4.214  11.258 -0.2459  0.0055  0.8377
  192MPD1    C4 2975   2.492   4.349  11.239  0.4764 -0.1865 -0.5613
  192MPD1    C5 2976   2.483   4.402  11.115  0.1770 -0.6121 -0.6533
  192MPD1     H 2977   2.370   4.030  11.169 -0.8839  0.0202 -0.7348
  192MPD1    H1 2978   2.516   4.410  11.326 -0.9182 -0.2088 -0.1543
  192MPD1    H2 2979   2.432   4.369  10.912 -0.8468 -2.2605 -1.7582
  192MPD1    H3 2980   2.493   4.510  11.106  0.5585 -0.7676 -2.0153
  192MPD1     N 2981   2.469   4.174  11.390 -0.2855 -0.0236  0.1703
  192MPD1    H5 2982   2.507   4.240  11.457 -0.5761  0.5925 -0.2800
  192MPD1    N1 2983   2.369   4.122  10.907  0.2320 -0.3438  0.7210
  192MPD1    H6 2984   2.316   4.188  10.851  2.3445 -0.1524 -1.0406
  192MPD1    H7 2985   2.330   4.028  10.910  0.1246 -0.3169  0.1407
  193MPD1     C 2986   1.459   3.606  16.828  0.6926 -0.2202  0.2880
  193MPD1    C1 2987   1.534   3.558  16.724 -0.3436 -0.0940 -0.5602
  193MPD1    C2 2988   1.663   3.610  16.715 -0.0180  0.8468 -0.1815
  193MPD1    C3 2989   1.705   3.726  16.789  0.2171 -0.4493  0.7319
  193MPD1    C4 2990   1.622   3.775  16.887 -0.2353  0.8847 -0.2355
  193MPD1    C5 2991   1.504   3.707  16.909 -0.2995  0.4521  0.1405
  193MPD1     H 2992   1.734   3.559  16.650 -0.6001  0.6479 -0.6705
  193MPD1    H1 2993   1.648   3.853  16.958 -1.7407  1.3744 -0.2292
  193MPD1    H2 2994   1.358   3.565  16.834  0.6490  0.2163  2.2817
  193MPD1    H3 2995   1.445   3.742  16.993  0.0332  3.3413 -0.8415
  193MPD1     N 2996   1.826   3.789  16.765  0.3233  0.1313 -0.1439
  193MPD1    H5 2997   1.845   3.869  16.826 -0.0504 -1.7482  2.4493
  193MPD1    N1 2998   1.494   3.450  16.647 -0.1203 -0.0639 -0.1870
  193MPD1    H6 2999   1.393   3.458  16.635  0.1562  1.7044 -1.3463
  193MPD1    H7 3000   1.526   3.447  16.550 -2.0526  0.4038 -0.8436
  194MPD1     C 3001   0.117   1.179  17.122 -0.2999 -0.0562 -0.2820
  194MPD1    C1 3002   0.011   1.142  17.039  0.1731  0.3958  0.2674
  194MPD1    C2 3003   0.001   1.007  17.007 -0.0892  0.3609  0.5019
  194MPD1    C3 3004   0.081   0.907  17.061  0.2090 -0.1892 -0.4314
  194MPD1    C4 3005   0.175   0.943  17.151  0.5364 -0.6364  0.2242
  194MPD1    C5 3006   0.193   1.080  17.181 -0.2782  0.6460  0.0695
  194MPD1     H 3007   4.655   0.980  16.939 -0.7898 -0.4825  1.6754
  194MPD1    H1 3008   0.242   0.866  17.186  0.1634 -0.2493  1.7629
  194MPD1    H2 3009   0.134   1.279  17.159  1.6145 -0.1947 -0.7510
  194MPD1    H3 3010   0.281   1.109  17.239 -0.7323  0.2610  0.9495
  194MPD1     N 3011   0.068   0.770  17.033 -0.3776  0.0025 -0.5426
  194MPD1    H5 3012   0.129   0.709  17.087  1.6633  0.6074 -2.1763
  194MPD1    N1 3013   4.680   1.234  16.958 -0.1894  0.2038 -0.2771
  194MPD1    H6 3014   4.579   1.218  16.960 -0.0025 -0.8655  0.5343
  194MPD1    H7 3015   4.689   1.331  16.986  0.7279 -0.9233  3.3676
  195MPD1     C 3016   2.513   3.119   0.776 -1.1688 -0.3684 -0.2964
  195MPD1    C1 3017   2.416   3.072   0.695  0.6952 -0.3466 -0.4506
  195MPD1    C2 3018   2.447   2.992   0.586  0.9182 -0.5457  0.7994
  195MPD1    C3 3019   2.575   2.952   0.566  0.3929 -0.3747  0.1701
  195MPD1    C4 3020   2.679   3.004   0.648  0.2442 -0.5748  0.3336
  195MPD1    C5 3021   2.644   3.086   0.753 -0.4337  0.1399 -0.6858
  195MPD1     H 3022   2.369   2.950   0.523  0.1050 -0.2807  1.6402
  195MPD1    H1 3023   2.786   2.990   0.640  0.5515  2.0239 -0.3377
  195MPD1    H2 3024   2.484   3.173   0.865 -0.1556 -1.9535  0.9975
  195MPD1    H3 3025   2.720   3.123   0.820 -0.7827  0.0776 -0.2591
  195MPD1     N 3026   2.618   2.859   0.461 -0.0689 -0.1135  0.8073
  195MPD1    H5 3027   2.716   2.835   0.455 -0.3266 -0.9462 -0.0271
  195MPD1    N1 3028   2.280   3.092   0.735  0.4361  0.0149  0.0834
  195MPD1    H6 3029   2.275   3.161   0.809 -3.0850  1.0583 -1.1041
  195MPD1    H7 3030   2.226   3.113   0.651 -0.7839 -0.9699  0.6268
  196MPD1     C 3031   1.265   2.790   0.138  0.0476 -0.3538  0.5461
  196MPD1    C1 3032   1.317   2.663   0.102 -0.4350  0.3222  0.0181
  196MPD1    C2 3033   1.410   2.604   0.190 -0.1343 -0.2590 -0.0708
  196MPD1    C3 3034   1.429   2.660   0.322 -0.6270  0.0078  0.0624
  196MPD1    C4 3035   1.375   2.783   0.349 -0.4517  0.1465  0.4074
  196MPD1    C5 3036   1.296   2.846   0.261 -0.0741  0.4208 -0.7267
  196MPD1     H 3037   1.445   2.506   0.159  1.0426 -0.3148  1.3979
  196MPD1    H1 3038   1.387   2.832   0.445 -1.5684 -0.2673  0.7505
  196MPD1    H2 3039   1.203   2.847   0.069  0.4943  1.1068  1.3452
  196MPD1    H3 3040   1.246   2.937   0.292  0.5484  0.5770 -0.1956
  196MPD1     N 3041   1.496   2.593   0.425  0.4124 -0.2728 -0.0154
  196MPD1    H5 3042   1.511   2.646   0.509  0.3754 -1.1701  0.5633
  196MPD1    N1 3043   1.301   2.619  17.709  0.7101  0.1155 -0.3474
  196MPD1    H6 3044   1.209   2.644  17.672  0.2750  0.7150  1.1528
  196MPD1    H7 3045   1.316   2.519  17.698  1.9141  0.3465 -0.9098
  197MPD1     C 3046   1.051   4.028  16.728  0.2422  0.4343  0.4417
  197MPD1    C1 3047   1.053   3.992  16.596 -0.4263  0.0060 -0.4108
  197MPD1    C2 3048   1.088   4.096  16.512 -0.2913 -0.4203  0.0926
  197MPD1    C3 3049   1.142   4.215  16.555 -0.2628  0.8313  0.5092
  197MPD1    C4 3050   1.150   4.250  16.688  0.0621  0.1754 -0.1862
  197MPD1    C5 3051   1.100   4.151  16.773  0.3979 -0.3025  0.9683
  197MPD1     H 3052   1.087   4.076  16.406 -2.2649 -1.9767  0.3967
  197MPD1    H1 3053   1.185   4.344  16.729 -0.5733  0.4397 -0.2423
  197MPD1    H2 3054   1.016   3.961  16.806  1.1893 -2.3219 -1.4899
  197MPD1    H3 3055   1.106   4.158  16.881 -1.7757 -1.5392  1.1819
  197MPD1     N 3056   1.188   4.315  16.470 -0.2240 -0.1834  0.4410
  197MPD1    H5 3057   1.235   4.392  16.517 -0.8160  1.8613 -2.3386
  197MPD1    N1 3058   0.974   3.882  16.557  0.2668  0.3269 -0.1928
  197MPD1    H6 3059   0.983   3.843  16.463 -2.7686 -2.1337  0.5404
  197MPD1    H7 3060   0.985   3.811  16.629 -1.8831  1.4959  1.2747
  198MPD1     C 3061   2.567   2.789  15.305  0.5359 -0.5469  0.0503
  198MPD1    C1 3062   2.605   2.893  15.393 -0.2760  0.1883  0.4372
  198MPD1    C2 3063   2.727   2.885  15.449 -0.5910  0.6159  0.9581
  198MPD1    C3 3064   2.827   2.809  15.395  0.5112 -0.6644 -0.4707
  198MPD1    C4 3065   2.792   2.716  15.298 -0.1891 -0.1423 -0.8043
  198MPD1    C5 3066   2.665   2.700  15.257  0.3320 -0.0642  0.2997
  198MPD1     H 3067   2.751   2.953  15.530  0.6044 -1.0643  2.0133
  198MPD1    H1 3068   2.865   2.657  15.244  0.5095  0.9445 -1.0536
  198MPD1    H2 3069   2.465   2.776  15.271  0.6492 -1.4055  0.0491
  198MPD1    H3 3070   2.642   2.630  15.177  0.5103 -0.2932  0.4512
  198MPD1     N 3071   2.960   2.837  15.432 -0.1621 -0.2308 -0.2782
  198MPD1    H5 3072   2.972   2.903  15.508  1.9637 -2.0210  0.9350
  198MPD1    N1 3073   2.515   2.971  15.457 -0.3054 -0.2790  0.1122
  198MPD1    H6 3074   2.562   3.058  15.483 -2.0800  0.6252  0.3112
  198MPD1    H7 3075   2.442   2.997  15.391  0.5677  2.6811  0.2973
  199MPD1     C 3076   0.710   3.683   9.993 -0.2728 -0.4736  0.5286
  199MPD1    C1 3077   0.610   3.787   9.999 -0.3098 -0.6714  0.7130
  199MPD1    C2 3078   0.493   3.768   9.932  0.6361 -0.2951  0.0414
  199MPD1    C3 3079   0.461   3.643   9.888 -0.3503 -0.0694  0.2830
  199MPD1    C4 3080   0.554   3.542   9.883  1.0344 -0.3982 -0.4545
  199MPD1    C5 3081   0.678   3.563   9.939  0.4428  0.0598 -0.2342
  199MPD1     H 3082   0.425   3.852   9.921  2.8484  1.4174 -0.4799
  199MPD1    H1 3083   0.539   3.444   9.839  2.8703  0.1695 -2.3734
  199MPD1    H2 3084   0.808   3.697  10.038  0.5857 -0.8596 -1.2397
  199MPD1    H3 3085   0.753   3.485   9.942  0.3315 -0.0630 -0.7138
  199MPD1     N 3086   0.334   3.607   9.837 -0.2509  0.4759  0.2730
  199MPD1    H5 3087   0.318   3.511   9.808 -0.6175  0.4199  0.6502
  199MPD1    N1 3088   0.648   3.917  10.051 -0.1770  0.0176  0.7069
  199MPD1    H6 3089   0.696   3.901  10.139 -0.2786 -2.3645  0.3333
  199MPD1    H7 3090   0.565   3.969  10.080 -1.1905  0.3413 -2.7208
  200MPD1     C 3091   4.504   4.304  14.899 -0.1495 -0.2034 -0.1996
  200MPD1    C1 3092   4.446   4.197  14.828 -0.3565 -0.0923 -0.7321
  200MPD1    C2 3093   4.473   4.173  14.696  0.0330  0.0970  0.9959
  200MPD1    C3 3094   4.577   4.248  14.635  0.5880  0.4936  0.0837
  200MPD1    C4 3095   4.633   4.353  14.707  0.2064  0.4789  0.4821
  200MPD1    C5 3096   4.602   4.382  14.839  0.2270  0.5701  0.2151
  200MPD1     H 3097   4.427   4.083  14.656 -0.9867  0.6143  0.9854
  200MPD1    H1 3098   4.698   4.425  14.661 -0.9570 -0.0652 -2.0030
  200MPD1    H2 3099   4.477   4.315  15.003 -2.0520  2.1209 -0.9359
  200MPD1    H3 3100   4.642   4.458  14.904 -1.6265  1.2524  0.5558
  200MPD1     N 3101   4.606   4.220  14.504  0.1561 -0.0628 -0.5776
  200MPD1    H5 3102   4.540   4.169  14.447  0.0548 -0.0811 -0.4442
  200MPD1    N1 3103   4.349   4.123  14.895 -0.4482 -0.3825  0.3884
  200MPD1    H6 3104   4.334   4.039  14.840 -0.9456  0.2758 -0.4925
  200MPD1    H7 3105   4.388   4.084  14.980 -3.0156  0.1222  1.7783
  201MPD1     C 3106   1.498   3.309  12.824 -0.0332  0.5408 -0.2707
  201MPD1    C1 3107   1.631   3.269  12.847  0.3620  0.1259  0.4085
  201MPD1    C2 3108   1.659   3.133  12.835  0.9279  0.1824 -0.5626
  201MPD1    C3 3109   1.557   3.041  12.839  0.0209 -0.4762  0.2896
  201MPD1    C4 3110   1.427   3.080  12.849  0.8420 -0.7492  0.2437
  201MPD1    C5 3111   1.403   3.215  12.818  0.2214  0.2687  0.5218
  201MPD1     H 3112   1.763   3.103  12.830  0.4426 -1.4225 -1.0398
  201MPD1    H1 3113   1.342   3.013  12.854 -0.1767  0.6296  1.3334
  201MPD1    H2 3114   1.468   3.413  12.821  2.2142  1.1222 -2.7636
  201MPD1    H3 3115   1.298   3.238  12.805  0.6668  2.9344  1.7791
  201MPD1     N 3116   1.599   2.912  12.868  0.2401  0.3607 -0.8167
  201MPD1    H5 3117   1.700   2.901  12.870  0.1140 -0.8649 -1.1567
  201MPD1    N1 3118   1.739   3.355  12.847 -0.6390  0.1228 -0.7460
  201MPD1    H6 3119   1.717   3.432  12.909 -0.4360  1.4664 -2.3486
  201MPD1    H7 3120   1.818   3.319  12.901 -2.3454 -2.2456  0.1835
  202MPD1     C 3121   0.229   1.968   9.261 -0.1648  0.8013  0.3721
  202MPD1    C1 3122   0.330   1.875   9.273  0.0063  0.3556 -0.3087
  202MPD1    C2 3123   0.449   1.913   9.331  0.3714 -0.6932 -0.0146
  202MPD1    C3 3124   0.490   2.045   9.337 -0.2437  0.7736  0.6227
  202MPD1    C4 3125   0.391   2.142   9.308  0.8081 -0.1127  0.2478
  202MPD1    C5 3126   0.262   2.103   9.276  0.2371  0.2870 -0.1968
  202MPD1     H 3127   0.525   1.836   9.339  0.3174 -0.8529 -0.9925
  202MPD1    H1 3128   0.399   2.251   9.308  0.1078 -0.0677 -0.1214
  202MPD1    H2 3129   0.131   1.942   9.223 -0.1495 -0.3916  1.1662
  202MPD1    H3 3130   0.186   2.178   9.261 -1.3616 -0.7456  2.5573
  202MPD1     N 3131   0.610   2.093   9.388 -0.0427 -0.1583  0.3868
  202MPD1    H5 3132   0.607   2.189   9.420  2.3060  0.2336 -0.5576
  202MPD1    N1 3133   0.298   1.738   9.296 -0.0435 -0.0461  0.0091
  202MPD1    H6 3134   0.226   1.697   9.237 -2.7604  1.9134  1.9951
  202MPD1    H7 3135   0.372   1.676   9.264 -1.6822 -2.5222  1.0335
  203MPD1     C 3136   4.653   3.323  11.978 -0.1292  0.3380 -0.3472
  203MPD1    C1 3137   4.614   3.193  11.949 -0.6862 -0.0395  0.4874
  203MPD1    C2 3138   4.685   3.086  12.008 -0.2909 -0.4582  0.7033
  203MPD1    C3 3139   0.047   3.116  12.106  0.2708 -0.0838 -0.1363
  203MPD1    C4 3140   0.077   3.246  12.138 -0.1278 -0.3205  0.4430
  203MPD1    C5 3141   0.018   3.350  12.065  0.1472 -0.6182  0.4481
  203MPD1     H 3142   4.669   2.984  11.977 -0.2853  0.3981 -2.2223
  203MPD1    H1 3143   0.133   3.270  12.227 -2.0236  1.8087  1.0458
  203MPD1    H2 3144   4.626   3.410  11.919 -0.8162 -0.3098 -0.9769
  203MPD1    H3 3145   0.057   3.450  12.076 -2.0816  0.1440  1.4492
  203MPD1     N 3146   0.104   3.005  12.184 -0.0331  0.1928 -0.4665
  203MPD1    H5 3147   0.070   2.912  12.160  0.1761  0.3695 -1.4328
  203MPD1    N1 3148   4.531   3.172  11.839  0.1624 -0.2241  0.6982
  203MPD1    H6 3149   4.450   3.233  11.828 -0.1822 -1.1696 -2.1780
  203MPD1    H7 3150   4.501   3.076  11.822  1.0770 -0.0926 -1.7152
  204MPD1     C 3151   4.053   4.459  17.049  0.0139 -0.3451  0.2184
  204MPD1    C1 3152   4.152   4.494  16.959 -0.0559 -0.6605 -0.1071
  204MPD1    C2 3153   4.287   4.460  16.988  0.1873  0.5040  0.1114
  204MPD1    C3 3154   4.320   4.378  17.094 -0.1093 -0.3982 -0.2967
  204MPD1    C4 3155   4.219   4.333  17.173 -0.2460 -0.3221  0.3942
  204MPD1    C5 3156   4.090   4.383  17.158 -0.1016  0.3402 -0.2293
  204MPD1     H 3157   4.371   4.498  16.931  1.7495 -0.7378  1.5881
  204MPD1    H1 3158   4.240   4.253  17.243  1.4788 -1.4808 -1.4009
  204MPD1    H2 3159   3.951   4.494  17.056  0.1397  0.5224 -2.3214
  204MPD1    H3 3160   4.010   4.349  17.221 -1.4187  4.7023  0.4772
  204MPD1     N 3161   4.458   4.340  17.108  0.3153  0.3865  0.2869
  204MPD1    H5 3162   4.523   4.391  17.050  1.1085 -1.8042 -0.7779
  204MPD1    N1 3163   4.132   4.594  16.861 -0.2753  0.3939 -0.7398
  204MPD1    H6 3164   4.201   4.576  16.788 -0.9429 -1.9764 -0.7609
  204MPD1    H7 3165   4.042   4.617  16.819 -0.5218 -0.1192 -0.4943
  205MPD1     C 3166   0.809   2.799   0.272  0.6828  0.7326 -0.4347
  205MPD1    C1 3167   0.767   2.930   0.307  0.1415 -0.4597 -0.2297
  205MPD1    C2 3168   0.713   3.014   0.209 -0.0230  0.0728 -0.2200
  205MPD1    C3 3169   0.684   2.952   0.080  0.4268 -0.1476  0.4972
  205MPD1    C4 3170   0.735   2.826   0.055  0.5818  0.6922  0.4576
  205MPD1    C5 3171   0.789   2.747   0.148  0.1474  0.1426 -0.4871
  205MPD1     H 3172   0.682   3.116   0.230  0.1840  0.2827 -0.9362
  205MPD1    H1 3173   0.721   2.783  17.694  0.4829  0.5339  0.5389
  205MPD1    H2 3174   0.863   2.729   0.335 -2.0574 -0.6611  0.3335
  205MPD1    H3 3175   0.836   2.653   0.122  0.2749 -0.6447  2.5818
  205MPD1     N 3176   0.629   3.023  17.713  0.6102  0.0548  0.2208
  205MPD1    H5 3177   0.604   2.973  17.629 -0.6920 -1.2112  1.3508
  205MPD1    N1 3178   0.802   2.982   0.431 -0.2861 -0.1074 -0.1596
  205MPD1    H6 3179   0.741   3.056   0.465  1.5542 -0.1002  3.1510
  205MPD1    H7 3180   0.803   2.904   0.497  1.8032 -0.1786 -0.2910
  206MPD1     C 3181   0.247   0.361  16.752 -0.6506 -0.3837  0.0290
  206MPD1    C1 3182   0.257   0.495  16.773 -0.7147 -0.0382  0.0814
  206MPD1    C2 3183   0.199   0.581  16.683 -0.3869 -0.4846 -0.0209
  206MPD1    C3 3184   0.139   0.545  16.566 -0.4583  0.1764  0.1469
  206MPD1    C4 3185   0.133   0.409  16.546 -0.1882 -0.5826  0.4171
  206MPD1    C5 3186   0.181   0.321  16.641 -0.0367  0.4678  0.4176
  206MPD1     H 3187   0.217   0.686  16.702 -0.6251 -0.9254  2.7135
  206MPD1    H1 3188   0.076   0.361  16.467 -1.5616  0.8436  0.5430
  206MPD1    H2 3189   0.282   0.279  16.813 -2.9736 -2.2416 -1.1161
  206MPD1    H3 3190   0.163   0.215  16.632  0.4640  0.4630 -0.5284
  206MPD1     N 3191   0.100   0.642  16.473 -0.4656 -1.0790  0.1137
  206MPD1    H5 3192   0.061   0.601  16.389 -0.7326  0.7372 -0.6359
  206MPD1    N1 3193   0.325   0.546  16.886  0.3628 -0.9103 -0.5468
  206MPD1    H6 3194   0.352   0.645  16.881  1.4073 -1.2073 -0.8344
  206MPD1    H7 3195   0.411   0.496  16.906  0.7733  0.5000  1.2280
  207MPD1     C 3196   2.455   3.014   9.901  0.0359 -0.0743 -0.1159
  207MPD1    C1 3197   2.560   3.104   9.897  0.3009 -0.1581  0.7413
  207MPD1    C2 3198   2.537   3.229   9.948  0.0718 -0.0363 -0.4565
  207MPD1    C3 3199   2.411   3.261   9.990 -0.3603 -0.0370 -0.5665
  207MPD1    C4 3200   2.310   3.170  10.003 -0.3824 -0.4880  0.2971
  207MPD1    C5 3201   2.340   3.042   9.960  0.5150 -0.6839 -0.4325
  207MPD1     H 3202   2.622   3.296   9.953  0.2493 -0.2347 -0.8164
  207MPD1    H1 3203   2.212   3.204  10.036  0.6691  1.3985  1.4504
  207MPD1    H2 3204   2.470   2.910   9.872  1.3929 -0.0234  0.3565
  207MPD1    H3 3205   2.260   2.970   9.964 -0.4611  0.4927  1.5450
  207MPD1     N 3206   2.380   3.395  10.013 -0.1754 -0.4203 -0.2535
  207MPD1    H5 3207   2.287   3.413  10.049 -0.0165  1.5906 -0.8701
  207MPD1    N1 3208   2.686   3.064   9.850 -0.5478  0.0127 -0.1908
  207MPD1    H6 3209   2.693   2.976   9.799  0.2753  0.5496 -0.9973
  207MPD1    H7 3210   2.729   3.139   9.798 -0.2094 -1.1952 -1.6488
  208MPD1     C 3211   4.498   1.696  17.118  0.1637 -0.5889 -0.3445
  208MPD1    C1 3212   4.605   1.644  17.182  0.3770 -0.5758 -0.3101
  208MPD1    C2 3213   4.707   1.726  17.221  0.1952 -0.4298 -0.3747
  208MPD1    C3 3214   4.698   1.865  17.204 -0.3640  0.5215  0.0440
  208MPD1    C4 3215   4.593   1.915  17.131 -0.4317  0.1849  0.0865
  208MPD1    C5 3216   4.487   1.832  17.103 -0.1238  0.0200  0.2349
  208MPD1     H 3217   0.049   1.679  17.282 -0.0320 -0.1767  0.1097
  208MPD1    H1 3218   4.571   2.020  17.123  1.3900  0.3676 -2.5694
  208MPD1    H2 3219   4.411   1.635  17.098  0.1501 -0.7905  0.3166
  208MPD1    H3 3220   4.393   1.861  17.058 -1.6729 -1.8921  2.1869
  208MPD1     N 3221   0.050   1.959  17.275 -0.4020  0.1807 -0.3166
  208MPD1    H5 3222   0.029   2.058  17.270  2.4078  0.8990  2.4137
  208MPD1    N1 3223   4.625   1.505  17.195  0.0254 -0.5850  0.1887
  208MPD1    H6 3224   4.690   1.479  17.269 -0.4116 -0.8163  0.4877
  208MPD1    H7 3225   4.539   1.451  17.204 -0.4682  0.4308  1.6477
  209MPD1     C 3226   2.059   3.425  11.693 -0.7835 -0.0803 -0.4556
  209MPD1    C1 3227   2.116   3.549  11.720 -0.6036  0.5320  0.3362
  209MPD1    C2 3228   2.091   3.647  11.625 -0.0906 -0.8630 -0.4490
  209MPD1    C3 3229   2.029   3.627  11.502 -0.6068  0.2226  0.1362
  209MPD1    C4 3230   1.974   3.505  11.474 -0.1090  0.5019 -0.4739
  209MPD1    C5 3231   1.986   3.412  11.576  0.1096  0.2450 -0.0192
  209MPD1     H 3232   2.130   3.748  11.638 -0.6507 -0.5845 -0.9129
  209MPD1    H1 3233   1.930   3.477  11.379  0.3999 -0.6131 -0.3873
  209MPD1    H2 3234   2.056   3.343  11.765 -0.1733  0.9939  0.8026
  209MPD1    H3 3235   1.944   3.314  11.556 -0.2080  0.4316 -0.2520
  209MPD1     N 3236   2.045   3.733  11.405 -0.7899  0.0544  0.5015
  209MPD1    H5 3237   2.089   3.814  11.446 -1.7929 -0.5241  2.7151
  209MPD1    N1 3238   2.176   3.574  11.845  0.1529  0.7605 -0.7991
  209MPD1    H6 3239   2.254   3.639  11.845  0.2753  0.6132 -0.3992
  209MPD1    H7 3240   2.213   3.485  11.878 -1.6429  0.1459 -0.4379
  210MPD1     C 3241   1.966   4.691  11.231 -0.3466  0.1629  0.1918
  210MPD1    C1 3242   1.946   4.592  11.332 -1.0457  0.6118  0.4336
  210MPD1    C2 3243   1.981   4.464  11.296  0.4918 -0.8025 -0.6117
  210MPD1    C3 3244   2.032   4.429  11.165 -0.2091  0.2908  0.2091
  210MPD1    C4 3245   2.043   4.529  11.075 -0.5214 -0.4027  0.2560
  210MPD1    C5 3246   2.013   4.661  11.107 -0.4435  0.3035  0.6864
  210MPD1     H 3247   1.962   4.391  11.374 -0.1169  1.0518  0.9746
  210MPD1    H1 3248   2.072   4.514  10.971 -5.5571 -2.3879 -0.8585
  210MPD1    H2 3249   1.950   0.063  11.241  3.0473  0.4955  2.2016
  210MPD1    H3 3250   2.028   0.001  11.029 -0.0569  0.0066  0.4800
  210MPD1     N 3251   2.060   4.295  11.126  0.1481  0.4905  0.1570
  210MPD1    H5 3252   2.077   4.279  11.027  0.4738 -0.3072  0.3437
  210MPD1    N1 3253   1.878   4.621  11.449 -0.2139 -0.5762  0.1573
  210MPD1    H6 3254   1.894   4.706  11.501 -1.2022 -0.6056  0.5126
  210MPD1    H7 3255   1.885   4.547  11.519  0.5896 -0.8181 -0.1738
  211MPD1     C 3256   1.079   3.462  15.278  0.6540 -1.2390 -0.3658
  211MPD1    C1 3257   0.974   3.520  15.217  0.3878 -0.0529 -0.3841
  211MPD1    C2 3258   0.861   3.549  15.293  0.3784 -0.1498 -0.0040
  211MPD1    C3 3259   0.843   3.508  15.424  0.3027 -0.2829 -0.3656
  211MPD1    C4 3260   0.952   3.449  15.487  0.7324  0.2473  0.3404
  211MPD1    C5 3261   1.069   3.434  15.414  0.7403 -0.5768  0.3795
  211MPD1     H 3262   0.775   3.603  15.253  0.4378 -0.8945 -1.1452
  211MPD1    H1 3263   0.957   3.415  15.589 -2.2769 -3.2667 -0.6977
  211MPD1    H2 3264   1.169   3.449  15.220  1.9847  1.3741  1.1116
  211MPD1    H3 3265   1.153   3.395  15.471  0.2823 -0.6944  0.9725
  211MPD1     N 3266   0.717   3.525  15.488  0.1695  0.4713 -0.3124
  211MPD1    H5 3267   0.638   3.551  15.429 -0.5341  1.0265  0.8706
  211MPD1    N1 3268   0.981   3.553  15.081 -0.2718  0.1043  0.3470
  211MPD1    H6 3269   1.039   3.494  15.021 -1.4589 -0.9341  0.2176
  211MPD1    H7 3270   0.887   3.574  15.047 -0.6536 -0.5266  1.0264
  212MPD1     C 3271   4.040   1.850  16.645  0.6457  0.1434 -0.0535
  212MPD1    C1 3272   4.139   1.751  16.624  0.1161  0.1335  0.0230
  212MPD1    C2 3273   4.103   1.616  16.638 -0.6388  0.4763 -0.9769
  212MPD1    C3 3274   3.984   1.581  16.699 -0.4020  0.4839  0.2001
  212MPD1    C4 3275   3.890   1.680  16.729 -0.0795  0.3067 -0.0936
  212MPD1    C5 3276   3.918   1.813  16.702 -0.0040 -0.3795 -0.2500
  212MPD1     H 3277   4.170   1.536  16.613 -1.1791 -0.1342 -0.4749
  212MPD1    H1 3278   3.796   1.655  16.778 -0.3735 -1.6912 -1.6658
  212MPD1    H2 3279   4.054   1.956  16.631 -0.9662  0.5916  1.6363
  212MPD1    H3 3280   3.843   1.883  16.737  1.6922  1.8236 -0.9887
  212MPD1     N 3281   3.953   1.450  16.741 -0.1531 -0.3447 -0.2881
  212MPD1    H5 3282   3.883   1.436  16.814  0.8185  2.5029  1.1834
  212MPD1    N1 3283   4.264   1.792  16.573  0.3347  0.3107 -0.0154
  212MPD1    H6 3284   4.336   1.730  16.610  0.8515  1.0366  0.2035
  212MPD1    H7 3285   4.288   1.889  16.594 -1.9841  0.8474  0.1531
  213MPD1     C 3286   2.282   2.573  15.451 -0.0672 -0.0131 -0.1411
  213MPD1    C1 3287   2.165   2.578  15.382 -0.9197  0.0719 -0.2821
  213MPD1    C2 3288   2.189   2.567  15.247 -1.0214 -0.1361 -0.7571
  213MPD1    C3 3289   2.297   2.518  15.189 -0.1374 -0.7932 -0.6172
  213MPD1    C4 3290   2.402   2.475  15.269  0.1970 -0.2390  0.8523
  213MPD1    C5 3291   2.393   2.512  15.394  0.9462  0.0580 -0.3768
  213MPD1     H 3292   2.110   2.601  15.180 -2.2260  1.3193  1.4143
  213MPD1    H1 3293   2.500   2.443  15.235 -0.3662 -1.2560  0.1831
  213MPD1    H2 3294   2.280   2.609  15.553 -2.8855 -1.1838  0.2025
  213MPD1    H3 3295   2.476   2.491  15.460  0.3445  0.8420  0.6232
  213MPD1     N 3296   2.292   2.474  15.051  0.7772 -0.1122  0.3133
  213MPD1    H5 3297   2.199   2.462  15.013  1.1733 -0.5663 -0.5230
  213MPD1    N1 3298   2.070   2.672  15.429  0.2037  0.2793 -0.1773
  213MPD1    H6 3299   2.061   2.669  15.530 -0.2281  3.1741 -0.1229
  213MPD1    H7 3300   1.975   2.652  15.398  0.7339 -0.6818 -1.1992
  214MPD1     C 3301   1.934   1.626  14.887  0.5913 -0.4201 -0.5169
  214MPD1    C1 3302   1.893   1.711  14.788 -0.2529  0.2578 -0.2706
  214MPD1    C2 3303   1.958   1.840  14.772  0.2866  0.1254 -0.2085
  214MPD1    C3 3304   2.060   1.877  14.856  0.1484  0.2507  0.3067
  214MPD1    C4 3305   2.105   1.785  14.947 -0.2619  1.1449 -0.2703
  214MPD1    C5 3306   2.046   1.667  14.960 -0.5078  0.2793 -0.4780
  214MPD1     H 3307   1.912   1.903  14.697 -0.1789 -1.7422 -1.5063
  214MPD1    H1 3308   2.178   1.819  15.020  1.4214 -0.5191 -1.2041
  214MPD1    H2 3309   1.902   1.523  14.882 -1.1667  0.0022  2.4501
  214MPD1    H3 3310   2.081   1.599  15.037  0.5467  2.1053  0.6695
  214MPD1     N 3311   2.128   2.002  14.845 -0.5977  0.2944 -0.2166
  214MPD1    H5 3312   2.201   2.021  14.913  0.0706 -1.0880 -0.5439
  214MPD1    N1 3313   1.805   1.664  14.691 -0.5131  0.0243 -0.6302
  214MPD1    H6 3314   1.769   1.741  14.636 -1.1311  1.9901  2.5156
  214MPD1    H7 3315   1.723   1.617  14.728 -0.0673  0.1985  0.5683
  215MPD1     C 3316   3.126   3.766  11.014 -0.2462  0.0908 -0.1502
  215MPD1    C1 3317   3.057   3.694  10.919  0.4362 -0.8468 -0.6716
  215MPD1    C2 3318   2.958   3.604  10.952  0.2713  0.2909 -0.5713
  215MPD1    C3 3319   2.920   3.598  11.084  0.7533 -0.1694  0.3579
  215MPD1    C4 3320   2.990   3.669  11.181  1.0733  0.3229 -0.0517
  215MPD1    C5 3321   3.094   3.749  11.147  0.3227  0.6254  0.0283
  215MPD1     H 3322   2.921   3.536  10.876 -3.2958  0.8085  0.7046
  215MPD1    H1 3323   2.969   3.659  11.287  0.6449  2.3308  0.0501
  215MPD1    H2 3324   3.210   3.827  10.982 -1.2768  1.0015 -1.1323
  215MPD1    H3 3325   3.147   3.805  11.224  0.8688  0.4995 -0.2564
  215MPD1     N 3326   2.815   3.504  11.112 -0.0326 -0.4194 -0.7006
  215MPD1    H5 3327   2.787   3.449  11.031 -0.9916 -1.1190  0.1114
  215MPD1    N1 3328   3.108   3.697  10.791 -0.3484  0.0467  0.4507
  215MPD1    H6 3329   3.146   3.786  10.759 -0.7226 -0.6250 -1.9007
  215MPD1    H7 3330   3.024   3.683  10.734 -2.6951 -0.3366  4.0203
  216MPD1     C 3331   4.340   1.165  16.884 -0.5690  0.3768 -0.0345
  216MPD1    C1 3332   4.369   1.186  17.021  0.4024  0.1029  0.0605
  216MPD1    C2 3333   4.414   1.084  17.090  0.4307  0.8227  0.2061
  216MPD1    C3 3334   4.415   0.957  17.048  0.5917  0.0569 -0.2985
  216MPD1    C4 3335   4.361   0.928  16.921  0.3152 -0.0041 -0.1307
  216MPD1    C5 3336   4.336   1.037  16.836  0.0368 -0.0965 -0.1662
  216MPD1     H 3337   4.468   1.097  17.183 -0.3905 -1.3395  0.9793
  216MPD1    H1 3338   4.349   0.829  16.879  0.6090 -0.1722  0.1717
  216MPD1    H2 3339   4.305   1.240  16.813 -1.5643  0.1005  0.1591
  216MPD1    H3 3340   4.306   1.021  16.734  1.5009  4.8347 -1.3750
  216MPD1     N 3341   4.447   0.853  17.139 -0.3428  0.3824  0.2189
  216MPD1    H5 3342   4.485   0.878  17.230 -1.1982  2.1985  0.0701
  216MPD1    N1 3343   4.378   1.315  17.072 -0.1093  1.0544  1.1930
  216MPD1    H6 3344   4.306   1.379  17.040 -1.0572 -0.7259 -0.1809
  216MPD1    H7 3345   4.384   1.312  17.174  1.1780 -0.7924  1.0583
  217MPD1     C 3346   3.904   1.245   8.713  0.5104 -0.1853 -0.5046
  217MPD1    C1 3347   4.026   1.185   8.703  0.2959 -0.3626  0.3748
  217MPD1    C2 3348   4.137   1.259   8.749 -0.5688 -0.1438 -0.1472
  217MPD1    C3 3349   4.133   1.371   8.824 -0.0770  0.5873  0.1705
  217MPD1    C4 3350   4.004   1.422   8.843  0.5775 -0.8663 -0.0061
  217MPD1    C5 3351   3.896   1.362   8.786  0.3220 -0.4437 -0.2302
  217MPD1     H 3352   4.232   1.215   8.720 -0.3063  0.4969 -0.2596
  217MPD1    H1 3353   3.983   1.508   8.905  1.9529 -0.0103 -0.7343
  217MPD1    H2 3354   3.813   1.216   8.661 -0.5243  0.2963  1.0316
  217MPD1    H3 3355   3.798   1.407   8.801  0.4677  0.6577 -2.5718
  217MPD1     N 3356   4.245   1.435   8.882  0.1028 -0.2563 -0.4137
  217MPD1    H5 3357   4.225   1.531   8.910  3.8791  0.4271 -0.0813
  217MPD1    N1 3358   4.047   1.085   8.602  0.3279 -0.3966 -0.1744
  217MPD1    H6 3359   4.136   1.040   8.619 -0.5844 -1.5282  1.5292
  217MPD1    H7 3360   3.975   1.015   8.587  0.5686 -0.6687 -0.0392
  218MPD1     C 3361   2.383   3.942  12.310  0.3194  0.1371  0.2006
  218MPD1    C1 3362   2.289   3.938  12.209 -0.0668 -0.1821  0.0407
  218MPD1    C2 3363   2.229   3.815  12.173 -0.1721 -0.6856 -0.0175
  218MPD1    C3 3364   2.261   3.708  12.261  0.3449  0.0343 -0.5913
  218MPD1    C4 3365   2.363   3.713  12.353 -0.7831  0.1757 -0.1913
  218MPD1    C5 3366   2.422   3.831  12.378  0.5039  0.2462 -0.2536
  218MPD1     H 3367   2.169   3.807  12.083 -0.4325  0.0977  0.0854
  218MPD1    H1 3368   2.395   3.631  12.417 -0.2489  1.6614  1.4567
  218MPD1    H2 3369   2.428   4.034  12.348  0.3052 -0.2187  1.0757
  218MPD1    H3 3370   2.496   3.842  12.457  0.8826  1.1092 -0.7295
  218MPD1     N 3371   2.182   3.591  12.241 -0.7272 -0.1194 -0.0508
  218MPD1    H5 3372   2.118   3.584  12.162 -1.9154  0.7395  0.8371
  218MPD1    N1 3373   2.271   4.056  12.138 -0.7314 -0.0473 -0.7863
  218MPD1    H6 3374   2.267   4.132  12.205  0.4152 -2.0012  1.5102
  218MPD1    H7 3375   2.173   4.065  12.112 -0.3569 -1.3602 -2.6574
  219MPD1     C 3376   1.494   3.027  11.743  0.4027  0.1212 -0.0444
  219MPD1    C1 3377   1.609   3.092  11.705  0.4747  0.2364 -0.1644
  219MPD1    C2 3378   1.685   3.151  11.811 -0.1586  0.4469 -0.3789
  219MPD1    C3 3379   1.630   3.170  11.938  0.2796 -0.2299  1.1339
  219MPD1    C4 3380   1.508   3.129  11.959 -0.3664  0.1909  0.3932
  219MPD1    C5 3381   1.442   3.051  11.868 -0.2544 -0.0558 -0.1271
  219MPD1     H 3382   1.781   3.195  11.783  0.7485 -1.4859 -0.3106
  219MPD1    H1 3383   1.470   3.122  12.061 -1.8246 -2.2729 -0.3142
  219MPD1    H2 3384   1.446   2.955  11.678  1.2165 -0.7151  0.2765
  219MPD1    H3 3385   1.354   2.997  11.900 -1.8688  3.0494  0.7349
  219MPD1     N 3386   1.702   3.222  12.045 -0.8097  0.1864  0.3714
  219MPD1    H5 3387   1.651   3.230  12.132 -2.6190 -2.6751 -0.4519
  219MPD1    N1 3388   1.667   3.059  11.579 -0.0779  0.0762 -0.1878
  219MPD1    H6 3389   1.739   3.128  11.559 -1.0370  0.7334 -1.4363
  219MPD1    H7 3390   1.599   3.056  11.503 -1.3869 -0.1744  0.9866
  220MPD1     C 3391   1.482   2.305  11.520  0.1112 -0.5606  0.0002
  220MPD1    C1 3392   1.374   2.355  11.451 -0.3451 -0.4063 -0.4091
  220MPD1    C2 3393   1.405   2.440  11.346  0.3510 -0.2951 -0.1363
  220MPD1    C3 3394   1.532   2.472  11.302  0.1473  0.2676 -0.1767
  220MPD1    C4 3395   1.634   2.426  11.379  0.0062 -0.4314  0.0827
  220MPD1    C5 3396   1.608   2.338  11.484 -0.5215 -0.8786 -0.2499
  220MPD1     H 3397   1.321   2.487  11.297  1.5429  2.1350  0.1080
  220MPD1    H1 3398   1.738   2.433  11.350  0.7722 -0.8407  2.7620
  220MPD1    H2 3399   1.464   2.240  11.605  1.1138 -0.8868 -0.0344
  220MPD1    H3 3400   1.687   2.296  11.544  0.4483 -0.2183 -1.0778
  220MPD1     N 3401   1.541   2.537  11.173 -0.2315 -0.3379  0.2756
  220MPD1    H5 3402   1.449   2.548  11.131 -0.8325 -1.5529  1.2343
  220MPD1    N1 3403   1.246   2.353  11.514 -0.6653 -0.0024 -0.2030
  220MPD1    H6 3404   1.234   2.278  11.582  1.8567 -0.6837 -0.5189
  220MPD1    H7 3405   1.169   2.360  11.447 -0.1995  1.9444 -0.5468
  221MPD1     C 3406   0.071   3.151  15.044  0.6511  0.3337 -0.1218
  221MPD1    C1 3407   4.734   3.078  15.140  0.2911 -0.1842  0.7869
  221MPD1    C2 3408   0.057   3.043  15.260  0.0340  0.6524  0.0240
  221MPD1    C3 3409   0.185   3.087  15.285 -0.3697  0.3622 -0.1627
  221MPD1    C4 3410   0.258   3.169  15.196  0.3666  0.0821  0.3349
  221MPD1    C5 3411   0.196   3.194  15.072  0.3983  0.2060 -0.1468
  221MPD1     H 3412   0.000   2.976  15.324  1.6956 -2.6391 -1.9737
  221MPD1    H1 3413   0.359   3.204  15.209  0.2300  1.8672 -3.6097
  221MPD1    H2 3414   0.028   3.175  14.948 -0.8179 -1.2715  0.1460
  221MPD1    H3 3415   0.252   3.262  15.009  0.0013  2.4522  1.9463
  221MPD1     N 3416   0.248   3.065  15.409  0.2091 -0.6009  0.8491
  221MPD1    H5 3417   0.345   3.094  15.405 -0.0486  0.6292  2.9901
  221MPD1    N1 3418   4.598   3.053  15.121 -0.6726 -0.3678  0.2304
  221MPD1    H6 3419   4.568   2.985  15.191  1.0687 -0.5080  0.8566
  221MPD1    H7 3420   4.572   3.028  15.026 -2.2439 -0.5654  0.7014
  222MPD1     C 3421   4.089   0.956  17.294  0.6411  0.3336 -0.3214
  222MPD1    C1 3422   3.956   0.920  17.313 -0.1462  0.2717  0.9748
  222MPD1    C2 3423   3.872   1.014  17.378 -0.2163  0.0242 -0.4262
  222MPD1    C3 3424   3.908   1.148  17.400  0.4141 -0.3348 -0.4668
  222MPD1    C4 3425   4.037   1.173  17.366  0.1025  0.1038  0.3616
  222MPD1    C5 3426   4.122   1.085  17.317  0.0280 -0.0785 -0.0284
  222MPD1     H 3427   3.770   0.988  17.404  0.5557 -2.7169 -0.0954
  222MPD1    H1 3428   4.070   1.276  17.368 -2.2593  0.8819 -0.4254
  222MPD1    H2 3429   4.164   0.887  17.256 -0.3429 -1.2627  0.6870
  222MPD1    H3 3430   4.226   1.104  17.289 -0.8645  1.4807 -2.2864
  222MPD1     N 3431   3.825   1.248  17.440 -0.4053 -0.0558 -0.3314
  222MPD1    H5 3432   3.866   1.341  17.446  0.5198 -0.3875 -1.7318
  222MPD1    N1 3433   3.916   0.786  17.306 -0.0770  0.2430 -0.0614
  222MPD1    H6 3434   3.963   0.740  17.229 -1.2191 -1.4561  0.2463
  222MPD1    H7 3435   3.816   0.782  17.285 -0.5346  1.6063  1.7493
  223MPD1     C 3436   2.997   1.376   0.288 -0.9744  0.2257 -0.3887
  223MPD1    C1 3437   3.131   1.381   0.327  0.0313  0.4423 -0.6805
  223MPD1    C2 3438   3.227   1.380   0.233  0.0229  0.5249  0.0773
  223MPD1    C3 3439   3.196   1.396   0.098 -0.4816  0.1922  0.3211
  223MPD1    C4 3440   3.068   1.391   0.053  0.4488 -0.0385  0.3955
  223MPD1    C5 3441   2.969   1.377   0.151  0.1225 -0.4107 -0.8196
  223MPD1     H 3442   3.327   1.370   0.273  0.1481 -0.3047 -0.4483
  223MPD1    H1 3443   3.031   1.385  17.689 -1.7191  3.3520  0.9897
  223MPD1    H2 3444   2.914   1.363   0.357  0.6008  0.5473  1.5813
  223MPD1    H3 3445   2.868   1.375   0.113 -0.1731 -0.0909 -0.0314
  223MPD1     N 3446   3.301   1.399   0.003 -0.3754  0.2867  0.5719
  223MPD1    H5 3447   3.395   1.388   0.039  0.1201  0.3480 -0.7026
  223MPD1    N1 3448   3.163   1.361   0.463 -0.1789  0.3399  0.1887
  223MPD1    H6 3449   3.259   1.389   0.482 -0.1268 -0.0893  0.5701
  223MPD1    H7 3450   3.104   1.426   0.515  1.7332  1.7038  0.6589
  224MPD1     C 3451   4.186   2.303   9.145 -0.3078 -0.3924  0.6210
  224MPD1    C1 3452   4.255   2.187   9.150  0.2480  0.4117 -0.1775
  224MPD1    C2 3453   4.375   2.180   9.221 -0.3972  0.3044  0.8142
  224MPD1    C3 3454   4.406   2.290   9.299 -0.6026  0.2287 -1.0648
  224MPD1    C4 3455   4.327   2.396   9.301  0.3082  0.9038  0.4880
  224MPD1    C5 3456   4.216   2.404   9.227  0.0408  0.2363  0.2223
  224MPD1     H 3457   4.439   2.093   9.214  1.1569  1.3437  2.4105
  224MPD1    H1 3458   4.346   2.482   9.364  0.7518 -0.8855  2.8210
  224MPD1    H2 3459   4.094   2.323   9.091  0.9179  0.8497 -0.9806
  224MPD1    H3 3460   4.154   2.492   9.229  1.2529  1.1136 -1.2508
  224MPD1     N 3461   4.521   2.306   9.390 -0.0817  0.0683 -0.8183
  224MPD1    H5 3462   4.524   2.382   9.457 -1.7516  0.3036 -1.0046
  224MPD1    N1 3463   4.224   2.078   9.065  0.2376 -0.2890  0.6674
  224MPD1    H6 3464   4.132   2.082   9.023  1.3082  1.1975 -1.5342
  224MPD1    H7 3465   4.241   1.985   9.103 -3.6879 -0.1838  2.6843
  225MPD1     C 3466   2.101   4.149  11.760  0.2552  0.2248 -0.7961
  225MPD1    C1 3467   2.021   4.076  11.674  0.1968 -0.1904 -0.0641
  225MPD1    C2 3468   1.904   4.024  11.723  0.3015 -0.3558 -0.3306
  225MPD1    C3 3469   1.870   4.053  11.856  0.3968 -0.2609 -0.7257
  225MPD1    C4 3470   1.960   4.117  11.939  0.0304  0.0287  0.7899
  225MPD1    C5 3471   2.074   4.166  11.891  0.1929  0.4695  0.7491
  225MPD1     H 3472   1.842   3.953  11.669 -0.2625 -1.3752  1.6383
  225MPD1    H1 3473   1.951   4.120  12.047 -0.8354  0.4449  0.7030
  225MPD1    H2 3474   2.194   4.188  11.722 -0.4180  1.4648 -1.1777
  225MPD1    H3 3475   2.135   4.226  11.957  0.6283  1.7268 -0.7860
  225MPD1     N 3476   1.746   4.009  11.909  0.4472  0.0314 -0.7922
  225MPD1    H5 3477   1.726   4.019  12.008  1.1004 -2.2052 -0.4518
  225MPD1    N1 3478   2.056   4.052  11.547 -0.0185  0.1280  0.0031
  225MPD1    H6 3479   1.977   4.033  11.486 -0.7813  1.7420  0.4873
  225MPD1    H7 3480   2.121   4.115  11.502 -2.5174  2.2818 -0.5780
  226MPD1     C 3481   3.824   3.163   9.365  0.4869 -0.2652  0.0160
  226MPD1    C1 3482   3.959   3.137   9.368  0.4184  0.0403  0.0041
  226MPD1    C2 3483   4.041   3.234   9.316  0.5987  0.6007  0.1483
  226MPD1    C3 3484   3.985   3.347   9.253 -0.2126  0.5376 -0.7032
  226MPD1    C4 3485   3.856   3.358   9.235 -0.0381  0.1232 -0.2527
  226MPD1    C5 3486   3.772   3.273   9.300  0.1586  0.3938 -0.2641
  226MPD1     H 3487   4.148   3.227   9.328  0.4207 -0.1238  1.2938
  226MPD1    H1 3488   3.812   3.443   9.184 -0.7340  0.0665  0.2655
  226MPD1    H2 3489   3.757   3.090   9.407  0.0125  0.6022  0.7614
  226MPD1    H3 3490   3.666   3.295   9.295 -0.7222 -3.4067  1.4694
  226MPD1     N 3491   4.073   3.443   9.205 -0.1078  0.6417 -0.1450
  226MPD1    H5 3492   4.173   3.435   9.220 -0.4703  1.9857  2.9620
  226MPD1    N1 3493   4.008   3.021   9.430  0.0773  0.9245  0.7721
  226MPD1    H6 3494   4.104   2.999   9.404 -0.5495 -0.1192 -0.6571
  226MPD1    H7 3495   3.942   2.944   9.427 -1.5684  2.4268 -1.2398
  227MPD1     C 3496   4.030   4.074   8.453 -0.5944 -0.1622 -0.2320
  227MPD1    C1 3497   3.930   3.996   8.517  0.2337  0.1635 -0.1076
  227MPD1    C2 3498   3.973   3.928   8.630 -0.5544  0.0222 -0.5985
  227MPD1    C3 3499   4.099   3.950   8.691  0.1721 -0.6708 -0.4048
  227MPD1    C4 3500   4.184   4.041   8.634  0.0280 -0.1239  0.3440
  227MPD1    C5 3501   4.148   4.106   8.518  0.0914  0.0643  0.4681
  227MPD1     H 3502   3.902   3.859   8.673 -1.1667  1.4176  0.6485
  227MPD1    H1 3503   4.280   4.061   8.681  0.6818 -1.1247 -0.5647
  227MPD1    H2 3504   4.001   4.123   8.361  0.6263  1.5309  0.2980
  227MPD1    H3 3505   4.206   4.185   8.473 -0.0955 -2.0809 -3.5064
  227MPD1     N 3506   4.134   3.880   8.810 -0.0518 -0.4074  0.3536
  227MPD1    H5 3507   4.052   3.840   8.855 -0.7583 -1.1489 -1.5947
  227MPD1    N1 3508   3.810   3.960   8.447 -0.0572  1.2775 -0.8206
  227MPD1    H6 3509   3.737   3.927   8.510  0.0073  1.9722 -0.3770
  227MPD1    H7 3510   3.784   4.036   8.385 -0.7225  0.4306 -1.5637
  228MPD1     C 3511   3.445   1.791  12.247 -0.5760 -0.2047 -0.3468
  228MPD1    C1 3512   3.314   1.793  12.200 -0.2880  0.8647  0.0949
  228MPD1    C2 3513   3.207   1.777  12.283  0.3254 -0.1324  0.1843
  228MPD1    C3 3514   3.226   1.766  12.423  0.6098  0.5897  0.0399
  228MPD1    C4 3515   3.359   1.770  12.464 -0.2056  0.3301 -0.0912
  228MPD1    C5 3516   3.464   1.774  12.382 -0.4222  0.2109  0.2281
  228MPD1     H 3517   3.105   1.780  12.247 -0.0746  2.0190  1.4543
  228MPD1    H1 3518   3.384   1.756  12.568  3.6642  1.1124 -0.9354
  228MPD1    H2 3519   3.534   1.809  12.188 -0.6387  1.8371  0.1875
  228MPD1    H3 3520   3.563   1.774  12.427 -0.0714  2.0225 -0.5643
  228MPD1     N 3521   3.115   1.742  12.505 -0.2029  0.0810 -0.1212
  228MPD1    H5 3522   3.023   1.734  12.463  0.7788  0.1048 -2.2841
  228MPD1    N1 3523   3.301   1.825  12.065  0.0244  0.1361 -0.2312
  228MPD1    H6 3524   3.388   1.810  12.015  0.2151 -2.4136  0.8584
  228MPD1    H7 3525   3.217   1.790  12.019 -1.0904  3.1365 -0.4653
  229MPD1     C 3526   2.822   0.713  15.243  0.4394 -0.8505 -0.1375
  229MPD1    C1 3527   2.742   0.600  15.222 -0.5054  0.3498 -0.2961
  229MPD1    C2 3528   2.804   0.473  15.221  0.0168 -0.7240  0.1992
  229MPD1    C3 3529   2.934   0.456  15.267  0.0029  0.0235  0.0622
  229MPD1    C4 3530   3.006   0.576  15.292 -0.2314  0.2683 -0.4746
  229MPD1    C5 3531   2.956   0.700  15.271 -0.6667 -0.1494 -0.4288
  229MPD1     H 3532   2.746   0.388  15.188 -0.9151  0.5548 -1.4809
  229MPD1    H1 3533   3.108   0.578  15.328 -0.2207  1.9306 -0.5813
  229MPD1    H2 3534   2.778   0.812  15.236  2.3767  0.0785  0.6358
  229MPD1    H3 3535   3.014   0.791  15.281  1.2612 -1.4461  0.1018
  229MPD1     N 3536   3.004   0.329  15.266 -0.0708 -0.1950 -0.4812
  229MPD1    H5 3537   3.103   0.331  15.288  0.0244  0.4346 -0.9505
  229MPD1    N1 3538   2.613   0.628  15.173  0.8304 -0.2320  0.2068
  229MPD1    H6 3539   2.569   0.712  15.209  0.3500 -0.1102 -0.6629
  229MPD1    H7 3540   2.555   0.552  15.207 -0.5275  0.9055  0.3829
  230MPD1     C 3541   3.881   0.326  15.411  0.2081 -0.5434 -0.5221
  230MPD1    C1 3542   3.870   0.191  15.383 -0.1459  0.1197 -0.5880
  230MPD1    C2 3543   3.748   0.142  15.353  0.3260 -0.3602  0.6805
  230MPD1    C3 3544   3.635   0.217  15.356  0.3049  0.0238 -0.5110
  230MPD1    C4 3545   3.645   0.355  15.383  0.0149  0.0523 -0.5551
  230MPD1    C5 3546   3.764   0.403  15.414  0.0597 -0.7782 -0.9007
  230MPD1     H 3547   3.747   0.034  15.340  2.0472 -0.2376 -0.5902
  230MPD1    H1 3548   3.560   0.422  15.382 -0.4076 -0.5050 -1.3932
  230MPD1    H2 3549   3.977   0.373  15.433  0.0836  0.6403 -2.5039
  230MPD1    H3 3550   3.757   0.510  15.431 -1.4034 -0.7427 -1.7095
  230MPD1     N 3551   3.515   0.146  15.334  0.4251  0.5142  0.0732
  230MPD1    H5 3552   3.524   0.046  15.317  0.9734  1.2446 -4.1059
  230MPD1    N1 3553   3.991   0.119  15.401  0.2381 -0.2528  0.0343
  230MPD1    H6 3554   4.071   0.174  15.371 -0.7992  0.9334 -0.5481
  230MPD1    H7 3555   3.997   0.030  15.351 -0.0686  0.1593 -0.7362
  231MPD1     C 3556   1.359   2.010  15.320 -0.6320 -0.0739  0.5733
  231MPD1    C1 3557   1.368   1.926  15.209 -0.2259 -0.0406 -0.3273
  231MPD1    C2 3558   1.457   1.970  15.112  0.4764 -0.5774 -0.6608
  231MPD1    C3 3559   1.519   2.086  15.122  0.3619 -0.4949  0.0353
  231MPD1    C4 3560   1.495   2.171  15.223  0.1128  0.2694 -0.3751
  231MPD1    C5 3561   1.413   2.137  15.328 -0.0630  0.0812 -0.2942
  231MPD1     H 3562   1.501   1.898  15.044  1.0213 -2.1333  1.3473
  231MPD1    H1 3563   1.541   2.269  15.230  2.0382 -0.6404 -0.1915
  231MPD1    H2 3564   1.296   1.984  15.404 -1.3338  0.7813  0.3133
  231MPD1    H3 3565   1.390   2.201  15.412 -0.3967  1.3320 -1.3373
  231MPD1     N 3566   1.601   2.113  15.010  0.0688  0.3660  0.5312
  231MPD1    H5 3567   1.606   2.045  14.935 -0.4535  0.3355  0.5262
  231MPD1    N1 3568   1.342   1.790  15.234  0.4538 -1.2528  0.0232
  231MPD1    H6 3569   1.250   1.773  15.275 -0.3185  3.1359  0.1191
  231MPD1    H7 3570   1.347   1.738  15.147 -0.8539 -0.5192 -0.4901
  232MPD1     C 3571   3.621   0.025  17.647  0.9129 -0.0729 -0.7933
  232MPD1    C1 3572   3.507   0.033  17.721 -0.3411  0.0948  0.5642
  232MPD1    C2 3573   3.404   4.680  17.698 -0.3255  0.3115 -1.1337
  232MPD1    C3 3574   3.410   4.584  17.600 -0.3896  0.6492 -0.3190
  232MPD1    C4 3575   3.527   4.565  17.536 -0.3670 -0.1617  0.1148
  232MPD1    C5 3576   3.636   4.647  17.561 -0.3625 -0.2560  0.0618
  232MPD1     H 3577   3.310   4.689   0.013  0.0283  0.8617 -0.5904
  232MPD1    H1 3578   3.542   4.480  17.471 -0.3632 -2.2444  2.8043
  232MPD1    H2 3579   3.710   0.083  17.669 -0.0836  1.6169 -1.2257
  232MPD1    H3 3580   3.727   4.627  17.508 -0.8876  1.2910 -1.4315
  232MPD1     N 3581   3.292   4.520  17.566 -0.4736  0.4245 -0.2788
  232MPD1    H5 3582   3.213   4.535  17.628 -0.5777 -0.5145 -0.1899
  232MPD1    N1 3583   3.493   0.124   0.091 -0.1477  0.1224 -1.0044
  232MPD1    H6 3584   3.549   0.208   0.077 -0.6985  0.2165 -2.5753
  232MPD1    H7 3585   3.398   0.137   0.123 -0.2986 -2.7407 -0.2398
  233MPD1     C 3586   3.644   1.015   1.362  0.5375 -0.6920 -0.2549
  233MPD1    C1 3587   3.619   1.134   1.297 -0.1604  0.4205 -0.2039
  233MPD1    C2 3588   3.729   1.218   1.275  0.0576 -0.7344 -1.4492
  233MPD1    C3 3589   3.857   1.179   1.310  0.0827 -0.6510  0.6043
  233MPD1    C4 3590   3.873   1.055   1.364  0.1514 -0.1024 -0.1089
  233MPD1    C5 3591   3.773   0.968   1.388  0.8306 -0.5788 -0.0241
  233MPD1     H 3592   3.710   1.320   1.242 -0.9501  0.2851  2.3233
  233MPD1    H1 3593   3.971   1.019   1.392  0.2744 -0.2384 -0.7196
  233MPD1    H2 3594   3.557   0.965   1.403  0.7984 -1.6511 -0.8763
  233MPD1    H3 3595   3.797   0.875   1.439  3.5765  0.3278  0.3099
  233MPD1     N 3596   3.965   1.266   1.296  0.0225 -0.8163  0.4332
  233MPD1    H5 3597   4.056   1.244   1.336  0.1602  1.6276  1.5242
  233MPD1    N1 3598   3.486   1.178   1.289  0.4252  0.1277 -0.0144
  233MPD1    H6 3599   3.407   1.115   1.277 -0.0098  0.8806 -1.1089
  233MPD1    H7 3600   3.475   1.263   1.234  0.9972 -1.2545 -2.2525
  234MPD1     C 3601   1.099   0.753   9.344  0.4682 -0.1976 -0.6089
  234MPD1    C1 3602   1.076   0.823   9.224  0.2861 -0.1429  0.7914
  234MPD1    C2 3603   1.002   0.940   9.226  0.3086  1.5676  0.0042
  234MPD1    C3 3604   0.979   0.996   9.353 -0.1314  0.2585 -0.4867
  234MPD1    C4 3605   1.004   0.930   9.473 -0.1258 -0.2815 -0.0914
  234MPD1    C5 3606   1.068   0.810   9.466 -0.1730  0.3973 -0.8505
  234MPD1     H 3607   0.964   0.991   9.138 -0.0881  2.0991  0.4823
  234MPD1    H1 3608   0.986   0.973   9.570  0.3648 -1.1697  0.3901
  234MPD1    H2 3609   1.144   0.654   9.338  1.9644  0.6107 -2.4877
  234MPD1    H3 3610   1.090   0.753   9.556  1.5988  1.4081 -0.6543
  234MPD1     N 3611   0.919   1.126   9.358  0.3708 -0.2104 -0.5294
  234MPD1    H5 3612   0.908   1.173   9.269  1.6373  2.3939  0.6913
  234MPD1    N1 3613   1.097   0.759   9.103  0.5895  0.5965 -0.0048
  234MPD1    H6 3614   1.113   0.834   9.035 -1.1470  1.8289  0.9252
  234MPD1    H7 3615   1.176   0.696   9.110  0.3985  0.3911  0.2764
  235MPD1     C 3616   2.008   3.853  10.079 -0.4821  0.7049  0.3947
  235MPD1    C1 3617   2.090   3.884   9.973 -0.3262  0.4729 -0.3622
  235MPD1    C2 3618   2.167   3.995   9.985 -0.3043  0.0443  0.2741
  235MPD1    C3 3619   2.159   4.087  10.084 -0.6291  0.1930 -0.2492
  235MPD1    C4 3620   2.085   4.048  10.190 -0.0316 -0.1075 -0.5511
  235MPD1    C5 3621   2.011   3.936  10.189  0.4389  0.2156  0.1706
  235MPD1     H 3622   2.235   4.027   9.906 -1.5036  0.5863 -0.5313
  235MPD1    H1 3623   2.086   4.111  10.279 -2.9624 -0.4944 -0.2514
  235MPD1    H2 3624   1.941   3.769  10.081  0.7151 -0.2569 -0.2111
  235MPD1    H3 3625   1.959   3.916  10.282 -1.7264  1.9013 -0.6796
  235MPD1     N 3626   2.238   4.205  10.071 -0.1644  0.4948  0.3655
  235MPD1    H5 3627   2.311   4.195  10.002 -1.3212  1.1649 -0.9564
  235MPD1    N1 3628   2.083   3.810   9.853 -0.6959  0.2128  0.7904
  235MPD1    H6 3629   2.176   3.810   9.812 -0.0772  0.8879  2.1771
  235MPD1    H7 3630   2.065   3.711   9.870 -1.3112  0.2496  0.3578
  236MPD1     C 3631   1.344   0.077   9.508  0.1536  0.1358  0.1778
  236MPD1    C1 3632   1.423   0.191   9.506  0.7399  0.4150  0.2566
  236MPD1    C2 3633   1.534   0.206   9.588  0.4708  0.1991  0.0393
  236MPD1    C3 3634   1.562   0.112   9.685 -0.1520 -0.0768  0.5941
  236MPD1    C4 3635   1.481   4.732   9.694 -0.2974 -0.1805 -0.6672
  236MPD1    C5 3636   1.375   4.721   9.611  0.0025 -0.3418  0.1296
  236MPD1     H 3637   1.603   0.288   9.580  1.4087 -0.7854 -1.9721
  236MPD1    H1 3638   1.500   4.660   9.773 -1.4055  2.2939  1.8911
  236MPD1    H2 3639   1.249   0.066   9.458  0.4640 -0.1188 -0.3595
  236MPD1    H3 3640   1.310   4.634   9.616 -1.1835  0.6649  2.2536
  236MPD1     N 3641   1.663   0.129   9.782  0.1564 -0.2815 -0.3298
  236MPD1    H5 3642   1.669   0.051   9.847  3.2851  1.1320  1.1029
  236MPD1    N1 3643   1.407   0.276   9.392  0.1532  0.0193 -0.1627
  236MPD1    H6 3644   1.310   0.290   9.363 -0.1136 -0.8600  0.2947
  236MPD1    H7 3645   1.442   0.371   9.409  0.6204  0.0155 -1.1453
  237MPD1     C 3646   2.315   4.258  14.279  0.2694  0.4897  0.4338
  237MPD1    C1 3647   2.355   4.165  14.375 -0.4952  0.0995  0.8819
  237MPD1    C2 3648   2.265   4.075  14.425  0.0232 -0.1230 -0.0050
  237MPD1    C3 3649   2.131   4.083  14.384 -0.4272 -0.0375  1.0116
  237MPD1    C4 3650   2.094   4.179  14.295  0.6570  0.0398 -0.1763
  237MPD1    C5 3651   2.184   4.274  14.248  0.2197  0.2255  0.0605
  237MPD1     H 3652   2.302   3.992  14.484 -2.3213 -0.2430  1.2738
  237MPD1    H1 3653   1.992   4.177  14.259  1.2184 -0.6399 -1.7492
  237MPD1    H2 3654   2.393   4.327  14.249 -0.3806  0.4091 -1.3882
  237MPD1    H3 3655   2.156   4.361  14.190  0.9902 -0.8554 -1.9631
  237MPD1     N 3656   2.032   3.992  14.432 -0.8078 -0.1743 -0.3058
  237MPD1    H5 3657   1.936   4.009  14.404 -1.6812 -0.1157  2.7415
  237MPD1    N1 3658   2.492   4.155  14.394 -0.5714  0.0729 -0.0636
  237MPD1    H6 3659   2.530   4.249  14.392  1.4121 -0.6884  1.8580
  237MPD1    H7 3660   2.515   4.115  14.484  1.1792 -1.2682 -1.1092
  238MPD1     C 3661   3.914   2.494  14.810  0.0873  0.2045 -0.5537
  238MPD1    C1 3662   3.827   2.416  14.884 -0.2845 -0.1815  0.0393
  238MPD1    C2 3663   3.693   2.404  14.828  0.5517  0.1556 -0.0841
  238MPD1    C3 3664   3.647   2.492  14.727  0.1672 -0.5738  0.4138
  238MPD1    C4 3665   3.736   2.570  14.662  0.2296 -0.2989 -0.5934
  238MPD1    C5 3666   3.869   2.571  14.703 -0.8439 -0.0338 -1.0116
  238MPD1     H 3667   3.622   2.343  14.883  0.5830 -1.0795 -1.4150
  238MPD1    H1 3668   3.700   2.633  14.582 -0.1859  1.1835  0.7619
  238MPD1    H2 3669   4.020   2.497  14.834 -0.2028  1.9046  0.5148
  238MPD1    H3 3670   3.936   2.639  14.652 -0.6805 -0.2588 -1.0993
  238MPD1     N 3671   3.509   2.487  14.685  0.2106 -0.1899  0.3568
  238MPD1    H5 3672   3.495   2.523  14.591 -1.1691  0.3962  0.7940
  238MPD1    N1 3673   3.873   2.338  14.984  0.7090 -0.2152  0.3832
  238MPD1    H6 3674   3.946   2.392  15.030 -0.5639  0.9501  1.0589
  238MPD1    H7 3675   3.797   2.319  15.049  1.2668 -1.8637  0.5562
  239MPD1     C 3676   3.733   3.706  14.562  0.3652 -0.5660  0.5528
  239MPD1    C1 3677   3.810   3.650  14.465  0.5191 -0.5373 -0.5231
  239MPD1    C2 3678   3.775   3.683  14.336 -0.2022 -0.4831 -0.0683
  239MPD1    C3 3679   3.645   3.732  14.306  0.1162  0.8702  0.3776
  239MPD1    C4 3680   3.559   3.753  14.411  0.0318 -0.3956  0.2735
  239MPD1    C5 3681   3.610   3.752  14.538  0.2822 -0.0910 -0.1172
  239MPD1     H 3682   3.844   3.665  14.255 -0.6235 -1.5159 -0.1919
  239MPD1    H1 3683   3.457   3.780  14.389 -0.6039 -3.0623 -0.1396
  239MPD1    H2 3684   3.764   3.701  14.665  2.0599  0.0716  0.0676
  239MPD1    H3 3685   3.560   3.803  14.620 -0.0150 -0.7861  0.1362
  239MPD1     N 3686   3.596   3.748  14.168  0.3483  0.1659  0.2100
  239MPD1    H5 3687   3.495   3.749  14.153  0.4738  1.2679 -0.5244
  239MPD1    N1 3688   3.938   3.597  14.499  0.1119  0.4088  0.3734
  239MPD1    H6 3689   3.937   3.557  14.593 -1.8102  3.2244  1.5543
  239MPD1    H7 3690   3.963   3.530  14.427 -1.7672  1.0097 -0.8381
  240MPD1     C 3691   3.032   3.340  13.669  0.0813 -0.3642  0.2738
  240MPD1    C1 3692   2.945   3.240  13.629  0.6556  0.4375  0.0398
  240MPD1    C2 3693   2.932   3.133  13.716  0.4971 -0.5504 -0.2141
  240MPD1    C3 3694   2.976   3.143  13.847 -0.2552 -0.6451  0.6896
  240MPD1    C4 3695   3.049   3.254  13.888 -0.3123 -0.0402 -0.3496
  240MPD1    C5 3696   3.084   3.346  13.794  0.0966 -0.2971 -0.1017
  240MPD1     H 3697   2.892   3.041  13.676 -0.1963 -0.2450 -0.2107
  240MPD1    H1 3698   3.080   3.257  13.992 -0.2320 -0.2818 -0.3677
  240MPD1    H2 3699   3.050   3.415  13.593  0.1236 -0.4685  0.1807
  240MPD1    H3 3700   3.142   3.426  13.838 -0.2630 -0.3197  0.4067
  240MPD1     N 3701   2.953   3.030  13.935 -0.2916  0.6072 -0.2919
  240MPD1    H5 3702   2.895   2.958  13.893  0.7290  0.2418 -1.0817
  240MPD1    N1 3703   2.901   3.240  13.495 -0.1875  0.0034  0.0125
  240MPD1    H6 3704   2.814   3.188  13.485 -0.0720 -0.2973  0.5863
  240MPD1    H7 3705   2.880   3.334  13.463 -1.0385 -0.5126 -0.9643
  241MPD1     C 3706   3.222   2.757  14.887  0.0419 -0.1742 -0.1026
  241MPD1    C1 3707   3.098   2.715  14.854 -0.3276  0.0403  0.0384
  241MPD1    C2 3708   3.059   2.711  14.720 -0.0194 -0.3032 -0.0712
  241MPD1    C3 3709   3.140   2.763  14.621 -0.2341 -0.6498 -0.7692
  241MPD1    C4 3710   3.261   2.804  14.657 -0.1915 -0.4503  0.2194
  241MPD1    C5 3711   3.305   2.797  14.789 -0.1530  0.7651  0.3065
  241MPD1     H 3712   2.955   2.689  14.702  0.4557 -2.0482 -0.6826
  241MPD1    H1 3713   3.325   2.852  14.584 -1.9268 -0.0422 -1.0273
  241MPD1    H2 3714   3.259   2.759  14.989 -0.5020  0.6419  0.0883
  241MPD1    H3 3715   3.408   2.826  14.808 -0.1790  2.2665 -1.8055
  241MPD1     N 3716   3.113   2.765  14.483  0.0927  0.8728 -0.3207
  241MPD1    H5 3717   3.170   2.818  14.419  0.2281  1.7476  0.5318
  241MPD1    N1 3718   3.000   2.700  14.957  0.2375  0.4856 -0.1036
  241MPD1    H6 3719   3.036   2.689  15.051  0.3470  0.9207 -0.0944
  241MPD1    H7 3720   2.934   2.627  14.932  0.5232  0.1331  0.1873
  242MPD1     C 3721   3.650   1.645  15.352 -0.0571 -0.0331  0.0560
  242MPD1    C1 3722   3.522   1.674  15.317 -0.0135 -0.2141 -0.3096
  242MPD1    C2 3723   3.458   1.582  15.239 -0.7181  0.1485  0.8554
  242MPD1    C3 3724   3.523   1.465  15.193 -0.1436  0.3379 -0.3896
  242MPD1    C4 3725   3.649   1.440  15.236  0.4005 -0.0826 -0.8826
  242MPD1    C5 3726   3.705   1.527  15.324  0.4609  0.3370  0.1570
  242MPD1     H 3727   3.360   1.601  15.196  0.0206  1.9861 -0.0290
  242MPD1    H1 3728   3.703   1.355  15.196 -0.7008 -0.8542 -0.7182
  242MPD1    H2 3729   3.704   1.720  15.409 -2.2869  0.0981  1.9975
  242MPD1    H3 3730   3.809   1.505  15.346  0.6874  1.7716  0.5669
  242MPD1     N 3731   3.463   1.372  15.104  0.2990 -0.0693 -0.6573
  242MPD1    H5 3732   3.524   1.298  15.070 -1.6310 -1.6404 -0.6764
  242MPD1    N1 3733   3.468   1.804  15.343 -0.1783  0.2539 -0.7072
  242MPD1    H6 3734   3.367   1.793  15.349 -0.0230 -1.1433 -0.7811
  242MPD1    H7 3735   3.504   1.845  15.430 -1.9996  1.6620 -0.6123
  243MPD1     C 3736   3.635   4.368  17.198  0.5228  0.9094  0.0962
  243MPD1    C1 3737   3.646   4.354  17.061 -0.2814 -0.4943 -0.0272
  243MPD1    C2 3738   3.752   4.279  17.013  1.0845  0.4931  0.1477
  243MPD1    C3 3739   3.825   4.208  17.099 -0.4645 -0.1450  0.7587
  243MPD1    C4 3740   3.795   4.203  17.235 -0.0602  0.2600 -0.0150
  243MPD1    C5 3741   3.710   4.290  17.284  0.1866  0.1803  0.4286
  243MPD1     H 3742   3.780   4.282  16.908 -1.6424  0.1886 -0.6116
  243MPD1    H1 3743   3.862   4.148  17.300 -1.3494 -0.9071  0.3273
  243MPD1    H2 3744   3.566   4.442  17.238 -0.4864  1.1320 -2.0509
  243MPD1    H3 3745   3.694   4.295  17.391  0.1101 -0.9095  0.4752
  243MPD1     N 3746   3.938   4.146  17.047  0.5992 -0.5474  0.0885
  243MPD1    H5 3747   3.970   4.164  16.952  0.5288 -0.6890  0.0373
  243MPD1    N1 3748   3.561   4.426  16.977  0.0270 -0.5135  0.3093
  243MPD1    H6 3749   3.465   4.432  17.010  0.1879  0.0799  0.6811
  243MPD1    H7 3750   3.551   4.376  16.889  1.2827  1.0189 -0.7178
  244MPD1     C 3751   0.073   3.501  17.102  0.0149 -0.4596 -0.5677
  244MPD1    C1 3752   0.022   3.526  16.975  0.1354  0.3097 -0.2923
  244MPD1    C2 3753   4.654   3.611  16.962  0.1894  0.1431 -0.0554
  244MPD1    C3 3754   4.612   3.686  17.069  0.4803 -0.5164  0.7349
  244MPD1    C4 3755   4.664   3.655  17.197  0.2207 -0.0192  0.4418
  244MPD1    C5 3756   0.024   3.558  17.213 -0.3772 -0.2118 -0.1312
  244MPD1     H 3757   4.625   3.635  16.861 -2.6201 -0.6767  0.5718
  244MPD1    H1 3758   4.628   3.702  17.288 -0.4052  2.5852 -1.1489
  244MPD1    H2 3759   0.149   3.425  17.101  0.7320  0.2567 -0.0212
  244MPD1    H3 3760   0.081   3.542  17.304  0.9283 -1.3338 -1.1328
  244MPD1     N 3761   4.511   3.778  17.044 -0.1060  0.4694 -0.3271
  244MPD1    H5 3762   4.484   3.790  16.946  0.7414 -1.4598 -0.7885
  244MPD1    N1 3763   0.083   3.476  16.862 -0.2910  0.5319  0.1927
  244MPD1    H6 3764   0.117   3.382  16.882  1.1635  0.8837 -0.5902
  244MPD1    H7 3765   0.039   3.484  16.771  0.8072  1.2440 -0.2831
  245MPD1     C 3766   0.960   4.680  12.790 -1.0692  0.1330 -1.2685
  245MPD1    C1 3767   1.075   0.001  12.736 -0.7715 -0.2331 -0.1772
  245MPD1    C2 3768   1.119   0.127  12.793  0.2054  0.1287 -0.0608
  245MPD1    C3 3769   1.049   0.196  12.896 -0.2407  0.0809  0.4257
  245MPD1    C4 3770   0.937   0.134  12.950 -0.4498 -0.6319  0.0392
  245MPD1    C5 3771   0.903   0.011  12.897 -0.1529  0.4205 -0.1311
  245MPD1     H 3772   1.195   0.181  12.738  0.0644  2.2841  1.8538
  245MPD1    H1 3773   0.877   0.171  13.032 -0.1173 -1.5949  0.7178
  245MPD1    H2 3774   0.909   4.596  12.745  0.1620 -1.5711  0.5234
  245MPD1    H3 3775   0.819   4.690  12.936 -2.3790  1.9161 -2.8756
  245MPD1     N 3776   1.092   0.314  12.964  0.4580 -0.0291  0.3777
  245MPD1    H5 3777   1.042   0.337  13.049 -1.3852  0.0776 -0.7205
  245MPD1    N1 3778   1.133   4.690  12.619  0.3842 -0.5008  0.2752
  245MPD1    H6 3779   1.143   4.588  12.624  0.0210 -0.5321  0.3475
  245MPD1    H7 3780   1.225   4.732  12.607  1.1055 -1.0525  3.5766
  246MPD1     C 3781   2.093   2.410   9.999  1.1682  0.3936 -0.8663
  246MPD1    C1 3782   2.010   2.328   9.924  0.3728 -0.4503  0.0232
  246MPD1    C2 3783   2.047   2.194   9.903  0.6546 -0.1649  0.3608
  246MPD1    C3 3784   2.162   2.141   9.958  0.2926  0.0004 -0.5006
  246MPD1    C4 3785   2.236   2.219  10.044 -1.0297 -0.5185 -0.4198
  246MPD1    C5 3786   2.198   2.349  10.055 -0.9061  0.2235  0.1621
  246MPD1     H 3787   1.983   2.134   9.839 -0.3857  1.4509 -0.1265
  246MPD1    H1 3788   2.338   2.197  10.073 -1.3852 -1.8216 -0.1422
  246MPD1    H2 3789   2.073   2.516  10.011  0.6164  0.4665 -2.3924
  246MPD1    H3 3790   2.277   2.417  10.085 -0.2715 -1.2874  1.9311
  246MPD1     N 3791   2.203   2.008   9.926  0.5308  0.3353 -0.3807
  246MPD1    H5 3792   2.181   1.955   9.842 -1.3748  0.1496  0.2380
  246MPD1    N1 3793   1.893   2.375   9.857  0.2844  0.6402 -0.4464
  246MPD1    H6 3794   1.851   2.458   9.900 -0.7281 -1.4654  2.6429
  246MPD1    H7 3795   1.828   2.303   9.827  1.2275  0.1796 -1.3809
  247MPD1     C 3796   1.008   4.713  15.002  0.1787 -0.0148  0.4566
  247MPD1    C1 3797   0.876   4.717  15.049  0.2392  0.2745  0.0995
  247MPD1    C2 3798   0.845   0.065  15.160  0.3447 -0.4327  0.2707
  247MPD1    C3 3799   0.936   0.159  15.207 -0.5398  0.4751 -0.8036
  247MPD1    C4 3800   1.067   0.148  15.166  0.3915 -0.0192  0.4612
  247MPD1    C5 3801   1.099   0.065  15.060  0.0540 -0.1763  0.5092
  247MPD1     H 3802   0.740   0.067  15.187  0.3340  0.0179  0.1931
  247MPD1    H1 3803   1.153   0.208  15.196  0.7251 -1.6530  2.8567
  247MPD1    H2 3804   1.045   4.642  14.929  0.7103  0.7774 -0.0522
  247MPD1    H3 3805   1.200   0.060  15.020  0.6013 -1.5153  2.0259
  247MPD1     N 3806   0.914   0.263  15.308 -0.3421 -0.8443 -0.6210
  247MPD1    H5 3807   0.990   0.324  15.336 -2.0979  0.5460  1.1419
  247MPD1    N1 3808   0.789   4.611  15.011  0.2686 -0.2432 -0.1976
  247MPD1    H6 3809   0.826   4.554  14.934 -0.1506  0.5651 -1.0008
  247MPD1    H7 3810   0.690   4.634  15.004  0.3859 -0.1133 -1.5365
  248MPD1     C 3811   1.819   4.110  17.512  0.8752  0.1108  0.6324
  248MPD1    C1 3812   1.755   4.015  17.587  0.8871 -0.0754 -0.2304
  248MPD1    C2 3813   1.693   4.061  17.703  0.1836 -0.5667  0.3704
  248MPD1    C3 3814   1.689   4.195   0.006  0.6014 -0.5882  0.3417
  248MPD1    C4 3815   1.766   4.288  17.672  0.1442 -0.1412  0.0104
  248MPD1    C5 3816   1.826   4.244  17.554 -0.5197 -0.4724 -1.0265
  248MPD1     H 3817   1.647   3.991   0.034  2.1162 -0.3706  1.8384
  248MPD1    H1 3818   1.783   4.391  17.702 -1.8163 -0.2383  1.4863
  248MPD1    H2 3819   1.873   4.087  17.421  1.1538  1.8760  0.3573
  248MPD1    H3 3820   1.877   4.319  17.495  1.6183 -0.5770  0.7021
  248MPD1     N 3821   1.608   4.225   0.118 -0.5863  0.0891 -0.5909
  248MPD1    H5 3822   1.560   4.145   0.157 -0.0813  0.1684  0.1982
  248MPD1    N1 3823   1.736   3.879  17.543  0.0918 -0.1610  0.0788
  248MPD1    H6 3824   1.705   3.820  17.619  1.8412 -1.2510 -0.0682
  248MPD1    H7 3825   1.814   3.834  17.497  0.7996  0.4558  0.6694
  249MPD1     C 3826   2.720   3.590  10.280  0.0986  0.0319  0.0511
  249MPD1    C1 3827   2.668   3.669  10.384  0.4236 -0.9742 -0.3313
  249MPD1    C2 3828   2.555   3.619  10.441 -0.0182 -0.1644  0.2005
  249MPD1    C3 3829   2.504   3.493  10.398  0.1775 -0.3883 -0.6874
  249MPD1    C4 3830   2.560   3.420  10.293  0.3308 -0.5234  0.2512
  249MPD1    C5 3831   2.671   3.469  10.245 -0.3650  0.2029 -0.5831
  249MPD1     H 3832   2.510   3.663  10.529 -0.0900 -0.4572  0.3093
  249MPD1    H1 3833   2.514   3.328  10.259  1.2371 -0.8895  0.0142
  249MPD1    H2 3834   2.815   3.618  10.236 -0.8663 -0.8157 -2.5375
  249MPD1    H3 3835   2.722   3.418  10.163  0.1958  0.0853 -0.1620
  249MPD1     N 3836   2.387   3.451  10.466  0.1100  0.1070  0.0492
  249MPD1    H5 3837   2.356   3.507  10.545 -1.4087  0.6736 -0.9687
  249MPD1    N1 3838   2.738   3.778  10.436  0.6862  0.6023 -0.2070
  249MPD1    H6 3839   2.775   3.839  10.364 -2.9547  2.3006 -0.6358
  249MPD1    H7 3840   2.665   3.834  10.479  1.4443  2.2635 -1.0925
  250MPD2     C 3841   0.079   3.503  12.920 -0.0646  0.0355 -0.4813
  250MPD2    C1 3842   4.694   3.571  12.912 -0.1595 -0.1673 -0.1020
  250MPD2    C2 3843   4.581   3.494  12.928  0.5238  0.4078  0.2915
  250MPD2    C3 3844   4.582   3.358  12.929 -0.3149  1.0714 -0.0539
  250MPD2    C4 3845   4.702   3.297  12.927 -0.4796  0.1458  0.9741
  250MPD2    C5 3846   0.084   3.368  12.932  0.6802 -0.1937 -0.0558
  250MPD2     H 3847   4.485   3.544  12.926  0.2066 -0.2347 -0.3458
  250MPD2    H1 3848   4.708   3.189  12.920  3.0783  0.4971 -1.4106
  250MPD2    H2 3849   0.169   3.558  12.895  1.6558 -1.7791  1.8322
  250MPD2    H3 3850   0.178   3.317  12.948  1.0118 -0.0375 -1.5048
  250MPD2     N 3851   4.462   3.280  12.935 -0.5168 -0.0941  0.2228
  250MPD2    H5 3852   4.483   3.182  12.951 -0.3963 -0.3398 -1.4336
  250MPD2    N1 3853   4.689   3.711  12.898 -0.4819 -0.0808  0.1888
  250MPD2    H7 3854   0.049   3.746  12.900 -0.6322  0.4312 -1.3920
  251TMC3    C1 3855   4.621   3.922  12.915 -0.7001  0.5402  0.3128
  251TMC3    C2 3856   4.547   4.014  12.978 -0.4073  0.0834 -0.5563
  251TMC3    C3 3857   4.573   4.149  12.972 -0.2009 -0.4405 -0.2530
  251TMC3    C4 3858   4.727   3.969  12.836 -0.1780 -0.3506 -0.2357
  251TMC3    C5 3859   0.019   4.097  12.825  0.2917 -0.4020  0.8026
  251TMC3    C6 3860   4.686   4.188  12.903  0.4661  0.4623  0.3879
  251TMC3     C 3861   4.578   3.786  12.914  0.6005 -0.8879  0.4335
  251TMC3     O 3862   4.469   3.761  12.969 -0.0580 -0.0638  0.6156
  251TMC3     H 3863   4.450   3.984  13.015 -0.6414 -1.4082 -2.3850
  251TMC3    H1 3864   0.043   3.898  12.772 -1.3079 -0.5939 -0.8644
  251TMC3    H2 3865   4.726   4.288  12.913  0.2559  0.4641  1.1813
  251TMC3    C7 3866   0.153   4.136  12.792  0.2310  0.4798  0.3111
  251TMC3    C8 3867   4.473   4.237  13.018 -0.5966  0.1805 -0.4683
  251TMC3    O1 3868   0.241   4.049  12.809  0.9563  0.3585 -0.3408
  251TMC3    O2 3869   4.387   4.193  13.092  0.3726  0.5685  0.3882
  252TMC3    C1 3870   4.017   4.230   8.937 -0.1521  0.3298  0.0540
  252TMC3    C2 3871   4.151   4.256   8.913 -0.3177 -0.2653  1.0664
  252TMC3    C3 3872   4.251   4.236   9.010 -0.2366 -0.1829 -0.2182
  252TMC3    C4 3873   3.978   4.168   9.045  0.4759 -0.1064  0.0112
  252TMC3    C5 3874   4.080   4.129   9.136 -0.5949 -0.4842 -0.3351
  252TMC3    C6 3875   4.218   4.163   9.120 -0.1222 -0.3382  0.3030
  252TMC3     C 3876   3.914   4.274   8.852 -0.0813  0.0839 -0.1291
  252TMC3     O 3877   3.799   4.265   8.894 -0.0218  0.2311 -0.0192
  252TMC3     H 3878   4.180   4.321   8.832 -0.1942 -1.5703  0.0593
  252TMC3    H1 3879   3.873   4.148   9.065  0.6165  0.1700  1.0114
  252TMC3    H2 3880   4.296   4.119   9.181 -0.1475 -0.4843  0.2301
  252TMC3    C7 3881   4.046   4.015   9.227 -0.3922  0.7057 -0.0574
  252TMC3    C8 3882   4.374   4.310   9.005  1.2731  0.7723  0.5439
  252TMC3    O1 3883   3.945   3.952   9.197  0.4545 -0.0130  0.3973
  252TMC3    O2 3884   4.384   4.405   8.926 -0.0647  0.4007  0.3684
  253MPD2     C 3885   1.666   3.856  14.879  0.9671 -0.3068  0.1704
  253MPD2    C1 3886   1.529   3.838  14.892  0.0311  0.0092  0.5082
  253MPD2    C2 3887   1.481   3.766  14.997  0.0739  0.0019 -0.5407
  253MPD2    C3 3888   1.564   3.703  15.092 -0.8691 -0.0932  0.3883
  253MPD2    C4 3889   1.698   3.738  15.083  0.2732  0.0428  0.4071
  253MPD2    C5 3890   1.749   3.804  14.974  0.0936  0.1081 -0.2112
  253MPD2     H 3891   1.374   3.754  14.988 -0.4031  3.4505  0.2525
  253MPD2    H1 3892   1.771   3.700  15.153  1.4810  0.9353 -0.3624
  253MPD2    H2 3893   1.706   3.915  14.797  1.5427  0.7019  1.1603
  253MPD2    H3 3894   1.856   3.825  14.973  0.3522 -1.2301 -0.5256
  253MPD2     N 3895   1.515   3.649  15.214  0.0626  0.3153 -0.4866
  253MPD2    H5 3896   1.582   3.622  15.286 -1.2174  2.1106  1.3983
  253MPD2    N1 3897   1.436   3.893  14.803 -0.1708  0.6715  0.0589
  253MPD2    H7 3898   1.338   3.877  14.823  0.3773 -0.7642  1.5502
  254TMC3    C1 3899   1.359   3.642  15.398  0.0227  0.4077  0.0048
  254TMC3    C2 3900   1.246   3.706  15.449  0.0183  0.0789  0.2626
  254TMC3    C3 3901   1.206   3.680  15.582 -0.6612 -0.3479 -1.2955
  254TMC3    C4 3902   1.427   3.557  15.481 -0.5077 -0.2140  0.0117
  254TMC3    C5 3903   1.383   3.540  15.608 -0.3368  0.1081  0.0718
  254TMC3    C6 3904   1.274   3.599  15.661  0.0573  0.2884 -0.7691
  254TMC3     C 3905   1.385   3.656  15.256 -0.3824 -0.5919  0.0726
  254TMC3     O 3906   1.287   3.688  15.193 -0.0957  0.3160 -0.3113
  254TMC3     H 3907   1.187   3.770  15.385 -1.4265 -0.1074  1.4175
  254TMC3    H1 3908   1.515   3.508  15.440 -2.2424 -1.7486 -1.8705
  254TMC3    H2 3909   1.243   3.567  15.760  0.7488  1.3871 -0.1904
  254TMC3    C7 3910   1.463   3.457  15.705 -0.2705 -0.1622  1.1635
  254TMC3    C8 3911   1.105   3.751  15.664  0.2843 -0.0360 -0.0823
  254TMC3    O1 3912   1.420   3.432  15.818  0.2990  0.0562 -0.8402
  254TMC3    O2 3913   1.106   3.753  15.787 -0.1807  0.1180  0.1097
  255MPD2     C 3914   3.427   2.594  10.795 -0.3140  0.0155 -0.0208
  255MPD2    C1 3915   3.367   2.479  10.745  0.3609  0.5659 -0.0592
  255MPD2    C2 3916   3.396   2.351  10.791  0.0234 -0.0747 -0.3729
  255MPD2    C3 3917   3.480   2.333  10.895  0.2601 -0.4080 -0.2062
  255MPD2    C4 3918   3.540   2.448  10.946 -0.0574  0.3971 -0.4187
  255MPD2    C5 3919   3.520   2.572  10.890 -0.7266 -0.1080 -0.1937
  255MPD2     H 3920   3.348   2.261  10.754  2.3069 -1.0770 -0.9183
  255MPD2    H1 3921   3.603   2.441  11.033  0.3719  2.6721 -0.5533
  255MPD2    H2 3922   3.397   2.697  10.775  3.7384  1.2468  0.2887
  255MPD2    H3 3923   3.570   2.658  10.933 -0.9334  0.7258 -1.6139
  255MPD2     N 3924   3.506   2.205  10.942 -0.4150 -0.1803 -0.3746
  255MPD2    H5 3925   3.450   2.133  10.896 -1.5341  0.8986 -0.7230
  255MPD2    N1 3926   3.267   2.497  10.642 -0.3712  0.4765 -0.0192
  255MPD2    H7 3927   3.247   2.592  10.613  2.1030  0.8100 -0.6267
  256TMC3    C1 3928   3.156   2.431  10.447  0.3057 -0.2538  0.3946
  256TMC3    C2 3929   3.210   2.552  10.397 -0.0637 -0.7029  0.1747
  256TMC3    C3 3930   3.246   2.546  10.265  0.5117 -0.2880 -0.3514
  256TMC3    C4 3931   3.113   2.331  10.365 -0.1953  0.2315 -0.0192
  256TMC3    C5 3932   3.138   2.337  10.230 -0.5736  0.6556 -0.6470
  256TMC3    C6 3933   3.214   2.445  10.186  0.1740 -0.3723  0.5139
  256TMC3     C 3934   3.193   2.394  10.583  0.1726  1.2466 -0.2287
  256TMC3     O 3935   3.162   2.287  10.634 -0.6906  0.5336 -0.4204
  256TMC3     H 3936   3.223   2.648  10.446  2.9016 -1.2247  0.4023
  256TMC3    H1 3937   3.057   2.245  10.401  0.6756 -0.7080 -0.8847
  256TMC3    H2 3938   3.242   2.448  10.081  2.3704 -0.1174  1.1110
  256TMC3    C7 3939   3.118   2.219  10.149  0.5973 -0.2431  0.3378
  256TMC3    C8 3940   3.345   2.644  10.218  0.1137 -0.6054  0.0766
  256TMC3    O1 3941   3.111   2.120  10.216 -0.4180  0.2447  0.5738
  256TMC3    O2 3942   3.348   2.754  10.267  0.0923 -0.3291  0.2171
  257MPD2     C 3943   3.120   4.014  13.023 -0.3026 -0.4670  0.6363
  257MPD2    C1 3944   3.146   3.909  12.945  0.5643  0.5597  0.0877
  257MPD2    C2 3945   3.171   3.784  13.000  0.8314 -0.1387  0.3197
  257MPD2    C3 3946   3.156   3.764  13.135  0.0964 -0.4432 -0.2546
  257MPD2    C4 3947   3.118   3.869  13.211 -0.1988  0.3816 -0.2342
  257MPD2    C5 3948   3.109   3.989  13.156 -0.0796 -0.6088 -0.2679
  257MPD2     H 3949   3.213   3.700  12.945  0.3108 -1.3213  1.7105
  257MPD2    H1 3950   3.096   3.857  13.316  3.0186 -0.8157  0.3054
  257MPD2    H2 3951   3.124   4.117  12.990  0.1747 -0.5090  0.5659
  257MPD2    H3 3952   3.092   4.071  13.225  0.7213  0.8441 -1.7996
  257MPD2     N 3953   3.174   3.627  13.192 -0.0310  0.1869  0.1822
  257MPD2    H5 3954   3.175   3.553  13.124 -1.9905  1.1939 -0.9498
  257MPD2    N1 3955   3.167   3.935  12.806 -0.2673  0.5641 -0.1861
  257MPD2    H7 3956   3.160   4.032  12.775 -2.6335 -0.1201 -1.7615
  258TMC3    C1 3957   3.229   3.478  13.375 -0.0110 -0.0900  0.1047
  258TMC3    C2 3958   3.241   3.381  13.281 -0.5679  0.1105 -0.8525
  258TMC3    C3 3959   3.325   3.279  13.303 -0.0034 -0.7369 -0.0886
  258TMC3    C4 3960   3.281   3.471  13.503 -0.7771  0.0696  0.6864
  258TMC3    C5 3961   3.374   3.370  13.515  0.2524  0.0134 -0.3720
  258TMC3    C6 3962   3.396   3.274  13.419 -0.4182 -0.0344  0.1194
  258TMC3     C 3963   3.185   3.604  13.327  0.3934  0.1302 -0.4965
  258TMC3     O 3964   3.178   3.688  13.421  0.3078 -0.6820 -0.4236
  258TMC3     H 3965   3.170   3.369  13.200 -0.7589 -1.2889 -0.4868
  258TMC3    H1 3966   3.263   3.545  13.581  0.2429  2.6815 -1.5444
  258TMC3    H2 3967   3.466   3.191  13.430 -0.1993 -0.0691 -1.5841
  258TMC3    C7 3968   3.444   3.372  13.644 -0.0477  0.5184 -0.6775
  258TMC3    C8 3969   3.331   3.181  13.192 -0.2548 -0.1172 -0.9283
  258TMC3    O1 3970   3.405   3.439  13.741 -1.1468  0.6246 -0.1208
  258TMC3    O2 3971   3.266   3.205  13.089 -0.3087  0.1109 -0.0978
  259MPD2     C 3972   2.042   0.340   0.992  0.3095  0.4024  0.6699
  259MPD2    C1 3973   2.115   0.226   0.994  0.7195  0.4805 -0.6238
  259MPD2    C2 3974   2.187   0.185   0.876  0.0082  0.4544  0.1429
  259MPD2    C3 3975   2.171   0.254   0.756 -0.1123  0.5298  0.4763
  259MPD2    C4 3976   2.094   0.370   0.762 -0.0682 -0.9197 -0.6549
  259MPD2    C5 3977   2.030   0.412   0.876 -0.3957 -0.4679  0.4509
  259MPD2     H 3978   2.246   0.094   0.879 -1.9279 -0.6758  3.0017
  259MPD2    H1 3979   2.078   0.431   0.675 -1.1125  0.0378  0.2028
  259MPD2    H2 3980   1.973   0.355   1.074 -0.7117 -0.9030  0.0448
  259MPD2    H3 3981   1.965   0.498   0.867  0.2976  0.2192  1.8022
  259MPD2     N 3982   2.222   0.198   0.637  0.6127 -0.2257 -0.1213
  259MPD2    H5 3983   2.284   0.117   0.635  1.5834  0.4707  2.2359
  259MPD2    N1 3984   2.119   0.165   1.117 -0.0270  0.1613  0.3795
  259MPD2    H7 3985   2.074   0.212   1.195  0.4243  1.6484 -0.2382
  260TMC3    C1 3986   2.215   0.145   0.408 -0.8778  0.0310  0.2766
  260TMC3    C2 3987   2.233   0.193   0.279  0.1088  0.1683 -0.3915
  260TMC3    C3 3988   2.271   0.103   0.186  0.3322 -0.1229 -0.4099
  260TMC3    C4 3989   2.220   0.013   0.446 -0.2856 -0.2943  0.6804
  260TMC3    C5 3990   2.240   4.664   0.348  0.8544 -0.1247  0.1960
  260TMC3    C6 3991   2.267   4.704   0.218  0.3297 -0.4328  0.4764
  260TMC3     C 3992   2.172   0.235   0.507 -0.5286 -0.2936  0.7340
  260TMC3     O 3993   2.101   0.329   0.464  0.0280  0.2942  0.0684
  260TMC3     H 3994   2.222   0.297   0.251 -0.6079 -0.1161 -1.1519
  260TMC3    H1 3995   2.224   4.720   0.550  0.9037 -2.6971 -0.0228
  260TMC3    H2 3996   2.272   4.626   0.143  2.2856  0.0057  0.1666
  260TMC3    C7 3997   2.239   4.528   0.378  0.0521  0.4636 -0.1405
  260TMC3    C8 3998   2.332   0.147   0.067  0.4388  0.1857 -0.3613
  260TMC3    O1 3999   2.327   4.460   0.318  0.3935 -0.0069  0.5776
  260TMC3    O2 4000   2.294   0.252   0.016 -0.7011  0.4651 -0.3464
  261MPD2     C 4001   3.797   3.261  12.524  0.2160  0.9054  0.5613
  261MPD2    C1 4002   3.906   3.327  12.581 -1.0505  0.4069 -0.3371
  261MPD2    C2 4003   3.960   3.439  12.516  0.8256  0.1801 -2.0885
  261MPD2    C3 4004   3.905   3.479  12.392 -0.0853  1.0912  0.7469
  261MPD2    C4 4005   3.802   3.404  12.330 -0.2410 -0.7143 -0.0371
  261MPD2    C5 4006   3.759   3.290  12.397 -0.8339 -1.0258 -0.7095
  261MPD2     H 4007   4.052   3.487  12.548 -1.3769  2.2481  1.1026
  261MPD2    H1 4008   3.765   3.417  12.229 -0.9273  0.5164  0.3762
  261MPD2    H2 4009   3.746   3.178  12.572 -1.3847  1.8942  0.5676
  261MPD2    H3 4010   3.682   3.230  12.350 -0.3877 -0.8161 -1.7044
  261MPD2     N 4011   3.961   3.595  12.334 -0.3923  0.5450  0.1696
  261MPD2    H5 4012   4.040   3.644  12.373 -0.9051  3.5998 -2.6681
  261MPD2    N1 4013   3.960   3.284  12.706  0.0453  0.8486  0.0207
  261MPD2    H7 4014   4.034   3.338  12.751 -0.4279  0.5186  1.1752
  262TMC3    C1 4015   3.975   3.773  12.190 -0.1386  0.2065 -0.3348
  262TMC3    C2 4016   3.900   3.856  12.107  0.0461 -0.2349  0.1671
  262TMC3    C3 4017   3.969   3.947  12.034  0.3708  0.1188  0.2893
  262TMC3    C4 4018   4.111   3.771  12.190 -0.1935  0.5016  0.0996
  262TMC3    C5 4019   4.174   3.852  12.102  0.2135  0.0224  0.1483
  262TMC3    C6 4020   4.112   3.948  12.028 -0.2337  0.4492  0.6233
  262TMC3     C 4021   3.906   3.657  12.223 -0.1629 -0.2189  0.1828
  262TMC3     O 4022   3.809   3.633  12.147 -0.4748  0.3237  0.1259
  262TMC3     H 4023   3.793   3.864  12.096  0.3852  0.0253 -3.1087
  262TMC3    H1 4024   4.170   3.695  12.240  0.2083 -0.4643 -1.8430
  262TMC3    H2 4025   4.166   4.018  11.965 -0.4348 -2.0355 -2.3504
  262TMC3    C7 4026   4.275   3.780  12.021  0.4763 -0.1018 -0.3077
  262TMC3    C8 4027   3.906   4.036  11.943  0.0620 -0.1461 -0.3405
  262TMC3    O1 4028   4.336   3.694  12.082 -0.1169  0.3227  0.3620
  262TMC3    O2 4029   3.974   4.075  11.849  0.0572  0.4701  0.1218
  263MPD2     C 4030   4.536   2.295  11.197 -0.1331 -0.2030 -0.1566
  263MPD2    C1 4031   4.664   2.308  11.166 -0.0733  0.5284 -0.5205
  263MPD2    C2 4032   4.704   2.374  11.053 -0.1221  0.4391 -0.4782
  263MPD2    C3 4033   4.626   2.469  10.997 -0.5092  0.1515 -0.2135
  263MPD2    C4 4034   4.491   2.457  11.023 -0.1004  0.1504  0.2426
  263MPD2    C5 4035   4.445   2.368  11.120 -0.8138  0.2068  0.1567
  263MPD2     H 4036   0.073   2.371  11.021  0.6869 -1.6135  2.3745
  263MPD2    H1 4037   4.422   2.522  10.970  2.1161  1.4516 -1.0359
  263MPD2    H2 4038   4.490   2.237  11.276  0.3835  1.7661  1.5904
  263MPD2    H3 4039   4.340   2.359  11.144 -0.7060 -1.3944  0.0518
  263MPD2     N 4040   4.681   2.568  10.915 -0.7097 -0.6089 -0.3491
  263MPD2    H5 4041   0.043   2.567  10.884 -0.1009 -0.7552  1.5232
  263MPD2    N1 4042   0.034   2.247  11.237  0.0214 -0.6602  0.2207
  263MPD2    H7 4043   0.125   2.256  11.194  0.7098 -2.5893  1.2620
  264TMC3    C1 4044   4.688   2.778  10.799 -0.0538  0.6490 -0.0812
  264TMC3    C2 4045   4.692   2.908  10.834  0.2035  0.7287  0.9346
  264TMC3    C3 4046   0.040   2.992  10.761 -0.1867 -0.7117 -0.3346
  264TMC3    C4 4047   0.015   2.726  10.694 -0.0737  0.3455  0.0541
  264TMC3    C5 4048   0.105   2.799  10.629  0.7537  0.5633  0.4321
  264TMC3    C6 4049   0.113   2.936  10.654  0.2044  0.1501 -0.1803
  264TMC3     C 4050   4.612   2.687  10.888 -0.5517  0.8518 -0.6593
  264TMC3     O 4051   4.521   2.738  10.953 -0.9707  0.1466 -0.0257
  264TMC3     H 4052   4.650   2.923  10.933 -1.4729 -2.7301  0.7313
  264TMC3    H1 4053   4.734   2.621  10.671 -4.0329  1.1573 -1.1406
  264TMC3    H2 4054   0.177   3.001  10.597  0.9970 -1.3966 -1.0660
  264TMC3    C7 4055   0.175   2.755  10.512 -0.1041 -0.0864  0.5945
  264TMC3    C8 4056   0.101   3.106  10.820  0.8203  0.0516  0.4061
  264TMC3    O1 4057   0.274   2.815  10.477 -0.3088 -0.1330  0.6889
  264TMC3    O2 4058   0.200   3.153  10.766  0.2209  0.3050 -0.0472
  265MPD2     C 4059   2.508   3.195  15.117 -0.0127  0.2198  0.3569
  265MPD2    C1 4060   2.485   3.315  15.050  0.3508  0.2389  0.2496
  265MPD2    C2 4061   2.534   3.324  14.925 -0.2071  0.6459 -0.0979
  265MPD2    C3 4062   2.601   3.221  14.868 -0.0674 -0.4663  0.4482
  265MPD2    C4 4063   2.618   3.104  14.929  0.2437 -0.5760  0.8745
  265MPD2    C5 4064   2.563   3.091  15.054  0.2026 -0.4703  0.7000
  265MPD2     H 4065   2.516   3.420  14.877 -1.3304  0.5867  0.1873
  265MPD2    H1 4066   2.667   3.015  14.892  1.8301  1.9825 -3.0993
  265MPD2    H2 4067   2.474   3.184  15.219 -3.3708 -0.4015 -0.8451
  265MPD2    H3 4068   2.569   2.994  15.102 -0.8641  0.3111  2.4310
  265MPD2     N 4069   2.658   3.234  14.741  0.2946 -0.3802 -0.4228
  265MPD2    H5 4070   2.705   3.147  14.716  1.1606  0.1474 -0.6296
  265MPD2    N1 4071   2.427   3.429  15.109 -0.1720 -0.8091 -0.0355
  265MPD2    H7 4072   2.402   3.508  15.050  1.1990  0.0674  0.5627
  266TMC3    C1 4073   2.335   3.556  15.291  1.1121 -0.5762 -0.3362
  266TMC3    C2 4074   2.271   3.531  15.409 -0.2246  0.0584  0.1518
  266TMC3    C3 4075   2.192   3.634  15.456 -0.3690 -0.2275 -0.0324
  266TMC3    C4 4076   2.295   3.654  15.204  0.0619  0.0043  0.3236
  266TMC3    C5 4077   2.210   3.745  15.250  0.3715 -0.5329 -0.0798
  266TMC3    C6 4078   2.159   3.744  15.378  0.0358 -0.1431  0.0690
  266TMC3     C 4079   2.409   3.437  15.246 -0.3817  0.2019  0.1567
  266TMC3     O 4080   2.442   3.366  15.337  0.0754  0.4295  0.0386
  266TMC3     H 4081   2.302   3.456  15.482 -0.1953 -0.5435 -0.4785
  266TMC3    H1 4082   2.344   3.662  15.107  0.1929 -0.4502  0.3511
  266TMC3    H2 4083   2.082   3.816  15.407  0.8765  0.8588 -0.2004
  266TMC3    C7 4084   2.168   3.851  15.156  0.1463  0.1489 -0.3032
  266TMC3    C8 4085   2.110   3.610  15.572  0.8664  0.3704 -0.5259
  266TMC3    O1 4086   2.193   3.831  15.038 -0.4465  0.1585 -0.0593
  266TMC3    O2 4087   2.102   3.500  15.620 -0.1055 -0.3419 -0.1234
  267MPD2     C 4088   0.340   0.913  17.695  0.0333 -0.3894  0.3310
  267MPD2    C1 4089   0.365   0.789  17.642 -0.1212  0.5019  0.0023
  267MPD2    C2 4090   0.272   0.725  17.564 -0.1960 -0.2422 -0.2462
  267MPD2    C3 4091   0.156   0.796  17.534 -0.1022  0.3045  0.5755
  267MPD2    C4 4092   0.141   0.932  17.561 -0.5420 -0.2735  0.0526
  267MPD2    C5 4093   0.231   0.989  17.646 -0.3051  0.0111 -0.4636
  267MPD2     H 4094   0.281   0.619  17.545  0.8160 -0.3332  0.8171
  267MPD2    H1 4095   0.062   1.000  17.531 -1.1167 -1.3180 -0.7968
  267MPD2    H2 4096   0.413   0.970   0.012  0.2136 -0.2827 -0.0155
  267MPD2    H3 4097   0.220   1.093  17.675  0.5474  0.7940 -2.9262
  267MPD2     N 4098   0.046   0.742  17.465  0.9350 -0.3600  0.3569
  267MPD2    H5 4099   4.709   0.813  17.451 -1.2252 -2.5183  0.3945
  267MPD2    N1 4100   0.489   0.723  17.674 -0.5278 -0.5704 -0.5316
  267MPD2    H7 4101   0.552   0.768   0.002 -1.0794 -0.8461  0.1928
  268TMC3    C1 4102   0.632   0.535  17.692 -0.4147 -0.2351 -0.4830
  268TMC3    C2 4103   0.684   0.438  17.607 -0.9491  0.3267 -0.1154
  268TMC3    C3 4104   0.703   0.313  17.651  0.6299  0.5190  0.1363
  268TMC3    C4 4105   0.592   0.507   0.078 -0.3371  0.1688  0.8733
  268TMC3    C5 4106   0.617   0.380   0.124 -0.5566 -0.0399 -0.6369
  268TMC3    C6 4107   0.666   0.282   0.044  0.4502 -0.0729  0.4666
  268TMC3     C 4108   0.536   0.607  17.613 -0.5199  0.2487  0.0935
  268TMC3     O 4109   0.498   0.551  17.512  0.6322  0.1465  0.0082
  268TMC3     H 4110   0.696   0.469  17.504  1.7373  1.1904  0.4395
  268TMC3    H1 4111   0.534   0.576   0.138 -1.1304 -0.1227  0.4328
  268TMC3    H2 4112   0.687   0.183   0.083  3.9063  0.1255 -0.9122
  268TMC3    C7 4113   0.580   0.333   0.260  0.1827 -0.1479 -0.6166
  268TMC3    C8 4114   0.653   0.213  17.562  0.2821  0.3215  0.6260
  268TMC3    O1 4115   0.541   0.218   0.268 -0.5717 -0.2312  0.7131
  268TMC3    O2 4116   0.675   0.097  17.586 -0.1030 -0.0589 -0.1786
  269MPD2     C 4117   0.553   4.150  15.266 -0.2021  0.4446  0.0475
  269MPD2    C1 4118   0.423   4.126  15.307 -0.6799 -0.3962  0.3710
  269MPD2    C2 4119   0.350   4.233  15.347 -0.2067  0.2278  0.2352
  269MPD2    C3 4120   0.402   4.365  15.333  0.0454 -0.0247 -0.1102
  269MPD2    C4 4121   0.530   4.380  15.300 -0.1213 -0.1583 -0.7003
  269MPD2    C5 4122   0.604   4.268  15.261  0.4689  0.4222 -0.6811
  269MPD2     H 4123   0.244   4.240  15.367 -0.1498  1.4305  0.1373
  269MPD2    H1 4124   0.575   4.478  15.295 -0.4429  0.0812  0.9866
  269MPD2    H2 4125   0.619   4.068  15.238 -1.0512  0.4081 -1.8560
  269MPD2    H3 4126   0.705   4.275  15.221  1.1596  0.3688  1.0705
  269MPD2     N 4127   0.315   4.473  15.331 -0.3179  0.1934  0.1131
  269MPD2    H5 4128   0.219   4.443  15.345 -0.0198 -0.6421  0.3810
  269MPD2    N1 4129   0.370   3.991  15.313  0.2663 -0.4376  0.3739
  269MPD2    H7 4130   0.436   3.918  15.289  0.1299 -0.5232  0.2573
  270TMC3    C1 4131   0.211   3.810  15.345 -0.5418 -0.2606  0.1246
  270TMC3    C2 4132   0.089   3.778  15.288 -0.4680 -0.3712 -0.6284
  270TMC3    C3 4133   0.081   3.661  15.220  0.2298 -0.0003 -0.5686
  270TMC3    C4 4134   0.319   3.723  15.333 -0.0972 -0.1263  0.3094
  270TMC3    C5 4135   0.308   3.611  15.256  0.1252 -0.4037 -0.0638
  270TMC3    C6 4136   0.188   3.573  15.202  0.2590 -0.0336  0.6981
  270TMC3     C 4137   0.242   3.952  15.348  0.4953  0.2364 -0.0873
  270TMC3     O 4138   0.140   4.019  15.365  1.4173 -0.3556  0.1765
  270TMC3     H 4139   0.016   3.855  15.265 -0.3707  0.5326  2.0992
  270TMC3    H1 4140   0.418   3.748  15.369 -0.0919  1.0262 -0.5269
  270TMC3    H2 4141   0.168   3.469  15.177  0.5257 -0.3344  1.7209
  270TMC3    C7 4142   0.431   3.543  15.218  0.0053 -0.5053 -1.0085
  270TMC3    C8 4143   4.729   3.663  15.108  0.2419  0.4960 -0.3610
  270TMC3    O1 4144   0.531   3.560  15.287  0.7423  0.3537  0.7436
  270TMC3    O2 4145   4.612   3.692  15.130 -0.2465  0.4269 -0.0627
  271MPD2     C 4146   4.080   3.699  13.441 -0.2101  0.6780 -0.1471
  271MPD2    C1 4147   4.085   3.756  13.567  0.2306  0.1346 -0.6738
  271MPD2    C2 4148   3.979   3.839  13.597  0.3036  0.3497  0.0184
  271MPD2    C3 4149   3.878   3.875  13.508  0.5542  0.1008  0.6314
  271MPD2    C4 4150   3.880   3.816  13.382 -0.5151  0.0210  0.0422
  271MPD2    C5 4151   3.984   3.737  13.345 -0.1336  0.2762 -0.1367
  271MPD2     H 4152   3.974   3.884  13.695 -0.4809 -0.3056  0.2791
  271MPD2    H1 4153   3.812   3.842  13.302  1.6785  1.5888 -1.3143
  271MPD2    H2 4154   4.162   3.636  13.408 -0.9875  0.7133 -2.1438
  271MPD2    H3 4155   3.998   3.703  13.243 -0.8793 -0.7787  0.1134
  271MPD2     N 4156   3.772   3.964  13.533 -0.1676 -0.3431 -0.4509
  271MPD2    H5 4157   3.704   3.967  13.458  2.4545  4.5173 -2.6085
  271MPD2    N1 4158   4.185   3.750  13.666  0.5822  0.7155  0.4386
  271MPD2    H7 4159   4.188   3.817  13.742 -2.3163  0.0154  1.1743
  272TMC3    C1 4160   4.388   3.668  13.766  0.3274  0.2130  0.6537
  272TMC3    C2 4161   4.514   3.623  13.735 -0.2110 -0.2164  0.5328
  272TMC3    C3 4162   4.601   3.620  13.838  0.7582  0.5873 -0.4299
  272TMC3    C4 4163   4.348   3.711  13.886 -0.0725  0.5256  0.0237
  272TMC3    C5 4164   4.438   3.699  13.987 -0.0152 -0.4434 -0.3745
  272TMC3    C6 4165   4.568   3.660  13.966  0.9149 -0.0816  0.7387
  272TMC3     C 4166   4.291   3.657  13.661  0.3034  0.2223  0.2344
  272TMC3     O 4167   4.300   3.552  13.594  0.6270 -0.1555 -0.1099
  272TMC3     H 4168   4.535   3.605  13.630  0.3098 -0.1931  0.6362
  272TMC3    H1 4169   4.242   3.721  13.904  0.0538  2.0761 -0.0977
  272TMC3    H2 4170   4.638   3.641  14.046  1.5048  1.1635  0.5091
  272TMC3    C7 4171   4.390   3.735  14.120 -0.0598  0.4255  0.4538
  272TMC3    C8 4172   4.730   3.576  13.804  0.4726 -0.4006 -0.3224
  272TMC3    O1 4173   4.273   3.731  14.136 -0.0759  0.7810 -0.4738
  272TMC3    O2 4174   0.024   3.592  13.689  0.7536  0.0808  0.1699
  273MPD2     C 4175   0.356   1.482  11.465  0.0443 -0.3728 -0.8832
  273MPD2    C1 4176   0.418   1.589  11.393 -0.0285 -0.5879  0.3279
  273MPD2    C2 4177   0.398   1.589  11.252 -0.1369 -0.3181 -0.4857
  273MPD2    C3 4178   0.327   1.493  11.188  0.1281  0.1957 -0.4011
  273MPD2    C4 4179   0.270   1.390  11.265  0.0500  0.6481 -0.2882
  273MPD2    C5 4180   0.281   1.386  11.400  0.5987 -0.7830  0.1327
  273MPD2     H 4181   0.429   1.681  11.203  3.0270 -0.1832  1.8028
  273MPD2    H1 4182   0.219   1.301  11.230  0.0490  0.8688 -0.8375
  273MPD2    H2 4183   0.370   1.460  11.570 -0.9719 -0.9290 -0.8677
  273MPD2    H3 4184   0.243   1.298  11.451 -0.7250  0.0642  0.5979
  273MPD2     N 4185   0.306   1.513  11.048  0.3148  0.1666 -0.1077
  273MPD2    H5 4186   0.350   1.592  11.003  2.3296 -0.5727  0.5381
  273MPD2    N1 4187   0.505   1.684  11.463  0.0579  0.3520 -0.1834
  273MPD2    H7 4188   0.550   1.753  11.403 -1.0045  1.7874  0.6731
  274TMC3    C1 4189   0.187   1.506  10.833  0.7476 -0.1950 -0.3006
  274TMC3    C2 4190   0.062   1.527  10.789 -0.2999  1.0887  0.2050
  274TMC3    C3 4191   0.036   1.635  10.713  0.2812  1.0673  0.1185
  274TMC3    C4 4192   0.297   1.579  10.795  0.0684 -0.8387 -1.1517
  274TMC3    C5 4193   0.257   1.692  10.720  0.0374 -0.9717  0.7265
  274TMC3    C6 4194   0.135   1.712  10.668 -0.0190  0.2282  0.8872
  274TMC3     C 4195   0.205   1.459  10.975  0.0768  0.1471 -1.0580
  274TMC3     O 4196   0.118   1.382  11.006 -0.5263  0.1333  0.1828
  274TMC3     H 4197   4.716   1.463  10.822 -0.9141  0.3047 -2.8028
  274TMC3    H1 4198   0.395   1.540  10.819  0.3157  0.2033 -0.4330
  274TMC3    H2 4199   0.114   1.816  10.643  0.2976 -0.2264 -1.2440
  274TMC3    C7 4200   0.324   1.808  10.763  0.5726 -1.3703  0.7608
  274TMC3    C8 4201   4.643   1.676  10.678 -0.1476 -0.0570 -0.0005
  274TMC3    O1 4202   0.264   1.916  10.775 -0.2188 -0.0579 -0.2918
  274TMC3    O2 4203   4.551   1.623  10.744  0.0149 -0.7748 -0.1580
  275MPD2     C 4204   1.041   0.306  13.898 -0.7452 -0.6127  0.6421
  275MPD2    C1 4205   1.012   0.245  14.022  0.6001  0.7188  0.4864
  275MPD2    C2 4206   0.947   0.121  14.031 -0.1269 -0.3762  0.0827
  275MPD2    C3 4207   0.914   0.066  13.914  0.2267 -0.1771  0.2068
  275MPD2    C4 4208   0.945   0.125  13.792 -0.8786 -1.1192  0.1993
  275MPD2    C5 4209   1.020   0.239  13.781 -0.5621  0.1803 -0.1637
  275MPD2     H 4210   0.924   0.072  14.125  2.6023 -0.3467  0.7751
  275MPD2    H1 4211   0.907   0.090  13.697 -2.9273 -0.8990  0.9266
  275MPD2    H2 4212   1.088   0.403  13.901 -0.6778 -0.6797  1.7436
  275MPD2    H3 4213   1.053   0.273  13.683 -0.2238  1.5429  0.4251
  275MPD2     N 4214   0.859   4.673  13.912 -0.2189 -0.9435 -0.1270
  275MPD2    H5 4215   0.804   4.655  13.829  1.6790  1.4264 -1.8861
  275MPD2    N1 4216   1.027   0.310  14.146  0.7635 -0.1721  0.4042
  275MPD2    H7 4217   1.004   0.254  14.228 -1.5491  0.9181  0.4714
  276TMC3    C1 4218   1.088   0.461  14.313 -0.6621 -0.7718  0.2806
  276TMC3    C2 4219   1.067   0.360  14.410 -0.1145  0.1382 -0.3861
  276TMC3    C3 4220   1.062   0.397  14.542  0.5829 -0.5170 -0.1654
  276TMC3    C4 4221   1.120   0.594  14.341 -0.2293  0.7494  0.9940
  276TMC3    C5 4222   1.132   0.615  14.480 -0.0832  0.0898 -0.0904
  276TMC3    C6 4223   1.093   0.523  14.580 -0.1192  0.8946 -0.1875
  276TMC3     C 4224   1.069   0.439  14.168 -0.2342 -0.8218 -0.0511
  276TMC3     O 4225   1.087   0.533  14.093 -0.1034 -0.5342 -0.2515
  276TMC3     H 4226   1.072   0.258  14.374 -0.3531 -0.5197  1.4525
  276TMC3    H1 4227   1.125   0.673  14.268  0.1875 -0.3644 -0.1778
  276TMC3    H2 4228   1.106   0.547  14.685  0.0112  2.6255 -0.5920
  276TMC3    C7 4229   1.201   0.724  14.532  0.4247  0.0536  0.1814
  276TMC3    C8 4230   1.072   0.294  14.654  0.3500 -0.2255  0.1812
  276TMC3    O1 4231   1.214   0.722  14.655 -0.1156  0.4406 -0.4754
  276TMC3    O2 4232   1.062   0.334  14.767  0.8985  0.1013 -0.0179
  277MPD2     C 4233   2.696   3.993  13.005  0.2901 -0.3387 -0.2648
  277MPD2    C1 4234   2.564   4.005  13.036 -0.2610  0.4720  0.0455
  277MPD2    C2 4235   2.497   3.893  13.082  0.6765  0.0844 -0.1370
  277MPD2    C3 4236   2.565   3.779  13.113  0.0601 -0.2957 -0.2757
  277MPD2    C4 4237   2.700   3.774  13.102  0.4468 -0.1442  0.4381
  277MPD2    C5 4238   2.763   3.878  13.045  0.3749 -0.2770 -0.1172
  277MPD2     H 4239   2.389   3.898  13.082  0.8110  2.8724  1.8001
  277MPD2    H1 4240   2.757   3.684  13.124 -0.3664 -0.5722  0.7951
  277MPD2    H2 4241   2.753   4.076  12.964  1.9188 -0.7832  1.0932
  277MPD2    H3 4242   2.870   3.879  13.024  0.4408  1.4524  0.2622
  277MPD2     N 4243   2.485   3.673  13.166  0.0019  0.2860 -0.7277
  277MPD2    H5 4244   2.389   3.698  13.187  0.2843  0.4667  0.3170
  277MPD2    N1 4245   2.500   4.128  12.996  0.6339  0.8834  0.8315
  277MPD2    H7 4246   2.551   4.193  12.938  1.6105 -0.4664  0.1643
  278TMC3    C1 4247   2.430   3.453  13.258  0.7197  0.5149 -0.5380
  278TMC3    C2 4248   2.447   3.323  13.223  0.0199 -0.5411 -0.1767
  278TMC3    C3 4249   2.344   3.239  13.270  0.3139  0.2924  0.2112
  278TMC3    C4 4250   2.336   3.503  13.343 -0.5254  0.0445 -0.4293
  278TMC3    C5 4251   2.247   3.414  13.398  0.0511 -0.0351 -0.1253
  278TMC3    C6 4252   2.241   3.280  13.353 -0.0049 -0.8821 -0.1733
  278TMC3     C 4253   2.527   3.550  13.195  0.0086 -0.2073 -0.6056
  278TMC3     O 4254   2.624   3.499  13.145 -0.4071 -0.1248 -0.0372
  278TMC3     H 4255   2.522   3.294  13.151 -1.0742  0.6198 -1.7978
  278TMC3    H1 4256   2.341   3.609  13.363 -1.1333  0.4665 -2.5439
  278TMC3    H2 4257   2.190   3.210  13.417  0.2406  0.5763  1.6348
  278TMC3    C7 4258   2.141   3.473  13.481 -1.0360 -0.0705  0.6093
  278TMC3    C8 4259   2.368   3.097  13.264 -0.1963 -0.0137  0.2092
  278TMC3    O1 4260   2.149   3.591  13.509 -0.1908 -0.4762  0.0705
  278TMC3    O2 4261   2.479   3.067  13.225  0.1707 -0.2052 -0.6999
  279MPD2     C 4262   1.391   3.151  17.656 -0.2956  0.1539  0.8100
  279MPD2    C1 4263   1.409   3.291  17.654  0.1942  0.0376  0.2873
  279MPD2    C2 4264   1.453   3.342  17.535 -0.3259  0.1699  0.6416
  279MPD2    C3 4265   1.479   3.260  17.421 -0.2318  0.4372 -0.3145
  279MPD2    C4 4266   1.469   3.126  17.432  0.2546  0.2469 -0.1589
  279MPD2    C5 4267   1.428   3.071  17.552 -0.6687  0.4035  0.0558
  279MPD2     H 4268   1.472   3.449  17.537  2.4382 -0.2757 -1.8064
  279MPD2    H1 4269   1.492   3.060  17.350 -2.1286 -0.9042  0.0941
  279MPD2    H2 4270   1.352   3.101   0.006 -0.7417  0.5131  0.8234
  279MPD2    H3 4271   1.412   2.964  17.556  0.1303  0.2716 -0.3204
  279MPD2     N 4272   1.542   3.307  17.301  0.0076 -0.1834  0.4717
  279MPD2    H5 4273   1.588   3.240  17.240  3.1280 -0.1071  2.7091
  279MPD2    N1 4274   1.365   3.370   0.028  0.2286 -0.2926  0.4410
  279MPD2    H7 4275   1.349   3.317   0.113 -1.2742 -1.9571 -0.8884
  280TMC3    C1 4276   1.306   3.557   0.159  0.7170  0.0376 -0.0535
  280TMC3    C2 4277   1.377   3.519   0.274 -0.0356 -0.1418  0.2148
  280TMC3    C3 4278   1.420   3.624   0.358  0.1034  0.5488  0.4113
  280TMC3    C4 4279   1.283   3.695   0.139 -0.4351  0.8373  0.6059
  280TMC3    C5 4280   1.332   3.794   0.220 -0.2233 -0.0796 -0.0498
  280TMC3    C6 4281   1.406   3.756   0.323 -0.4927 -1.2151 -0.7351
  280TMC3     C 4282   1.356   3.507   0.036  0.1924 -0.1474  0.2103
  280TMC3     O 4283   1.371   3.589  17.682  0.4002  0.0560 -0.0350
  280TMC3     H 4284   1.392   3.416   0.304  0.2154  0.2511  1.4172
  280TMC3    H1 4285   1.217   3.712   0.054  1.1535  0.8442 -0.6445
  280TMC3    H2 4286   1.451   3.830   0.388  0.7991 -0.8165 -2.0678
  280TMC3    C7 4287   1.299   3.941   0.201  0.5552 -0.1848  0.5759
  280TMC3    C8 4288   1.442   3.598   0.501 -0.2286 -0.2180  0.4108
  280TMC3    O1 4289   1.343   4.014   0.292 -0.0685 -0.0937  0.4597
  280TMC3    O2 4290   1.422   3.693   0.576  0.8542 -0.4469  0.3514
  281TMC3    C1 4291   0.550   4.001  12.989  0.4588  0.1144  0.3139
  281TMC3    C2 4292   0.588   4.099  12.903 -0.5784 -0.3875  0.0598
  281TMC3    C3 4293   0.637   4.069  12.778 -0.0295  1.1024 -0.0065
  281TMC3    C4 4294   0.573   3.867  12.958  0.0079 -0.0467 -0.4382
  281TMC3    C5 4295   0.626   3.844  12.832  0.1573  0.1740  0.1297
  281TMC3    C6 4296   0.660   3.938  12.740 -0.1633 -0.1953 -0.3698
  281TMC3     C 4297   0.445   4.022  13.074  0.1163  0.8494  0.3195
  281TMC3     O 4298   0.388   3.918  13.117 -0.5365  0.5773  0.4807
  281TMC3     H 4299   0.592   4.202  12.937 -2.3243 -1.1761  2.7096
  281TMC3    H1 4300   0.562   3.795  13.038 -1.3809 -1.9065 -2.3276
  281TMC3    H2 4301   0.714   3.910  12.650  0.4390  2.7471 -0.9327
  281TMC3    C7 4302   0.685   3.715  12.805  0.4032  0.2772 -0.4237
  281TMC3    C8 4303   0.704   4.179  12.709 -0.2302  0.1616  0.3318
  281TMC3    O1 4304   0.776   3.710  12.725 -0.2362  0.1234  0.1725
  281TMC3    O2 4305   0.815   4.154  12.666  0.8470  0.0933 -0.0693
  282MPD2     C 4306   2.249   0.327  14.674  0.3470  0.4265 -0.3531
  282MPD2    C1 4307   2.192   0.452  14.654 -0.3525  0.3344 -0.1294
  282MPD2    C2 4308   2.143   0.470  14.530  0.1645 -0.8690  0.1459
  282MPD2    C3 4309   2.171   0.386  14.430  0.1794 -0.4978  0.9155
  282MPD2    C4 4310   2.221   0.260  14.451  0.8652 -0.2462  0.6710
  282MPD2    C5 4311   2.263   0.233  14.576 -0.1691 -0.5923  0.4277
  282MPD2     H 4312   2.105   0.570  14.509 -1.9275 -0.6259  5.0984
  282MPD2    H1 4313   2.236   0.189  14.371 -0.8126  0.8876 -0.6458
  282MPD2    H2 4314   2.304   0.307  14.765  1.2496 -0.2784 -1.0609
  282MPD2    H3 4315   2.327   0.149  14.599 -1.0364 -1.8399 -1.7553
  282MPD2     N 4316   2.122   0.430  14.307  0.1448  0.6004 -0.2146
  282MPD2    H5 4317   2.067   0.515  14.298 -0.5436 -0.0200 -1.9688
  282MPD2    N1 4318   2.178   0.548  14.750 -0.4222 -0.4568 -0.0295
  282MPD2    H7 4319   2.131   0.635  14.726  0.0986  0.1141  1.0357
  283TMC3    C1 4320   2.200   0.677  14.942  0.0790 -0.0664 -0.3168
  283TMC3    C2 4321   2.295   0.744  15.014  0.8604 -0.4406  0.5021
  283TMC3    C3 4322   2.251   0.854  15.079 -0.1978 -0.8005 -0.8092
  283TMC3    C4 4323   2.068   0.720  14.937 -1.2202  0.3679 -0.4416
  283TMC3    C5 4324   2.034   0.842  15.001  0.4645  0.3945 -0.2108
  283TMC3    C6 4325   2.120   0.909  15.078  0.3793 -0.4342  0.2201
  283TMC3     C 4326   2.244   0.556  14.873  0.0130 -0.2260 -0.4542
  283TMC3     O 4327   2.325   0.481  14.929  0.2740 -0.4555  0.6361
  283TMC3     H 4328   2.399   0.717  15.001  0.5217 -0.6946 -1.6810
  283TMC3    H1 4329   1.995   0.660  14.883 -1.6610  1.1468 -0.7243
  283TMC3    H2 4330   2.093   0.988  15.147 -0.5110 -0.7149  0.1953
  283TMC3    C7 4331   1.896   0.861  15.041 -0.2251 -0.6342 -0.7135
  283TMC3    C8 4332   2.353   0.953  15.094  0.0858  0.6074  0.2142
  283TMC3    O1 4333   1.883   0.912  15.151  0.0791 -0.4863 -0.3686
  283TMC3    O2 4334   2.461   0.923  15.143  0.2570  0.5403  0.3586
  284MPD2     C 4335   4.635   4.497  11.747 -0.0327  0.0253 -0.1595
  284MPD2    C1 4336   0.003   4.422  11.686 -0.7046 -0.1176 -0.6889
  284MPD2    C2 4337   0.053   4.317  11.754  0.0666 -0.1051 -0.2435
  284MPD2    C3 4338   0.021   4.294  11.889  1.0076  0.3123 -0.0570
  284MPD2    C4 4339   4.661   4.372  11.955 -0.2557  0.0954  0.7346
  284MPD2    C5 4340   4.597   4.472  11.879  0.1607  0.2222 -0.1531
  284MPD2     H 4341   0.130   4.264  11.699  0.8286 -0.9674  1.6192
  284MPD2    H1 4342   4.632   4.346  12.056  0.5007 -0.3472  0.8402
  284MPD2    H2 4343   4.564   4.562  11.698  0.7593  1.0092  0.0046
  284MPD2    H3 4344   4.518   4.533  11.921  0.4129 -0.7689  1.7657
  284MPD2     N 4345   0.094   4.203  11.973 -0.1132 -0.5580  0.0060
  284MPD2    H5 4346   0.089   4.209  12.074  2.6270 -0.0211  0.1013
  284MPD2    N1 4347   0.053   4.456  11.554 -0.3513  0.1470  0.3061
  284MPD2    H7 4348   0.130   4.403  11.514 -1.6893 -0.9014 -0.9101
  285TMC3    C1 4349   0.073   4.593  11.359  0.7617  0.3375  0.3644
  285TMC3    C2 4350   0.107   4.484  11.283  0.3951 -0.4604 -0.3995
  285TMC3    C3 4351   0.159   4.524  11.163 -0.1514  0.0735  0.7861
  285TMC3    C4 4352   0.102   4.723  11.330 -0.4986 -0.2577 -0.1906
  285TMC3    C5 4353   0.160   0.016  11.212 -0.0391 -0.1597 -1.2967
  285TMC3    C6 4354   0.182   4.654  11.125  0.0776  1.0659  0.4862
  285TMC3     C 4355   0.013   4.577  11.488 -0.1701 -0.2954  0.3222
  285TMC3     O 4356   4.670   4.661  11.529  0.5127  0.0566  0.8059
  285TMC3     H 4357   0.094   4.382  11.318 -2.8982  0.7405  1.8926
  285TMC3    H1 4358   0.089   0.059  11.410  1.6286 -0.3864  0.2604
  285TMC3    H2 4359   0.227   4.686  11.032  1.0813  0.9293  0.9217
  285TMC3    C7 4360   0.260   0.121  11.205  0.8080 -0.0399  0.2517
  285TMC3    C8 4361   0.237   4.414  11.100  0.4304 -0.1159 -0.0510
  285TMC3    O1 4362   0.271   0.177  11.101 -0.0764  0.0397 -0.5981
  285TMC3    O2 4363   0.239   4.302  11.152 -0.2785  0.2298 -0.4732
  286MPD2     C 4364   0.904   3.256   1.160  0.4923  0.4022 -0.1427
  286MPD2    C1 4365   0.877   3.196   1.042 -0.2999  0.5232 -0.1013
  286MPD2    C2 4366   0.883   3.056   1.035 -0.0497 -0.1370 -0.1034
  286MPD2    C3 4367   0.934   2.972   1.136 -0.0590 -0.0615 -0.3558
  286MPD2    C4 4368   0.971   3.037   1.256 -0.2352 -0.3074 -0.1143
  286MPD2    C5 4369   0.948   3.173   1.266 -0.1737  0.2875 -0.5083
  286MPD2     H 4370   0.850   3.006   0.944  1.4951  0.1073 -0.7925
  286MPD2    H1 4371   1.022   2.992   1.341 -0.0474  1.6438  0.7981
  286MPD2    H2 4372   0.905   3.363   1.179  1.0919  0.1997  0.9449
  286MPD2    H3 4373   0.976   3.215   1.362  1.7947  0.9480 -1.3713
  286MPD2     N 4374   0.947   2.833   1.125  0.1063 -0.2987 -0.4960
  286MPD2    H5 4375   0.999   2.784   1.197 -2.6523 -0.4861  1.4061
  286MPD2    N1 4376   0.856   3.267   0.925  0.1045 -0.3687  0.3684
  286MPD2    H7 4377   0.822   3.214   0.846  1.9432  0.5837 -1.0543
  287TMC3    C1 4378   0.975   2.620   1.004  0.5979  0.0207  0.6355
  287TMC3    C2 4379   0.984   2.568   0.880 -0.4837 -0.0317  0.0171
  287TMC3    C3 4380   1.053   2.453   0.871  0.7439 -0.2975 -0.1299
  287TMC3    C4 4381   1.023   2.560   1.118 -0.2023  0.0965 -0.8552
  287TMC3    C5 4382   1.077   2.434   1.113 -0.9129  0.3200  0.2628
  287TMC3    C6 4383   1.098   2.380   0.982 -0.9127 -0.3634  0.9152
  287TMC3     C 4384   0.905   2.752   1.018 -0.3633 -0.2636  0.1233
  287TMC3     O 4385   0.841   2.787   0.915 -0.6828 -0.6688  0.0552
  287TMC3     H 4386   0.931   2.606   0.794  0.7934 -1.1142 -1.2631
  287TMC3    H1 4387   0.984   2.598   1.212 -2.6633 -2.2902 -0.9153
  287TMC3    H2 4388   1.158   2.291   0.968  0.8428  0.5092  2.8737
  287TMC3    C7 4389   1.184   2.423   1.210  0.5168 -0.2213 -0.7662
  287TMC3    C8 4390   1.061   2.382   0.741 -0.9097  0.7021 -0.1576
  287TMC3    O1 4391   1.200   2.517   1.284  0.2993  0.3695 -0.0083
  287TMC3    O2 4392   1.061   2.260   0.751  0.2808 -0.1394 -0.9299
  288TMC3    C1 4393   2.265   3.027  14.046  0.3070 -0.3104 -0.2004
  288TMC3    C2 4394   2.287   2.974  14.168  0.3244 -0.4325  0.3775
  288TMC3    C3 4395   2.314   3.065  14.268  0.2282 -0.4776  0.4706
  288TMC3    C4 4396   2.271   3.165  14.020 -0.2252 -0.1814 -0.4710
  288TMC3    C5 4397   2.313   3.250  14.129  0.3235 -0.1891 -0.0857
  288TMC3    C6 4398   2.330   3.201  14.253 -0.0433  0.4719  0.1453
  288TMC3     C 4399   2.232   2.935  13.934 -0.3260  0.5066  0.5593
  288TMC3     O 4400   2.274   2.823  13.945  0.8254 -0.4292 -0.4280
  288TMC3     H 4401   2.279   2.866  14.181  1.3664 -0.6772 -1.1205
  288TMC3    H1 4402   2.269   3.196  13.917 -1.9903  2.6204  0.4169
  288TMC3    H2 4403   2.365   3.260  14.338  1.5419 -0.5976  0.2281
  288TMC3    C7 4404   2.390   3.363  14.104 -0.1953  0.6964  0.2976
  288TMC3    C8 4405   2.324   3.020  14.399  0.0814 -0.0555  1.1373
  288TMC3    O1 4406   2.478   3.397  14.182  0.3533  0.2626  0.2467
  288TMC3    O2 4407   2.381   3.091  14.477 -0.0991  0.0379  0.3252
  289MPD2     C 4408   2.833   2.183  14.046  0.2337 -0.0179 -0.2371
  289MPD2    C1 4409   2.801   2.310  14.006  0.0646 -0.0147 -0.7733
  289MPD2    C2 4410   2.678   2.339  13.958 -0.0428  0.1546 -0.5494
  289MPD2    C3 4411   2.592   2.239  13.943  0.3099  0.5032 -0.3957
  289MPD2    C4 4412   2.633   2.108  13.972 -0.2314  0.4515 -0.1162
  289MPD2    C5 4413   2.754   2.075  14.024 -0.4732 -0.5936  0.5615
  289MPD2     H 4414   2.651   2.439  13.926  0.9372  0.2634 -1.0406
  289MPD2    H1 4415   2.556   2.033  13.958  0.2869 -0.0244 -0.3870
  289MPD2    H2 4416   2.930   2.163  14.091  0.2849 -0.1799 -0.4196
  289MPD2    H3 4417   2.787   1.973  14.038  2.1766 -0.1447 -2.7034
  289MPD2     N 4418   2.449   2.249  13.918 -0.6921 -0.0666  0.1434
  289MPD2    H5 4419   2.390   2.168  13.927  1.6964 -1.8837 -0.5444
  289MPD2    N1 4420   2.884   2.419  14.046 -0.4240 -0.5507  0.0043
  289MPD2    H7 4421   2.963   2.401  14.107 -0.2967  1.7571  0.5051
  290TMC3    C1 4422   2.243   2.354  13.867  0.2228  0.0612  0.9261
  290TMC3    C2 4423   2.153   2.456  13.896  0.4135  0.1559  0.1221
  290TMC3    C3 4424   2.014   2.420  13.902 -0.1848 -0.1008  0.0114
  290TMC3    C4 4425   2.210   2.239  13.815  0.0109 -0.4217 -0.0874
  290TMC3    C5 4426   2.071   2.217  13.799 -0.0611  0.0397  0.2949
  290TMC3    C6 4427   1.973   2.300  13.846 -0.1130  0.5264  0.2910
  290TMC3     C 4428   2.387   2.374  13.902 -0.1234 -0.1158  0.5929
  290TMC3     O 4429   2.434   2.484  13.885  0.5980  0.4685 -0.1521
  290TMC3     H 4430   2.190   2.554  13.925 -2.1360  1.1454 -0.0074
  290TMC3    H1 4431   2.276   2.165  13.771  0.2660  2.2092 -4.1834
  290TMC3    H2 4432   1.871   2.265  13.856 -0.0076  0.2442  0.4132
  290TMC3    C7 4433   2.030   2.077  13.772 -0.5940  0.2670 -0.1445
  290TMC3    C8 4434   1.909   2.521  13.898 -0.1705  0.7207 -0.7642
  290TMC3    O1 4435   2.128   2.000  13.790  0.6344 -0.1075  0.0869
  290TMC3    O2 4436   1.815   2.502  13.824 -0.4215 -0.3080 -0.2434
  291MPD2     C 4437   1.965   2.302  17.697  0.0856  0.1019  0.7353
  291MPD2    C1 4438   2.056   2.219   0.017  0.4697  0.0459 -0.0238
  291MPD2    C2 4439   2.174   2.273   0.053  0.7011  0.6859 -0.3524
  291MPD2    C3 4440   2.203   2.410   0.034 -0.3663  0.4378 -0.5386
  291MPD2    C4 4441   2.110   2.488  17.707 -0.5011 -0.6610  0.4258
  291MPD2    C5 4442   1.987   2.434  17.666 -0.2040 -0.3269 -0.1484
  291MPD2     H 4443   2.242   2.201   0.098 -1.6214 -1.3085 -0.0767
  291MPD2    H1 4444   2.119   2.592  17.676  0.5737 -0.9917 -0.3726
  291MPD2    H2 4445   1.862   2.268  17.695  0.5720 -1.2639 -0.7056
  291MPD2    H3 4446   1.911   2.498  17.623 -0.0666 -0.4460 -0.5695
  291MPD2     N 4447   2.327   2.471   0.078  0.1922 -0.5981 -0.0033
  291MPD2    H5 4448   2.339   2.572   0.073  1.0116 -0.8873 -3.5468
  291MPD2    N1 4449   2.040   2.081   0.036 -0.1073  0.2582  0.2337
  291MPD2    H7 4450   2.115   2.031   0.082 -2.4386 -2.0520  1.5201
  292TMC3    C1 4451   1.921   1.871   0.053 -0.0271 -0.7372 -0.0108
  292TMC3    C2 4452   1.981   1.842   0.170 -0.0510  0.5056 -0.1866
  292TMC3    C3 4453   1.975   1.710   0.213  0.9444 -0.5804  0.4366
  292TMC3    C4 4454   1.854   1.772  17.718 -0.3786  0.1048 -0.0452
  292TMC3    C5 4455   1.866   1.637   0.014 -0.4841  0.3329 -0.2844
  292TMC3    C6 4456   1.920   1.612   0.143 -0.4349  0.1119  0.3914
  292TMC3     C 4457   1.918   2.011   0.007  0.1323  0.3196 -0.6056
  292TMC3     O 4458   1.821   2.043  17.675 -0.2100 -0.5867  0.3097
  292TMC3     H 4459   2.014   1.922   0.236 -0.0197 -0.0541  0.4715
  292TMC3    H1 4460   1.812   1.808  17.625  1.1530  1.5218 -0.2049
  292TMC3    H2 4461   1.903   1.514   0.187 -1.4532  0.6885  1.3008
  292TMC3    C7 4462   1.789   1.533  17.696 -0.0388 -0.0227 -0.5523
  292TMC3    C8 4463   2.027   1.671   0.347  0.0335 -0.3722 -0.1728
  292TMC3    O1 4464   1.817   1.417  17.722 -0.1026 -0.0507  0.6670
  292TMC3    O2 4465   2.125   1.730   0.387 -0.0104  0.5201  0.3649
  293MPD2     C 4466   3.274   3.782  12.106  0.1278  0.0358  0.1143
  293MPD2    C1 4467   3.240   3.664  12.170 -0.4149 -0.8035  0.5702
  293MPD2    C2 4468   3.315   3.638  12.284  0.7210  0.5451  0.1201
  293MPD2    C3 4469   3.409   3.724  12.341  0.3526 -0.8278  0.7366
  293MPD2    C4 4470   3.405   3.850  12.289  0.0009 -0.2377  0.3928
  293MPD2    C5 4471   3.344   3.875  12.174 -0.1976  0.1579 -0.0798
  293MPD2     H 4472   3.310   3.536  12.321  0.4338  0.0173 -1.3513
  293MPD2    H1 4473   3.465   3.928  12.333 -1.1766  0.7253  0.2963
  293MPD2    H2 4474   3.229   3.805  12.010  0.4074  2.0360  0.4747
  293MPD2    H3 4475   3.346   3.977  12.138  2.3923 -0.5697 -1.9894
  293MPD2     N 4476   3.486   3.686  12.455  0.1759  0.5042 -0.4061
  293MPD2    H5 4477   3.474   3.589  12.485  2.8042 -0.1527 -1.4749
  293MPD2    N1 4478   3.156   3.575  12.102  0.3806  0.1684  0.1918
  293MPD2    H7 4479   3.125   3.603  12.009  0.1823 -1.0280 -0.1088
  294TMC3    C1 4480   3.008   3.399  12.075  0.2457 -0.1780  0.2524
  294TMC3    C2 4481   2.904   3.326  12.136  0.4661  0.6716 -0.3308
  294TMC3    C3 4482   2.804   3.281  12.064 -0.2337  0.5518  0.0318
  294TMC3    C4 4483   3.017   3.410  11.934 -0.0810 -0.0785 -0.1301
  294TMC3    C5 4484   2.916   3.348  11.865  0.0216 -0.1104 -0.7893
  294TMC3    C6 4485   2.816   3.283  11.927 -0.2163  0.1960 -0.3461
  294TMC3     C 4486   3.096   3.471  12.166 -0.6406  0.1006 -0.3409
  294TMC3     O 4487   3.105   3.437  12.281  0.8235 -0.3029 -0.4477
  294TMC3     H 4488   2.905   3.311  12.243 -2.3673 -1.7637 -0.6339
  294TMC3    H1 4489   3.103   3.452  11.882 -0.1795  0.8756  0.4754
  294TMC3    H2 4490   2.750   3.223  11.866  0.0655  0.8257 -1.2700
  294TMC3    C7 4491   2.927   3.321  11.720  0.2502  0.6359  0.6608
  294TMC3    C8 4492   2.733   3.177  12.129  0.8532 -0.9554  0.1951
  294TMC3    O1 4493   2.823   3.292  11.665  0.9074 -0.7096  0.2765
  294TMC3    O2 4494   2.705   3.190  12.249  0.0038  0.4502  0.1735
  295MPD2     C 4495   4.672   1.939  17.729 -0.5163  0.0668  0.5908
  295MPD2    C1 4496   4.540   1.988  17.737  0.6344 -0.1568  1.4972
  295MPD2    C2 4497   4.471   1.975   0.118 -0.3108  0.2996  0.4237
  295MPD2    C3 4498   4.533   1.942   0.233 -0.3391  0.9583 -0.2138
  295MPD2    C4 4499   4.668   1.906   0.235  0.0102  0.2298  0.0834
  295MPD2    C5 4500   4.729   1.899   0.110 -0.2781  0.1416  0.4330
  295MPD2     H 4501   4.368   2.010   0.115 -1.0337 -1.8204 -0.3776
  295MPD2    H1 4502   4.722   1.880   0.325 -2.9839  0.4116  1.9419
  295MPD2    H2 4503   4.731   1.929  17.638  1.7216 -0.3791  2.0848
  295MPD2    H3 4504   0.102   1.887   0.115 -0.2680  0.4982  1.0924
  295MPD2     N 4505   4.465   1.938   0.361 -0.5170  0.1446 -0.5515
  295MPD2    H5 4506   4.525   1.897   0.432  0.0974 -0.4180 -1.3957
  295MPD2    N1 4507   4.470   2.029  17.619  0.7312  0.3941  0.8844
  295MPD2    H7 4508   4.369   2.042  17.611  0.1523 -3.2218  2.4125
  296TMC3    C1 4509   4.282   1.934   0.513 -0.3739  0.0068  0.0184
  296TMC3    C2 4510   4.164   1.994   0.551 -0.1535 -0.5492 -0.1259
  296TMC3    C3 4511   4.103   1.942   0.657  0.0047  1.0097 -0.3462
  296TMC3    C4 4512   4.349   1.851   0.590 -0.3723  0.9694  0.0346
  296TMC3    C5 4513   4.280   1.798   0.693  0.1822  0.2122 -0.3492
  296TMC3    C6 4514   4.157   1.840   0.734 -0.2660 -0.0701 -0.8161
  296TMC3     C 4515   4.337   1.983   0.392 -0.2615  0.1946  0.4134
  296TMC3     O 4516   4.264   2.063   0.335  0.1558  0.3872  0.8783
  296TMC3     H 4517   4.120   2.071   0.489 -3.7317 -2.0281  0.5838
  296TMC3    H1 4518   4.434   1.790   0.558 -0.2300  1.4265 -0.4464
  296TMC3    H2 4519   4.117   1.805   0.828 -0.0021 -1.2714 -1.1476
  296TMC3    C7 4520   4.329   1.675   0.747  0.3696  0.5239  0.4266
  296TMC3    C8 4521   3.983   1.999   0.713 -0.4332 -0.4766  0.4670
  296TMC3    O1 4522   4.444   1.679   0.791  1.0469  0.0991  0.1044
  296TMC3    O2 4523   3.921   1.928   0.793  0.1102  0.3016 -0.7869
  297MPD2     C 4524   1.412   4.117  16.262 -0.1991 -0.1155  0.2949
  297MPD2    C1 4525   1.444   4.161  16.133  0.6476 -0.4652  0.3213
  297MPD2    C2 4526   1.533   4.264  16.118  0.4256  0.3820 -0.0237
  297MPD2    C3 4527   1.590   4.323  16.232  0.2937 -0.1784 -0.1776
  297MPD2    C4 4528   1.562   4.273  16.357 -0.1262  0.2764  0.0424
  297MPD2    C5 4529   1.478   4.170  16.370  0.2261 -0.6629  0.2135
  297MPD2     H 4530   1.554   4.299  16.018  0.4182 -1.6802 -0.7310
  297MPD2    H1 4531   1.608   4.307  16.449 -1.4468  1.4747  0.2607
  297MPD2    H2 4532   1.337   4.046  16.295 -0.4156  0.1558  0.3876
  297MPD2    H3 4533   1.448   4.148  16.472 -0.8795 -0.2492 -0.0239
  297MPD2     N 4534   1.676   4.424  16.215 -0.4020  0.4019  0.0414
  297MPD2    H5 4535   1.693   4.454  16.119 -0.6196  1.3848  0.3129
  297MPD2    N1 4536   1.377   4.117  16.019 -0.3417 -0.7165 -0.4867
  297MPD2    H7 4537   1.396   4.158  15.929 -0.6278 -0.3702 -0.3901
  298TMC3    C1 4538   1.187   4.049  15.910 -0.5585  0.4137  0.2044
  298TMC3    C2 4539   1.233   4.049  15.778  0.5161  0.2850 -1.0396
  298TMC3    C3 4540   1.149   4.108  15.680 -0.0180  0.1528 -0.2428
  298TMC3    C4 4541   1.068   4.103  15.946 -0.2149 -0.6786 -0.0367
  298TMC3    C5 4542   0.981   4.143  15.844 -0.1718  0.4325 -0.1629
  298TMC3    C6 4543   1.024   4.157  15.714  0.4208 -0.3127  0.2470
  298TMC3     C 4544   1.274   4.029  16.021  0.0592 -0.0671 -0.2756
  298TMC3     O 4545   1.233   3.963  16.113 -0.2561  0.0743  0.4331
  298TMC3     H 4546   1.329   4.005  15.755 -0.2550 -2.8609  1.7432
  298TMC3    H1 4547   1.045   4.102  16.052 -2.1604 -1.6830 -0.4712
  298TMC3    H2 4548   0.958   4.196  15.637  0.9824  0.3829  0.1189
  298TMC3    C7 4549   0.862   4.211  15.892 -0.3507 -0.1434 -0.1297
  298TMC3    C8 4550   1.195   4.123  15.543 -0.7931 -0.6047  0.2575
  298TMC3    O1 4551   0.845   4.225  16.011 -0.8182  0.3400 -0.0956
  298TMC3    O2 4552   1.107   4.169  15.470  0.1737 -0.1563  0.2157
  299MPD2     C 4553   1.729   4.101  10.146 -1.0932 -0.7872  0.2154
  299MPD2    C1 4554   1.715   4.023  10.261 -0.3646  0.5460  0.3980
  299MPD2    C2 4555   1.650   3.897  10.251  0.0904 -0.1067 -0.6190
  299MPD2    C3 4556   1.622   3.844  10.128  0.1495  0.2745  0.5554
  299MPD2    C4 4557   1.621   3.924  10.017  0.1564 -0.6268 -0.5372
  299MPD2    C5 4558   1.676   4.052  10.026  0.1849  0.6975  1.2523
  299MPD2     H 4559   1.634   3.836  10.339  0.0069 -0.6414 -1.0033
  299MPD2    H1 4560   1.597   3.886   9.918  2.6469  0.9096 -1.7548
  299MPD2    H2 4561   1.770   4.201  10.151 -0.0458 -1.1873 -0.1205
  299MPD2    H3 4562   1.671   4.119   9.941 -2.0678  1.9032  2.3382
  299MPD2     N 4563   1.581   3.714  10.100  0.1180  0.8101 -0.1446
  299MPD2    H5 4564   1.549   3.697  10.005 -0.4420 -0.8943  0.3511
  299MPD2    N1 4565   1.764   4.082  10.383 -0.6212  0.1495  0.0611
  299MPD2    H7 4566   1.814   4.170  10.379 -2.8943  1.4602  0.3692
  300TMC3    C1 4567   1.485   3.506  10.155 -0.0904 -0.5745  0.0922
  300TMC3    C2 4568   1.388   3.543  10.064 -0.2276 -0.3506  0.1532
  300TMC3    C3 4569   1.261   3.510  10.102  0.2686  1.0368 -0.2686
  300TMC3    C4 4570   1.471   3.422  10.262 -0.4146 -0.6329  0.1427
  300TMC3    C5 4571   1.335   3.401  10.295 -1.1159 -0.3935  0.1643
  300TMC3    C6 4572   1.229   3.445  10.220 -0.0054  0.3068  0.6118
  300TMC3     C 4573   1.574   3.613  10.192 -0.2883 -0.5836  0.4562
  300TMC3     O 4574   1.618   3.613  10.306  0.3305  0.5767 -0.1049
  300TMC3     H 4575   1.398   3.619   9.987  0.9560 -0.2038  0.4555
  300TMC3    H1 4576   1.546   3.406  10.338  0.1884  2.2743  0.1708
  300TMC3    H2 4577   1.125   3.438  10.250  0.9046 -1.3244  3.3327
  300TMC3    C7 4578   1.320   3.363  10.436  0.1086  0.2596  0.1718
  300TMC3    C8 4579   1.154   3.596  10.047 -0.3189  0.4950 -0.4591
  300TMC3    O1 4580   1.407   3.291  10.480 -0.1855 -0.4161 -0.2729
  300TMC3    O2 4581   1.057   3.610  10.119 -0.0766 -0.5150 -0.2638
  301MPD2     C 4582   3.829   4.686   1.248  0.5248  0.0192  0.4483
  301MPD2    C1 4583   3.706   4.638   1.223 -0.3891  0.5073 -0.4567
  301MPD2    C2 4584   3.694   4.517   1.166  0.0777 -0.0433 -0.3705
  301MPD2    C3 4585   3.801   4.450   1.121  0.4689  0.6167  0.2394
  301MPD2    C4 4586   3.928   4.500   1.138 -1.1347 -0.4039 -0.8844
  301MPD2    C5 4587   3.935   4.613   1.206  0.0829 -0.4330  0.0279
  301MPD2     H 4588   3.590   4.489   1.150  0.0145 -1.3491  2.4197
  301MPD2    H1 4589   4.018   4.446   1.111  0.4342  0.8653  1.8346
  301MPD2    H2 4590   3.852   0.047   1.293  0.9000  0.6643 -1.1451
  301MPD2    H3 4591   4.033   4.655   1.224 -0.0567  0.8398 -2.1382
  301MPD2     N 4592   3.794   4.329   1.044  0.4615 -0.3463 -0.7771
  301MPD2    H5 4593   3.883   4.285   1.022 -0.3844 -0.8209 -3.2478
  301MPD2    N1 4594   3.582   4.701   1.254  0.2752  0.2951 -0.5030
  301MPD2    H7 4595   3.499   4.656   1.217  1.1323 -0.8871 -0.9728
  302TMC3    C1 4596   3.708   4.164   0.908 -0.0333 -0.7835  0.0153
  302TMC3    C2 4597   3.821   4.087   0.927 -0.1834  0.4092  0.4858
  302TMC3    C3 4598   3.842   3.993   0.826 -0.2936 -0.1245  0.0099
  302TMC3    C4 4599   3.614   4.134   0.815  0.2288 -0.1692 -0.3498
  302TMC3    C5 4600   3.638   4.028   0.724  0.0503  0.3557  0.3151
  302TMC3    C6 4601   3.755   3.961   0.722 -0.1772  0.7713 -0.1810
  302TMC3     C 4602   3.672   4.277   0.996  0.3439  0.3537  0.4240
  302TMC3     O 4603   3.560   4.329   0.997  0.0413 -0.6172  0.0141
  302TMC3     H 4604   3.909   4.106   0.988 -0.3443  0.0107  0.8458
  302TMC3    H1 4605   3.522   4.191   0.818  0.9539  0.9862 -0.0897
  302TMC3    H2 4606   3.783   3.890   0.646 -0.6124  0.7861 -0.3587
  302TMC3    C7 4607   3.549   4.006   0.607 -0.2920 -0.1521 -0.3135
  302TMC3    C8 4608   3.965   3.927   0.842 -0.3962 -0.3895  0.1791
  302TMC3    O1 4609   3.598   3.963   0.504  0.0879  0.0299  0.1331
  302TMC3    O2 4610   4.066   3.982   0.880  0.0357 -0.0139 -0.1060
  303MPD2     C 4611   3.792   3.491  10.356 -0.5668  0.1547  0.1669
  303MPD2    C1 4612   3.702   3.381  10.355  0.3385  0.6389  0.1786
  303MPD2    C2 4613   3.720   3.284  10.260  0.3807  0.2002  0.5352
  303MPD2    C3 4614   3.833   3.283  10.175 -0.3005 -0.0702 -0.4853
  303MPD2    C4 4615   3.924   3.383  10.183 -0.1514  0.5558  0.3923
  303MPD2    C5 4616   3.905   3.482  10.277 -0.2863 -0.4015  0.1988
  303MPD2     H 4617   3.644   3.209  10.243  0.0665  0.9597 -1.3874
  303MPD2    H1 4618   4.003   3.391  10.109 -2.3318  0.6901 -1.9057
  303MPD2    H2 4619   3.793   3.573  10.426 -0.4973 -3.1543  4.0357
  303MPD2    H3 4620   3.981   3.557  10.292 -0.3530 -0.3457  0.2583
  303MPD2     N 4621   3.831   3.198  10.059 -0.0189  0.2457 -0.3930
  303MPD2    H5 4622   3.917   3.208  10.006  0.1043 -0.0152 -0.2435
  303MPD2    N1 4623   3.585   3.386  10.441 -0.0549 -0.0903 -0.7760
  303MPD2    H7 4624   3.566   3.475  10.486 -0.3894  0.5587 -2.1887
  304TMC3    C1 4625   3.388   3.341  10.550 -0.0845  0.2147 -0.6075
  304TMC3    C2 4626   3.330   3.458  10.514 -0.3336  0.5653  0.9915
  304TMC3    C3 4627   3.193   3.469  10.541  0.1878  0.3630 -0.2302
  304TMC3    C4 4628   3.319   3.246  10.614  0.1423  0.2212 -0.0391
  304TMC3    C5 4629   3.187   3.267  10.645  0.4622  0.2741  0.2519
  304TMC3    C6 4630   3.121   3.379  10.609 -0.5176 -0.3193  0.2706
  304TMC3     C 4631   3.490   3.290  10.459 -0.4098 -0.0285 -0.5338
  304TMC3     O 4632   3.490   3.175  10.416 -0.2354 -0.1755 -0.3309
  304TMC3     H 4633   3.387   3.530  10.456  0.2457 -0.9092 -0.2607
  304TMC3    H1 4634   3.358   3.146  10.630 -1.4629 -0.3984  0.0076
  304TMC3    H2 4635   3.020   3.398  10.644  0.4270  2.0223  1.7415
  304TMC3    C7 4636   3.094   3.156  10.631  0.7776  0.4578  0.1239
  304TMC3    C8 4637   3.133   3.498  10.410 -0.0502  0.2859 -0.2637
  304TMC3    O1 4638   2.998   3.176  10.561  0.3735 -0.6412  0.4468
  304TMC3    O2 4639   3.188   3.583  10.339 -0.5930 -0.1311  0.0418
  305MPD2     C 4640   2.322   0.959  13.675  0.5784 -0.1116  0.0555
  305MPD2    C1 4641   2.333   0.842  13.743  0.2792  0.1939 -0.4837
  305MPD2    C2 4642   2.288   0.724  13.670  1.0765  0.1509  0.4049
  305MPD2    C3 4643   2.252   0.740  13.540 -0.2624 -0.2591  0.9108
  305MPD2    C4 4644   2.234   0.863  13.490 -0.5990  0.2300  0.0940
  305MPD2    C5 4645   2.276   0.971  13.552 -0.1452  0.2276  0.1497
  305MPD2     H 4646   2.301   0.621  13.700  1.3271  0.3643  1.0388
  305MPD2    H1 4647   2.217   0.875  13.383 -1.3672 -1.8710  0.0001
  305MPD2    H2 4648   2.349   1.050  13.726  1.3498 -1.2900  1.7439
  305MPD2    H3 4649   2.265   1.066  13.500 -0.4240  0.7222  1.1089
  305MPD2     N 4650   2.233   0.635  13.458 -0.1366  0.7554  0.3103
  305MPD2    H5 4651   2.227   0.664  13.361 -1.7588 -2.5810 -0.6027
  305MPD2    N1 4652   2.388   0.842  13.868 -0.4627 -0.5355 -0.1092
  305MPD2    H7 4653   2.429   0.927  13.905 -2.3775 -1.0839  3.3052
  306TMC3    C1 4654   2.467   0.770  14.086 -0.1389  0.3049 -0.0710
  306TMC3    C2 4655   2.532   0.675  14.151  0.0715 -0.0862 -0.7494
  306TMC3    C3 4656   2.609   0.704  14.260  0.3275  0.3439 -0.0075
  306TMC3    C4 4657   2.473   0.899  14.136  0.0120  0.3403 -0.4182
  306TMC3    C5 4658   2.548   0.919  14.253  0.6972  0.2668  0.5582
  306TMC3    C6 4659   2.614   0.823  14.320  0.5926 -0.6980 -0.1164
  306TMC3     C 4660   2.408   0.734  13.953  0.0074  0.4791 -0.0679
  306TMC3     O 4661   2.380   0.621  13.933 -0.2455 -0.4737  0.0835
  306TMC3     H 4662   2.540   0.582  14.096  0.8724  0.5894 -1.7753
  306TMC3    H1 4663   2.405   0.972  14.093  0.9443  0.9308 -0.9047
  306TMC3    H2 4664   2.664   0.836  14.415  0.6702 -2.3415  0.0734
  306TMC3    C7 4665   2.534   1.042  14.328  0.0246  0.4051  0.0640
  306TMC3    C8 4666   2.670   0.595  14.330  0.2064  0.0515 -0.4081
  306TMC3    O1 4667   2.422   1.092  14.342 -0.1329  0.1936 -0.6796
  306TMC3    O2 4668   2.784   0.564  14.308  0.5576 -0.2670  0.0617
  307MPD2     C 4669   0.633   3.623   0.019 -0.1837 -0.2000 -0.8890
  307MPD2    C1 4670   0.568   3.748   0.006  0.1813  0.6310  0.0348
  307MPD2    C2 4671   0.502   3.807   0.113  0.2206 -1.0918 -0.0758
  307MPD2    C3 4672   0.484   3.736   0.232 -0.2221  0.6561 -0.9773
  307MPD2    C4 4673   0.535   3.605   0.235 -0.4344  0.0417  0.0805
  307MPD2    C5 4674   0.621   3.557   0.139  0.2987 -0.0175 -0.2499
  307MPD2     H 4675   0.452   3.902   0.099 -0.8969 -1.7044 -0.1919
  307MPD2    H1 4676   0.493   3.531   0.302 -0.1168 -0.4427 -0.2524
  307MPD2    H2 4677   0.689   3.575  17.677  2.0517  0.4237  0.3212
  307MPD2    H3 4678   0.659   3.456   0.149 -0.7488 -0.3385  0.5797
  307MPD2     N 4679   0.373   3.772   0.316  0.2314 -0.4818 -0.2564
  307MPD2    H5 4680   0.319   3.853   0.287  3.2257  2.0722  1.3475
  307MPD2    N1 4681   0.575   3.815  17.620 -0.1279  0.1537 -0.0963
  307MPD2    H7 4682   0.533   3.907  17.609 -0.3305  0.1904  1.0185
  308TMC3    C1 4683   4.734   3.693   0.536  0.4792 -0.3655 -0.1770
  308TMC3    C2 4684   4.694   3.815   0.495 -0.3213  0.2808  0.0403
  308TMC3    C3 4685   0.049   3.909   0.459  0.8859  0.8995  0.7966
  308TMC3    C4 4686   0.131   3.657   0.527  0.1679 -0.4195  0.1551
  308TMC3    C5 4687   0.220   3.752   0.492  0.4379  0.3209 -0.0657
  308TMC3    C6 4688   0.179   3.877   0.455  0.0437  0.0605  0.6370
  308TMC3     C 4689   4.640   3.579   0.559 -0.1667  0.1856 -0.3187
  308TMC3     O 4690   4.693   3.483   0.611  0.0987 -0.3060 -0.0906
  308TMC3     H 4691   4.591   3.843   0.514 -0.6526 -0.6612 -0.3607
  308TMC3    H1 4692   0.172   3.561   0.556  1.2766 -0.8700 -2.9840
  308TMC3    H2 4693   0.254   3.948   0.421  2.0246 -2.5163 -0.3794
  308TMC3    C7 4694   0.345   3.708   0.436  0.0464  0.4132  0.2571
  308TMC3    C8 4695   4.734   4.040   0.427  0.1783 -0.2388 -0.2079
  308TMC3    O1 4696   0.399   3.610   0.491 -0.5142  0.2480 -0.0972
  308TMC3    O2 4697   4.622   4.054   0.375 -0.4048  0.4623  0.0454
  309MPD2     C 4698   4.262   3.663  16.903  0.1945 -0.2051  0.3149
  309MPD2    C1 4699   4.190   3.757  16.825 -0.5483  0.0503 -0.4840
  309MPD2    C2 4700   4.060   3.778  16.870 -0.8032  0.1032  0.3783
  309MPD2    C3 4701   4.012   3.723  16.994  0.5527  0.0890 -0.4867
  309MPD2    C4 4702   4.093   3.637  17.067  0.6063 -0.1724 -0.4386
  309MPD2    C5 4703   4.214   3.610  17.017 -1.2336 -0.6031 -0.8754
  309MPD2     H 4704   4.008   3.850  16.808  1.4765  1.3302 -0.1336
  309MPD2    H1 4705   4.060   3.596  17.161  1.8285  1.5194  0.7216
  309MPD2    H2 4706   4.361   3.625  16.882  0.5414 -0.2982  2.1149
  309MPD2    H3 4707   4.280   3.539  17.065 -0.0448 -1.1151 -3.2391
  309MPD2     N 4708   3.877   3.732  17.039 -0.1336  0.7744 -0.1131
  309MPD2    H5 4709   3.862   3.688  17.129  2.1762  0.7955  0.2688
  309MPD2    N1 4710   4.244   3.825  16.713  0.1125  0.4924 -0.5328
  309MPD2    H7 4711   4.186   3.847  16.632  3.2574  1.1861 -2.5783
  310TMC3    C1 4712   4.401   3.912  16.570 -0.0638 -0.1936  0.4795
  310TMC3    C2 4713   4.299   3.991  16.512 -0.8643 -0.1215 -0.2188
  310TMC3    C3 4714   4.328   4.043  16.384 -0.5148 -0.2569 -0.1693
  310TMC3    C4 4715   4.520   3.895  16.510 -0.2379 -0.7786 -0.4973
  310TMC3    C5 4716   4.537   3.952  16.379 -0.0374  0.2824 -0.0515
  310TMC3    C6 4717   4.443   4.036  16.323  0.7637 -0.2699 -0.1884
  310TMC3     C 4718   4.380   3.836  16.687 -0.3709  0.7747  0.4733
  310TMC3     O 4719   4.470   3.807  16.759 -0.0628 -0.4037  0.1461
  310TMC3     H 4720   4.206   4.020  16.558 -0.9834 -0.4599 -0.2440
  310TMC3    H1 4721   4.588   3.824  16.555 -0.3376 -0.1055  0.7154
  310TMC3    H2 4722   4.452   4.069  16.220 -1.2512 -0.7737 -0.5109
  310TMC3    C7 4723   4.654   3.905  16.302  0.0985 -0.1892 -0.7077
  310TMC3    C8 4724   4.214   4.096  16.305 -0.0154 -0.5323 -0.0163
  310TMC3    O1 4725   4.645   3.911  16.179  0.3284 -0.1919  0.3762
  310TMC3    O2 4726   4.108   4.048  16.333  0.0617 -0.0936 -0.2696
  311MPD2     C 4727   1.348   0.329  12.342  0.8502 -0.1067 -0.0915
  311MPD2    C1 4728   1.365   0.408  12.452 -0.5972  0.2678  0.2913
  311MPD2    C2 4729   1.260   0.426  12.547  0.2715 -0.0882  0.3337
  311MPD2    C3 4730   1.137   0.368  12.525  0.1634  0.0677  0.8189
  311MPD2    C4 4731   1.123   0.289  12.408  0.6104  0.2421 -0.3954
  311MPD2    C5 4732   1.227   0.277  12.324  0.1719  0.3281 -0.4064
  311MPD2     H 4733   1.276   0.488  12.634 -1.2045  1.3217 -0.4065
  311MPD2    H1 4734   1.033   0.235  12.381 -0.3795  1.3733  0.7055
  311MPD2    H2 4735   1.428   0.316  12.271 -0.2055 -2.0430 -0.9131
  311MPD2    H3 4736   1.209   0.225  12.231  1.7780  0.4923 -0.7990
  311MPD2     N 4737   1.023   0.400  12.611  0.0467  0.5280  0.3807
  311MPD2    H5 4738   1.029   0.486  12.664  2.4211 -0.8772  2.3826
  311MPD2    N1 4739   1.484   0.478  12.478 -0.5170  0.2223 -0.8816
  311MPD2    H7 4740   1.494   0.534  12.562 -0.7500 -1.2744  0.1533
  312TMC3    C1 4741   0.791   0.425  12.649 -0.5606  0.3540 -0.7105
  312TMC3    C2 4742   0.666   0.379  12.624  0.2456 -0.5129  0.1280
  312TMC3    C3 4743   0.560   0.460  12.642 -0.2508  0.1943  0.3089
  312TMC3    C4 4744   0.807   0.547  12.703 -0.3787 -0.1136 -0.2250
  312TMC3    C5 4745   0.693   0.629  12.723 -0.1490 -0.1870  0.5726
  312TMC3    C6 4746   0.562   0.591  12.691  0.4259  0.3180  0.0689
  312TMC3     C 4747   0.900   0.354  12.587 -0.1297 -0.4083 -0.3418
  312TMC3     O 4748   0.865   0.250  12.542  0.0758  0.2524  0.1614
  312TMC3     H 4749   0.654   0.278  12.587  1.7030  0.0043 -1.7585
  312TMC3    H1 4750   0.902   0.575  12.747 -0.9757  0.9948  0.3498
  312TMC3    H2 4751   0.478   0.655  12.714 -0.1395  0.5630 -2.7048
  312TMC3    C7 4752   0.695   0.733  12.824 -0.2774 -0.2670 -0.8117
  312TMC3    C8 4753   0.435   0.412  12.587 -0.3133 -0.3254 -0.4759
  312TMC3    O1 4754   0.664   0.846  12.784  0.4060  0.3926  0.1884
  312TMC3    O2 4755   0.424   0.291  12.577 -0.2012 -0.6195 -0.6357
  313MPD2     C 4756   0.032   3.931  10.909 -0.1042  0.3479  0.5123
  313MPD2    C1 4757   0.097   4.032  10.836 -0.2073  0.2959  0.1187
  313MPD2    C2 4758   0.199   3.990  10.754 -0.5846 -0.4542  0.6053
  313MPD2    C3 4759   0.234   3.859  10.738  0.2945 -0.0167  0.7482
  313MPD2    C4 4760   0.177   3.765  10.822  0.3295 -0.1577  0.2864
  313MPD2    C5 4761   0.072   3.799  10.905  1.0369  0.0565  0.2745
  313MPD2     H 4762   0.247   4.063  10.689 -1.4392 -1.5038 -1.2128
  313MPD2    H1 4763   0.208   3.662  10.808 -1.0267 -0.4520 -0.5759
  313MPD2    H2 4764   4.670   3.949  10.956  0.0995 -0.9224  1.4239
  313MPD2    H3 4765   0.018   3.729  10.969 -1.2912  0.4729 -1.2464
  313MPD2     N 4766   0.336   3.825  10.648  0.0198 -0.0454  0.3989
  313MPD2    H5 4767   0.357   3.891  10.574 -1.1927  1.1727  1.1345
  313MPD2    N1 4768   0.053   4.167  10.826  0.4740 -0.0998 -0.1825
  313MPD2    H7 4769   0.098   4.226  10.758  0.8759 -0.7034 -0.4351
  314TMC3    C1 4770   4.635   4.336  10.830  0.1726 -0.3841 -0.5304
  314TMC3    C2 4771   4.712   4.449  10.822  0.0318  0.5921  0.0890
  314TMC3    C3 4772   4.700   4.531  10.708  0.3682 -0.5941 -0.7268
  314TMC3    C4 4773   4.549   4.302  10.729 -0.5785  0.2697  0.1646
  314TMC3    C5 4774   4.567   4.360  10.608  0.1716  0.3959 -0.0158
  314TMC3    C6 4775   4.629   4.480  10.597  0.2769 -0.4930 -0.4316
  314TMC3     C 4776   4.685   4.221  10.902 -0.0012 -0.4220 -0.0958
  314TMC3     O 4777   4.616   4.164  10.986  0.6525 -0.1049  0.1781
  314TMC3     H 4778   0.046   4.473  10.902  0.0435 -0.1745  0.3053
  314TMC3    H1 4779   4.498   4.209  10.751  1.1796 -0.7277  0.0246
  314TMC3    H2 4780   4.644   4.520  10.497  0.8396 -1.0308 -0.5624
  314TMC3    C7 4781   4.547   4.272  10.497  0.2852 -0.3189 -0.5286
  314TMC3    C8 4782   0.061   4.635  10.689 -0.1733 -0.7304 -0.1157
  314TMC3    O1 4783   4.477   4.176  10.526  0.2920 -0.1082  0.0007
  314TMC3    O2 4784   0.139   4.649  10.782 -0.3379  0.5841 -0.2342
  315MPD2     C 4785   0.785   3.524  17.115  0.5297  0.1583 -0.3869
  315MPD2    C1 4786   0.851   3.573  17.227  0.2799  0.9954 -0.4419
  315MPD2    C2 4787   0.882   3.705  17.235 -0.1528 -0.5245 -0.3895
  315MPD2    C3 4788   0.852   3.794  17.133 -0.4714 -0.3269 -0.2316
  315MPD2    C4 4789   0.793   3.748  17.013 -0.9049  0.2093 -0.0305
  315MPD2    C5 4790   0.755   3.618  17.018  0.1373  0.3843  0.4884
  315MPD2     H 4791   0.944   3.749  17.313  0.6455 -1.1363 -0.6749
  315MPD2    H1 4792   0.763   3.812  16.931 -2.6211 -1.1596 -0.4583
  315MPD2    H2 4793   0.745   3.423  17.108  0.2650  0.1743  0.8437
  315MPD2    H3 4794   0.704   3.586  16.928 -1.5162  0.9587  1.2163
  315MPD2     N 4795   0.877   3.932  17.160  0.1544 -0.6309 -0.2241
  315MPD2    H5 4796   0.897   3.960  17.255 -3.4597  1.3179 -0.0464
  315MPD2    N1 4797   0.877   3.500  17.339  0.1433  0.0000 -0.3686
  315MPD2    H7 4798   0.909   3.542  17.426 -0.5940  1.3823 -0.7618
  316TMC3    C1 4799   0.860   4.167  17.129 -0.4296  0.0180  0.0672
  316TMC3    C2 4800   0.945   4.182  17.236  0.6017 -1.2934  1.1474
  316TMC3    C3 4801   0.973   4.315  17.273  0.5278  0.4259 -0.2689
  316TMC3    C4 4802   0.798   4.271  17.059 -0.6223 -0.3058 -0.2821
  316TMC3    C5 4803   0.832   4.394  17.106  0.2470 -1.3931 -0.1418
  316TMC3    C6 4804   0.921   4.419  17.209 -0.5912 -0.4707  0.3856
  316TMC3     C 4805   0.838   4.034  17.072 -0.2791  0.5564 -0.0436
  316TMC3     O 4806   0.796   4.030  16.958 -0.4982 -0.6332  0.4065
  316TMC3     H 4807   1.001   4.097  17.274  0.3164 -1.3471  1.4446
  316TMC3    H1 4808   0.737   4.243  16.973 -0.9079 -1.6799  0.3682
  316TMC3    H2 4809   0.936   4.519  17.249  1.5885 -0.4274 -0.5761
  316TMC3    C7 4810   0.757   4.516  17.063  0.3016 -0.3359 -0.6981
  316TMC3    C8 4811   1.010   4.342  17.415  0.1859 -0.3501  0.0954
  316TMC3    O1 4812   0.778   4.620  17.120  0.1459 -1.2428  1.1278
  316TMC3    O2 4813   0.985   4.457  17.452  0.3323 -0.1341 -0.8894
  317MPD2     C 4814   2.094   2.219  13.049 -0.1270  0.4308  0.1882
  317MPD2    C1 4815   2.135   2.096  12.995  0.5152 -0.2564 -0.2882
  317MPD2    C2 4816   2.267   2.066  13.015  0.3223  0.3730  0.9183
  317MPD2    C3 4817   2.355   2.139  13.104 -0.5436  0.2840 -0.8204
  317MPD2    C4 4818   2.305   2.250  13.171 -0.1268 -0.1997 -0.0424
  317MPD2    C5 4819   2.175   2.279  13.147  0.0589 -0.2881 -0.2618
  317MPD2     H 4820   2.319   1.981  12.972  1.5078 -0.2255  3.5173
  317MPD2    H1 4821   2.365   2.310  13.239 -1.2230 -0.1266  0.8591
  317MPD2    H2 4822   1.991   2.251  13.044 -0.0543  0.5199 -0.8295
  317MPD2    H3 4823   2.126   2.364  13.193 -0.6546 -0.5004 -0.6312
  317MPD2     N 4824   2.479   2.082  13.120  0.1289  0.2771  0.5484
  317MPD2    H5 4825   2.497   1.999  13.065 -2.4466  1.7302 -2.5109
  317MPD2    N1 4826   2.053   2.019  12.909 -0.7513 -0.1998 -0.3123
  317MPD2    H7 4827   2.100   1.934  12.878 -0.1724  0.8629 -2.3870
  318TMC3    C1 4828   2.683   2.031  13.228  0.0856  0.3809  0.6016
  318TMC3    C2 4829   2.642   1.900  13.242  0.0751  0.0005 -0.3440
  318TMC3    C3 4830   2.736   1.805  13.279  0.1479 -0.0912  0.2883
  318TMC3    C4 4831   2.809   2.072  13.244 -0.0413  0.2380 -0.0927
  318TMC3    C5 4832   2.898   1.985  13.302  0.5915 -0.5389 -0.4540
  318TMC3    C6 4833   2.862   1.854  13.314  0.1609  0.0299 -0.6134
  318TMC3     C 4834   2.577   2.123  13.211 -0.0579  0.4873  0.2273
  318TMC3     O 4835   2.600   2.232  13.264 -0.1310  0.4205 -0.2541
  318TMC3     H 4836   2.536   1.879  13.231 -0.0151  0.5335 -0.4815
  318TMC3    H1 4837   2.833   2.178  13.242  0.3130  0.1453 -0.7280
  318TMC3    H2 4838   2.929   1.793  13.373  0.9427  1.0205 -0.4939
  318TMC3    C7 4839   3.027   2.039  13.352 -1.8646 -0.4153 -0.7815
  318TMC3    C8 4840   2.703   1.664  13.278  0.2138 -0.2664 -0.2202
  318TMC3    O1 4841   3.048   2.158  13.321  0.6420 -0.2242  0.0400
  318TMC3    O2 4842   2.764   1.581  13.342 -0.1426  0.2446  0.3985
  319MPD2     C 4843   2.883   3.942  16.862 -0.3544 -0.2385 -0.5524
  319MPD2    C1 4844   2.948   3.822  16.841 -0.0746 -0.6886  0.7390
  319MPD2    C2 4845   2.967   3.765  16.717 -0.0390 -0.3293 -0.4814
  319MPD2    C3 4846   2.902   3.826  16.613  0.0065 -0.3827  0.3981
  319MPD2    C4 4847   2.839   3.943  16.632  0.7637 -0.0544  0.4575
  319MPD2    C5 4848   2.829   4.006  16.747  0.5866 -0.5620  0.0038
  319MPD2     H 4849   3.013   3.668  16.699 -1.4386 -0.9334 -0.8045
  319MPD2    H1 4850   2.783   3.999  16.558  0.4877 -2.8668 -1.4337
  319MPD2    H2 4851   2.882   3.991  16.958 -0.8214  0.6325 -0.9926
  319MPD2    H3 4852   2.764   4.093  16.753  0.3593 -0.6102 -1.8377
  319MPD2     N 4853   2.897   3.779  16.480  0.4769 -0.4337 -0.1038
  319MPD2    H5 4854   2.826   3.813  16.416 -0.3734 -0.0738  1.0331
  319MPD2    N1 4855   3.002   3.737  16.940  0.2626 -0.0145  0.4460
  319MPD2    H7 4856   3.056   3.654  16.915  0.8781  0.6437 -0.3961
  320TMC3    C1 4857   2.942   3.640  16.292 -0.4361 -0.6248 -0.4607
  320TMC3    C2 4858   2.882   3.728  16.202 -0.3634  0.2566  0.4033
  320TMC3    C3 4859   2.845   3.688  16.076 -0.0638 -0.1440 -0.2344
  320TMC3    C4 4860   2.959   3.509  16.253  0.6146  1.3426 -0.1828
  320TMC3    C5 4861   2.923   3.471  16.127  0.3102 -0.0706 -0.1079
  320TMC3    C6 4862   2.862   3.553  16.038  0.2339  0.1164  0.3316
  320TMC3     C 4863   2.975   3.675  16.433 -0.0087 -0.1839 -0.3270
  320TMC3     O 4864   3.064   3.617  16.491  0.2627 -0.3470 -0.7472
  320TMC3     H 4865   2.876   3.835  16.217  1.7075  0.6198 -1.3774
  320TMC3    H1 4866   3.016   3.433  16.305  3.3575  2.0958 -2.0966
  320TMC3    H2 4867   2.839   3.519  15.938 -0.5965  0.2926  0.4572
  320TMC3    C7 4868   2.968   3.342  16.079  0.0808  0.2801  0.1642
  320TMC3    C8 4869   2.790   3.781  15.980 -0.0745  0.1967  0.6218
  320TMC3    O1 4870   2.994   3.327  15.960  0.3794 -0.2446  0.1894
  320TMC3    O2 4871   2.809   3.900  16.003  0.2691  0.2551  0.6827
  321TMC3    C1 4872   3.033   3.646  17.149  0.2195 -0.3719  0.8420
  321TMC3    C2 4873   3.029   3.523  17.101  0.1459  0.2692  0.0111
  321TMC3    C3 4874   3.073   3.423  17.185  0.2557 -0.8801  0.3245
  321TMC3    C4 4875   3.075   3.674  17.275 -0.2744 -0.1466  0.1111
  321TMC3    C5 4876   3.131   3.576  17.350 -0.0719 -0.1688  0.1034
  321TMC3    C6 4877   3.123   3.449  17.307  0.0981  0.0551 -0.4858
  321TMC3     C 4878   2.972   3.752  17.073  0.3767  0.7194 -0.5573
  321TMC3     O 4879   2.910   3.837  17.136 -0.1037  0.0645  0.2937
  321TMC3     H 4880   2.975   3.496  17.011  1.8794  0.0348 -0.9649
  321TMC3    H1 4881   3.102   3.776  17.299 -0.6249 -0.1359  0.4489
  321TMC3    H2 4882   3.171   3.370  17.365  0.2547  0.1849 -0.4404
  321TMC3    C7 4883   3.259   3.608  17.395  0.1010  0.4733  0.5078
  321TMC3    C8 4884   3.157   3.326  17.124 -0.9449  0.7218 -0.1878
  321TMC3    O1 4885   3.281   3.589  17.515  0.2065  0.4168 -0.1533
  321TMC3    O2 4886   3.241   3.360  17.043 -0.1751  0.1274 -0.0603
  322MPD2     C 4887   2.165   0.077  13.819 -0.0875 -0.8694  0.7368
  322MPD2    C1 4888   2.258   4.731  13.876 -0.2375 -0.0768  0.0961
  322MPD2    C2 4889   2.306   4.625  13.806 -0.7175  0.1206  0.0289
  322MPD2    C3 4890   2.281   4.614  13.673 -0.8849 -0.1894  0.1044
  322MPD2    C4 4891   2.206   4.709  13.605 -0.3816  0.1795  0.7754
  322MPD2    C5 4892   2.147   0.070  13.683 -0.2323 -0.2595 -0.5995
  322MPD2     H 4893   2.379   4.561  13.854 -0.4771 -0.7645 -1.5057
  322MPD2    H1 4894   2.192   4.706  13.498  0.4372  0.6408  0.6504
  322MPD2    H2 4895   2.111   0.158  13.867  0.0468 -0.4846  0.2402
  322MPD2    H3 4896   2.082   0.151  13.652 -0.6297 -0.1694  0.4677
  322MPD2     N 4897   2.335   4.490  13.620  0.0671  0.2885 -0.8256
  322MPD2    H5 4898   2.379   4.431  13.690  0.2950  2.5141  0.9128
  322MPD2    N1 4899   2.289   0.016  14.016 -0.6230  0.2504  0.5989
  322MPD2    H7 4900   2.266   0.102  14.066 -0.7267 -0.1362  1.2159
  323TMC3    C1 4901   2.406   4.712  14.210  0.0491 -0.0412 -0.3387
  323TMC3    C2 4902   2.476   0.094  14.198 -0.5593 -0.4589 -0.0063
  323TMC3    C3 4903   2.560   0.125  14.300  0.0964  0.6318  0.3393
  323TMC3    C4 4904   2.415   4.621  14.314 -0.2521 -0.0946 -0.1954
  323TMC3    C5 4905   2.495   4.661  14.415  0.5607 -0.1231 -0.2563
  323TMC3    C6 4906   2.567   0.041  14.408  0.0038  0.2667 -0.1426
  323TMC3     C 4907   2.344   4.655  14.095 -0.6521  0.4904 -0.6494
  323TMC3     O 4908   2.375   4.534  14.082 -0.1445 -0.1655 -0.4414
  323TMC3     H 4909   2.442   0.172  14.130  0.2829 -1.6315 -1.7796
  323TMC3    H1 4910   2.354   4.532  14.308  4.3536 -3.1740 -1.3347
  323TMC3    H2 4911   2.628   0.073  14.491 -0.3795 -1.6600  0.8986
  323TMC3    C7 4912   2.541   4.553  14.500  0.0732  0.5211  0.8121
  323TMC3    C8 4913   2.678   0.197  14.262 -0.4098 -0.7002 -0.1487
  323TMC3    O1 4914   2.548   4.437  14.461  0.2920 -0.0484 -0.4132
  323TMC3    O2 4915   2.780   0.178  14.330  0.2016 -0.2533  0.5117
  324MPD2     C 4916   4.314   1.018  14.019  0.2977 -0.4931 -0.5170
  324MPD2    C1 4917   4.343   1.125  14.098  0.2809  0.9680 -0.1273
  324MPD2    C2 4918   4.241   1.192  14.166  0.3164 -0.2980 -0.4947
  324MPD2    C3 4919   4.112   1.148  14.135  0.1878 -0.1589 -1.0299
  324MPD2    C4 4920   4.084   1.033  14.066  0.1863  0.8498  0.2607
  324MPD2    C5 4921   4.187   0.981  14.002 -0.1918 -0.7397  0.0164
  324MPD2     H 4922   4.262   1.281  14.224  1.8798  0.3710 -2.0980
  324MPD2    H1 4923   3.981   1.001  14.056  0.8440 -0.8842 -1.0549
  324MPD2    H2 4924   4.390   0.962  13.965  1.6985  0.0541  0.8947
  324MPD2    H3 4925   4.166   0.901  13.932  0.3221  0.1696 -1.1939
  324MPD2     N 4926   3.996   1.216  14.188 -0.2191 -0.1294 -0.2342
  324MPD2    H5 4927   3.911   1.181  14.145 -1.7014  2.8328  0.3536
  324MPD2    N1 4928   4.477   1.176  14.109 -0.0888  0.0500  0.5655
  324MPD2    H7 4929   4.476   1.253  14.174 -0.2296  0.0929  0.5124
  325TMC3    C1 4930   3.851   1.386  14.249  0.7370 -0.3013 -0.1687
  325TMC3    C2 4931   3.748   1.292  14.260  0.2478  0.1192 -0.1825
  325TMC3    C3 4932   3.622   1.338  14.237  0.8890 -0.2979 -0.2911
  325TMC3    C4 4933   3.831   1.521  14.225  0.4127  0.1658  0.1365
  325TMC3    C5 4934   3.701   1.559  14.205 -0.0287  0.6529 -0.1294
  325TMC3    C6 4935   3.600   1.470  14.209 -0.2402  0.7431 -1.0739
  325TMC3     C 4936   3.983   1.335  14.258 -0.2186  0.4709  0.9897
  325TMC3     O 4937   4.073   1.405  14.302  0.1512  0.1673 -0.8709
  325TMC3     H 4938   3.773   1.191  14.289 -1.5524 -1.0433 -2.6223
  325TMC3    H1 4939   3.912   1.593  14.227 -0.2915  0.9238  1.0948
  325TMC3    H2 4940   3.501   1.502  14.179 -0.7435 -0.9982 -1.2984
  325TMC3    C7 4941   3.671   1.703  14.203  0.3817  0.2500  0.0670
  325TMC3    C8 4942   3.506   1.247  14.237 -0.1312  0.5269  1.0402
  325TMC3    O1 4943   3.771   1.772  14.180 -0.1540 -0.0279 -0.6364
  325TMC3    O2 4944   3.525   1.131  14.205  0.0186 -0.1693 -0.2587
  326MPD2     C 4945   4.425   1.987  11.117 -0.2224  0.7802 -0.1889
  326MPD2    C1 4946   4.379   2.028  10.993  0.0905 -1.1268  0.3501
  326MPD2    C2 4947   4.474   2.047  10.893 -0.5380  0.4680 -0.2336
  326MPD2    C3 4948   4.608   2.033  10.917  0.0220  0.0333 -0.4138
  326MPD2    C4 4949   4.655   1.979  11.037  0.7142  0.1141  0.1330
  326MPD2    C5 4950   4.560   1.958  11.130 -0.0675  1.2027 -0.3184
  326MPD2     H 4951   4.444   2.089  10.798 -2.5765  1.2033  0.7153
  326MPD2    H1 4952   0.024   1.972  11.070  0.5878 -1.3706  0.2200
  326MPD2    H2 4953   4.355   1.964  11.197  0.2984  1.3170  0.4239
  326MPD2    H3 4954   4.596   1.928  11.229  1.3847 -2.6878 -1.9982
  326MPD2     N 4955   4.705   2.069  10.826  0.5271  0.0196 -0.8396
  326MPD2    H5 4956   0.064   2.083  10.862  0.0788 -1.4947  0.9442
  326MPD2    N1 4957   4.244   2.056  10.966  0.5237 -0.5254  0.3940
  326MPD2    H7 4958   4.222   2.092  10.873  1.4537  0.3977  0.5288
  327TMC3    C1 4959   4.028   2.049  10.966 -1.2678 -0.2358  0.5930
  327TMC3    C2 4960   3.950   2.164  10.978  0.4215  1.2198  0.0997
  327TMC3    C3 4961   3.913   2.220  10.857 -0.8786 -0.4185  0.3680
  327TMC3    C4 4962   4.061   1.995  10.846 -0.6146 -0.0739  0.3548
  327TMC3    C5 4963   4.013   2.048  10.731 -0.0678  0.5770 -0.3277
  327TMC3    C6 4964   3.935   2.157  10.736  0.4670  0.4598  0.7203
  327TMC3     C 4965   4.141   2.041  11.051  0.1306 -0.2508  0.8446
  327TMC3     O 4966   4.117   2.010  11.164 -0.3615 -0.3209 -0.4835
  327TMC3     H 4967   3.942   2.215  11.073  2.0262 -1.1289  1.4766
  327TMC3    H1 4968   4.118   1.903  10.854  1.0476  0.9973  0.7636
  327TMC3    H2 4969   3.913   2.200  10.639 -0.7905 -0.6593  0.5023
  327TMC3    C7 4970   4.079   2.015  10.605  0.1675  0.4083 -0.4924
  327TMC3    C8 4971   3.853   2.346  10.856 -0.3504  0.0230 -0.0731
  327TMC3    O1 4972   4.023   2.046  10.500 -0.2368  0.3115  0.2860
  327TMC3    O2 4973   3.888   2.425  10.939 -0.8091 -0.1897 -0.7567
  328MPD2     C 4974   3.084   2.094  17.195  0.9941 -1.1100 -0.3101
  328MPD2    C1 4975   2.982   2.009  17.220  0.1821 -0.5734 -0.0057
  328MPD2    C2 4976   2.870   2.020  17.139  0.5657  0.0508 -0.1772
  328MPD2    C3 4977   2.865   2.106  17.030  0.1091  0.1959 -0.4326
  328MPD2    C4 4978   2.969   2.190  17.009 -0.1898  0.8264  0.1267
  328MPD2    C5 4979   3.080   2.181  17.088 -0.0291 -0.2035  0.2356
  328MPD2     H 4980   2.786   1.958  17.167  1.5069 -0.6952  1.0019
  328MPD2    H1 4981   2.968   2.254  16.922  0.0688  0.8917  0.1711
  328MPD2    H2 4982   3.178   2.099  17.250  0.2336  1.8288  0.7361
  328MPD2    H3 4983   3.160   2.253  17.080 -0.6111  0.2431 -1.4258
  328MPD2     N 4984   2.757   2.118  16.930  0.2756 -0.4537  0.6332
  328MPD2    H5 4985   2.771   2.188  16.858  1.7547  0.3389  1.6970
  328MPD2    N1 4986   2.965   1.929  17.342 -0.7021  0.0680  0.5884
  328MPD2    H7 4987   2.870   1.896  17.358  0.4394 -4.0386 -1.2455
  329TMC3    C1 4988   3.036   1.795  17.529 -0.1757  0.0683 -0.6708
  329TMC3    C2 4989   3.132   1.791  17.631  0.0302  0.0825 -0.0674
  329TMC3    C3 4990   3.091   1.752   0.016  0.3759 -0.3966  0.1073
  329TMC3    C4 4991   2.910   1.757  17.555  0.5642  0.5680  0.1136
  329TMC3    C5 4992   2.879   1.708  17.675 -0.2803 -0.2780 -0.0484
  329TMC3    C6 4993   2.969   1.703   0.039 -0.3861 -0.0510 -0.2846
  329TMC3     C 4994   3.075   1.876  17.409  0.4201 -0.9162 -0.4866
  329TMC3     O 4995   3.188   1.916  17.403 -0.1076 -0.0482  0.2629
  329TMC3     H 4996   3.217   1.857  17.622 -0.6456  0.9033 -0.4474
  329TMC3    H1 4997   2.837   1.760  17.474  3.5501 -1.9198 -2.6800
  329TMC3    H2 4998   2.951   1.665   0.139 -2.8395 -1.6216 -1.3242
  329TMC3    C7 4999   2.736   1.685  17.705  0.0788  0.0660  0.8446
  329TMC3    C8 5000   3.152   1.826   0.121 -0.0796  0.5665 -0.0709
  329TMC3    O1 5001   2.660   1.695  17.614  0.4677 -0.4900 -0.1232
  329TMC3    O2 5002   3.274   1.832   0.135 -0.2408 -0.2175  0.1021
  330TMC3    C1 5003   0.224   1.147   9.270  0.5509 -0.2043 -0.0896
  330TMC3    C2 5004   0.175   1.070   9.166 -0.1642 -0.0508 -0.5194
  330TMC3    C3 5005   0.259   0.962   9.129  0.2620 -0.0609 -0.6477
  330TMC3    C4 5006   0.334   1.113   9.342  0.2887 -0.0847  0.1326
  330TMC3    C5 5007   0.390   0.987   9.317 -0.0950 -0.1089 -0.5594
  330TMC3    C6 5008   0.363   0.914   9.203  0.1567 -0.4757  0.8584
  330TMC3     C 5009   0.155   1.263   9.323 -0.4690 -0.0610 -0.4402
  330TMC3     O 5010   0.217   1.331   9.403  0.0110  0.3594 -0.5345
  330TMC3     H 5011   0.096   1.107   9.102  1.7898  3.9932 -0.5572
  330TMC3    H1 5012   0.371   1.170   9.427 -0.6459  1.3266 -0.4156
  330TMC3    H2 5013   0.421   0.825   9.183  0.9645  0.4007 -0.6730
  330TMC3    C7 5014   0.502   0.949   9.402  0.0614  0.6838 -0.2932
  330TMC3    C8 5015   0.201   0.878   9.028  0.3837  0.2953  0.1998
  330TMC3    O1 5016   0.569   1.040   9.450 -0.0499  0.6266 -0.2299
  330TMC3    O2 5017   0.119   0.930   8.954  0.0356 -0.0100 -0.3265
  331MPD2     C 5018   2.914   0.430  12.671  0.0886 -0.1370  0.2707
  331MPD2    C1 5019   3.033   0.465  12.616  0.0247 -0.6699 -0.0885
  331MPD2    C2 5020   3.123   0.358  12.594  0.3521  0.5922 -0.0575
  331MPD2    C3 5021   3.090   0.232  12.624 -0.5021 -0.4296  0.3582
  331MPD2    C4 5022   2.966   0.207  12.685  0.2687 -0.5592 -0.2624
  331MPD2    C5 5023   2.874   0.307  12.711 -0.5406 -0.6005  0.1239
  331MPD2     H 5024   3.215   0.379  12.542  1.4007 -0.3905  1.4017
  331MPD2    H1 5025   2.928   0.111  12.718 -1.3781 -0.2617 -1.2791
  331MPD2    H2 5026   2.842   0.509  12.689 -1.4404 -1.7781  1.3739
  331MPD2    H3 5027   2.771   0.299  12.743 -1.0345 -0.1576 -1.3348
  331MPD2     N 5028   3.184   0.134  12.585 -0.1031  0.1278 -0.5742
  331MPD2    H5 5029   3.265   0.160  12.529 -0.5945  1.3440 -0.7345
  331MPD2    N1 5030   3.056   0.591  12.553 -0.4109 -0.4333  0.9198
  331MPD2    H7 5031   2.983   0.661  12.556 -0.5282 -0.6663  3.4446
  332TMC3    C1 5032   3.255   4.655  12.525 -0.4627 -0.0586 -0.2708
  332TMC3    C2 5033   3.289   4.705  12.404  0.1818  0.1192 -0.2857
  332TMC3    C3 5034   3.410   4.669  12.356  0.2190  0.6846  0.2323
  332TMC3    C4 5035   3.332   4.565  12.592 -0.6720 -0.4393  0.5709
  332TMC3    C5 5036   3.462   4.556  12.545 -0.1395  0.3707  0.3935
  332TMC3    C6 5037   3.509   4.598  12.427  0.2596  0.0776  0.2884
  332TMC3     C 5038   3.171   4.734  12.608 -0.1065 -0.5944 -0.3249
  332TMC3     O 5039   3.104   4.689  12.701 -0.2466 -0.6390  0.2745
  332TMC3     H 5040   3.219   0.027  12.345 -0.7166  0.3218  0.9617
  332TMC3    H1 5041   3.303   4.538  12.693  0.1701 -2.6862  0.2208
  332TMC3    H2 5042   3.598   4.562  12.378  0.7529  1.1038  0.4260
  332TMC3    C7 5043   3.562   4.502  12.629 -1.0995 -0.0909 -0.7701
  332TMC3    C8 5044   3.454   4.732  12.235  0.0639 -0.0640  0.6666
  332TMC3    O1 5045   3.522   4.435  12.727  0.1157 -0.3051  0.2124
  332TMC3    O2 5046   3.575   0.018  12.236  0.7318  0.2837 -0.6463
  333MPD2     C 5047   3.743   0.200  10.991  0.0139  0.1213  0.3300
  333MPD2    C1 5048   3.683   0.126  10.893 -0.5317  0.0730 -0.1441
  333MPD2    C2 5049   3.594   0.027  10.921 -0.0099 -0.1351  0.3714
  333MPD2    C3 5050   3.552   0.007  11.050  0.7227 -0.4085  0.4587
  333MPD2    C4 5051   3.614   0.077  11.151  0.2867  0.2295  0.3572
  333MPD2    C5 5052   3.710   0.175  11.120  0.7858  0.5145  0.7118
  333MPD2     H 5053   3.548   4.698  10.846  0.1242 -1.6391  1.5691
  333MPD2    H1 5054   3.592   0.059  11.256  0.9838  2.9018  0.9460
  333MPD2    H2 5055   3.818   0.275  10.973 -0.3403  0.1097 -1.2005
  333MPD2    H3 5056   3.754   0.225  11.205 -0.7949  0.1747  1.7376
  333MPD2     N 5057   3.455   4.639  11.081 -0.6051 -0.5717 -0.1608
  333MPD2    H5 5058   3.429   4.580  11.002  0.6625 -0.1382 -0.9157
  333MPD2    N1 5059   3.737   0.155  10.767 -0.0523  0.2988 -0.4920
  333MPD2    H7 5060   3.804   0.231  10.759 -0.2328  0.8065  2.4883
  334TMC3    C1 5061   3.749   0.157  10.530  0.1716 -0.2971 -0.4507
  334TMC3    C2 5062   3.796   0.070  10.437 -0.5848 -0.1104  0.1861
  334TMC3    C3 5063   3.853   0.130  10.326  0.4804 -0.3979 -0.5939
  334TMC3    C4 5064   3.755   0.295  10.518 -0.1391  0.6744 -0.2722
  334TMC3    C5 5065   3.795   0.346  10.405 -0.2212 -0.1487  0.1831
  334TMC3    C6 5066   3.849   0.268  10.307 -0.2856 -0.4659  0.0455
  334TMC3     C 5067   3.695   0.098  10.653  0.4510  0.0990  0.4092
  334TMC3     O 5068   3.638   4.724  10.645 -0.3099  0.1847 -0.3410
  334TMC3     H 5069   3.797   4.697  10.446 -2.9923 -0.1923 -0.4036
  334TMC3    H1 5070   3.717   0.359  10.597  0.4680 -1.3242  1.6045
  334TMC3    H2 5071   3.888   0.318  10.219 -0.9199  0.6062  0.3692
  334TMC3    C7 5072   3.789   0.489  10.395 -0.4470 -0.4875  0.0215
  334TMC3    C8 5073   3.918   0.047  10.232 -0.7914 -0.3841 -0.7728
  334TMC3    O1 5074   3.812   0.559  10.492 -0.0950  0.4955  0.4423
  334TMC3    O2 5075   3.857   4.696  10.173 -0.1672  0.3084  0.2902
  335TMC3    C1 5076   3.555   2.082  17.365  0.2163  0.2803 -0.5325
  335TMC3    C2 5077   3.469   2.027  17.270 -0.2921 -0.1013  0.5054
  335TMC3    C3 5078   3.462   2.076  17.142  0.4775 -0.1881 -0.6089
  335TMC3    C4 5079   3.636   2.185  17.328  0.0147 -0.7567 -0.0940
  335TMC3    C5 5080   3.626   2.232  17.203  0.1256  0.0233  0.1397
  335TMC3    C6 5081   3.542   2.183  17.109 -0.7225  0.9206  0.1319
  335TMC3     C 5082   3.626   1.983  17.446  0.0937 -0.3532  0.5599
  335TMC3     O 5083   3.746   2.001  17.463  0.3230 -0.6144  0.2514
  335TMC3     H 5084   3.418   1.936  17.299 -0.5951 -0.1665 -0.2259
  335TMC3    H1 5085   3.701   2.219  17.408  0.1765  2.3377 -1.5337
  335TMC3    H2 5086   3.534   2.227  17.010 -0.1060  1.3436  0.2669
  335TMC3    C7 5087   3.725   2.318  17.163 -0.5127 -0.7256  0.4561
  335TMC3    C8 5088   3.387   2.023  17.039 -0.2951  0.0557 -0.2097
  335TMC3    O1 5089   3.826   2.315  17.233  0.2648 -0.0937  0.2625
  335TMC3    O2 5090   3.392   2.083  16.932  0.3538 -0.1217  0.4981
  336MPD2     C 5091   3.220   0.247  15.709  0.2377 -0.2464 -0.1423
  336MPD2    C1 5092   3.082   0.233  15.723  0.4144  0.4896  0.0135
  336MPD2    C2 5093   3.035   0.119  15.783 -0.0392 -0.1602 -0.1719
  336MPD2    C3 5094   3.116   0.020  15.833 -0.1829  0.0168  0.3526
  336MPD2    C4 5095   3.253   0.035  15.819  1.1084 -0.3217  0.3829
  336MPD2    C5 5096   3.300   0.145  15.757  0.1597 -0.6835  0.2010
  336MPD2     H 5097   2.927   0.119  15.795  0.0492  1.2497  0.7164
  336MPD2    H1 5098   3.313   4.684  15.844  0.4599 -1.2107 -1.1317
  336MPD2    H2 5099   3.266   0.336  15.669 -2.2312  0.5521 -1.1887
  336MPD2    H3 5100   3.404   0.160  15.730 -0.0167 -0.3427 -0.3091
  336MPD2     N 5101   3.071   4.634  15.897 -0.4489  0.0654 -0.2416
  336MPD2    H5 5102   3.135   4.569  15.941 -0.7133  0.3811  0.6116
  336MPD2    N1 5103   2.985   0.330  15.681  0.4988 -0.1066 -0.7412
  336MPD2    H7 5104   2.887   0.314  15.704  0.5782  0.7842  0.2446
  337TMC3    C1 5105   2.903   0.533  15.605  0.4802  0.7433  0.1818
  337TMC3    C2 5106   2.777   0.478  15.594 -0.3231 -0.2014 -0.3791
  337TMC3    C3 5107   2.665   0.559  15.587  0.3894  0.1268  0.2419
  337TMC3    C4 5108   2.922   0.668  15.596  0.6026 -0.0709 -0.3594
  337TMC3    C5 5109   2.813   0.745  15.585 -0.1439 -0.5242 -0.1027
  337TMC3    C6 5110   2.685   0.693  15.578 -0.1968  0.1059  0.2311
  337TMC3     C 5111   3.018   0.453  15.628 -0.3131 -0.3087 -0.7411
  337TMC3     O 5112   3.127   0.506  15.599 -0.2050  0.5227  0.2347
  337TMC3     H 5113   2.765   0.370  15.587  0.3225 -0.2417 -0.8437
  337TMC3    H1 5114   3.022   0.705  15.615  0.4431  0.7657 -1.1624
  337TMC3    H2 5115   2.606   0.768  15.579  0.1336  0.4833 -3.2809
  337TMC3    C7 5116   2.822   0.894  15.570 -0.2643  0.8265 -0.5012
  337TMC3    C8 5117   2.558   0.504  15.515  0.1004 -0.1219  0.5303
  337TMC3    O1 5118   2.722   0.968  15.551 -0.3014  0.0989 -0.2386
  337TMC3    O2 5119   2.579   0.400  15.455  0.2146 -0.3355 -0.3191
  338MPD2     C 5120   3.412   3.708   0.837 -0.0028 -0.2878  0.1517
  338MPD2    C1 5121   3.379   3.704   0.701  0.8019 -0.1535 -0.5790
  338MPD2    C2 5122   3.252   3.757   0.664 -0.9450  0.4229  0.8465
  338MPD2    C3 5123   3.160   3.795   0.760 -0.1539  0.0551  0.1407
  338MPD2    C4 5124   3.189   3.800   0.897 -0.2313 -0.6681  0.7613
  338MPD2    C5 5125   3.314   3.748   0.928 -0.7480  0.6336  0.0869
  338MPD2     H 5126   3.217   3.757   0.561 -0.6663  0.3984  0.7511
  338MPD2    H1 5127   3.122   3.832   0.976 -2.4206  1.0088 -1.7361
  338MPD2    H2 5128   3.500   3.659   0.878 -0.8718 -2.7528 -0.9770
  338MPD2    H3 5129   3.338   3.747   1.034 -0.9088  0.7815  0.1252
  338MPD2     N 5130   3.035   3.836   0.704 -0.1987 -0.1416  0.2363
  338MPD2    H5 5131   3.031   3.841   0.603  2.2377 -3.5652 -0.0133
  338MPD2    N1 5132   3.469   3.682   0.591  0.0747 -0.1123  0.7625
  338MPD2    H7 5133   3.429   3.691   0.498  2.1642 -2.0507 -0.3355
  339TMC3    C1 5134   2.813   3.880   0.682 -0.1556 -0.5169  0.6103
  339TMC3    C2 5135   2.691   3.884   0.738  0.9050  0.2070  0.1783
  339TMC3    C3 5136   2.584   3.928   0.657 -0.0765  0.2015  0.2516
  339TMC3    C4 5137   2.825   3.899   0.549 -0.2686  0.0609  0.0140
  339TMC3    C5 5138   2.718   3.937   0.472 -0.5131  0.4975  0.5378
  339TMC3    C6 5139   2.597   3.958   0.525 -0.5249 -0.9791 -0.0899
  339TMC3     C 5140   2.916   3.846   0.769 -0.4556 -0.6195 -0.1079
  339TMC3     O 5141   2.896   3.816   0.881 -0.3437  0.3866  0.4829
  339TMC3     H 5142   2.675   3.860   0.842 -1.5858  1.6204  0.1250
  339TMC3    H1 5143   2.915   3.876   0.494  0.8903 -2.0560  2.8263
  339TMC3    H2 5144   2.524   3.992   0.453 -0.0770 -0.9409 -0.5275
  339TMC3    C7 5145   2.729   3.939   0.326 -0.2457  0.4726  0.0467
  339TMC3    C8 5146   2.449   3.890   0.688  0.1044 -0.9596  0.5198
  339TMC3    O1 5147   2.638   3.996   0.263  0.0100 -0.7129  0.2070
  339TMC3    O2 5148   2.398   3.826   0.596  0.1407  0.0380 -0.4616
  340MPD2     C 5149   3.064   1.946   9.725 -0.0823  0.3494  0.5885
  340MPD2    C1 5150   3.128   1.918   9.842 -0.2016 -0.1651  1.1389
  340MPD2    C2 5151   3.124   2.006   9.946  0.2001  0.0972 -0.0969
  340MPD2    C3 5152   3.076   2.132   9.924 -0.1852 -0.1975  0.5330
  340MPD2    C4 5153   3.004   2.158   9.809  0.2488  0.3716 -0.3870
  340MPD2    C5 5154   2.996   2.064   9.711 -0.6644 -0.0777 -0.1606
  340MPD2     H 5155   3.172   1.975  10.039 -2.5937  0.0476  1.3269
  340MPD2    H1 5156   2.959   2.254   9.787 -2.0259 -1.3319 -3.2236
  340MPD2    H2 5157   3.067   1.868   9.650  0.5034  1.5056 -0.5895
  340MPD2    H3 5158   2.941   2.087   9.621  0.5485  0.5164 -0.7467
  340MPD2     N 5159   3.076   2.241  10.024  0.1826  0.3771 -0.3275
  340MPD2    H5 5160   3.042   2.334  10.002  1.5864  1.2345  1.1259
  340MPD2    N1 5161   3.198   1.793   9.855 -0.2086 -0.0548 -0.7201
  340MPD2    H7 5162   3.187   1.728   9.778  0.4064 -3.6762  2.2246
  341TMC3    C1 5163   3.368   1.645   9.927  0.3340  0.5368  0.5138
  341TMC3    C2 5164   3.289   1.533   9.909 -0.2002  0.1460 -0.5882
  341TMC3    C3 5165   3.354   1.408   9.916 -0.3412  0.5326  0.1338
  341TMC3    C4 5166   3.505   1.632   9.958 -0.2565  0.2889  0.1293
  341TMC3    C5 5167   3.564   1.507   9.963 -0.3622  0.2881  0.4301
  341TMC3    C6 5168   3.486   1.395   9.951  0.0798 -0.5343 -0.8982
  341TMC3     C 5169   3.315   1.780   9.931 -0.0848 -0.3158 -0.2879
  341TMC3     O 5170   3.366   1.858  10.011  0.7024 -0.4063 -0.1678
  341TMC3     H 5171   3.184   1.539   9.884 -0.5103  1.5798  1.0852
  341TMC3    H1 5172   3.573   1.715   9.969  0.3055 -0.0533 -0.7683
  341TMC3    H2 5173   3.522   1.295   9.972 -1.3223 -0.4651  1.7717
  341TMC3    C7 5174   3.708   1.493   9.989  0.0325  0.5098  0.1123
  341TMC3    C8 5175   3.274   1.290   9.930  0.0411  0.4838  0.1033
  341TMC3    O1 5176   3.763   1.595  10.034 -0.5690 -0.0384 -0.1595
  341TMC3    O2 5177   3.334   1.182   9.924  0.1945 -0.1825 -0.1983
  342MPD2     C 5178   1.405   0.256  17.609  0.0258  0.5223  0.0986
  342MPD2    C1 5179   1.470   0.257  17.488  0.4128  0.2091 -0.0417
  342MPD2    C2 5180   1.524   0.376  17.435 -0.4061 -0.2524 -0.3214
  342MPD2    C3 5181   1.506   0.496  17.504 -0.4233 -0.0020 -0.6333
  342MPD2    C4 5182   1.453   0.494  17.632 -0.3885  0.5259 -0.1796
  342MPD2    C5 5183   1.408   0.371  17.681  0.0116  0.0503 -0.5521
  342MPD2     H 5184   1.583   0.358  17.346  0.1916 -0.4442  0.1074
  342MPD2    H1 5185   1.430   0.585  17.686  2.7788  2.7815 -2.5939
  342MPD2    H2 5186   1.354   0.173  17.656 -3.2632  2.9723  0.8652
  342MPD2    H3 5187   1.343   0.371   0.030  1.2047  2.2016  0.3457
  342MPD2     N 5188   1.560   0.619  17.452  0.2882  0.6119  0.2833
  342MPD2    H5 5189   1.583   0.692  17.519  4.5363  0.2431 -0.8016
  342MPD2    N1 5190   1.490   0.136  17.420  0.3962  0.5058 -0.1790
  342MPD2    H7 5191   1.562   0.140  17.348  0.1596  0.9056 -0.3919
  343TMC3    C1 5192   1.477   4.652  17.352 -0.1980  0.0778  0.1655
  343TMC3    C2 5193   1.612   4.631  17.352  0.1745 -0.3546  0.8056
  343TMC3    C3 5194   1.663   4.508  17.304  0.1041 -0.4496  0.2974
  343TMC3    C4 5195   1.389   4.552  17.319 -0.1288 -0.0751  0.3055
  343TMC3    C5 5196   1.439   4.447  17.249 -0.7345 -0.0160  0.3537
  343TMC3    C6 5197   1.575   4.422  17.245  0.3770 -0.3613  0.8076
  343TMC3     C 5198   1.431   0.019  17.440 -0.0411 -0.1812 -0.0639
  343TMC3     O 5199   1.335   4.723  17.513  0.0926  0.6707  0.5032
  343TMC3     H 5200   1.677   4.714  17.375 -0.0699  0.1803 -0.4807
  343TMC3    H1 5201   1.285   4.583  17.327  0.0150  0.7607 -1.0935
  343TMC3    H2 5202   1.605   4.331  17.195 -0.5426 -1.6939  2.6837
  343TMC3    C7 5203   1.374   4.325  17.243  0.1845  0.0408  0.0142
  343TMC3    C8 5204   1.807   4.494  17.293 -0.0314 -0.6688 -0.5424
  343TMC3    O1 5205   1.376   4.266  17.137 -0.2321  0.3066  0.2624
  343TMC3    O2 5206   1.873   4.551  17.377  0.2246  0.2080  0.1133
  344MPD2     C 5207   2.231   4.576  10.730  0.0773  0.4497  0.0471
  344MPD2    C1 5208   2.185   4.521  10.609 -0.8536 -0.9096  0.1202
  344MPD2    C2 5209   2.227   4.583  10.490 -0.9213  0.3491 -0.1333
  344MPD2    C3 5210   2.325   4.678  10.496  0.1496  0.0249  0.2713
  344MPD2    C4 5211   2.372   4.724  10.615  0.3691 -0.6404  0.1592
  344MPD2    C5 5212   2.321   4.679  10.733 -0.9866 -0.6286 -0.0195
  344MPD2     H 5213   2.179   4.556  10.396  2.2523  0.2333 -1.7291
  344MPD2    H1 5214   2.449   0.065  10.612  1.7229 -1.9199  2.7744
  344MPD2    H2 5215   2.200   4.538  10.827 -0.1796 -1.9734 -0.9860
  344MPD2    H3 5216   2.357   4.717  10.828 -1.3762 -0.8159  0.2021
  344MPD2     N 5217   2.379   0.015  10.388 -0.1060 -0.0850 -0.0703
  344MPD2    H5 5218   2.451   0.085  10.402 -1.1650  1.1813 -0.9908
  344MPD2    N1 5219   2.078   4.423  10.606  0.2411 -0.0651 -1.1766
  344MPD2    H7 5220   2.037   4.401  10.515  1.2929 -0.8180 -1.4665
  345TMC3    C1 5221   2.399   0.086  10.167 -0.3871  0.1168  0.2280
  345TMC3    C2 5222   2.519   0.127  10.211 -0.2267  0.0400 -0.1096
  345TMC3    C3 5223   2.584   0.227  10.140 -0.7048  0.9820  0.4698
  345TMC3    C4 5224   2.333   0.151  10.070 -0.1775 -0.2181 -0.3349
  345TMC3    C5 5225   2.399   0.252  10.002  0.2513  0.4334 -0.4076
  345TMC3    C6 5226   2.524   0.292  10.035 -0.4586  0.5586 -0.1966
  345TMC3     C 5227   2.316   0.021  10.263 -0.3687  0.6654  0.4044
  345TMC3     O 5228   2.201   4.724  10.237 -0.2688  0.0963  0.4094
  345TMC3     H 5229   2.575   0.070  10.284  1.8861  1.2841 -0.7619
  345TMC3    H1 5230   2.227   0.136  10.054 -0.0519 -2.6883  1.1874
  345TMC3    H2 5231   2.576   0.362   9.971  0.3767  1.6342  1.6701
  345TMC3    C7 5232   2.332   0.346   9.917 -0.1225  0.9808 -0.4386
  345TMC3    C8 5233   2.689   0.296  10.209 -0.1683 -0.0625  0.3326
  345TMC3    O1 5234   2.383   0.453   9.921  0.6555 -0.3614 -0.6329
  345TMC3    O2 5235   2.692   0.273  10.328 -0.5793 -0.1674 -0.6270
  346MPD2     C 5236   2.461   1.319  14.165  0.4987 -0.6372  0.1132
  346MPD2    C1 5237   2.576   1.347  14.101 -0.2539  1.2004  0.1766
  346MPD2    C2 5238   2.657   1.449  14.158  0.0421  0.4545  0.3951
  346MPD2    C3 5239   2.614   1.524  14.265  0.0030 -0.7843 -0.0090
  346MPD2    C4 5240   2.488   1.507  14.319 -0.8195 -0.2194  0.1914
  346MPD2    C5 5241   2.415   1.403  14.269  0.4441 -0.7076 -0.3086
  346MPD2     H 5242   2.757   1.466  14.119  0.5020 -0.4442  1.1648
  346MPD2    H1 5243   2.454   1.556  14.410 -1.9123 -0.0495 -0.2989
  346MPD2    H2 5244   2.395   1.244  14.125 -0.7272  0.6238 -0.2185
  346MPD2    H3 5245   2.314   1.385  14.304 -0.4174 -1.7242 -3.3222
  346MPD2     N 5246   2.704   1.620  14.312 -0.3555 -0.1524  0.6955
  346MPD2    H5 5247   2.791   1.628  14.259 -0.3238 -0.7796  0.6601
  346MPD2    N1 5248   2.617   1.285  13.978 -0.0142  0.0279 -0.0787
  346MPD2    H7 5249   2.707   1.312  13.940  0.4480 -0.3808  0.7293
  347TMC3    C1 5250   2.783   1.817  14.428 -0.1228 -0.4830 -0.2687
  347TMC3    C2 5251   2.859   1.842  14.321  0.1173 -0.3207  0.5112
  347TMC3    C3 5252   2.959   1.933  14.338  1.2902 -0.8426 -0.5379
  347TMC3    C4 5253   2.803   1.878  14.551 -0.1949  0.4696  0.4673
  347TMC3    C5 5254   2.920   1.953  14.560 -0.0850 -0.2293  0.4789
  347TMC3    C6 5255   2.994   1.991  14.451 -0.2033 -0.3335  0.2142
  347TMC3     C 5256   2.686   1.707  14.412  0.2696  0.9707 -0.5067
  347TMC3     O 5257   2.600   1.703  14.501 -0.0785  0.1933  0.2062
  347TMC3     H 5258   2.837   1.799  14.224 -0.2111 -0.0363  0.4587
  347TMC3    H1 5259   2.735   1.851  14.631  1.6706 -0.1895  1.8245
  347TMC3    H2 5260   3.082   2.054  14.452 -0.1584 -0.3972  0.2844
  347TMC3    C7 5261   2.988   1.946  14.688  0.4822 -0.1089  0.3214
  347TMC3    C8 5262   3.063   1.919  14.233 -0.3999 -0.7991 -0.3500
  347TMC3    O1 5263   2.939   1.863  14.761  0.7063 -0.4840 -0.0014
  347TMC3    O2 5264   3.063   1.828  14.147 -0.6632 -0.2001  0.3836
  348MPD2     C 5265   0.754   0.648  11.684  0.3666  0.1266  0.2305
  348MPD2    C1 5266   0.790   0.783  11.675  0.5608  0.1412 -0.0734
  348MPD2    C2 5267   0.736   0.865  11.576  0.3490 -0.3147 -0.3089
  348MPD2    C3 5268   0.641   0.815  11.492 -0.6862 -0.4198 -0.9965
  348MPD2    C4 5269   0.605   0.684  11.502  0.4835 -0.1344  0.4169
  348MPD2    C5 5270   0.662   0.598  11.596 -0.1390 -0.1700  0.3323
  348MPD2     H 5271   0.778   0.964  11.561 -1.1954  0.6130  1.4048
  348MPD2    H1 5272   0.530   0.639  11.438  1.4088 -0.0457 -0.7320
  348MPD2    H2 5273   0.792   0.580  11.758  0.4069 -0.3634 -0.2410
  348MPD2    H3 5274   0.634   0.493  11.600  0.8541 -0.4741 -0.5975
  348MPD2     N 5275   0.587   0.904  11.396 -0.6640 -0.1174  0.0966
  348MPD2    H5 5276   0.618   1.000  11.393 -0.6980 -0.0934  0.5688
  348MPD2    N1 5277   0.892   0.836  11.756  0.0726  0.3782 -0.1680
  348MPD2    H7 5278   0.927   0.928  11.732 -1.1219  1.5440  2.6348
  349TMC3    C1 5279   1.086   0.807  11.878  0.1589  0.8564  1.0054
  349TMC3    C2 5280   1.155   0.705  11.925  0.5339  0.6114  0.5420
  349TMC3    C3 5281   1.257   0.664  11.844  0.7424 -0.0126  0.9925
  349TMC3    C4 5282   1.131   0.888  11.771  0.3201  0.0620  0.1186
  349TMC3    C5 5283   1.231   0.834  11.697 -0.1703 -0.4601  0.0838
  349TMC3    C6 5284   1.291   0.720  11.725 -0.4895 -0.4305 -0.3206
  349TMC3     C 5285   0.945   0.785  11.873 -0.0860  0.6198 -0.0458
  349TMC3     O 5286   0.887   0.701  11.943 -0.4376 -0.0921 -0.3469
  349TMC3     H 5287   1.131   0.655  12.018  0.3770 -0.2743  0.0254
  349TMC3    H1 5288   1.089   0.986  11.749  1.9504  0.7794  0.1440
  349TMC3    H2 5289   1.369   0.680  11.662 -0.2628  0.3799 -0.5539
  349TMC3    C7 5290   1.213   0.862  11.555  0.0429 -0.0535  0.1836
  349TMC3    C8 5291   1.350   0.570  11.897 -0.2927  0.3242 -0.0090
  349TMC3    O1 5292   1.213   0.762  11.487  0.0462 -0.6113  0.0910
  349TMC3    O2 5293   1.356   0.586  12.020  0.2574  0.1872  0.3060
  350MPD2     C 5294   4.604   3.631  10.107  0.3812  0.1781  0.4775
  350MPD2    C1 5295   4.671   3.515  10.129 -0.3939 -0.2627 -0.2934
  350MPD2    C2 5296   0.071   3.524  10.155  0.0789  0.1530  0.1467
  350MPD2    C3 5297   0.139   3.640  10.145  0.3781 -0.2224  0.2698
  350MPD2    C4 5298   0.070   3.755  10.104  1.0823  0.3657 -0.2894
  350MPD2    C5 5299   4.673   3.748  10.085 -0.4262 -0.1875  0.3633
  350MPD2     H 5300   0.121   3.432  10.186  0.1053  0.0369 -0.2397
  350MPD2    H1 5301   0.109   3.853  10.081 -0.9007  1.4479  0.8952
  350MPD2    H2 5302   4.497   3.635  10.092  0.2706 -2.1387  0.5997
  350MPD2    H3 5303   4.628   3.842  10.056 -1.7849 -0.4664  1.5780
  350MPD2     N 5304   0.274   3.644  10.182  0.0078  0.3511 -0.3537
  350MPD2    H5 5305   0.325   3.556  10.193  3.3691  2.0028 -2.7526
  350MPD2    N1 5306   4.607   3.387  10.139  0.7913  0.2506  0.5176
  350MPD2    H7 5307   4.655   3.299  10.151 -1.2140 -1.0415 -0.7981
  351TMC3    C1 5308   4.435   3.237  10.141 -0.3024 -0.2375  0.0328
  351TMC3    C2 5309   4.520   3.137  10.115 -0.0632  0.3856 -0.2205
  351TMC3    C3 5310   4.472   3.007  10.100  0.4949 -0.2711 -0.1963
  351TMC3    C4 5311   4.302   3.215  10.158  0.4845 -0.8186  0.1939
  351TMC3    C5 5312   4.260   3.083  10.161 -0.5799  0.7241  0.1940
  351TMC3    C6 5313   4.345   2.980  10.136  0.0682 -0.2000  0.3449
  351TMC3     C 5314   4.471   3.375  10.119  0.8067  0.1169  0.0532
  351TMC3     O 5315   4.385   3.457  10.090  0.4580 -0.3788  0.5159
  351TMC3     H 5316   4.620   3.155  10.076  0.5445 -1.7345  0.3471
  351TMC3    H1 5317   4.231   3.297  10.165 -1.2489 -1.8835 -5.1933
  351TMC3    H2 5318   4.304   2.880  10.138  0.2992 -0.2845  1.0115
  351TMC3    C7 5319   4.164   3.051  10.264  0.7988  0.0491  0.6368
  351TMC3    C8 5320   4.547   2.903  10.030 -0.8495  0.7242 -0.5244
  351TMC3    O1 5321   4.102   2.944  10.259 -0.0405 -0.9338 -0.5387
  351TMC3    O2 5322   4.487   2.795  10.010 -0.4453 -0.0405 -0.1614
  352MPD2     C 5323   3.264   0.726   0.771  0.0071 -0.1127 -0.5683
  352MPD2    C1 5324   3.179   0.742   0.880  1.0256  0.5250 -0.2608
  352MPD2    C2 5325   3.181   0.647   0.985 -0.2595 -0.3368 -0.7509
  352MPD2    C3 5326   3.288   0.556   0.996 -0.6858 -0.8944  0.3481
  352MPD2    C4 5327   3.374   0.551   0.886 -0.2108  0.1407  0.3087
  352MPD2    C5 5328   3.364   0.636   0.770 -0.1041  0.4409 -0.0836
  352MPD2     H 5329   3.118   0.650   1.073 -1.5255  0.8523 -1.6761
  352MPD2    H1 5330   3.451   0.475   0.874 -0.3870 -0.5215  3.4271
  352MPD2    H2 5331   3.244   0.783   0.681 -4.9407 -0.7467  0.1577
  352MPD2    H3 5332   3.429   0.618   0.686 -2.4982  0.8975 -2.0302
  352MPD2     N 5333   3.300   0.450   1.094  0.0589 -0.8020 -0.3715
  352MPD2    H5 5334   3.365   0.376   1.071  0.9270 -0.2382  0.2516
  352MPD2    N1 5335   3.083   0.847   0.863  0.4519 -0.4857  0.3029
  352MPD2    H7 5336   3.084   0.896   0.774  2.0646 -1.8385 -0.4304
  353TMC3    C1 5337   3.264   0.296   1.262  0.3121 -0.3905  0.8477
  353TMC3    C2 5338   3.397   0.252   1.257 -0.4698 -0.3446  0.3373
  353TMC3    C3 5339   3.422   0.129   1.309  0.3094 -0.1072 -0.3231
  353TMC3    C4 5340   3.163   0.205   1.265 -0.3694 -0.4785 -0.3323
  353TMC3    C5 5341   3.194   0.076   1.293 -0.5448 -0.2170 -0.3358
  353TMC3    C6 5342   3.325   0.035   1.326 -0.0624 -0.3237  0.4912
  353TMC3     C 5343   3.220   0.417   1.199  0.0029 -1.2493  0.0937
  353TMC3     O 5344   3.125   0.478   1.247  0.9124  0.0448 -0.8100
  353TMC3     H 5345   3.472   0.330   1.256 -2.1770  1.3085  0.5686
  353TMC3    H1 5346   3.062   0.241   1.258  0.4962  2.0764  0.3259
  353TMC3    H2 5347   3.352   4.669   1.355 -0.5331 -0.2936  1.0337
  353TMC3    C7 5348   3.088   4.708   1.284 -0.4386 -0.3682  0.4099
  353TMC3    C8 5349   3.564   0.094   1.298  0.6179 -0.6264  0.0714
  353TMC3    O1 5350   3.098   4.608   1.351  0.0365 -0.3217 -0.2084
  353TMC3    O2 5351   3.647   0.179   1.314  0.3060  0.2189 -0.5630
  354TMC3    C1 5352   0.325   2.242  13.331  0.1936 -0.2548 -0.0232
  354TMC3    C2 5353   0.346   2.373  13.302 -0.3864  0.8139  0.7570
  354TMC3    C3 5354   0.295   2.420  13.183  0.2611 -0.1870 -0.2176
  354TMC3    C4 5355   0.262   2.160  13.241 -0.2706 -0.3137 -0.9224
  354TMC3    C5 5356   0.261   2.197  13.109  0.2154  0.0107 -0.7502
  354TMC3    C6 5357   0.271   2.329  13.083  1.2280  0.6596 -0.4056
  354TMC3     C 5358   0.333   2.204  13.471  0.2478  0.2349 -0.6608
  354TMC3     O 5359   0.271   2.104  13.509  0.4523 -0.1440  0.3043
  354TMC3     H 5360   0.383   2.439  13.379  1.9346  1.2724 -0.7340
  354TMC3    H1 5361   0.242   2.058  13.272 -1.0258 -0.3876 -1.6610
  354TMC3    H2 5362   0.274   2.375  12.985  1.5595 -0.0704 -0.7353
  354TMC3    C7 5363   0.260   2.090  13.009  0.6977 -0.0620  0.7340
  354TMC3    C8 5364   0.365   2.539  13.131  0.0272 -0.0163  0.2303
  354TMC3    O1 5365   0.231   1.983  13.063  0.6359 -0.0983 -0.3253
  354TMC3    O2 5366   0.294   2.617  13.072  0.0867 -0.0826  0.1355
  355MPD2     C 5367   0.065   2.894  11.647  0.1769  0.8375 -1.3645
  355MPD2    C1 5368   0.108   2.924  11.521  0.1369  0.3740  0.3017
  355MPD2    C2 5369   0.238   2.954  11.510  0.1154  0.0250 -1.2001
  355MPD2    C3 5370   0.323   2.968  11.622  0.1878  0.1966 -0.0527
  355MPD2    C4 5371   0.279   2.930  11.747 -0.1115  0.1421  0.5769
  355MPD2    C5 5372   0.150   2.890  11.755 -0.1786  0.5415 -0.1228
  355MPD2     H 5373   0.288   2.968  11.414  0.7108  1.6678 -0.6477
  355MPD2    H1 5374   0.354   2.922  11.824  0.9474  2.0162 -0.2660
  355MPD2    H2 5375   4.699   2.856  11.663  1.1141 -0.6507  0.9840
  355MPD2    H3 5376   0.113   2.848  11.848  1.1426  0.2249  0.2538
  355MPD2     N 5377   0.455   3.025  11.608  0.8922  0.1702 -0.1965
  355MPD2    H5 5378   0.506   3.055  11.690 -0.0196 -0.8738  0.7606
  355MPD2    N1 5379   0.011   2.921  11.418 -0.0373  0.5609  0.4210
  355MPD2    H7 5380   4.650   2.889  11.433  0.4694 -0.4804  1.4643
  356TMC3    C1 5381   0.650   3.128  11.519 -0.2171  0.1341  0.3623
  356TMC3    C2 5382   0.739   3.152  11.416 -0.3579 -0.1716 -0.0456
  356TMC3    C3 5383   0.847   3.227  11.450 -0.7435  0.6587  0.4842
  356TMC3    C4 5384   0.669   3.166  11.652 -0.1304 -0.3322  0.3341
  356TMC3    C5 5385   0.786   3.229  11.678 -0.0194  0.6512 -0.4493
  356TMC3    C6 5386   0.881   3.256  11.581 -0.3165  0.2566 -0.1118
  356TMC3     C 5387   0.527   3.053  11.491  0.3058 -0.2052 -0.2920
  356TMC3     O 5388   0.515   3.005  11.378  0.7412 -0.1347  0.2978
  356TMC3     H 5389   0.721   3.128  11.312  1.5679  0.6034 -0.5445
  356TMC3    H1 5390   0.595   3.169  11.731  1.2245 -1.8301  1.6446
  356TMC3    H2 5391   0.981   3.288  11.607  0.5299 -0.6714 -2.2076
  356TMC3    C7 5392   0.802   3.278  11.816 -0.2309 -0.0671 -0.1065
  356TMC3    C8 5393   0.945   3.260  11.345  0.7944  0.0543 -0.5612
  356TMC3    O1 5394   0.734   3.213  11.894  0.1026 -0.7028  0.3563
  356TMC3    O2 5395   0.924   3.208  11.237 -0.0591  0.1434 -0.6299
  357MPD2     C 5396   4.141   2.231   1.016  0.5444  0.4493 -0.5802
  357MPD2    C1 5397   4.249   2.158   0.985  0.5243  0.0269 -0.4700
  357MPD2    C2 5398   4.262   2.024   1.030  0.0815  0.4541  0.6097
  357MPD2    C3 5399   4.149   1.964   1.092 -0.3002 -0.5691  0.1800
  357MPD2    C4 5400   4.035   2.041   1.107 -0.4768 -0.5683  0.5415
  357MPD2    C5 5401   4.029   2.172   1.067 -0.3601 -0.6276  0.3522
  357MPD2     H 5402   4.351   1.970   0.999 -0.5858 -1.0639  1.3324
  357MPD2    H1 5403   3.949   1.999   1.157 -0.3177 -0.0346  1.2783
  357MPD2    H2 5404   4.140   2.324   0.960  0.6303  0.0625 -1.2302
  357MPD2    H3 5405   3.941   2.230   1.091  0.4397  0.6413  0.2385
  357MPD2     N 5406   4.145   1.824   1.122  0.0286 -0.4836  0.4857
  357MPD2    H5 5407   4.056   1.785   1.150  0.1361 -0.9036  0.2593
  357MPD2    N1 5408   4.350   2.228   0.918 -0.5559  0.0099  0.2133
  357MPD2    H7 5409   4.324   2.323   0.893  0.1946  0.5206  1.4087
  358TMC3    C1 5410   4.534   2.279   0.774  0.0785 -0.6945 -0.0207
  358TMC3    C2 5411   4.629   2.234   0.688  0.3747  0.0827 -0.8203
  358TMC3    C3 5412   4.673   2.325   0.594  0.5179  0.0186 -0.1976
  358TMC3    C4 5413   4.496   2.413   0.786  0.1863  0.1569 -0.9551
  358TMC3    C5 5414   4.548   2.495   0.696 -0.1259 -0.1761 -0.8524
  358TMC3    C6 5415   4.623   2.451   0.590 -0.1442 -0.6319  0.5064
  358TMC3     C 5416   4.460   2.175   0.851 -0.2757  0.9214 -0.0436
  358TMC3     O 5417   4.509   2.062   0.858  0.2381 -0.1933  0.3221
  358TMC3     H 5418   4.665   2.131   0.688  1.2692  0.3905  1.1949
  358TMC3    H1 5419   4.437   2.441   0.873 -0.5214  0.0081 -1.3857
  358TMC3    H2 5420   4.683   2.524   0.536  0.6882 -1.7629 -0.1006
  358TMC3    C7 5421   4.546   2.639   0.719 -0.1292 -0.2381 -0.4312
  358TMC3    C8 5422   0.025   2.300   0.476 -0.7519  0.3623 -0.4730
  358TMC3    O1 5423   4.652   2.703   0.683  0.1146  0.0810 -1.1995
  358TMC3    O2 5424   0.022   2.378   0.378  0.0423 -0.7096  0.7215
  359MPD2     C 5425   0.379   1.931  12.185  0.3248  0.6576  0.3232
  359MPD2    C1 5426   0.412   1.838  12.091  0.6199  0.0456 -0.0218
  359MPD2    C2 5427   0.376   1.704  12.119  0.2449 -0.7161  0.1337
  359MPD2    C3 5428   0.314   1.669  12.238  0.0723 -0.7045  0.9473
  359MPD2    C4 5429   0.289   1.772  12.329  0.2203 -0.1127 -0.3605
  359MPD2    C5 5430   0.322   1.897  12.301 -0.0129  0.2334 -0.8340
  359MPD2     H 5431   0.389   1.640  12.032  0.0873 -0.5474 -0.0125
  359MPD2    H1 5432   0.254   1.741  12.427 -0.4800 -2.8218 -1.4529
  359MPD2    H2 5433   0.403   2.036  12.170 -0.5568  1.2586  2.9679
  359MPD2    H3 5434   0.301   1.974  12.375  0.2614  0.8922 -1.4522
  359MPD2     N 5435   0.279   1.537  12.265 -0.1816 -0.8644 -1.0104
  359MPD2    H5 5436   0.237   1.512  12.354 -1.1792  0.6783 -1.0460
  359MPD2    N1 5437   0.477   1.873  11.970  0.0634  0.2620 -0.9329
  359MPD2    H7 5438   0.476   1.799  11.900  0.3859 -0.1006 -0.5543
  360TMC3    C1 5439   0.560   1.999  11.802  0.9581  0.0028 -0.2772
  360TMC3    C2 5440   0.680   2.061  11.759 -0.1507  0.7708 -0.6323
  360TMC3    C3 5441   0.731   1.993  11.646  0.9992 -0.3817 -0.4353
  360TMC3    C4 5442   0.486   1.914  11.720  0.2148 -0.6288 -0.5438
  360TMC3    C5 5443   0.545   1.849  11.621  0.6476  0.1353  0.2569
  360TMC3    C6 5444   0.667   1.887  11.579  0.1811  0.0682 -0.0324
  360TMC3     C 5445   0.526   1.996  11.946 -0.0957 -0.5544  0.1755
  360TMC3     O 5446   0.561   2.089  12.022 -0.2055  0.2936 -0.6671
  360TMC3     H 5447   0.753   2.109  11.822 -0.4217  1.4175 -0.8044
  360TMC3    H1 5448   0.384   1.886  11.745  0.6122 -0.8052  0.8744
  360TMC3    H2 5449   0.716   1.839  11.494 -1.7063  1.0999 -1.7000
  360TMC3    C7 5450   0.491   1.718  11.594 -0.0421 -0.0673 -1.1738
  360TMC3    C8 5451   0.856   2.042  11.595 -0.3490  0.2914 -0.3620
  360TMC3    O1 5452   0.416   1.669  11.676  0.5156  0.0573 -0.7645
  360TMC3    O2 5453   0.892   2.152  11.626 -0.0180 -0.0889 -0.1527
  361MPD2     C 5454   2.137   0.207  16.711 -0.3100  1.0917  0.8527
  361MPD2    C1 5455   2.223   0.301  16.761 -0.5546  0.2420  1.0442
  361MPD2    C2 5456   2.350   0.267  16.799  0.1457 -0.0256  0.2554
  361MPD2    C3 5457   2.387   0.133  16.799 -0.5908 -0.4452  0.1047
  361MPD2    C4 5458   2.307   0.047  16.727  0.8271 -0.2169  0.0365
  361MPD2    C5 5459   2.181   0.078  16.679 -0.1119  0.1880 -0.3519
  361MPD2     H 5460   2.416   0.345  16.835 -1.7276  2.8558 -2.6123
  361MPD2    H1 5461   2.341   4.679  16.722  0.2319 -0.4486  0.8930
  361MPD2    H2 5462   2.036   0.231  16.681  0.3923  0.7238 -1.8162
  361MPD2    H3 5463   2.122   0.015  16.613 -0.3429 -1.1465  1.1263
  361MPD2     N 5464   2.501   0.075  16.852  0.5352  0.0035 -0.1215
  361MPD2    H5 5465   2.510   4.710  16.836  1.4468  0.4105 -2.1633
  361MPD2    N1 5466   2.189   0.434  16.766  0.1465 -0.4141  0.1741
  361MPD2    H7 5467   2.258   0.500  16.800  0.4216 -1.9613  2.6454
  362TMC3    C1 5468   2.072   0.630  16.735  0.2618 -0.5265  0.0385
  362TMC3    C2 5469   1.961   0.698  16.782 -0.7888 -0.0077 -0.6857
  362TMC3    C3 5470   1.975   0.833  16.801 -0.5423 -0.0962  0.2013
  362TMC3    C4 5471   2.189   0.691  16.717  0.3488 -0.5319  0.0439
  362TMC3    C5 5472   2.197   0.826  16.732 -0.1564  0.0556 -0.2268
  362TMC3    C6 5473   2.096   0.901  16.782 -0.1930 -0.2292  0.6499
  362TMC3     C 5474   2.068   0.486  16.739  0.0703 -0.3158 -0.2824
  362TMC3     O 5475   1.958   0.435  16.727 -0.5412  0.6284 -0.1813
  362TMC3     H 5476   1.869   0.641  16.789 -2.3396  2.3623 -1.5017
  362TMC3    H1 5477   2.279   0.639  16.686 -0.4134 -2.6848  1.5146
  362TMC3    H2 5478   2.108   1.007  16.802 -0.2071 -0.1968  0.4898
  362TMC3    C7 5479   2.270   0.895  16.633  0.3821  0.3539 -0.4840
  362TMC3    C8 5480   1.858   0.919  16.838  0.1846  0.0618  0.6236
  362TMC3    O1 5481   2.231   1.007  16.602 -0.2357  0.3030  0.0072
  362TMC3    O2 5482   1.881   1.038  16.828 -0.0361  0.2657 -0.4580
  363TMC3    C1 5483   0.047   2.757   9.408 -0.2121 -0.9686 -0.3174
  363TMC3    C2 5484   0.153   2.734   9.499  0.6485 -0.1721  0.0473
  363TMC3    C3 5485   0.195   2.843   9.571  1.0411  0.6294  0.8541
  363TMC3    C4 5486   4.707   2.875   9.401  0.0467 -0.3580 -0.6129
  363TMC3    C5 5487   0.018   2.983   9.471 -0.1078 -0.4284  0.3344
  363TMC3    C6 5488   0.135   2.972   9.554  0.1326 -0.0998  0.3926
  363TMC3     C 5489   0.033   2.656   9.313 -0.0910 -0.1654 -0.3111
  363TMC3     O 5490   0.073   2.544   9.337  0.4544  0.4389 -0.4387
  363TMC3     H 5491   0.188   2.633   9.517 -0.1581 -0.7013 -1.3184
  363TMC3    H1 5492   4.625   2.891   9.333  1.0467  0.4458 -1.6252
  363TMC3    H2 5493   0.180   3.050   9.614 -1.8853  0.6788  0.8830
  363TMC3    C7 5494   4.706   3.115   9.440  0.2413  0.6680  0.6371
  363TMC3    C8 5495   0.308   2.837   9.663  0.0532  0.1664 -0.2448
  363TMC3    O1 5496   4.609   3.120   9.375  0.8333 -0.1651 -0.3908
  363TMC3    O2 5497   0.342   2.932   9.732 -0.3816 -0.1932 -0.2395
  364MPD2     C 5498   3.769   2.702  10.503  0.5183 -0.0735 -1.0431
  364MPD2    C1 5499   3.831   2.715  10.626  0.6039 -0.9813 -0.2945
  364MPD2    C2 5500   3.818   2.607  10.713 -0.2743  0.3306  0.5608
  364MPD2    C3 5501   3.757   2.486  10.672  0.5091  0.6244 -0.2140
  364MPD2    C4 5502   3.683   2.490  10.556  0.0687 -0.4291 -0.5933
  364MPD2    C5 5503   3.683   2.599  10.475 -0.5687 -0.1384  0.5799
  364MPD2     H 5504   3.884   2.613  10.799 -0.6472  0.7850  0.8105
  364MPD2    H1 5505   3.631   2.398  10.534  0.9336 -1.3971  1.4207
  364MPD2    H2 5506   3.773   2.785  10.433  1.1881  0.7198 -0.0626
  364MPD2    H3 5507   3.634   2.594  10.379 -2.8755  0.2854  1.7295
  364MPD2     N 5508   3.778   2.363  10.737  0.5039 -0.2894  0.3099
  364MPD2    H5 5509   3.746   2.276  10.696 -0.2194 -0.5228  1.3510
  364MPD2    N1 5510   3.912   2.830  10.651  0.0039 -0.5962  0.4883
  364MPD2    H7 5511   3.926   2.900  10.579  0.5365 -1.2436 -0.0404
  365TMC3    C1 5512   4.101   2.938  10.758 -0.2202 -0.4456  0.9154
  365TMC3    C2 5513   4.187   2.909  10.653 -0.4750  0.0426  0.6095
  365TMC3    C3 5514   4.311   2.965  10.660  0.4988 -0.1435  0.4703
  365TMC3    C4 5515   4.150   2.986  10.874  0.2989 -0.0225 -0.0027
  365TMC3    C5 5516   4.279   3.033  10.879  0.1582  1.1219  0.5257
  365TMC3    C6 5517   4.363   3.035  10.766 -0.3531 -0.5182  0.2035
  365TMC3     C 5518   3.984   2.852  10.769  0.0533 -0.3766 -0.1695
  365TMC3     O 5519   3.957   2.811  10.881  0.0939 -0.2609 -0.3158
  365TMC3     H 5520   4.150   2.843  10.575  1.8912 -1.9635  1.1895
  365TMC3    H1 5521   4.096   2.978  10.967 -0.4914  2.0905 -0.2899
  365TMC3    H2 5522   4.468   3.060  10.762 -0.1873 -1.0069  1.4433
  365TMC3    C7 5523   4.345   3.073  11.006  0.5539  0.1480  0.4514
  365TMC3    C8 5524   4.422   2.908  10.576 -0.0870 -0.5074 -0.2246
  365TMC3    O1 5525   4.465   3.086  11.008 -0.6128 -0.3156 -0.7245
  365TMC3    O2 5526   4.515   2.982  10.547 -0.1912 -0.1905  0.5792
  366MPD2     C 5527   2.734   3.584  15.128 -0.1995  0.3110 -0.0021
  366MPD2    C1 5528   2.742   3.651  15.248  0.3114  0.0757  0.0283
  366MPD2    C2 5529   2.800   3.585  15.360  0.5851  0.1696  0.3587
  366MPD2    C3 5530   2.853   3.453  15.352  0.3438  0.7783  0.0546
  366MPD2    C4 5531   2.840   3.396  15.224  0.1718  0.3769  0.5194
  366MPD2    C5 5532   2.780   3.460  15.120 -0.2809  0.0452  0.2043
  366MPD2     H 5533   2.812   3.630  15.458  1.5505  1.1272 -0.2057
  366MPD2    H1 5534   2.874   3.297  15.198 -0.2581  0.4173 -0.1981
  366MPD2    H2 5535   2.694   3.624  15.036  0.9445  3.4999  0.8911
  366MPD2    H3 5536   2.770   3.411  15.024  0.2778 -0.4947  0.4216
  366MPD2     N 5537   2.927   3.402  15.454  0.5580 -0.5468  0.1021
  366MPD2    H5 5538   2.933   3.469  15.531  0.9192  0.1535 -0.5372
  366MPD2    N1 5539   2.708   3.786  15.277  0.4350 -0.4133  0.2643
  366MPD2    H7 5540   2.749   3.831  15.358 -2.5246  2.7187  0.0580
  367TMC3    C1 5541   2.637   4.004  15.208  0.4609  0.7530 -0.1089
  367TMC3    C2 5542   2.729   4.056  15.303  0.2377  0.8020 -0.0549
  367TMC3    C3 5543   2.741   4.194  15.312  1.2989  0.3768  0.7760
  367TMC3    C4 5544   2.557   4.087  15.131  0.0261  0.3422 -0.0446
  367TMC3    C5 5545   2.587   4.223  15.140  0.0761 -0.3640  0.2404
  367TMC3    C6 5546   2.679   4.278  15.225  0.6525  0.6361 -0.0944
  367TMC3     C 5547   2.629   3.860  15.193  0.1778 -0.2836 -0.3673
  367TMC3     O 5548   2.565   3.814  15.102 -0.8148 -0.1441 -1.1217
  367TMC3     H 5549   2.797   3.991  15.357 -0.0102  2.2020  1.9514
  367TMC3    H1 5550   2.472   4.040  15.081 -0.3159 -2.0127  2.7250
  367TMC3    H2 5551   2.703   4.383  15.233  0.8359  0.7941 -2.5826
  367TMC3    C7 5552   2.505   4.319  15.074  0.2047 -0.1474  0.2616
  367TMC3    C8 5553   2.844   4.235  15.405  0.5889  0.4364  0.2839
  367TMC3    O1 5554   2.475   4.413  15.148  0.1290 -0.4802  0.2928
  367TMC3    O2 5555   2.873   4.150  15.489  0.5381  0.3903 -0.1994
  368MPD2     C 5556   3.725   0.888  13.298 -0.6090  0.7452  0.4972
  368MPD2    C1 5557   3.702   0.862  13.165 -0.0882 -0.2415  0.1333
  368MPD2    C2 5558   3.813   0.832  13.081 -0.4053  0.3747 -0.2692
  368MPD2    C3 5559   3.938   0.811  13.133  0.1580  0.2404  0.1995
  368MPD2    C4 5560   3.961   0.851  13.260  0.1927  0.0470  0.7061
  368MPD2    C5 5561   3.853   0.890  13.345 -1.4435  0.1433  0.4216
  368MPD2     H 5562   3.792   0.800  12.979 -0.0633 -1.6390  0.2930
  368MPD2    H1 5563   4.060   0.851  13.303  0.0589 -0.3880  1.0196
  368MPD2    H2 5564   3.637   0.903  13.359 -0.2982  1.4370  0.7792
  368MPD2    H3 5565   3.870   0.919  13.449 -1.7068 -0.8403  0.7404
  368MPD2     N 5566   4.053   0.793  13.054 -0.1619 -0.4784 -0.3904
  368MPD2    H5 5567   4.143   0.789  13.099  0.4675  1.5208 -1.4370
  368MPD2    N1 5568   3.570   0.859  13.126 -1.0210  0.1226  0.0721
  368MPD2    H7 5569   3.503   0.897  13.192 -1.3422  0.4103 -0.4214
  369TMC3    C1 5570   3.386   0.873  12.980  0.2442 -0.9407  0.0274
  369TMC3    C2 5571   3.352   0.906  12.853 -0.3901  0.2052 -0.2285
  369TMC3    C3 5572   3.223   0.936  12.827 -0.2982  0.3500  0.2972
  369TMC3    C4 5573   3.295   0.867  13.081 -0.5122 -0.4146 -0.1142
  369TMC3    C5 5574   3.166   0.910  13.053 -0.5947 -0.2691  0.5616
  369TMC3    C6 5575   3.126   0.939  12.924 -0.0235  0.0577  0.2609
  369TMC3     C 5576   3.525   0.826  12.997 -0.6356  0.0024 -0.1891
  369TMC3     O 5577   3.595   0.798  12.899 -0.5192  0.2926  0.1672
  369TMC3     H 5578   3.426   0.902  12.774 -0.6747  1.2517 -0.5522
  369TMC3    H1 5579   3.315   0.819  13.176 -0.4000 -0.3920 -0.1264
  369TMC3    H2 5580   3.029   0.982  12.902 -0.8151 -0.9978  1.6969
  369TMC3    C7 5581   3.094   0.947  13.166  0.4712 -0.2475 -0.9905
  369TMC3    C8 5582   3.186   0.973  12.694 -0.2578  0.2563  0.1638
  369TMC3    O1 5583   3.153   0.959  13.269 -0.0287 -0.1133  0.3201
  369TMC3    O2 5584   3.071   0.975  12.655 -0.3001 -0.0068 -0.7670
  370TMC3    C1 5585   4.015   1.941  16.112  0.2247 -0.4665 -0.3154
  370TMC3    C2 5586   3.919   1.884  16.195 -0.4324 -0.0469 -0.4208
  370TMC3    C3 5587   3.835   1.782  16.144 -0.4046  0.2137 -0.5188
  370TMC3    C4 5588   4.040   1.891  15.989 -0.3214 -0.1336 -0.9010
  370TMC3    C5 5589   3.973   1.769  15.952  0.0716 -0.1107 -0.6096
  370TMC3    C6 5590   3.864   1.724  16.023  0.1743  0.0218  0.5805
  370TMC3     C 5591   4.085   2.049  16.175 -0.7736  0.7688 -0.2887
  370TMC3     O 5592   4.088   2.045  16.295 -0.0897  0.4132 -0.4902
  370TMC3     H 5593   3.908   1.912  16.299  0.3510  0.7262 -0.5463
  370TMC3    H1 5594   4.134   1.909  15.938  0.7577  3.6860  2.4927
  370TMC3    H2 5595   3.808   1.637  15.991  0.1036 -0.2863  1.5569
  370TMC3    C7 5596   4.001   1.697  15.825 -0.4290  0.1150  0.2277
  370TMC3    C8 5597   3.739   1.711  16.229  0.0151  0.8091 -0.7092
  370TMC3    O1 5598   4.040   1.757  15.730  0.4080 -0.1660  0.1427
  370TMC3    O2 5599   3.678   1.613  16.194 -0.0243  0.2002  0.1015
  371TMC3    C1 5600   0.219   4.689  15.298  0.7380  0.9893 -0.8290
  371TMC3    C2 5601   0.132   4.679  15.407 -0.5282 -0.0886 -1.1058
  371TMC3    C3 5602   0.039   0.044  15.423 -0.3451  0.1806  0.0309
  371TMC3    C4 5603   0.215   0.067  15.219 -0.3442 -0.0679  0.3605
  371TMC3    C5 5604   0.134   0.170  15.254 -0.1995  0.5121  0.0030
  371TMC3    C6 5605   0.037   0.156  15.339  0.1177  0.3526 -0.3017
  371TMC3     C 5606   0.343   4.607  15.299 -0.0309  0.1416 -0.0626
  371TMC3     O 5607   0.449   4.654  15.279 -0.1651  0.1640  0.1287
  371TMC3     H 5608   0.150   4.596  15.474  0.7631  0.7393 -0.4260
  371TMC3    H1 5609   0.300   0.083  15.155  0.7264 -3.0144  1.0345
  371TMC3    H2 5610   4.695   0.233  15.345 -0.1441 -0.1169  2.4207
  371TMC3    C7 5611   0.151   0.296  15.187 -0.0197 -0.3776 -0.1979
  371TMC3    C8 5612   4.718   0.058  15.554  0.0236  0.6051  0.5675
  371TMC3    O1 5613   0.119   0.400  15.248 -0.5903  0.4549  0.0854
  371TMC3    O2 5614   0.021   4.701  15.629  0.6066 -0.1620  0.3844
  372MPD2     C 5615   4.211   1.240  13.341 -0.1170 -0.9854 -0.5675
  372MPD2    C1 5616   4.301   1.131  13.331 -0.3580 -0.5174  0.0736
  372MPD2    C2 5617   4.270   1.017  13.396  0.0420  0.2593 -0.2848
  372MPD2    C3 5618   4.170   1.020  13.491  0.5741  0.3547  0.7266
  372MPD2    C4 5619   4.093   1.133  13.512 -0.3591  1.2942 -0.2087
  372MPD2    C5 5620   4.109   1.242  13.431  0.2039 -0.1578  0.8092
  372MPD2     H 5621   4.336   0.931  13.390 -1.9342 -1.6319  5.4348
  372MPD2    H1 5622   4.011   1.142  13.582  1.1166  1.2609  1.5154
  372MPD2    H2 5623   4.236   1.329  13.284 -0.8421 -0.0713  0.5504
  372MPD2    H3 5624   4.045   1.328  13.449  0.4833 -0.5384  3.5622
  372MPD2     N 5625   4.147   0.894  13.551 -0.5091  0.2620  0.9163
  372MPD2    H5 5626   4.213   0.820  13.530 -1.9053 -1.0690  1.2511
  372MPD2    N1 5627   4.409   1.137  13.248  0.2446  0.0975 -0.0033
  372MPD2    H7 5628   4.464   1.052  13.256  1.6700  1.0707  0.6443
  373TMC3    C1 5629   4.026   0.728  13.660  0.2176  0.2548  0.5168
  373TMC3    C2 5630   3.985   0.677  13.779 -0.1541 -0.7888 -0.4390
  373TMC3    C3 5631   3.994   0.547  13.801 -0.3457 -0.4731  0.7760
  373TMC3    C4 5632   4.066   0.648  13.558  0.3950 -0.0663  0.5865
  373TMC3    C5 5633   4.073   0.513  13.587 -0.0177 -0.8594 -0.8465
  373TMC3    C6 5634   4.030   0.463  13.706  0.5618 -0.2186 -0.0416
  373TMC3     C 5635   4.055   0.871  13.644  0.9114  0.7281  0.3780
  373TMC3     O 5636   3.980   0.944  13.705  1.0785  0.0340 -0.5951
  373TMC3     H 5637   3.966   0.745  13.861  1.4678  0.2586 -0.9255
  373TMC3    H1 5638   4.080   0.686  13.457 -0.3593  0.1120  0.5479
  373TMC3    H2 5639   4.030   0.355  13.721 -2.8916 -0.2491 -0.0779
  373TMC3    C7 5640   4.115   0.422  13.484 -0.0742  0.1188  0.5149
  373TMC3    C8 5641   3.911   0.489  13.909  0.6524 -0.5163  0.4797
  373TMC3    O1 5642   4.177   0.473  13.394  0.6764 -0.2528 -0.3211
  373TMC3    O2 5643   3.826   0.410  13.876  0.3204  0.2631 -0.4363
  374TMC3    C1 5644   4.611   0.524   9.249  1.0186 -0.4048  0.2081
  374TMC3    C2 5645   4.682   0.616   9.326  0.9299 -0.2526  0.2082
  374TMC3    C3 5646   4.690   0.741   9.284 -0.1807  0.1654 -0.5737
  374TMC3    C4 5647   4.552   0.559   9.129 -0.1135 -0.1100  0.3871
  374TMC3    C5 5648   4.555   0.692   9.085 -0.4898 -0.6410  0.5129
  374TMC3    C6 5649   4.622   0.780   9.168 -0.7538 -0.3108  0.0522
  374TMC3     C 5650   4.574   0.405   9.318 -0.1083 -0.0831 -0.5668
  374TMC3     O 5651   4.456   0.364   9.302  0.1082  0.4987 -0.4581
  374TMC3     H 5652   4.698   0.601   9.432 -1.8713 -1.3201  0.4727
  374TMC3    H1 5653   4.498   0.479   9.080 -0.5350  0.3369  0.1185
  374TMC3    H2 5654   4.632   0.883   9.134  0.3787 -0.2618  0.5126
  374TMC3    C7 5655   4.501   0.734   8.962  0.3947 -0.2208  0.3238
  374TMC3    C8 5656   4.715   0.848   9.374 -0.9330 -0.5724 -0.1185
  374TMC3    O1 5657   4.499   0.858   8.941  0.0987 -0.1246  0.3573
  374TMC3    O2 5658   4.654   0.953   9.350  0.0738  0.4479 -0.5268
  375MPD2     C 5659   4.558   1.902  16.760 -0.0531  0.4684  0.2475
  375MPD2    C1 5660   4.592   2.010  16.683  0.0328  0.1957 -0.5125
  375MPD2    C2 5661   4.658   1.974  16.567  0.8118  0.6332 -0.1330
  375MPD2    C3 5662   4.702   1.841  16.536  0.7154 -0.1671  0.1004
  375MPD2    C4 5663   4.682   1.744  16.631 -0.0275  0.0957  0.2952
  375MPD2    C5 5664   4.608   1.774  16.742 -0.1786  0.8856  1.0014
  375MPD2     H 5665   4.670   2.057  16.498  0.6938  0.4647 -0.3572
  375MPD2    H1 5666   4.722   1.643  16.622  1.4474  0.9235 -2.3449
  375MPD2    H2 5667   4.490   1.916  16.843  0.5369 -0.0719  0.8241
  375MPD2    H3 5668   4.577   1.693  16.808 -1.4740  1.2460  0.8259
  375MPD2     N 5669   0.044   1.800  16.422  0.3077 -0.6863 -0.2972
  375MPD2    H5 5670   0.070   1.702  16.423  0.3940 -0.6486  0.5448
  375MPD2    N1 5671   4.551   2.146  16.702  0.3316  0.4757 -0.1748
  375MPD2    H7 5672   4.573   2.214  16.630 -0.0596 -1.2310 -1.9187
  376TMC3    C1 5673   0.168   1.832  16.228  0.0550 -0.0301 -0.3796
  376TMC3    C2 5674   0.252   1.728  16.261 -0.4390  0.5049 -0.6314
  376TMC3    C3 5675   0.359   1.706  16.180  0.0429  0.7768 -0.8226
  376TMC3    C4 5676   0.191   1.910  16.121  0.2602 -0.8667  0.3594
  376TMC3    C5 5677   0.290   1.874  16.035  0.7321  0.2925  0.3703
  376TMC3    C6 5678   0.380   1.773  16.058 -0.1349  0.0953 -0.2964
  376TMC3     C 5679   0.072   1.886  16.324  0.0621 -0.0377  0.1701
  376TMC3     O 5680   0.053   2.005  16.315  0.4277  0.3573 -0.1790
  376TMC3     H 5681   0.244   1.666  16.349  2.6227 -1.7461 -1.9553
  376TMC3    H1 5682   0.119   1.987  16.097 -1.2134 -1.4667  2.8278
  376TMC3    H2 5683   0.464   1.759  15.992  1.5509 -1.5495  2.1774
  376TMC3    C7 5684   0.285   1.950  15.908 -0.4731 -0.3507  0.2094
  376TMC3    C8 5685   0.469   1.628  16.233 -0.8552 -0.3669  0.2637
  376TMC3    O1 5686   0.237   2.065  15.922  0.1021 -0.0795 -0.0577
  376TMC3    O2 5687   0.441   1.542  16.319  0.0430 -0.0235  0.6525
  377MPD2     C 5688   3.235   1.353  12.675 -0.3594  0.1197  0.4548
  377MPD2    C1 5689   3.138   1.367  12.574 -0.2377 -0.3750  0.2759
  377MPD2    C2 5690   3.010   1.331  12.591 -0.3124 -0.0212  0.8675
  377MPD2    C3 5691   2.963   1.282  12.717  0.8871 -0.3754 -0.7250
  377MPD2    C4 5692   3.058   1.274  12.823  0.0215  0.8505  0.3512
  377MPD2    C5 5693   3.187   1.315  12.796  0.1103  0.1254 -0.4041
  377MPD2     H 5694   2.948   1.318  12.503 -0.7213  1.2627  0.9694
  377MPD2    H1 5695   3.030   1.244  12.923 -0.5516  2.0336  0.5445
  377MPD2    H2 5696   3.340   1.380  12.670 -0.0938 -0.8529  0.7870
  377MPD2    H3 5697   3.258   1.310  12.878 -0.5786 -0.4536  0.1618
  377MPD2     N 5698   2.834   1.231  12.743  0.3297 -0.5099  0.0285
  377MPD2    H5 5699   2.818   1.205  12.840 -0.8929 -2.4774 -0.7140
  377MPD2    N1 5700   3.184   1.413  12.447 -0.6867  0.6534  0.5868
  377MPD2    H7 5701   3.283   1.434  12.446 -0.3682 -0.9943 -1.3924
  378TMC3    C1 5702   3.235   1.433  11.980  0.3925  0.4360  0.5742
  378TMC3    C2 5703   3.150   1.446  12.084  0.2799 -0.2888  0.3478
  378TMC3    C3 5704   3.204   1.442  12.212 -0.3424  0.1346  0.6813
  378TMC3    C4 5705   3.369   1.456  11.991 -0.7704  0.1419 -1.0058
  378TMC3    C5 5706   3.425   1.457  12.117 -0.3200 -0.1185 -0.7981
  378TMC3    C6 5707   3.347   1.454  12.226  0.0419 -0.0627  0.3664
  378TMC3     C 5708   3.186   1.447  11.844 -0.2779 -0.5552  0.0922
  378TMC3     O 5709   3.265   1.412  11.755 -0.1198 -0.0574 -0.7376
  378TMC3     H 5710   3.042   1.436  12.084  0.5349 -2.9093 -0.2163
  378TMC3    H1 5711   3.441   1.465  11.911  1.4420 -0.8626  0.8960
  378TMC3    H2 5712   3.389   1.429  12.323 -0.0321 -0.9448  0.1656
  378TMC3    C7 5713   3.574   1.455  12.127  0.1607  0.2770 -0.5916
  378TMC3    C8 5714   3.114   1.423  12.327  0.3008  0.0784  0.0044
  378TMC3    O1 5715   3.625   1.475  12.237 -0.1055 -0.1304 -0.4309
  378TMC3    O2 5716   2.994   1.406  12.317 -0.3989 -0.5476  0.4025
  379MPD2     C 5717   3.972   4.408  15.986 -0.7169  0.0857 -0.3258
  379MPD2    C1 5718   3.919   4.309  16.056  0.7613  0.1331  0.3646
  379MPD2    C2 5719   4.007   4.241  16.149  0.3047  0.3726 -1.1433
  379MPD2    C3 5720   4.144   4.274  16.160 -0.2667 -0.3571 -0.3826
  379MPD2    C4 5721   4.186   4.380  16.081 -0.5664  0.1971  0.5394
  379MPD2    C5 5722   4.102   4.444  15.998  0.1196 -0.0523 -0.3880
  379MPD2     H 5723   3.975   4.152  16.202 -1.1789  1.8181  0.3831
  379MPD2    H1 5724   4.287   4.413  16.100 -0.2185 -0.2521 -0.5230
  379MPD2    H2 5725   3.905   4.464  15.921  0.6497 -0.9678 -2.6433
  379MPD2    H3 5726   4.140   4.525  15.936 -1.0400  0.5808 -0.2763
  379MPD2     N 5727   4.241   4.212  16.237 -0.5645  0.4969  0.5937
  379MPD2    H5 5728   4.333   4.254  16.240  0.7172 -2.5387  4.3919
  379MPD2    N1 5729   3.783   4.270  16.029  0.3067  0.1803  1.0119
  379MPD2    H7 5730   3.745   4.314  15.946  1.7231  0.6133  0.6095
  380TMC3    C1 5731   3.571   4.172  16.052 -0.4428  0.0357  0.6518
  380TMC3    C2 5732   3.531   4.042  16.048  0.0866 -0.2297  0.5111
  380TMC3    C3 5733   3.437   3.997  15.952 -0.9406  0.3553  0.9669
  380TMC3    C4 5734   3.520   4.258  15.961 -0.4154  0.7814  0.7554
  380TMC3    C5 5735   3.411   4.225  15.884 -0.3486 -0.1377 -0.4676
  380TMC3    C6 5736   3.375   4.090  15.875  0.0717  1.0959  0.2107
  380TMC3     C 5737   3.700   4.187  16.103  0.4334  0.2697  0.1107
  380TMC3     O 5738   3.714   4.135  16.214  0.4245 -0.1798 -0.4051
  380TMC3     H 5739   3.581   3.965  16.105  0.0491 -0.8150 -0.2615
  380TMC3    H1 5740   3.541   4.362  15.983 -2.9688  1.3587  0.4134
  380TMC3    H2 5741   3.295   4.056  15.811 -0.7410  2.1674  0.6471
  380TMC3    C7 5742   3.344   4.336  15.816 -0.2928 -0.0215 -0.0605
  380TMC3    C8 5743   3.480   3.876  15.883 -0.2910 -0.4318  0.0436
  380TMC3    O1 5744   3.401   4.443  15.829  0.3435  0.4299  0.3717
  380TMC3    O2 5745   3.555   3.806  15.942 -0.2632  0.6287 -0.5432
  381TMC3    C1 5746   3.530   1.046  15.906 -0.2529 -0.6532 -0.2483
  381TMC3    C2 5747   3.640   1.118  15.936  0.4148  0.1557  0.6531
  381TMC3    C3 5748   3.665   1.148  16.068 -0.2453 -0.1421  0.4200
  381TMC3    C4 5749   3.436   1.016  16.008  0.3905 -1.3916 -0.0714
  381TMC3    C5 5750   3.460   1.066  16.132  0.8238  0.8703  0.0306
  381TMC3    C6 5751   3.574   1.130  16.174 -0.8857  0.1648  0.4000
  381TMC3     C 5752   3.507   1.006  15.772 -0.0865  1.0877 -0.1400
  381TMC3     O 5753   3.433   0.910  15.755  0.3671 -0.6202 -0.4777
  381TMC3     H 5754   3.722   1.120  15.865 -0.4780 -2.0798 -0.4475
  381TMC3    H1 5755   3.344   0.961  15.994  0.8973 -1.7709 -1.9284
  381TMC3    H2 5756   3.591   1.149  16.279 -1.4348 -0.1214  0.5424
  381TMC3    C7 5757   3.404   0.980  16.228 -0.2611  0.0936  0.0598
  381TMC3    C8 5758   3.809   1.184  16.092 -0.0838  0.0125 -0.3609
  381TMC3    O1 5759   3.382   0.865  16.197 -0.4710 -0.5915 -0.6031
  381TMC3    O2 5760   3.886   1.149  16.005  0.7219  0.1746  0.0727
  382MPD2     C 5761   2.821   3.465  16.659 -0.5051 -0.5038  0.3299
  382MPD2    C1 5762   2.770   3.448  16.783  0.0561 -0.3606  0.0540
  382MPD2    C2 5763   2.816   3.350  16.871 -0.6615 -0.8900  0.2375
  382MPD2    C3 5764   2.914   3.265  16.827 -0.0135 -0.2810 -0.0745
  382MPD2    C4 5765   2.969   3.286  16.705 -0.2753 -0.4443  0.5059
  382MPD2    C5 5766   2.927   3.391  16.626 -0.3687 -0.1776 -0.3237
  382MPD2     H 5767   2.779   3.347  16.973  0.9130 -2.1836  0.7606
  382MPD2    H1 5768   3.048   3.223  16.667 -1.3708 -1.8856  0.6468
  382MPD2    H2 5769   2.789   3.551  16.600 -1.5286 -0.5819  0.7744
  382MPD2    H3 5770   2.980   3.406  16.532 -1.5242  0.0265 -0.9376
  382MPD2     N 5771   2.949   3.148  16.892 -0.0324  0.2080 -0.0505
  382MPD2    H5 5772   3.009   3.085  16.840 -0.1109 -0.9042  1.2115
  382MPD2    N1 5773   2.663   3.535  16.829 -0.0175  0.0637  0.4514
  382MPD2    H7 5774   2.634   3.531  16.927 -0.6423 -2.1390  0.1712
  383TMC3    C1 5775   2.923   2.967  17.039  0.4781  0.6763  0.3978
  383TMC3    C2 5776   2.817   2.889  17.083 -0.4089 -0.0180  0.0426
  383TMC3    C3 5777   2.825   2.756  17.074  0.1174  0.0630 -1.0334
  383TMC3    C4 5778   3.026   2.905  16.973  0.0288  0.5073  0.5814
  383TMC3    C5 5779   3.028   2.762  16.973  0.1976 -0.2200  0.0407
  383TMC3    C6 5780   2.933   2.686  17.026  0.3395 -0.6728  0.0084
  383TMC3     C 5781   2.894   3.100  17.010 -0.6282 -0.4570 -0.0578
  383TMC3     O 5782   2.819   3.156  17.086 -0.2699  0.1091  0.6461
  383TMC3     H 5783   2.724   2.931  17.117 -0.0181  1.0867 -0.2727
  383TMC3    H1 5784   3.100   2.956  16.914  2.3176  0.2161  3.1719
  383TMC3    H2 5785   2.932   2.578  17.021  0.2515 -0.8654  4.3155
  383TMC3    C7 5786   3.129   2.695  16.896  0.3142  0.1881  1.0993
  383TMC3    C8 5787   2.693   2.686  17.074 -0.2284 -0.4339  0.6342
  383TMC3    O1 5788   3.140   2.577  16.904 -0.5650  0.0093  0.4763
  383TMC3    O2 5789   2.589   2.750  17.066  0.4656  0.0279 -0.0583
  384MPD2     C 5790   4.349   4.175  11.874  0.0397  0.3360  0.0342
  384MPD2    C1 5791   4.352   4.197  12.009 -0.5247  0.3272 -0.3156
  384MPD2    C2 5792   4.450   4.123  12.083  1.0325  0.6723 -0.8369
  384MPD2    C3 5793   4.529   4.025  12.025  0.9897  0.2738  0.0228
  384MPD2    C4 5794   4.536   4.013  11.891 -0.0126  0.7276 -0.7616
  384MPD2    C5 5795   4.445   4.088  11.818 -0.4735  0.2623 -0.8800
  384MPD2     H 5796   4.456   4.138  12.190 -2.6199 -1.4439 -0.3317
  384MPD2    H1 5797   4.597   3.943  11.834  0.2481  0.6381 -0.3747
  384MPD2    H2 5798   4.281   4.217  11.801 -0.0342  0.6971  0.3143
  384MPD2    H3 5799   4.450   4.068  11.711  1.3173 -2.8610 -0.1907
  384MPD2     N 5800   4.610   3.942  12.112  0.0014 -0.0971 -0.7320
  384MPD2    H5 5801   4.581   3.956  12.208  0.6435 -0.0019 -0.5497
  384MPD2    N1 5802   4.270   4.289  12.075  0.3665 -0.1814 -0.0555
  384MPD2    H7 5803   4.298   4.302  12.172  0.2205  0.6363 -0.1192
  385TMC3    C1 5804   4.687   3.756  12.201 -0.0736  0.0523  0.2539
  385TMC3    C2 5805   4.617   3.638  12.199 -0.1221  0.2097  0.4299
  385TMC3    C3 5806   4.574   3.608  12.323  0.0257 -0.3352  0.4524
  385TMC3    C4 5807   4.698   3.843  12.313 -0.4248  0.1932 -0.2634
  385TMC3    C5 5808   4.638   3.805  12.430  0.0944  0.0079 -0.5278
  385TMC3    C6 5809   4.588   3.683  12.439  0.1180  0.1998  0.0097
  385TMC3     C 5810   4.677   3.825  12.077  0.0498  0.3280 -0.1888
  385TMC3     O 5811   4.712   3.772  11.974 -0.0072 -0.0381 -0.2030
  385TMC3     H 5812   4.584   3.589  12.109  0.9992  4.3102 -2.2303
  385TMC3    H1 5813   0.020   3.936  12.311  0.1018 -0.0789  2.8066
  385TMC3    H2 5814   4.544   3.641  12.528 -0.8918 -1.7187 -1.3741
  385TMC3    C7 5815   4.556   3.910  12.479 -0.5566 -0.8512  0.1731
  385TMC3    C8 5816   4.492   3.481  12.336  0.2522 -1.0034  0.1374
  385TMC3    O1 5817   4.564   4.019  12.427 -0.1887  0.6166  0.4206
  385TMC3    O2 5818   4.485   3.433  12.450  0.1201  0.0521 -0.1864
  386TMC3    C1 5819   4.497   0.780  11.303  0.0347  0.0542 -0.3768
  386TMC3    C2 5820   4.462   0.833  11.180  0.1258 -0.4769 -0.5604
  386TMC3    C3 5821   4.330   0.833  11.147 -0.6918  0.2723 -0.5847
  386TMC3    C4 5822   4.402   0.732  11.387 -0.2084 -0.2383 -0.1214
  386TMC3    C5 5823   4.265   0.750  11.357  1.0114  0.1924  0.3888
  386TMC3    C6 5824   4.230   0.790  11.233 -0.5848 -0.5860 -0.4479
  386TMC3     C 5825   4.637   0.761  11.334  0.9949  0.4389 -0.0636
  386TMC3     O 5826   4.709   0.821  11.257  0.1606 -0.1617  0.2682
  386TMC3     H 5827   4.543   0.864  11.116  0.4992  0.2568  0.2622
  386TMC3    H1 5828   4.424   0.708  11.490  0.0161 -1.6695 -0.4978
  386TMC3    H2 5829   4.128   0.818  11.210 -0.6397  0.4579  1.0494
  386TMC3    C7 5830   4.169   0.775  11.465 -1.1718  0.3556 -0.4204
  386TMC3    C8 5831   4.285   0.886  11.016  0.8508 -0.5203  0.5159
  386TMC3    O1 5832   4.217   0.771  11.576  0.7344 -0.0938 -0.4009
  386TMC3    O2 5833   4.161   0.900  10.998  0.3796 -0.1779 -0.2391
  387MPD2     C 5834   1.730   1.699   9.702 -0.3404 -0.2228 -0.2779
  387MPD2    C1 5835   1.808   1.647   9.797  0.3779  0.0241 -0.2071
  387MPD2    C2 5836   1.867   1.525   9.765  0.0943 -0.8581 -0.2643
  387MPD2    C3 5837   1.861   1.460   9.648  0.3147  0.1640 -0.0819
  387MPD2    C4 5838   1.774   1.519   9.552  0.9883  0.1215 -0.4513
  387MPD2    C5 5839   1.710   1.636   9.585  0.5780 -0.3884  0.1535
  387MPD2     H 5840   1.929   1.479   9.842  0.7123 -1.2679 -1.0091
  387MPD2    H1 5841   1.738   1.468   9.463  1.0355 -1.6648  0.5568
  387MPD2    H2 5842   1.671   1.789   9.715  1.5282  0.9874 -0.2749
  387MPD2    H3 5843   1.658   1.683   9.502  1.1058 -2.2914 -1.2632
  387MPD2     N 5844   1.929   1.336   9.628 -0.8117 -0.7155 -0.9001
  387MPD2    H5 5845   1.980   1.299   9.707 -0.7986 -0.1056 -0.6224
  387MPD2    N1 5846   1.815   1.695   9.927 -0.0904  0.4153 -0.0423
  387MPD2    H7 5847   1.868   1.635   9.990 -1.0847 -0.9869 -0.5423
  388TMC3    C1 5848   1.811   1.842  10.110 -0.8150  0.4465  0.2662
  388TMC3    C2 5849   1.846   1.973  10.129  0.3615  0.4890 -0.1756
  388TMC3    C3 5850   1.942   2.015  10.212 -0.3141 -0.4778  0.3457
  388TMC3    C4 5851   1.884   1.747  10.165 -0.3005  0.0565  0.4248
  388TMC3    C5 5852   1.995   1.787  10.240  0.3662  0.1173  0.4098
  388TMC3    C6 5853   2.026   1.918  10.262  0.6872  0.2853  0.1005
  388TMC3     C 5854   1.763   1.809   9.975  0.0357  0.0404 -0.5618
  388TMC3     O 5855   1.712   1.900   9.905 -0.1175  1.0267 -0.1241
  388TMC3     H 5856   1.781   2.043  10.077 -0.3201  1.5249  2.0905
  388TMC3    H1 5857   1.847   1.645  10.157 -0.1872  0.1910 -1.6964
  388TMC3    H2 5858   2.100   1.953  10.332  1.0026  0.5309 -0.3590
  388TMC3    C7 5859   2.113   1.696  10.225  0.1316  0.3700 -0.0186
  388TMC3    C8 5860   1.920   2.143  10.286  0.7718  0.6827 -0.1808
  388TMC3    O1 5861   2.221   1.743  10.258  0.4104 -0.1098  0.1928
  388TMC3    O2 5862   1.821   2.217  10.254  0.6343 -0.3895  0.5003
  389MPD2     C 5863   0.897   4.503  10.713 -0.6878 -0.3173  0.2358
  389MPD2    C1 5864   0.896   4.378  10.655 -0.5390 -1.0422  0.0820
  389MPD2    C2 5865   0.896   4.269  10.743 -0.3880 -0.9120 -0.3412
  389MPD2    C3 5866   0.892   4.287  10.886 -0.0120  0.3666 -0.1147
  389MPD2    C4 5867   0.877   4.411  10.938 -0.1105 -0.3384  0.1170
  389MPD2    C5 5868   0.887   4.516  10.850  0.2175  0.5089 -0.0120
  389MPD2     H 5869   0.903   4.168  10.705 -0.1469 -1.5081  1.2822
  389MPD2    H1 5870   0.886   4.431  11.044 -0.6602  0.9958 -0.0864
  389MPD2    H2 5871   0.930   4.592  10.660  0.6573 -0.7077  0.4245
  389MPD2    H3 5872   0.895   4.618  10.886 -0.3353  0.2713  0.7903
  389MPD2     N 5873   0.902   4.190  10.980 -0.1435  0.6012 -0.1967
  389MPD2    H5 5874   0.877   4.217  11.075  2.5740 -1.6413  1.1669
  389MPD2    N1 5875   0.925   4.374  10.519 -0.2660  0.4039  0.1016
  389MPD2    H7 5876   0.953   4.465  10.486 -2.2521  1.0855  0.2741
  390TMC3    C1 5877   0.955   4.004  11.104 -0.8038 -0.0104 -0.0928
  390TMC3    C2 5878   0.931   3.870  11.119 -0.0269 -0.2978 -0.2821
  390TMC3    C3 5879   0.933   3.823  11.244 -0.1975 -0.3737 -0.4476
  390TMC3    C4 5880   0.985   4.088  11.208 -0.1648  0.0906 -0.1604
  390TMC3    C5 5881   0.992   4.032  11.329  0.3214 -0.3874 -0.5427
  390TMC3    C6 5882   0.968   3.904  11.350  0.1191  0.4221  0.3468
  390TMC3     C 5883   0.933   4.055  10.975  0.9247 -0.4397  1.0968
  390TMC3     O 5884   0.964   3.988  10.874 -0.3164  0.4935  0.0726
  390TMC3     H 5885   0.907   3.808  11.034 -1.2941  0.3260 -0.3846
  390TMC3    H1 5886   1.018   4.192  11.200  0.5923  0.0077  1.8356
  390TMC3    H2 5887   0.971   3.860  11.449  1.3386 -0.1117  0.0667
  390TMC3    C7 5888   1.011   4.118  11.439 -0.7081 -0.2522 -0.6010
  390TMC3    C8 5889   0.860   3.700  11.259 -0.2588 -0.4405  0.0315
  390TMC3    O1 5890   1.057   4.229  11.415 -0.4333  0.1932  0.7011
  390TMC3    O2 5891   0.847   3.621  11.167 -0.2434 -0.4342  0.7885
  391MPD2     C 5892   0.238   0.619  10.749  0.7242 -0.0617  0.1827
  391MPD2    C1 5893   0.317   0.733  10.751  0.4409 -0.5279 -0.0894
  391MPD2    C2 5894   0.393   0.762  10.639 -0.1464  0.1553  0.6418
  391MPD2    C3 5895   0.398   0.687  10.530 -0.3251  0.6235  0.1515
  391MPD2    C4 5896   0.323   0.570  10.526  0.5821  0.0327 -0.0934
  391MPD2    C5 5897   0.252   0.538  10.642  0.5748  0.4924 -0.4884
  391MPD2     H 5898   0.454   0.852  10.631  1.0306 -0.9266 -2.6740
  391MPD2    H1 5899   0.325   0.505  10.440 -0.5617 -0.7124  0.4486
  391MPD2    H2 5900   0.184   0.601  10.841 -0.8380  0.8067 -0.5771
  391MPD2    H3 5901   0.200   0.444  10.658  0.7185  0.4270 -0.4051
  391MPD2     N 5902   0.479   0.733  10.418  0.2690  0.4287 -0.2889
  391MPD2    H5 5903   0.531   0.820  10.424  0.0864  0.4838  0.5585
  391MPD2    N1 5904   0.311   0.822  10.862 -0.3906 -0.8638 -0.7016
  391MPD2    H7 5905   0.249   0.788  10.935  0.5441 -1.4450 -0.1790
  392TMC3    C1 5906   0.566   0.733  10.194 -0.7863 -0.2781 -0.2183
  392TMC3    C2 5907   0.511   0.716  10.068  0.9144  1.0538 -0.1625
  392TMC3    C3 5908   0.530   0.809   9.974 -0.8870  0.3392 -0.3838
  392TMC3    C4 5909   0.636   0.849  10.223 -0.1313  1.0668 -0.1850
  392TMC3    C5 5910   0.661   0.935  10.122  0.0049 -0.1152  0.2066
  392TMC3    C6 5911   0.606   0.923   9.997  0.1570  0.3698  0.5603
  392TMC3     C 5912   0.497   0.663  10.301  0.0076 -0.0215 -0.3713
  392TMC3     O 5913   0.467   0.549  10.279 -0.3354  0.5224  0.6926
  392TMC3     H 5914   0.448   0.634  10.037 -0.4239  2.0168  0.0128
  392TMC3    H1 5915   0.685   0.850  10.320 -0.0993 -1.4516 -0.1762
  392TMC3    H2 5916   0.622   0.990   9.914 -0.4355 -1.7091 -1.2285
  392TMC3    C7 5917   0.732   1.051  10.161 -0.3021 -0.4113  0.3819
  392TMC3    C8 5918   0.425   0.810   9.877  0.3188  0.1420 -0.5018
  392TMC3    O1 5919   0.727   1.081  10.281 -0.2075 -0.0305 -0.3836
  392TMC3    O2 5920   0.390   0.709   9.815 -0.4776 -0.3323  0.4413
  393TMC3    C1 5921   4.235   3.672  10.452  0.4075  0.4184  0.9603
  393TMC3    C2 5922   4.172   3.675  10.574  0.1036  0.5502 -0.1334
  393TMC3    C3 5923   4.215   3.589  10.674  0.4105 -0.5044 -0.0463
  393TMC3    C4 5924   4.342   3.593  10.425  0.4450 -0.2029  0.0271
  393TMC3    C5 5925   4.378   3.509  10.526  0.5943 -0.6608  0.1323
  393TMC3    C6 5926   4.320   3.504  10.648 -0.5441 -0.5467 -0.8366
  393TMC3     C 5927   4.188   3.765  10.347 -0.0328  0.1655  0.3507
  393TMC3     O 5928   4.172   3.723  10.232 -0.1463  0.5513  0.5914
  393TMC3     H 5929   4.080   3.730  10.587 -0.3365 -0.2414  0.0773
  393TMC3    H1 5930   4.388   3.591  10.327  2.6503 -0.2084  1.0560
  393TMC3    H2 5931   4.362   3.431  10.716  0.5193  0.4422 -0.4417
  393TMC3    C7 5932   4.457   3.387  10.497  0.2334  0.0362 -1.0806
  393TMC3    C8 5933   4.168   3.599  10.810 -0.7426  0.8532  0.1927
  393TMC3    O1 5934   4.401   3.301  10.423 -0.1423 -0.1280  0.0701
  393TMC3    O2 5935   4.091   3.689  10.828  0.0201  0.0731  0.4947
  394TMC3    C1 5936   0.961   4.290  10.301  0.0804  0.0044 -0.3523
  394TMC3    C2 5937   0.920   4.221  10.191  0.3791 -0.0767  0.3918
  394TMC3    C3 5938   0.957   4.263  10.067  0.3362  0.4195 -0.5478
  394TMC3    C4 5939   1.060   4.385  10.294  0.5359  0.0657  0.7180
  394TMC3    C5 5940   1.111   4.407  10.168 -0.3925 -1.0399  0.4288
  394TMC3    C6 5941   1.067   4.351  10.057 -0.0709  0.3549  0.2658
  394TMC3     C 5942   0.908   4.264  10.436 -0.1469  0.3579  0.2318
  394TMC3     O 5943   0.861   4.154  10.462  0.1572  0.4150 -0.3280
  394TMC3     H 5944   0.848   4.141  10.203  0.2616 -0.5206 -3.0350
  394TMC3    H1 5945   1.116   4.428  10.376 -1.8811  1.2788  1.7140
  394TMC3    H2 5946   1.113   4.363   9.959  1.4044 -2.8177  0.5854
  394TMC3    C7 5947   1.249   4.453  10.160 -0.1956 -0.0205 -0.3854
  394TMC3    C8 5948   0.935   4.177   9.950 -0.1962  0.3210 -0.8772
  394TMC3    O1 5949   1.284   4.502  10.054  0.4822 -0.1639  0.2548
  394TMC3    O2 5950   0.928   4.232   9.838  0.1482 -0.7281  0.2104
  395TMC3    C1 5951   1.057   1.725  14.875 -0.1583  0.1237 -0.1107
  395TMC3    C2 5952   1.081   1.590  14.881 -0.4511  0.4760  0.7614
  395TMC3    C3 5953   1.113   1.530  14.762 -0.1934 -0.6520 -0.1613
  395TMC3    C4 5954   1.055   1.804  14.760 -0.4394 -0.2272 -0.1116
  395TMC3    C5 5955   1.098   1.736  14.650 -0.4537 -0.1689  0.8752
  395TMC3    C6 5956   1.128   1.597  14.647 -0.9880 -0.7313  0.4197
  395TMC3     C 5957   1.034   1.783  15.003  1.3917 -0.8914  0.2644
  395TMC3     O 5958   1.005   1.903  14.999 -0.2280 -0.1128  0.0573
  395TMC3     H 5959   1.068   1.522  14.965  3.4024 -2.0209 -0.6446
  395TMC3    H1 5960   1.055   1.911  14.777  1.2390  0.0790 -2.0210
  395TMC3    H2 5961   1.178   1.545  14.566 -2.4658  0.4032 -1.2301
  395TMC3    C7 5962   1.198   1.820  14.581  0.2145 -0.5558 -0.3585
  395TMC3    C8 5963   1.165   1.394  14.772  0.1256  0.4701  0.1225
  395TMC3    O1 5964   1.294   1.766  14.536 -0.0194 -0.1247 -0.2931
  395TMC3    O2 5965   1.227   1.359  14.874  0.6183  0.2050 -0.6080
  396MPD2     C 5966   1.049   2.444  16.649 -0.1252  0.6932 -0.5391
  396MPD2    C1 5967   1.160   2.489  16.712 -0.2655 -0.4624 -0.0427
  396MPD2    C2 5968   1.248   2.585  16.652 -0.1602 -0.5499 -0.0944
  396MPD2    C3 5969   1.216   2.640  16.530 -0.1147 -0.0386  0.1875
  396MPD2    C4 5970   1.093   2.610  16.483  0.4394 -0.0548 -0.0625
  396MPD2    C5 5971   1.013   2.507  16.530 -0.6554 -0.3120  0.8380
  396MPD2     H 5972   1.346   2.610  16.692 -1.3740  3.1210  0.6184
  396MPD2    H1 5973   1.050   2.672  16.405 -1.9448 -2.1012 -0.3624
  396MPD2    H2 5974   0.983   2.371  16.695  1.6139 -1.9072 -2.1497
  396MPD2    H3 5975   0.917   2.487  16.485 -0.3329 -0.6771  0.3030
  396MPD2     N 5976   1.300   2.740  16.476  0.0707 -0.2663  0.7174
  396MPD2    H5 5977   1.389   2.764  16.521 -0.6155  1.8865  0.9254
  396MPD2    N1 5978   1.186   2.435  16.833 -0.4637  0.3271  0.1857
  396MPD2    H7 5979   1.149   2.341  16.846 -0.2830  0.0559 -1.2319
  397TMC3    C1 5980   1.355   2.397  16.991 -0.2149  0.2329 -0.9646
  397TMC3    C2 5981   1.468   2.409  16.913 -0.3123  0.1136 -0.2344
  397TMC3    C3 5982   1.504   2.318  16.821  0.7327  0.9364  0.4809
  397TMC3    C4 5983   1.300   2.271  17.004  0.4075 -0.1250 -0.0599
  397TMC3    C5 5984   1.350   2.175  16.919 -0.2855 -0.1570  0.2253
  397TMC3    C6 5985   1.444   2.195  16.822 -0.1181  0.6705  0.2431
  397TMC3     C 5986   1.264   2.493  16.933  0.2791 -0.0282  0.2493
  397TMC3     O 5987   1.297   2.609  16.941  0.1672  0.1634 -0.4250
  397TMC3     H 5988   1.481   2.509  16.872 -0.3668  0.0902 -0.3076
  397TMC3    H1 5989   1.212   2.263  17.067  0.4727  2.3073  0.3182
  397TMC3    H2 5990   1.475   2.123  16.747  0.8935  2.0085 -0.6172
  397TMC3    C7 5991   1.325   2.037  16.954 -0.2031  0.0568  0.1297
  397TMC3    C8 5992   1.556   2.363  16.695  0.2479  0.5342  0.1895
  397TMC3    O1 5993   1.325   1.958  16.862 -0.3614 -0.2569 -0.2007
  397TMC3    O2 5994   1.523   2.299  16.592 -0.1626 -0.1213  0.3226
  398MPD2     C 5995   4.056   3.886  17.555 -0.0050 -0.4927  0.4378
  398MPD2    C1 5996   4.188   3.891  17.500 -0.4678  0.4537  0.5118
  398MPD2    C2 5997   4.250   4.019  17.487  0.4308  0.0634  0.0920
  398MPD2    C3 5998   4.187   4.137  17.520 -0.4277 -0.1471 -0.0897
  398MPD2    C4 5999   4.062   4.131  17.577 -0.1953  0.5402 -0.1456
  398MPD2    C5 6000   4.002   4.010  17.585 -0.1191 -0.0340 -0.9051
  398MPD2     H 6001   4.353   4.020  17.451  0.4448  1.5790  0.1754
  398MPD2    H1 6002   4.003   4.217  17.604 -2.8814 -0.4745 -2.8189
  398MPD2    H2 6003   3.995   3.798  17.576 -0.9443 -0.0520 -0.4808
  398MPD2    H3 6004   3.904   4.003  17.630  0.5302  1.2094  0.7313
  398MPD2     N 6005   4.256   4.255  17.506 -0.5858 -0.1152 -0.0418
  398MPD2    H5 6006   4.331   4.249  17.438  1.7600  4.1158  2.1480
  398MPD2    N1 6007   4.253   3.778  17.450  0.1064 -0.3816 -0.0694
  398MPD2    H7 6008   4.340   3.792  17.398  0.2399  0.8905  0.5017
  399TMC3    C1 6009   4.290   3.552  17.388  0.1520 -0.1987  0.0324
  399TMC3    C2 6010   4.424   3.556  17.413  0.1137 -0.1387  0.5483
  399TMC3    C3 6011   4.494   3.440  17.437 -0.3506 -0.4276  0.2575
  399TMC3    C4 6012   4.224   3.435  17.373 -1.1289  0.5655 -0.7726
  399TMC3    C5 6013   4.303   3.317  17.391 -0.1057  0.8999 -0.4967
  399TMC3    C6 6014   4.439   3.320  17.426 -0.1253 -0.3279  1.0110
  399TMC3     C 6015   4.210   3.650  17.462  0.0117  0.7247  0.1151
  399TMC3     O 6016   4.120   3.601  17.529 -0.5325  0.0031  0.4702
  399TMC3     H 6017   4.469   3.653  17.426 -1.8167  0.9182 -0.6945
  399TMC3    H1 6018   4.117   3.443  17.356 -1.4433  0.2057  1.0756
  399TMC3    H2 6019   4.486   3.229  17.461  0.6344 -0.0795  0.6145
  399TMC3    C7 6020   4.236   3.190  17.413 -0.1780 -0.1259 -0.7649
  399TMC3    C8 6021   4.618   3.461  17.507  0.7250 -0.2740 -0.1840
  399TMC3    O1 6022   4.311   3.098  17.449 -0.3754  0.2741  0.0986
  399TMC3    O2 6023   4.643   3.564  17.565  0.2931  0.6843 -0.0389
  400TMC3    C1 6024   2.546   2.069  16.824 -0.0847 -0.3331  0.0839
  400TMC3    C2 6025   2.433   1.985  16.835  0.2467  0.3045  0.0705
  400TMC3    C3 6026   2.335   2.003  16.740  0.5939  0.1759  0.2282
  400TMC3    C4 6027   2.566   2.164  16.721 -0.1705 -0.0375 -0.2659
  400TMC3    C5 6028   2.466   2.166  16.625  0.1345  0.0453 -0.3430
  400TMC3    C6 6029   2.351   2.089  16.635 -0.2852 -0.4103 -0.0338
  400TMC3     C 6030   2.638   2.046  16.933 -0.0817 -0.3267  0.3662
  400TMC3     O 6031   2.610   1.955  17.009 -0.4188 -0.3447  0.1098
  400TMC3     H 6032   2.422   1.904  16.906 -0.3992  1.2056  1.0069
  400TMC3    H1 6033   2.662   2.211  16.703 -1.0958  1.2704 -1.7451
  400TMC3    H2 6034   2.275   2.101  16.558  1.2364  1.1865 -1.2915
  400TMC3    C7 6035   2.476   2.266  16.523 -0.4684 -0.4899  0.1634
  400TMC3    C8 6036   2.262   1.878  16.709 -0.7753 -0.2989 -0.0300
  400TMC3    O1 6037   2.446   2.226  16.414  0.2058 -0.3511  0.4861
  400TMC3    O2 6038   2.223   1.814  16.801 -0.3254  0.3381 -0.4774
  401MPD2     C 6039   0.945   1.144   0.850  0.8045 -0.0671  0.2216
  401MPD2    C1 6040   1.037   1.045   0.852  0.3863  0.3195  0.1537
  401MPD2    C2 6041   0.989   0.911   0.842 -0.0689  0.2326 -0.7481
  401MPD2    C3 6042   0.861   0.877   0.823 -0.3151  0.2469 -0.0556
  401MPD2    C4 6043   0.766   0.977   0.830  0.6062 -0.9473  0.1850
  401MPD2    C5 6044   0.808   1.117   0.832  0.5489 -0.2012  0.4295
  401MPD2     H 6045   1.062   0.831   0.845  0.0707  0.3930  0.2596
  401MPD2    H1 6046   0.661   0.954   0.821  0.2862  0.4531  0.2482
  401MPD2    H2 6047   0.977   1.247   0.860 -0.9833  0.6050 -0.9476
  401MPD2    H3 6048   0.739   1.199   0.839  1.1226  0.3925 -0.7975
  401MPD2     N 6049   0.836   0.743   0.811  0.1899  0.2900 -0.2984
  401MPD2    H5 6050   0.912   0.681   0.783  0.6826  0.4010  0.8103
  401MPD2    N1 6051   1.178   1.067   0.861  0.1674 -0.2707 -0.1025
  401MPD2    H7 6052   1.244   0.991   0.873 -0.0825 -0.4513  0.1334
  402TMC3    C1 6053   0.718   0.543   0.809 -0.0742  0.0802 -0.7906
  402TMC3    C2 6054   0.719   0.447   0.910 -0.1783 -0.5455 -0.2133
  402TMC3    C3 6055   0.761   0.324   0.881 -0.0887 -0.3654  0.5573
  402TMC3    C4 6056   0.761   0.522   0.681 -0.0793  0.1927 -0.0671
  402TMC3    C5 6057   0.789   0.391   0.656  0.2364 -0.5435  0.4264
  402TMC3    C6 6058   0.796   0.289   0.759  0.2763 -0.0255 -0.1924
  402TMC3     C 6059   0.722   0.684   0.852  0.2090  0.4033 -0.0053
  402TMC3     O 6060   0.626   0.730   0.918  0.3027 -0.1802  0.1748
  402TMC3     H 6061   0.722   0.485   1.011 -0.7275 -1.1980  0.0466
  402TMC3    H1 6062   0.770   0.600   0.606 -1.4301  1.1742  0.7981
  402TMC3    H2 6063   0.789   0.190   0.715  0.9123  0.6815 -1.9176
  402TMC3    C7 6064   0.857   0.362   0.529  0.3776  0.4201 -0.3085
  402TMC3    C8 6065   0.775   0.233   0.998  0.5594  0.1754  0.4230
  402TMC3    O1 6066   0.872   0.461   0.460  0.0546  0.1493  0.4566
  402TMC3    O2 6067   0.861   0.145   0.977  0.1952  0.1121 -0.4908
  403MPD2     C 6068   3.713   4.132  12.985  0.7542  0.1075  0.0051
  403MPD2    C1 6069   3.812   4.036  12.997  0.4484 -0.6773  0.2672
  403MPD2    C2 6070   3.906   4.031  13.101  0.2282 -0.1358 -0.5513
  403MPD2    C3 6071   3.895   4.131  13.204 -0.8377 -0.5554 -0.5747
  403MPD2    C4 6072   3.782   4.216  13.196  0.1134  0.2727  0.5492
  403MPD2    C5 6073   3.694   4.223  13.089 -0.0774  0.7157  0.4311
  403MPD2     H 6074   3.986   3.958  13.101  0.2535 -0.1049  0.0924
  403MPD2    H1 6075   3.764   4.297  13.265  2.9723  0.0604  1.5446
  403MPD2    H2 6076   3.653   4.132  12.895  0.8191  1.4171 -0.0431
  403MPD2    H3 6077   3.617   4.298  13.087 -1.6336 -0.8678  0.5573
  403MPD2     N 6078   3.998   4.139  13.304 -0.6080  0.6616  0.5605
  403MPD2    H5 6079   4.086   4.090  13.295 -0.8027  0.4015  0.0646
  403MPD2    N1 6080   3.812   3.944  12.886 -0.1004 -1.1738  0.6656
  403MPD2    H7 6081   3.740   3.942  12.815 -0.8646  0.6918  1.3843
  404TMC3    C1 6082   3.821   3.734  12.786 -0.0143  0.4799  0.2030
  404TMC3    C2 6083   3.794   3.611  12.836  0.3036  0.3692 -0.4123
  404TMC3    C3 6084   3.696   3.536  12.779 -0.5189  0.0734  0.2963
  404TMC3    C4 6085   3.740   3.788  12.684 -0.0624  0.8308 -0.4637
  404TMC3    C5 6086   3.647   3.710  12.629 -0.3247  0.1494  0.6249
  404TMC3    C6 6087   3.615   3.587  12.679 -0.3377  0.3254 -0.6971
  404TMC3     C 6088   3.888   3.829  12.885 -0.7529 -0.2696 -0.1401
  404TMC3     O 6089   3.976   3.783  12.957  0.2774  0.7122 -0.0273
  404TMC3     H 6090   3.849   3.567  12.918 -1.3552 -0.0961  0.4594
  404TMC3    H1 6091   3.758   3.887  12.642  2.7361  0.8075  0.7320
  404TMC3    H2 6092   3.529   3.529  12.646 -0.4110 -0.9447  1.7581
  404TMC3    C7 6093   3.588   3.757  12.507  0.3415 -0.3402  0.0450
  404TMC3    C8 6094   3.620   3.466  12.884 -0.1327  0.1618 -0.3853
  404TMC3    O1 6095   3.624   3.873  12.481 -0.5112  0.4799  0.1746
  404TMC3    O2 6096   3.580   3.352  12.862  0.6081  0.0187 -0.1994
  405MPD2     C 6097   0.114   0.109  14.325 -0.5416  0.4788  0.0206
  405MPD2    C1 6098   0.008   0.045  14.263  1.5506 -0.1454 -0.5204
  405MPD2    C2 6099   4.613   0.094  14.285 -0.1710  0.0706  0.0491
  405MPD2    C3 6100   4.589   0.219  14.343 -0.4588 -0.0894 -0.5164
  405MPD2    C4 6101   4.697   0.291  14.397 -0.4476  0.0360  0.0370
  405MPD2    C5 6102   0.087   0.227  14.388  0.1424  0.1586 -0.1453
  405MPD2     H 6103   4.525   0.045  14.245 -1.0094  1.4441  0.2250
  405MPD2    H1 6104   4.682   0.376  14.462 -2.8244 -0.0006 -0.4727
  405MPD2    H2 6105   0.215   0.070  14.316 -0.9566  0.1479 -3.2687
  405MPD2    H3 6106   0.172   0.279  14.432  0.0934  0.4730 -0.4185
  405MPD2     N 6107   4.454   0.255  14.353  0.2732 -0.5322 -0.7236
  405MPD2    H5 6108   4.386   0.180  14.342  0.4228 -1.1446  2.5339
  405MPD2    N1 6109   0.032   4.662  14.195  0.6095  0.1997  0.5265
  405MPD2    H7 6110   0.124   4.620  14.205  0.5472  0.3280  1.6627
  406TMC3    C1 6111   4.047   0.434  14.460 -0.5440  0.5023  0.0670
  406TMC3    C2 6112   3.983   0.340  14.389 -0.1243 -0.0227 -0.1052
  406TMC3    C3 6113   4.057   0.274  14.291  0.1279  0.0811 -0.5068
  406TMC3    C4 6114   4.183   0.464  14.452  0.2007  0.3392 -0.2383
  406TMC3    C5 6115   4.254   0.383  14.365 -0.6027 -0.1242 -0.5987
  406TMC3    C6 6116   4.194   0.289  14.282 -0.8305  0.3847  0.2960
  406TMC3     C 6117   3.974   0.513  14.559 -0.3631 -0.6933  0.4190
  406TMC3     O 6118   4.020   0.620  14.601 -0.4512 -0.2614 -0.6777
  406TMC3     H 6119   3.875   0.331  14.390 -0.0439 -0.3559  3.4393
  406TMC3    H1 6120   4.236   0.531  14.519 -0.7780 -0.5031  1.3664
  406TMC3    H2 6121   4.251   0.245  14.201 -0.1461 -1.2868  1.6816
  406TMC3    C7 6122   4.403   0.374  14.390  1.2337  1.0791 -0.4271
  406TMC3    C8 6123   3.994   0.142  14.268 -0.0365 -0.0136 -0.0477
  406TMC3    O1 6124   4.454   0.463  14.459  0.1028 -0.3022 -0.6053
  406TMC3    O2 6125   3.895   0.100  14.322 -0.0760  0.6345 -0.2677
  407MPD2     C 6126   1.529   0.953   9.261 -0.5286  0.1545  0.4920
  407MPD2    C1 6127   1.637   1.006   9.327  0.0787  0.0089 -0.3666
  407MPD2    C2 6128   1.605   1.060   9.452  0.7003  0.4640 -0.4620
  407MPD2    C3 6129   1.481   1.043   9.512  0.2584  0.3292 -0.4614
  407MPD2    C4 6130   1.370   0.998   9.437  0.1750  0.2615 -0.4227
  407MPD2    C5 6131   1.400   0.955   9.313  0.5433 -0.1977  0.2694
  407MPD2     H 6132   1.684   1.109   9.508  2.3591 -0.5866 -1.8933
  407MPD2    H1 6133   1.266   1.008   9.467  0.3781  0.0017  0.3606
  407MPD2    H2 6134   1.536   0.933   9.155 -0.8236 -0.6328  0.6241
  407MPD2    H3 6135   1.320   0.916   9.253 -0.0792  1.9543 -0.2917
  407MPD2     N 6136   1.451   1.095   9.638  0.4705 -0.8922 -0.5305
  407MPD2    H5 6137   1.353   1.118   9.652  1.1056 -0.2070  2.7146
  407MPD2    N1 6138   1.763   1.037   9.271 -0.0062 -0.1864 -0.3002
  407MPD2    H7 6139   1.813   1.113   9.315 -1.1211  1.3874 -1.7583
  408TMC3    C1 6140   1.949   1.034   9.122 -0.6717 -0.3662  0.1969
  408TMC3    C2 6141   2.060   0.953   9.110  0.6979 -0.3959 -0.3113
  408TMC3    C3 6142   2.183   1.013   9.108  0.6901 -0.4089 -0.3323
  408TMC3    C4 6143   1.964   1.168   9.143 -0.0176  0.0597  0.6916
  408TMC3    C5 6144   2.083   1.221   9.135  0.3094 -0.3193  0.0449
  408TMC3    C6 6145   2.197   1.149   9.119 -0.3876 -0.4276 -0.2148
  408TMC3     C 6146   1.825   0.969   9.173 -0.2145  0.6912 -0.5643
  408TMC3     O 6147   1.802   0.861   9.125  0.0388 -0.6237  0.2150
  408TMC3     H 6148   2.059   0.847   9.092 -1.2437 -0.2208 -1.3042
  408TMC3    H1 6149   1.884   1.235   9.171  0.0412 -0.0182  1.0465
  408TMC3    H2 6150   2.290   1.203   9.130 -0.6998 -0.5893  3.2631
  408TMC3    C7 6151   2.101   1.329   9.228  0.3374  0.2367  0.1315
  408TMC3    C8 6152   2.271   0.939   9.190  0.5673 -0.1163  0.7231
  408TMC3    O1 6153   2.193   1.305   9.308  0.3416 -0.3671 -0.4147
  408TMC3    O2 6154   2.271   0.815   9.174  0.3887 -0.0487 -0.1016
  409MPD2     C 6155   1.618   1.739  16.595 -0.4767 -0.6439  0.3349
  409MPD2    C1 6156   1.630   1.815  16.712 -0.0132 -0.7150  0.4125
  409MPD2    C2 6157   1.715   1.924  16.707  0.3299  0.2094  0.8245
  409MPD2    C3 6158   1.779   1.964  16.594  0.2082  0.3095 -0.1390
  409MPD2    C4 6159   1.753   1.903  16.476 -0.0533  0.3515  0.3372
  409MPD2    C5 6160   1.673   1.790  16.483 -0.0242  1.1225  0.8189
  409MPD2     H 6161   1.735   1.980  16.798  0.0335 -0.4589  1.3008
  409MPD2    H1 6162   1.798   1.933  16.382 -0.3116 -0.6674 -0.1121
  409MPD2    H2 6163   1.565   1.645  16.589 -0.0813 -0.9149  1.0437
  409MPD2    H3 6164   1.662   1.737  16.389 -2.2718  0.8929  1.2293
  409MPD2     N 6165   1.859   2.081  16.579 -0.1196 -0.3033 -0.0808
  409MPD2    H5 6166   1.896   2.106  16.487  0.6607 -1.1909 -0.0031
  409MPD2    N1 6167   1.574   1.779  16.835  0.1095 -1.0724  0.1807
  409MPD2    H7 6168   1.594   1.829  16.921 -2.6836  3.2913 -1.7450
  410TMC3    C1 6169   1.964   2.285  16.633  0.1592 -0.0558  0.3091
  410TMC3    C2 6170   2.043   2.347  16.730  0.1158 -0.0600  0.3712
  410TMC3    C3 6171   2.148   2.425  16.695  0.5868  0.0969  0.0315
  410TMC3    C4 6172   1.982   2.310  16.500 -0.0732  0.5283 -0.8169
  410TMC3    C5 6173   2.090   2.386  16.464 -0.1836 -0.3009  0.3053
  410TMC3    C6 6174   2.170   2.443  16.564  0.5170 -0.4452 -0.1422
  410TMC3     C 6175   1.886   2.168  16.681  0.5677  0.5425  0.7991
  410TMC3     O 6176   1.869   2.160  16.800 -0.5049  0.0754 -0.4158
  410TMC3     H 6177   2.034   2.330  16.837 -1.8762  4.0065  0.8809
  410TMC3    H1 6178   1.925   2.278  16.413 -0.8631 -1.3140  0.3846
  410TMC3    H2 6179   2.262   2.487  16.526  0.0627  1.6865  1.2235
  410TMC3    C7 6180   2.146   2.357  16.338  0.0666 -0.1343  0.5608
  410TMC3    C8 6181   2.254   2.465  16.787 -0.1985  0.4484 -0.4474
  410TMC3    O1 6182   2.126   2.241  16.302 -0.0579 -0.4374  0.4214
  410TMC3    O2 6183   2.323   2.563  16.750 -0.2041  0.2425  0.2619
  411MPD2     C 6184   2.025   2.254  14.227  1.1189 -0.2446 -0.4749
  411MPD2    C1 6185   1.891   2.255  14.212 -0.5850  0.4953  0.2108
  411MPD2    C2 6186   1.829   2.136  14.185 -0.2386  0.2784  0.3626
  411MPD2    C3 6187   1.901   2.021  14.150  0.4840 -0.5254  0.7615
  411MPD2    C4 6188   2.038   2.026  14.161  0.0767 -0.4317  0.0324
  411MPD2    C5 6189   2.099   2.139  14.207 -0.1723 -0.1824  0.9193
  411MPD2     H 6190   1.721   2.128  14.190 -0.2306 -1.1657 -1.7345
  411MPD2    H1 6191   2.102   1.938  14.153  0.8571  0.2251 -1.0524
  411MPD2    H2 6192   2.076   2.336  14.275 -0.1567 -0.6609  1.5696
  411MPD2    H3 6193   2.204   2.136  14.237  1.3884  2.5425 -4.2227
  411MPD2     N 6194   1.828   1.900  14.138  0.6518  0.4895 -0.5027
  411MPD2    H5 6195   1.727   1.909  14.148  0.5906  1.2082 -1.7422
  411MPD2    N1 6196   1.801   2.361  14.239 -0.4116 -0.0663 -0.3671
  411MPD2    H7 6197   1.704   2.340  14.217 -0.2377  1.6374 -2.6936
  412TMC3    C1 6198   1.764   1.693  14.058 -0.0036 -0.0599  0.0887
  412TMC3    C2 6199   1.662   1.669  14.142  0.4283 -0.0375 -0.3867
  412TMC3    C3 6200   1.559   1.595  14.092 -0.0136  0.2476  0.3394
  412TMC3    C4 6201   1.752   1.663  13.923 -0.1634 -1.6529 -0.0936
  412TMC3    C5 6202   1.646   1.594  13.876 -0.7385  0.1240  0.3500
  412TMC3    C6 6203   1.558   1.545  13.967 -0.8616 -0.0652 -0.2372
  412TMC3     C 6204   1.874   1.783  14.091  0.2956  0.0052 -0.3261
  412TMC3     O 6205   1.985   1.768  14.034 -0.2279  0.1356  0.2004
  412TMC3     H 6206   1.658   1.717  14.239  1.5883 -1.3022  0.2821
  412TMC3    H1 6207   1.818   1.698  13.844 -1.6252  0.1806 -0.4962
  412TMC3    H2 6208   1.471   1.502  13.920 -0.1155  0.1685 -1.8470
  412TMC3    C7 6209   1.569   1.686  13.794  0.0725  0.2066  0.0504
  412TMC3    C8 6210   1.429   1.639  14.139 -0.0774 -0.4593 -0.4288
  412TMC3    O1 6211   1.547   1.798  13.841  0.1317  0.4071 -0.2910
  412TMC3    O2 6212   1.374   1.581  14.228  0.2894 -0.2298 -0.5436
  413MPD2     C 6213   3.118   0.608  14.988 -0.1731  0.1434 -0.0614
  413MPD2    C1 6214   3.234   0.679  15.004  0.1262  0.0819  0.1760
  413MPD2    C2 6215   3.355   0.615  15.012  0.7560 -0.0694  0.3765
  413MPD2    C3 6216   3.360   0.475  15.011 -0.2055 -1.3022 -0.1013
  413MPD2    C4 6217   3.240   0.405  15.021  0.2231  0.6069 -0.2366
  413MPD2    C5 6218   3.123   0.469  15.001 -0.7824  0.4327  0.4815
  413MPD2     H 6219   3.448   0.671  15.001  0.5346  0.3691  0.7841
  413MPD2    H1 6220   3.239   0.297  15.028 -1.0712  0.6448  0.1511
  413MPD2    H2 6221   3.021   0.656  14.983  0.0108  0.4385 -0.7778
  413MPD2    H3 6222   3.030   0.414  14.999 -1.5083  1.5303  3.5949
  413MPD2     N 6223   3.487   0.412  15.018  0.2043  0.0133 -0.1692
  413MPD2    H5 6224   3.565   0.474  15.035  0.0995 -0.0051  0.3912
  413MPD2    N1 6225   3.228   0.815  14.984 -0.1027  0.1496 -0.6503
  413MPD2    H7 6226   3.138   0.854  14.957 -0.7938 -0.8113  0.2676
  414TMC3    C1 6227   3.652   0.247  15.010  0.0515  0.0133  0.3299
  414TMC3    C2 6228   3.671   0.108  15.019  0.5518 -0.5450  0.3216
  414TMC3    C3 6229   3.798   0.054  14.997  0.5172 -0.1496 -0.4228
  414TMC3    C4 6230   3.753   0.330  14.974 -0.2039  0.7125 -0.6363
  414TMC3    C5 6231   3.880   0.275  14.975 -0.4902  0.3864 -0.2587
  414TMC3    C6 6232   3.905   0.139  14.980  0.0180  0.7986  0.0118
  414TMC3     C 6233   3.509   0.279  15.002 -0.3438 -0.8099  0.5339
  414TMC3     O 6234   3.440   0.185  14.972 -0.0257 -0.4681  0.5686
  414TMC3     H 6235   3.595   0.030  15.021 -1.2648  1.2212  1.0382
  414TMC3    H1 6236   3.742   0.438  14.961  0.3993  0.7627 -0.7440
  414TMC3    H2 6237   4.006   0.099  14.972 -1.1498 -2.6027  2.6077
  414TMC3    C7 6238   3.992   0.368  14.999  0.5000  0.3785  0.0212
  414TMC3    C8 6239   3.811   4.645  15.007  0.5793  0.0441 -0.2872
  414TMC3    O1 6240   4.102   0.332  14.963 -0.3045 -0.0944 -0.2621
  414TMC3    O2 6241   3.726   4.593  15.074 -0.2279 -1.0849  0.3288
  415TMC3    C1 6242   3.781   3.026   9.911  0.5256  0.1134 -0.3341
  415TMC3    C2 6243   3.920   3.002   9.889  0.3380 -0.3868 -0.2863
  415TMC3    C3 6244   3.943   2.897   9.798 -0.3621  0.1739  0.6822
  415TMC3    C4 6245   3.688   2.951   9.841  0.2801  0.0786 -0.0115
  415TMC3    C5 6246   3.722   2.854   9.754  0.5394 -0.5995  0.3440
  415TMC3    C6 6247   3.851   2.823   9.732  0.1868  0.1333 -0.0277
  415TMC3     C 6248   3.738   3.108  10.025  0.1405  0.4361 -1.0118
  415TMC3     O 6249   3.623   3.091  10.064  0.8686 -0.2096  0.4635
  415TMC3     H 6250   3.997   3.039   9.956 -0.2842  0.4000 -0.0107
  415TMC3    H1 6251   3.586   2.977   9.869  0.9353  1.2912  1.2718
  415TMC3    H2 6252   3.885   2.754   9.655 -1.6910 -2.2064  1.2744
  415TMC3    C7 6253   3.620   2.757   9.723  0.2862  0.3259  0.1354
  415TMC3    C8 6254   4.078   2.868   9.760 -0.0842  0.3606  0.1768
  415TMC3    O1 6255   3.659   2.664   9.655  0.0442 -0.0539 -0.0968
  415TMC3    O2 6256   4.103   2.758   9.709  0.3540 -0.3113  0.6649
  416MPD2     C 6257   0.646   1.920  11.137 -0.2350 -0.3127  0.0266
  416MPD2    C1 6258   0.512   1.923  11.127 -0.3071 -0.7564  0.1354
  416MPD2    C2 6259   0.448   1.870  11.019  0.3715  0.7708  0.4425
  416MPD2    C3 6260   0.513   1.822  10.913 -0.4175 -0.3897  0.9439
  416MPD2    C4 6261   0.653   1.816  10.918 -0.3787  0.3291  0.3806
  416MPD2    C5 6262   0.718   1.867  11.033  0.0189 -0.6001  0.4135
  416MPD2     H 6263   0.340   1.878  11.017  0.2408 -1.6927 -1.9062
  416MPD2    H1 6264   0.715   1.780  10.837  0.0685 -0.3767  1.0402
  416MPD2    H2 6265   0.703   1.956  11.222  1.4772  0.1202 -1.2938
  416MPD2    H3 6266   0.826   1.870  11.041  0.2249  0.1569 -2.9488
  416MPD2     N 6267   0.446   1.766  10.809 -0.2633  0.4459  0.4145
  416MPD2    H5 6268   0.494   1.719  10.733  0.2707  0.6665  0.6132
  416MPD2    N1 6269   0.432   2.000  11.220  0.4714  0.0739 -0.3655
  416MPD2    H7 6270   0.333   1.983  11.205 -0.5226  3.8854  1.8912
  417TMC3    C1 6271   0.371   2.145  11.385  0.8959 -0.4031 -0.4597
  417TMC3    C2 6272   0.389   2.163  11.521  0.5039  0.5423 -0.3836
  417TMC3    C3 6273   0.282   2.171  11.599 -0.4974 -0.2338 -0.1249
  417TMC3    C4 6274   0.241   2.132  11.330  0.3492  0.9591 -0.0288
  417TMC3    C5 6275   0.136   2.149  11.414 -0.4699  0.5536  0.1198
  417TMC3    C6 6276   0.152   2.162  11.548 -0.5813  0.3858 -0.1681
  417TMC3     C 6277   0.477   2.079  11.319 -0.4313 -0.0774 -1.2309
  417TMC3     O 6278   0.585   2.073  11.369 -0.3968 -0.3525  0.0353
  417TMC3     H 6279   0.490   2.189  11.551  0.1972 -0.7954  1.7396
  417TMC3    H1 6280   0.231   2.120  11.223 -1.1464  0.6303  0.1531
  417TMC3    H2 6281   0.067   2.169  11.614  0.2915  3.5553  0.6539
  417TMC3    C7 6282   0.014   2.177  11.350 -0.1901  0.6766  0.0916
  417TMC3    C8 6283   0.302   2.207  11.744 -0.9371 -0.1266  0.5706
  417TMC3    O1 6284   4.650   2.159  11.417 -0.0716 -0.3392  0.0228
  417TMC3    O2 6285   0.397   2.280  11.772 -0.4450  1.1795  0.2007
  418TMC3    C1 6286   4.552   4.510  17.501  0.7220 -0.1305  0.3851
  418TMC3    C2 6287   4.421   4.475  17.482  0.0429  0.4124 -0.1162
  418TMC3    C3 6288   4.338   4.461  17.589 -0.5010  0.0481  0.1996
  418TMC3    C4 6289   4.607   4.521  17.623  0.6372  0.9328  1.2487
  418TMC3    C5 6290   4.517   4.505  17.729 -0.2235  0.2697 -0.2652
  418TMC3    C6 6291   4.388   4.467  17.714 -0.1899  0.4424  0.1452
  418TMC3     C 6292   4.634   4.520  17.381 -0.4058 -0.8011 -0.0389
  418TMC3     O 6293   4.570   4.560  17.287  0.5459 -0.1946  0.3103
  418TMC3     H 6294   4.391   4.445  17.382 -2.5167 -1.0216  1.0728
  418TMC3    H1 6295   4.704   4.565  17.642  2.7024 -1.3554 -3.8314
  418TMC3    H2 6296   4.325   4.457   0.064 -1.9885  0.8690 -1.0905
  418TMC3    C7 6297   4.579   4.432   0.100 -0.2332  0.1390 -0.1306
  418TMC3    C8 6298   4.230   4.367  17.578 -0.1633  0.0741 -0.8962
  418TMC3    O1 6299   4.503   4.349   0.145  0.0500 -0.0325 -0.6029
  418TMC3    O2 6300   4.163   4.370  17.682  0.1507 -0.6697 -0.3261
  419MPD2     C 6301   2.305   2.010  12.150 -0.4187  0.0698 -0.3623
  419MPD2    C1 6302   2.394   2.111  12.198 -0.3332 -0.4078  0.1992
  419MPD2    C2 6303   2.377   2.165  12.319  0.1903 -0.6130  0.0358
  419MPD2    C3 6304   2.268   2.120  12.395  0.2614  0.3123  0.1399
  419MPD2    C4 6305   2.179   2.031  12.348  0.2190  0.6264 -0.0744
  419MPD2    C5 6306   2.193   1.980  12.225 -0.4436  0.1241  0.3934
  419MPD2     H 6307   2.449   2.239  12.352 -0.9152  1.1428 -1.4973
  419MPD2    H1 6308   2.101   1.991  12.412  0.3896 -0.1011 -0.3207
  419MPD2    H2 6309   2.324   1.946  12.065 -0.9978 -2.9707  1.8045
  419MPD2    H3 6310   2.136   1.890  12.204 -1.1487  0.2191  1.8403
  419MPD2     N 6311   2.263   2.173  12.528  0.0276  0.0293 -0.3341
  419MPD2    H5 6312   2.339   2.237  12.548 -0.7014  0.8930 -0.2943
  419MPD2    N1 6313   2.503   2.142  12.125  0.0849 -0.0426 -0.5455
  419MPD2    H7 6314   2.554   2.223  12.156  2.2041 -1.6944  0.2778
  420TMC3    C1 6315   2.182   2.284  12.713  0.4022 -0.0220  0.3386
  420TMC3    C2 6316   2.085   2.383  12.728  0.2378  0.3910 -0.2860
  420TMC3    C3 6317   2.124   2.501  12.785 -0.3910  0.7063 -0.1098
  420TMC3    C4 6318   2.313   2.296  12.757 -0.5369 -0.1092  0.0370
  420TMC3    C5 6319   2.345   2.417  12.826  0.1481  0.3533  0.2605
  420TMC3    C6 6320   2.247   2.515  12.835 -0.4540  0.1855 -0.2905
  420TMC3     C 6321   2.150   2.191  12.606 -0.0634 -0.3540  0.3025
  420TMC3     O 6322   2.037   2.177  12.560 -0.8656  0.3897  0.8664
  420TMC3     H 6323   2.004   2.377  12.657  0.1870 -0.4844 -0.1509
  420TMC3    H1 6324   2.383   2.214  12.747 -1.3881 -1.0940  2.2680
  420TMC3    H2 6325   2.271   2.601  12.896 -1.3238  0.0020  0.3149
  420TMC3    C7 6326   2.480   2.431  12.888 -1.1270 -0.1278 -0.2128
  420TMC3    C8 6327   2.048   2.618  12.756 -0.0758  0.5210 -0.2724
  420TMC3    O1 6328   2.542   2.334  12.923 -0.2784 -0.1685 -0.2715
  420TMC3    O2 6329   2.112   2.724  12.764  0.1240  0.3697 -0.2577
  421TMC3    C1 6330   4.116   4.223  13.501 -0.3039 -0.2610  0.2736
  421TMC3    C2 6331   4.142   4.328  13.580  0.0635  0.6188  0.5056
  421TMC3    C3 6332   4.231   4.309  13.677  0.8849 -0.3799 -0.5548
  421TMC3    C4 6333   4.182   4.106  13.523  0.4404  0.0169 -0.0697
  421TMC3    C5 6334   4.270   4.084  13.630  0.3958  0.2546 -0.3978
  421TMC3    C6 6335   4.280   4.192  13.717 -0.3754 -0.0476 -0.2636
  421TMC3     C 6336   4.012   4.245  13.395  0.8673 -0.0373  0.5567
  421TMC3     O 6337   3.983   4.364  13.378 -0.0823 -0.5375  0.2551
  421TMC3     H 6338   4.118   4.429  13.547 -1.7221 -0.0468 -0.2200
  421TMC3    H1 6339   4.172   4.026  13.451 -0.7199  0.9735 -0.9707
  421TMC3    H2 6340   4.335   4.182  13.809 -2.0986 -0.3909  0.7163
  421TMC3    C7 6341   4.395   4.015  13.600 -0.0737 -0.3590  0.9001
  421TMC3    C8 6342   4.281   4.419  13.745  0.0375 -1.1557 -0.4087
  421TMC3    O1 6343   4.481   4.021  13.685  0.3556  0.8198  0.4889
  421TMC3    O2 6344   4.390   4.415  13.804  0.0912  0.2906 -0.4321
  422TMC3    C1 6345   1.914   0.657  12.420  0.6194  0.0496 -0.2087
  422TMC3    C2 6346   1.895   0.763  12.500 -0.0333 -0.6222  0.0909
  422TMC3    C3 6347   1.768   0.769  12.551  0.2755 -0.1710 -0.1031
  422TMC3    C4 6348   1.820   0.561  12.387 -0.5162  0.1953  0.6237
  422TMC3    C5 6349   1.702   0.568  12.447 -0.1826 -1.1813  0.3360
  422TMC3    C6 6350   1.668   0.673  12.526 -0.2737 -0.1817 -0.3630
  422TMC3     C 6351   2.005   0.677  12.312  0.0914  0.4011 -0.7985
  422TMC3     O 6352   2.098   0.752  12.337  0.0451 -0.5171 -0.1740
  422TMC3     H 6353   1.972   0.838  12.506  0.5909 -1.2494 -0.0063
  422TMC3    H1 6354   1.842   0.467  12.337  1.1732  0.9848 -0.1373
  422TMC3    H2 6355   1.570   0.680  12.572  0.9541  2.3755  1.8815
  422TMC3    C7 6356   1.595   0.485  12.390 -0.6084  0.2374 -0.4999
  422TMC3    C8 6357   1.747   0.864  12.662 -0.7734  0.4522 -0.7532
  422TMC3    O1 6358   1.622   0.422  12.288 -0.4746  0.0672  0.1308
  422TMC3    O2 6359   1.845   0.938  12.686 -0.3228  0.4030  0.0063
  423MPD2     C 6360   2.653   1.194   0.369  0.6968  0.3728 -0.2664
  423MPD2    C1 6361   2.764   1.125   0.408  0.0168 -0.5704 -0.5660
  423MPD2    C2 6362   2.845   1.060   0.320  0.0985  0.4353  0.3017
  423MPD2    C3 6363   2.830   1.085   0.184 -0.3181 -0.0936 -0.7297
  423MPD2    C4 6364   2.736   1.173   0.141 -0.4367  0.4927 -0.5821
  423MPD2    C5 6365   2.643   1.216   0.233 -0.1814  0.1204  0.1371
  423MPD2     H 6366   2.925   0.998   0.357  0.1991  0.5306  0.2433
  423MPD2    H1 6367   2.714   1.198   0.038 -1.3859 -0.9301 -0.7351
  423MPD2    H2 6368   2.590   1.237   0.446 -0.3296 -2.7560  0.6649
  423MPD2    H3 6369   2.571   1.290   0.201  0.1766  0.6508  0.5618
  423MPD2     N 6370   2.913   1.028   0.082 -0.2469  0.1668  0.6146
  423MPD2    H5 6371   2.895   1.045  17.721 -1.8200  0.9196  1.0199
  423MPD2    N1 6372   2.816   1.122   0.538 -0.1548 -0.3492  0.3483
  423MPD2    H7 6373   2.897   1.063   0.556 -0.7804 -1.6782 -1.1926
  424TMC3    C1 6374   2.804   1.159   0.774  0.3258 -0.4082  0.1291
  424TMC3    C2 6375   2.878   1.043   0.796  0.0498  0.3662 -0.4936
  424TMC3    C3 6376   2.897   0.997   0.927 -0.0951  1.3275 -0.2958
  424TMC3    C4 6377   2.748   1.232   0.882 -0.2784  0.0569 -0.3876
  424TMC3    C5 6378   2.779   1.176   1.010 -0.9483 -0.4841 -0.1381
  424TMC3    C6 6379   2.849   1.060   1.038 -0.7670  0.2549  0.5987
  424TMC3     C 6380   2.769   1.200   0.640 -0.4362  0.6288 -0.3130
  424TMC3     O 6381   2.693   1.296   0.643 -0.2913  0.9983 -0.6526
  424TMC3     H 6382   2.915   0.989   0.709 -0.9988 -1.9280  0.4870
  424TMC3    H1 6383   2.710   1.333   0.879 -0.1897  0.1387  1.5450
  424TMC3    H2 6384   2.874   1.027   1.138 -0.8971  1.2517  0.9539
  424TMC3    C7 6385   2.721   1.237   1.129  0.4299 -0.2644  0.2406
  424TMC3    C8 6386   2.994   0.889   0.964 -1.0490  0.2520  0.6509
  424TMC3    O1 6387   2.773   1.211   1.233 -0.7444 -0.3532  0.3257
  424TMC3    O2 6388   2.997   0.853   1.078  0.1890  0.2763 -0.0409
  425MPD2     C 6389   2.402   0.543  17.045  0.0717  0.6184 -0.0741
  425MPD2    C1 6390   2.300   0.468  17.101  0.2417  0.1029  0.0113
  425MPD2    C2 6391   2.178   0.519  17.142  0.6793 -0.1853  0.3351
  425MPD2    C3 6392   2.162   0.653  17.122 -0.5722  0.0834 -0.9984
  425MPD2    C4 6393   2.268   0.735  17.080 -0.3377 -0.4094  0.8956
  425MPD2    C5 6394   2.385   0.678  17.037 -0.3663  0.0529  0.1963
  425MPD2     H 6395   2.102   0.458  17.188  1.2484 -2.5477 -1.8781
  425MPD2    H1 6396   2.263   0.843  17.072  2.9472 -0.3347 -0.2577
  425MPD2    H2 6397   2.499   0.498  17.028 -0.4545 -0.5115 -0.0385
  425MPD2    H3 6398   2.461   0.741  16.992 -1.6964  1.7551  0.3048
  425MPD2     N 6399   2.035   0.704  17.145 -0.3947 -0.0024  0.7163
  425MPD2    H5 6400   1.964   0.633  17.163  0.6431 -0.6515  2.2652
  425MPD2    N1 6401   2.322   0.325  17.108  0.0281 -0.2164  0.0324
  425MPD2    H7 6402   2.415   0.286  17.114 -0.1944 -0.7352  0.0994
  426TMC3    C1 6403   2.257   0.094  17.108  0.6412  0.9077 -0.4026
  426TMC3    C2 6404   2.169   0.013  17.040 -0.8588 -0.4292  0.1358
  426TMC3    C3 6405   2.215   4.618  17.024 -0.2654 -0.1100 -0.5734
  426TMC3    C4 6406   2.347   0.039  17.193 -0.0127  0.0349  0.6229
  426TMC3    C5 6407   2.380   4.643  17.195 -0.1980 -0.0717 -0.9255
  426TMC3    C6 6408   2.326   4.568  17.095 -0.3075  1.1781 -0.1154
  426TMC3     C 6409   2.212   0.236  17.121  0.3878 -1.4276 -0.3710
  426TMC3     O 6410   2.091   0.258  17.116 -0.2133  0.6134 -0.1970
  426TMC3     H 6411   2.098   0.044  16.964 -0.5459  1.2087  0.5248
  426TMC3    H1 6412   2.394   0.101  17.268  0.9108  2.6295 -2.0573
  426TMC3    H2 6413   2.347   4.463  17.084  0.6861  1.6477 -2.6290
  426TMC3    C7 6414   2.406   4.590  17.322 -0.5803  0.4156  0.3766
  426TMC3    C8 6415   2.151   4.529  16.924  0.9015  0.1795 -0.2919
  426TMC3    O1 6416   2.494   4.507  17.315  0.2002 -0.1664 -0.1398
  426TMC3    O2 6417   2.223   4.453  16.861 -0.4445  0.2501 -0.2401
  427MPD2     C 6418   1.126   2.831  14.242  0.0427  0.0911 -0.1893
  427MPD2    C1 6419   1.045   2.802  14.354  0.1092  0.8900  0.5019
  427MPD2    C2 6420   0.922   2.863  14.377  0.7376  0.3293 -0.3111
  427MPD2    C3 6421   0.887   2.972  14.302 -0.6266 -0.5964 -0.8193
  427MPD2    C4 6422   0.959   2.993  14.183 -0.5461 -0.2932  0.5714
  427MPD2    C5 6423   1.079   2.923  14.152 -0.1202 -0.0151 -0.2205
  427MPD2     H 6424   0.869   2.817  14.459  0.1374  0.0645 -0.8565
  427MPD2    H1 6425   0.923   3.072  14.118 -1.4592 -1.6204 -0.5423
  427MPD2    H2 6426   1.214   2.770  14.227 -0.0423 -0.2792  0.8061
  427MPD2    H3 6427   1.135   2.952  14.064 -1.9771 -0.0142 -1.4004
  427MPD2     N 6428   0.771   3.054  14.333 -0.3718  0.1844 -0.8710
  427MPD2    H5 6429   0.741   3.124  14.266 -2.3920 -0.7832 -0.9757
  427MPD2    N1 6430   1.078   2.702  14.447 -0.0657  0.1965  1.0467
  427MPD2    H7 6431   1.010   2.694  14.522 -0.8962  1.1364  0.3748
  428TMC3    C1 6432   1.204   2.559  14.587  0.4945  0.2989 -0.0979
  428TMC3    C2 6433   1.090   2.523  14.657 -0.2795  1.1614 -0.3226
  428TMC3    C3 6434   1.103   2.435  14.764  0.2688  0.9178 -0.5195
  428TMC3    C4 6435   1.324   2.504  14.623 -0.0070  0.2911  0.0922
  428TMC3    C5 6436   1.338   2.436  14.748 -0.2445 -0.0082 -0.1441
  428TMC3    C6 6437   1.229   2.390  14.809 -0.0439  0.3988 -0.2248
  428TMC3     C 6438   1.196   2.632  14.461 -0.4801  0.2259  0.7689
  428TMC3     O 6439   1.296   2.638  14.392 -0.2254 -0.0408 -0.0069
  428TMC3     H 6440   0.993   2.543  14.613 -0.4852  1.3609  0.2168
  428TMC3    H1 6441   1.409   2.526  14.559  1.0409 -1.5908  0.8400
  428TMC3    H2 6442   1.236   2.323  14.894  0.9683  1.1793  0.3011
  428TMC3    C7 6443   1.449   2.466  14.836  0.2009 -0.0499  0.2643
  428TMC3    C8 6444   0.989   2.394  14.842  0.3365  0.4045  0.2761
  428TMC3    O1 6445   1.432   2.460  14.959  0.4573 -0.1958 -0.1459
  428TMC3    O2 6446   1.002   2.300  14.917  0.2566 -0.7601 -0.6259
  429MPD2     C 6447   2.053   2.829  16.924 -0.0414  0.9430 -0.6679
  429MPD2    C1 6448   2.162   2.819  17.007  0.5613 -0.3482 -0.0837
  429MPD2    C2 6449   2.262   2.910  16.993 -0.0344  0.8247 -0.7866
  429MPD2    C3 6450   2.256   3.011  16.900  0.8969  0.1116 -0.0892
  429MPD2    C4 6451   2.148   3.013  16.818  0.4307 -0.1954 -0.1050
  429MPD2    C5 6452   2.045   2.925  16.827  0.3192 -0.7144  0.2648
  429MPD2     H 6453   2.341   2.906  17.067  0.7626  1.3525 -1.6031
  429MPD2    H1 6454   2.144   3.084  16.736  0.4695  0.7660  0.7154
  429MPD2    H2 6455   1.969   2.763  16.940  1.8298 -1.6487 -1.6551
  429MPD2    H3 6456   1.961   2.939  16.759  0.5389 -0.4020  0.0597
  429MPD2     N 6457   2.363   3.099  16.897  0.4351  0.0308 -0.1192
  429MPD2    H5 6458   2.427   3.094  16.975  1.6373 -0.3100 -1.1196
  429MPD2    N1 6459   2.176   2.726  17.108 -0.1488 -0.1447 -0.5807
  429MPD2    H7 6460   2.259   2.734  17.167 -1.6722  2.0036  1.2752
  430TMC3    C1 6461   2.532   3.209  16.764  0.3093 -0.2169 -0.1287
  430TMC3    C2 6462   2.534   3.272  16.635 -0.3256  0.4690  0.5631
  430TMC3    C3 6463   2.631   3.227  16.548 -0.0338 -0.3384 -0.8498
  430TMC3    C4 6464   2.614   3.097  16.778  0.1492 -0.1293  0.7544
  430TMC3    C5 6465   2.690   3.042  16.673 -0.5171  0.0175  0.3004
  430TMC3    C6 6466   2.700   3.111  16.565  0.2304 -0.6225 -0.2556
  430TMC3     C 6467   2.396   3.173  16.781 -0.1113  0.1928  0.0217
  430TMC3     O 6468   2.336   3.185  16.676 -0.2826 -0.2805 -0.0987
  430TMC3     H 6469   2.463   3.351  16.615  1.8695  2.4596  0.6559
  430TMC3    H1 6470   2.614   3.038  16.869  1.3534 -0.0182  0.8167
  430TMC3    H2 6471   2.773   3.084  16.490  1.5130 -1.2820  1.2405
  430TMC3    C7 6472   2.671   2.898  16.653 -0.3892  0.3371  0.0449
  430TMC3    C8 6473   2.661   3.308  16.425  0.1885  0.3845  0.7409
  430TMC3    O1 6474   2.699   2.827  16.747  0.3407 -0.2179 -0.1644
  430TMC3    O2 6475   2.741   3.252  16.346  0.3402 -0.2878  0.7241
  431MPD2     C 6476   2.555   2.957  12.191  0.3118 -0.2966 -0.1470
  431MPD2    C1 6477   2.656   2.952  12.097  0.1854 -0.5148 -0.3266
  431MPD2    C2 6478   2.673   2.830  12.032  1.0049  0.6454 -0.0659
  431MPD2    C3 6479   2.602   2.713  12.078  1.0235 -0.9484 -0.3750
  431MPD2    C4 6480   2.516   2.723  12.190 -0.0071  0.0005 -0.1189
  431MPD2    C5 6481   2.488   2.847  12.238  0.1456 -0.2638 -0.1685
  431MPD2     H 6482   2.748   2.822  11.955 -0.0526 -3.2010 -0.7058
  431MPD2    H1 6483   2.463   2.636  12.226 -0.9465  1.0048  0.9002
  431MPD2    H2 6484   2.528   3.053  12.234 -0.1643 -0.0705 -0.9483
  431MPD2    H3 6485   2.416   2.859  12.318 -0.5053  1.6506 -1.0476
  431MPD2     N 6486   2.621   2.583  12.020 -0.2646  0.0024  0.0606
  431MPD2    H5 6487   2.591   2.502  12.074  2.3723  0.0014  1.5378
  431MPD2    N1 6488   2.730   3.064  12.056 -0.0967  0.6773 -0.5985
  431MPD2    H7 6489   2.785   3.056  11.971  4.8825 -0.1432  2.6631
  432TMC3    C1 6490   2.700   2.404  11.887  0.3049  0.5184 -0.1394
  432TMC3    C2 6491   2.813   2.360  11.824 -0.1590 -0.0446  0.0126
  432TMC3    C3 6492   2.838   2.226  11.832 -0.1724 -0.4350  0.2782
  432TMC3    C4 6493   2.608   2.314  11.941 -0.5626  0.0148 -0.1758
  432TMC3    C5 6494   2.637   2.182  11.934  0.3598  0.8228  0.5322
  432TMC3    C6 6495   2.750   2.132  11.879  0.0412 -0.1136 -0.2255
  432TMC3     C 6496   2.683   2.548  11.905 -0.6833 -0.5360 -0.6930
  432TMC3     O 6497   2.749   2.617  11.827 -0.0047  0.2525 -0.5839
  432TMC3     H 6498   2.876   2.422  11.761 -0.2044  2.6400  2.5843
  432TMC3    H1 6499   2.512   2.337  11.986 -0.2491  1.0621 -0.0482
  432TMC3    H2 6500   2.773   2.026  11.883 -3.3647 -0.9136 -1.8415
  432TMC3    C7 6501   2.553   2.092  12.005  0.3995 -0.2898 -0.3360
  432TMC3    C8 6502   2.974   2.179  11.813  0.0159 -0.1914  0.4278
  432TMC3    O1 6503   2.521   1.986  11.952 -0.0722 -0.4366 -0.4986
  432TMC3    O2 6504   2.999   2.058  11.801  0.6712  0.1452  0.0398
  433MPD2     C 6505   1.383   1.283  10.403 -0.8453  0.2958  0.2148
  433MPD2    C1 6506   1.312   1.187  10.481  0.6933  0.1400 -0.1204
  433MPD2    C2 6507   1.267   1.224  10.604 -0.4953 -0.2484  0.9007
  433MPD2    C3 6508   1.307   1.345  10.662  0.0558 -0.5916  0.2359
  433MPD2    C4 6509   1.374   1.435  10.585  0.2671  0.8579  0.1999
  433MPD2    C5 6510   1.409   1.405  10.461  0.2527 -0.0190  0.1157
  433MPD2     H 6511   1.214   1.144  10.655 -1.8776 -0.4568 -0.8927
  433MPD2    H1 6512   1.408   1.526  10.634 -1.9957  1.3004  0.9463
  433MPD2    H2 6513   1.429   1.261  10.307  0.2175 -0.4231  0.8878
  433MPD2    H3 6514   1.482   1.468  10.412 -0.6262  1.2384  0.4421
  433MPD2     N 6515   1.289   1.369  10.801 -0.6789  0.4645 -0.1813
  433MPD2    H5 6516   1.248   1.299  10.861  0.4955  1.2962  1.5712
  433MPD2    N1 6517   1.307   1.053  10.435 -0.4995  0.7577 -0.1766
  433MPD2    H7 6518   1.337   1.034  10.339  1.6323  0.3002  0.5767
  434TMC3    C1 6519   1.232   0.831  10.428  0.1226 -0.1101  0.5037
  434TMC3    C2 6520   1.244   0.714  10.496 -0.0481 -0.2372  0.2557
  434TMC3    C3 6521   1.289   0.597  10.435  0.4176  0.0184  0.2061
  434TMC3    C4 6522   1.261   0.831  10.294 -0.1401 -0.1325 -0.3862
  434TMC3    C5 6523   1.304   0.715  10.233  0.7823 -0.1085 -0.5264
  434TMC3    C6 6524   1.338   0.601  10.304  0.0678  0.7878  0.1462
  434TMC3     C 6525   1.256   0.944  10.505 -0.3805 -0.6061  0.6669
  434TMC3     O 6526   1.259   0.930  10.626 -0.0074 -0.2037  0.3699
  434TMC3     H 6527   1.229   0.691  10.601 -0.2073 -0.1990  0.2414
  434TMC3    H1 6528   1.227   0.914  10.233  1.2726  1.1031  0.5029
  434TMC3    H2 6529   1.391   0.522  10.252 -1.8730 -0.6998  0.4689
  434TMC3    C7 6530   1.330   0.727  10.095  0.5719 -0.7614 -0.2460
  434TMC3    C8 6531   1.367   0.511  10.528  0.6139 -0.2276  0.2594
  434TMC3    O1 6532   1.368   0.836  10.058 -0.3016 -0.7859 -0.1291
  434TMC3    O2 6533   1.306   0.429  10.593  0.3107 -0.6863 -0.5489
  435MPD2     C 6534   4.013   1.795  15.165  0.1002 -0.9243  0.0498
  435MPD2    C1 6535   3.987   1.827  15.296  0.6936  0.3218 -0.5622
  435MPD2    C2 6536   4.066   1.772  15.390 -0.4709 -0.3777  0.4824
  435MPD2    C3 6537   4.171   1.691  15.362  0.4697  0.5196  1.0069
  435MPD2    C4 6538   4.201   1.665  15.235  0.1304 -0.4049 -0.2955
  435MPD2    C5 6539   4.122   1.714  15.137  0.4709  0.0388 -0.6105
  435MPD2     H 6540   4.038   1.814  15.486 -3.9387  2.4768 -1.7567
  435MPD2    H1 6541   4.288   1.605  15.210 -0.3550 -2.4088  2.9181
  435MPD2    H2 6542   3.955   1.826  15.079 -1.7978 -0.3826  1.5529
  435MPD2    H3 6543   4.147   1.688  15.035  0.7118 -2.3277  0.0625
  435MPD2     N 6544   4.247   1.643  15.478  0.1162 -0.5514 -0.2556
  435MPD2    H5 6545   4.208   1.668  15.568 -0.6970 -0.1493 -0.7097
  435MPD2    N1 6546   3.888   1.924  15.342 -0.1774 -0.4091 -0.4119
  435MPD2    H7 6547   3.896   1.955  15.439  0.6605 -2.0055  0.0304
  436TMC3    C1 6548   3.727   2.242  15.518 -0.3078  1.1754  0.2953
  436TMC3    C2 6549   3.800   2.165  15.432  0.5116  0.0245  0.6132
  436TMC3    C3 6550   3.733   2.102  15.329  0.2553  0.1492 -0.4201
  436TMC3    C4 6551   3.589   2.239  15.509  0.1291  0.3840  0.5128
  436TMC3    C5 6552   3.526   2.160  15.420 -0.2458  0.4835 -0.0913
  436TMC3    C6 6553   3.597   2.101  15.317  0.8233 -0.1076 -0.0021
  436TMC3     C 6554   3.803   2.316  15.621 -0.3108 -0.0587 -0.1698
  436TMC3     O 6555   3.921   2.326  15.598  0.0525  0.9069 -0.2252
  436TMC3     H 6556   3.908   2.166  15.437  0.5305 -2.8054  0.6661
  436TMC3    H1 6557   3.531   2.298  15.580 -0.0117  2.1960 -1.1073
  436TMC3    H2 6558   3.551   2.044  15.237  0.3188 -0.6627  0.6944
  436TMC3    C7 6559   3.386   2.127  15.446 -0.1709  1.0023 -0.1426
  436TMC3    C8 6560   3.805   2.000  15.258  0.6233  0.6502  0.0416
  436TMC3    O1 6561   3.353   2.131  15.563 -0.2396  0.4880  0.3048
  436TMC3    O2 6562   3.775   1.990  15.140 -0.3452  0.2006 -0.8504
  437TMC3    C1 6563   2.466   4.165  11.790 -0.1595 -0.2931  0.4955
  437TMC3    C2 6564   2.451   4.172  11.655  0.4313 -0.5373  0.6361
  437TMC3    C3 6565   2.440   4.054  11.590 -0.1534 -0.1073 -0.2989
  437TMC3    C4 6566   2.471   4.043  11.856 -0.5628 -0.2815 -0.1779
  437TMC3    C5 6567   2.451   3.924  11.790  0.1489 -0.4284 -0.2097
  437TMC3    C6 6568   2.438   3.931  11.650  0.6564 -0.0830  0.1388
  437TMC3     C 6569   2.512   4.285  11.852  0.1964  0.0354  0.3275
  437TMC3     O 6570   2.570   4.361  11.772 -0.0093 -0.0362 -0.6700
  437TMC3     H 6571   2.427   4.268  11.610  2.1989 -0.0549  0.7027
  437TMC3    H1 6572   2.467   4.045  11.965 -0.3027  1.0688 -0.1926
  437TMC3    H2 6573   2.426   3.842  11.589 -0.5928  0.8029 -0.9121
  437TMC3    C7 6574   2.488   3.800  11.854  0.2192  0.2538  0.6160
  437TMC3    C8 6575   2.433   4.052  11.447  0.0192  0.2626  0.6694
  437TMC3    O1 6576   2.422   3.701  11.822  0.5618 -0.3298 -0.0495
  437TMC3    O2 6577   2.406   3.945  11.393 -0.4943 -0.1548 -0.3579
  438MPD2     C 6578   0.082   4.206  16.371 -0.6363  0.2295  0.9176
  438MPD2    C1 6579   0.187   4.180  16.450 -0.4876 -0.0944 -0.1757
  438MPD2    C2 6580   0.177   4.192  16.591  0.3487  0.3891  0.3136
  438MPD2    C3 6581   0.060   4.225  16.653  0.7539 -0.1127 -0.3619
  438MPD2    C4 6582   4.693   4.265  16.572 -0.0826 -0.7173  0.4964
  438MPD2    C5 6583   4.710   4.255  16.436 -0.6660  0.1278  0.6726
  438MPD2     H 6584   0.265   4.180  16.653  1.8580 -0.5653 -2.0096
  438MPD2    H1 6585   4.599   4.302  16.611  0.5842  2.0145 -0.5125
  438MPD2    H2 6586   0.079   4.187  16.264  0.8746  1.2241  0.6954
  438MPD2    H3 6587   4.623   4.274  16.375  0.2541  3.8016  0.5082
  438MPD2     N 6588   0.044   4.234  16.791  0.2415 -0.2704  0.3550
  438MPD2    H5 6589   4.687   4.256  16.828 -0.6472 -0.8979 -1.5026
  438MPD2    N1 6590   0.309   4.126  16.399  0.5988 -0.2901  0.1285
  438MPD2    H7 6591   0.377   4.099  16.469  0.6243  1.3613  0.7514
  439TMC3    C1 6592   0.446   3.997  16.270 -0.5227 -0.4980  0.5943
  439TMC3    C2 6593   0.500   3.977  16.143  0.5191 -0.5224  0.0931
  439TMC3    C3 6594   0.595   3.880  16.128 -0.6152 -0.3559  0.1044
  439TMC3    C4 6595   0.482   3.920  16.379  0.2910  0.2975  0.1238
  439TMC3    C5 6596   0.601   3.846  16.364  0.0517  0.1153 -0.2516
  439TMC3    C6 6597   0.647   3.813  16.234 -0.8002 -0.2300  0.9444
  439TMC3     C 6598   0.333   4.085  16.273 -0.0288 -0.4327  0.0413
  439TMC3     O 6599   0.261   4.096  16.178  0.2867 -0.2408  0.6077
  439TMC3     H 6600   0.454   4.030  16.060 -0.6660 -1.1476  0.3469
  439TMC3    H1 6601   0.434   3.927  16.475 -0.6740  0.6582 -0.3856
  439TMC3    H2 6602   0.731   3.746  16.224 -0.5356  0.0158  1.5374
  439TMC3    C7 6603   0.644   3.755  16.471 -0.2001  0.3143 -0.0201
  439TMC3    C8 6604   0.689   3.881  16.019  0.6896 -0.1227  0.0597
  439TMC3    O1 6605   0.650   3.794  16.589  0.1581 -0.7112 -0.1845
  439TMC3    O2 6606   0.808   3.853  16.035 -0.0245  0.0062 -0.1746
  440MPD2     C 6607   3.486   4.603  14.771 -0.3465 -0.4819 -0.3886
  440MPD2    C1 6608   3.399   4.558  14.866 -0.5637  0.1667 -0.2953
  440MPD2    C2 6609   3.376   4.422  14.876 -0.5888 -0.0864 -0.2077
  440MPD2    C3 6610   3.433   4.330  14.785  0.4185 -0.2938 -0.1007
  440MPD2    C4 6611   3.520   4.384  14.689 -0.0961 -0.1495 -0.3681
  440MPD2    C5 6612   3.551   4.517  14.686 -0.8333  0.4187  0.4826
  440MPD2     H 6613   3.299   4.388  14.943  0.7287 -0.7765  0.9501
  440MPD2    H1 6614   3.563   4.317  14.615  1.4265 -0.6297  0.9542
  440MPD2    H2 6615   3.518   4.706  14.780  1.8288 -1.0585 -1.3466
  440MPD2    H3 6616   3.632   4.546  14.620 -0.7875 -1.3051 -0.2263
  440MPD2     N 6617   3.430   4.194  14.793 -0.4805 -0.0965 -1.1236
  440MPD2    H5 6618   3.480   4.138  14.724  1.3444  0.5129 -0.3076
  440MPD2    N1 6619   3.338   4.654  14.949  0.0167  0.0261 -0.0856
  440MPD2    H7 6620   3.387   0.008  14.955  0.5808 -0.3654  1.2234
  441TMC3    C1 6621   3.434   3.981  14.905 -0.0536 -0.0557 -0.5983
  441TMC3    C2 6622   3.560   3.974  14.855 -0.0785 -0.5838 -0.7184
  441TMC3    C3 6623   3.665   3.917  14.929 -0.4437 -0.5378  0.0574
  441TMC3    C4 6624   3.403   3.914  15.023  0.4925 -0.9324  1.0725
  441TMC3    C5 6625   3.508   3.855  15.089 -1.7722  0.0750  0.2420
  441TMC3    C6 6626   3.639   3.855  15.044  0.1619  0.2603  0.2202
  441TMC3     C 6627   3.372   4.113  14.892  0.2531  0.3568 -0.3270
  441TMC3     O 6628   3.293   4.139  14.980  0.3773 -0.0549 -0.0409
  441TMC3     H 6629   3.607   4.030  14.776  0.1604  0.6729  0.3079
  441TMC3    H1 6630   3.309   3.914  15.078  0.1540 -0.0438  0.4961
  441TMC3    H2 6631   3.714   3.814  15.110  0.4078  0.1498 -0.1333
  441TMC3    C7 6632   3.483   3.834  15.228 -0.5273  0.3571 -0.1717
  441TMC3    C8 6633   3.788   3.996  14.922  1.0623 -0.6077  0.2848
  441TMC3    O1 6634   3.411   3.920  15.277 -0.6180 -1.1306  0.2009
  441TMC3    O2 6635   3.890   3.930  14.946 -0.2774  0.3982 -0.4127
  442MPD2     C 6636   2.070   0.693  16.412 -0.0701 -0.1369 -0.2066
  442MPD2    C1 6637   1.944   0.626  16.415 -0.8749 -0.2828 -0.2722
  442MPD2    C2 6638   1.939   0.493  16.401 -0.2674  0.1576  1.0065
  442MPD2    C3 6639   2.049   0.428  16.362 -0.3518 -0.0969 -0.3482
  442MPD2    C4 6640   2.171   0.487  16.352 -0.4221 -0.2886  0.4736
  442MPD2    C5 6641   2.179   0.621  16.373  0.3419 -0.4937  0.1958
  442MPD2     H 6642   1.839   0.452  16.408 -1.2107  1.7075 -3.1550
  442MPD2    H1 6643   2.249   0.423  16.315 -1.7336 -1.0874 -0.9024
  442MPD2    H2 6644   2.084   0.799  16.427  1.2347 -0.3255  0.0030
  442MPD2    H3 6645   2.272   0.677  16.367  0.2080 -0.1437  1.2819
  442MPD2     N 6646   2.042   0.282  16.346 -0.2881 -0.1771 -0.3709
  442MPD2    H5 6647   2.129   0.245  16.310 -0.6899 -0.6771 -0.8262
  442MPD2    N1 6648   1.818   0.685  16.448  0.1219 -0.3164 -0.2753
  442MPD2    H7 6649   1.738   0.623  16.437  0.2126 -0.7747  1.5886
  443TMC3    C1 6650   1.660   0.843  16.504 -0.7452  0.8116  0.7845
  443TMC3    C2 6651   1.615   0.972  16.491  0.0169 -0.1364 -0.4586
  443TMC3    C3 6652   1.479   0.987  16.489 -0.3305 -0.1673  0.3061
  443TMC3    C4 6653   1.579   0.739  16.542  0.3226 -0.2319  0.5053
  443TMC3    C5 6654   1.444   0.759  16.534 -0.3474  0.0704 -0.2725
  443TMC3    C6 6655   1.392   0.881  16.512  0.3892  0.3704  0.1787
  443TMC3     C 6656   1.799   0.818  16.467 -0.5356  0.4395  1.0111
  443TMC3     O 6657   1.882   0.907  16.445  0.2180  0.0532  0.1830
  443TMC3     H 6658   1.683   1.048  16.455 -0.9558  0.4077 -1.1589
  443TMC3    H1 6659   1.609   0.638  16.570 -1.8537 -1.2781 -0.8937
  443TMC3    H2 6660   1.285   0.898  16.500  0.7184  0.5045 -2.5409
  443TMC3    C7 6661   1.346   0.663  16.574 -0.2663  0.5072  0.0560
  443TMC3    C8 6662   1.453   1.072  16.381  0.1068 -0.0485  0.1277
  443TMC3    O1 6663   1.262   0.697  16.656 -0.6193 -0.1847 -0.1063
  443TMC3    O2 6664   1.511   1.177  16.385 -0.8295  0.4427  0.0523
  444MPD2     C 6665   2.078   4.354  17.293  0.4767 -0.2992 -0.6609
  444MPD2    C1 6666   1.971   4.324  17.205 -0.5672 -0.7319  0.0252
  444MPD2    C2 6667   1.991   4.233  17.103 -0.2005  0.4821 -0.0140
  444MPD2    C3 6668   2.106   4.171  17.081 -0.1688 -0.1570  0.4454
  444MPD2    C4 6669   2.212   4.204  17.163  1.1884 -0.2293 -0.3445
  444MPD2    C5 6670   2.201   4.295  17.267 -0.2778 -0.0034 -0.5870
  444MPD2     H 6671   1.913   4.195  17.037  0.3753  0.9001 -0.9311
  444MPD2    H1 6672   2.312   4.167  17.142  2.2117  0.9183  2.6275
  444MPD2    H2 6673   2.074   4.424  17.376  1.4781 -2.7151  1.4573
  444MPD2    H3 6674   2.285   4.315  17.333  1.1561 -2.2180 -1.7500
  444MPD2     N 6675   2.115   4.074  16.976  0.0018  0.4803 -0.0487
  444MPD2    H5 6676   2.030   4.071  16.921  0.8375  0.1936 -1.3364
  444MPD2    N1 6677   1.839   4.389  17.215  0.7192 -0.8635 -0.0639
  444MPD2    H7 6678   1.772   4.377  17.140  0.4151  1.9538 -0.2535
  445TMC3    C1 6679   2.201   3.938  16.813  0.0142  0.6869 -0.0854
  445TMC3    C2 6680   2.077   3.890  16.799  0.0545 -0.7946 -0.2333
  445TMC3    C3 6681   2.046   3.828  16.682  0.1815 -0.1244  0.6905
  445TMC3    C4 6682   2.293   3.929  16.710 -0.1235 -0.1117  0.0345
  445TMC3    C5 6683   2.260   3.872  16.587 -0.0738 -0.8084 -0.2644
  445TMC3    C6 6684   2.133   3.818  16.574 -1.1168 -0.2779 -0.3002
  445TMC3     C 6685   2.229   4.019  16.928  0.6467 -0.0160 -0.6833
  445TMC3     O 6686   2.345   4.048  16.947 -0.1920 -0.2667 -0.1971
  445TMC3     H 6687   2.017   3.875  16.888 -0.5076  1.8796 -0.1819
  445TMC3    H1 6688   2.392   3.974  16.714 -1.3724  2.8819 -2.8654
  445TMC3    H2 6689   2.101   3.774  16.481  0.2297 -0.1738 -0.7985
  445TMC3    C7 6690   2.336   3.917  16.464  0.1981 -0.2009  0.2462
  445TMC3    C8 6691   1.923   3.761  16.671  0.5241  0.0796 -0.7541
  445TMC3    O1 6692   2.447   3.959  16.484 -0.2640 -0.1844 -0.0630
  445TMC3    O2 6693   1.927   3.671  16.588 -0.1421  0.2951  0.1179
  446MPD2     C 6694   1.056   0.505  11.058  0.4681  1.0072 -0.3831
  446MPD2    C1 6695   1.090   0.505  10.924 -0.1809  0.1051  0.0654
  446MPD2    C2 6696   1.203   0.581  10.882  0.2204  0.3244  0.3193
  446MPD2    C3 6697   1.283   0.650  10.976  0.0692  0.3269  0.2957
  446MPD2    C4 6698   1.237   0.652  11.106  0.1842  0.0941 -0.1762
  446MPD2    C5 6699   1.128   0.587  11.144  0.4385 -0.9546  0.3885
  446MPD2     H 6700   1.232   0.583  10.777 -0.2395  0.7591  0.2007
  446MPD2    H1 6701   1.283   0.711  11.185  0.8544  0.2594 -0.6892
  446MPD2    H2 6702   0.961   0.465  11.092  0.6176  2.8053  2.1462
  446MPD2    H3 6703   1.094   0.592  11.247  0.2167 -0.6759  0.3025
  446MPD2     N 6704   1.396   0.718  10.939  0.8468 -0.4860 -0.8015
  446MPD2    H5 6705   1.409   0.739  10.840  1.0592  0.5125 -0.5617
  446MPD2    N1 6706   1.021   0.429  10.827  0.1751  0.0227 -0.2501
  446MPD2    H7 6707   1.028   0.457  10.729  1.0639 -1.1075 -0.5166
  447TMC3    C1 6708   1.603   0.821  10.977 -0.2928 -0.0638  0.4197
  447TMC3    C2 6709   1.620   0.847  10.843  0.1918 -0.2213 -0.2769
  447TMC3    C3 6710   1.730   0.919  10.799  0.3333  0.0531  0.1079
  447TMC3    C4 6711   1.706   0.849  11.065 -0.8335  0.3006 -0.4099
  447TMC3    C5 6712   1.814   0.916  11.022  0.3245 -0.3468  0.9484
  447TMC3    C6 6713   1.814   0.968  10.893 -0.4543  0.1892  0.4112
  447TMC3     C 6714   1.486   0.762  11.030  0.2700 -0.6196 -1.5014
  447TMC3     O 6715   1.496   0.738  11.150 -0.0292  0.0666  0.2626
  447TMC3     H 6716   1.547   0.813  10.771  0.5284  0.3385 -0.8788
  447TMC3    H1 6717   1.693   0.822  11.169 -0.0816 -0.5366 -0.5307
  447TMC3    H2 6718   1.876   1.053  10.867  1.5072 -1.3101  0.2377
  447TMC3    C7 6719   1.937   0.902  11.100 -1.0844 -0.0030 -0.2050
  447TMC3    C8 6720   1.743   0.963  10.664 -0.1339  0.3485  0.0352
  447TMC3    O1 6721   2.043   0.926  11.043  0.6742 -0.4021 -0.1165
  447TMC3    O2 6722   1.644   0.927  10.601 -0.1600  0.2865 -0.2944
  448TMC3    C1 6723   4.716   0.563  16.953  0.2032  0.6426  0.5797
  448TMC3    C2 6724   4.650   0.507  16.850  0.0163  0.5660 -0.1696
  448TMC3    C3 6725   4.617   0.379  16.865  0.2191  0.4043  0.1109
  448TMC3    C4 6726   0.012   0.496  17.071  0.0866 -0.2261  0.0010
  448TMC3    C5 6727   4.707   0.361  17.081 -0.4987 -0.2532 -0.0607
  448TMC3    C6 6728   4.645   0.306  16.976 -0.3036  0.4984 -0.0581
  448TMC3     C 6729   4.711   0.707  16.944  0.7145 -0.2862 -0.9321
  448TMC3     O 6730   4.647   0.755  16.849 -0.3587  0.3615 -0.5941
  448TMC3     H 6731   4.640   0.555  16.753 -2.7004  0.4056  0.0345
  448TMC3    H1 6732   0.055   0.544  17.158  0.7110 -0.4558 -0.1835
  448TMC3    H2 6733   4.621   0.201  16.985 -0.2732  0.6756  2.0533
  448TMC3    C7 6734   0.047   0.263  17.163  0.4521 -0.5111 -0.5201
  448TMC3    C8 6735   4.590   0.303  16.749 -0.9962 -0.8094 -0.2818
  448TMC3    O1 6736   0.001   0.148  17.168  0.4324  0.6878  0.3181
  448TMC3    O2 6737   4.647   0.192  16.763  0.4334  0.0723 -0.0007
  449MPD2     C 6738   1.420   4.454  12.718 -0.2840 -0.3045  0.3260
  449MPD2    C1 6739   1.325   4.428  12.812 -0.2783 -0.1012 -0.2294
  449MPD2    C2 6740   1.258   4.312  12.812 -0.0954 -0.2509  0.0766
  449MPD2    C3 6741   1.283   4.211  12.712 -0.1467  0.3718  0.9567
  449MPD2    C4 6742   1.380   4.230  12.624 -1.1389 -0.2985 -0.4576
  449MPD2    C5 6743   1.444   4.348  12.628  0.0693 -0.3834 -0.1403
  449MPD2     H 6744   1.194   4.289  12.896 -0.2328 -0.2931 -0.0385
  449MPD2    H1 6745   1.404   4.153  12.551  2.1776  2.0310 -1.8556
  449MPD2    H2 6746   1.474   4.548  12.710  0.2411 -0.5742  0.7289
  449MPD2    H3 6747   1.515   4.367  12.547  2.0322 -1.0561  1.4293
  449MPD2     N 6748   1.205   4.096  12.729  0.7561  0.3440 -0.2550
  449MPD2    H5 6749   1.142   4.098  12.808  1.0318  0.5526 -0.0417
  449MPD2    N1 6750   1.287   4.517  12.910  0.2365 -0.7695 -0.2441
  449MPD2    H7 6751   1.206   4.489  12.965  0.3665  3.2875  2.0306
  450TMC3    C1 6752   1.301   4.685  13.066 -0.1271 -0.4996 -0.1150
  450TMC3    C2 6753   1.404   4.689  13.157  0.2655 -0.4813  0.4398
  450TMC3    C3 6754   1.385   4.632  13.277 -0.3076 -0.7683 -0.8911
  450TMC3    C4 6755   1.183   4.623  13.110 -0.1266 -0.0802 -0.1733
  450TMC3    C5 6756   1.173   4.558  13.234  0.3655 -0.0283 -0.0522
  450TMC3    C6 6757   1.271   4.560  13.324 -0.2106  0.4076 -0.1075
  450TMC3     C 6758   1.353   4.633  12.938 -0.1978 -0.6146  0.1317
  450TMC3     O 6759   1.462   4.672  12.893  0.4090 -0.0797 -0.1778
  450TMC3     H 6760   1.495   0.001  13.123  0.4350 -1.1792 -0.0825
  450TMC3    H1 6761   1.106   4.632  13.034  1.9842 -3.0693 -2.6730
  450TMC3    H2 6762   1.270   4.515  13.423 -3.2351  1.7236  0.4508
  450TMC3    C7 6763   1.104   4.433  13.223  0.0654  0.2139 -0.5755
  450TMC3    C8 6764   1.502   4.607  13.363 -0.3592  0.1954  0.1957
  450TMC3    O1 6765   1.060   4.417  13.111 -0.2254 -0.1169  0.4803
  450TMC3    O2 6766   1.487   4.555  13.474  0.1411  0.2246  0.8212
  451MPD2     C 6767   3.175   3.330   0.899  0.2411 -0.2534 -0.6312
  451MPD2    C1 6768   3.071   3.278   0.831 -0.2669  0.3965  0.2451
  451MPD2    C2 6769   3.064   3.139   0.806 -0.2542 -0.2649  0.5525
  451MPD2    C3 6770   3.170   3.055   0.842 -0.3736  0.1594 -0.1161
  451MPD2    C4 6771   3.279   3.114   0.906 -0.0857  0.2682 -0.1006
  451MPD2    C5 6772   3.287   3.249   0.941 -0.3057 -0.7239  0.9296
  451MPD2     H 6773   2.973   3.099   0.763  0.1967 -0.2788 -0.3667
  451MPD2    H1 6774   3.356   3.042   0.934  0.0191  0.2014 -0.5658
  451MPD2    H2 6775   3.163   3.427   0.944 -0.7277 -0.7545  0.1852
  451MPD2    H3 6776   3.359   3.288   1.012  0.8425 -0.9093 -0.1475
  451MPD2     N 6777   3.162   2.911   0.816  0.5981 -0.1077 -0.1899
  451MPD2    H5 6778   3.249   2.857   0.820  0.7788  0.1694 -0.3968
  451MPD2    N1 6779   2.971   3.372   0.789 -0.0738  0.4382 -0.4487
  451MPD2    H7 6780   2.973   3.463   0.834  1.5659  0.0130  0.3166
  452TMC3    C1 6781   3.091   2.702   0.743 -0.0625  0.3815 -0.3739
  452TMC3    C2 6782   2.990   2.613   0.740 -0.1893 -0.2998  0.2087
  452TMC3    C3 6783   3.000   2.491   0.681  0.2547 -0.4805  0.1339
  452TMC3    C4 6784   3.215   2.669   0.686  0.4785  0.0441 -0.1303
  452TMC3    C5 6785   3.231   2.541   0.640 -0.5810 -0.1294 -0.2941
  452TMC3    C6 6786   3.123   2.448   0.639  0.0489  0.4863 -0.2934
  452TMC3     C 6787   3.054   2.841   0.772  0.1317 -0.0453  0.2317
  452TMC3     O 6788   2.938   2.874   0.763 -0.3030 -0.1001  0.2058
  452TMC3     H 6789   2.892   2.651   0.767 -1.0476 -1.0986 -1.7389
  452TMC3    H1 6790   3.298   2.740   0.682  0.0733  0.3576 -2.8705
  452TMC3    H2 6791   3.132   2.351   0.592 -1.3567  1.1196 -1.8630
  452TMC3    C7 6792   3.365   2.511   0.590 -0.7872  0.2183  0.1797
  452TMC3    C8 6793   2.875   2.415   0.641  0.5077  0.1136  0.1111
  452TMC3    O1 6794   3.438   2.607   0.563 -0.0334 -0.8332 -0.5604
  452TMC3    O2 6795   2.775   2.472   0.685 -0.2396 -0.3876 -1.1282
  453TMC3    C1 6796   3.925   4.672  11.452  0.1218 -0.4033 -0.1326
  453TMC3    C2 6797   3.817   4.608  11.509 -0.1115  0.0655 -0.0668
  453TMC3    C3 6798   3.732   4.531  11.441  0.6598 -0.2999 -0.5933
  453TMC3    C4 6799   3.939   4.660  11.313  0.1092  0.4185  0.2693
  453TMC3    C5 6800   3.841   4.590  11.246  0.3606 -0.5265 -0.2561
  453TMC3    C6 6801   3.739   4.529  11.311  0.6585 -0.4969  0.4282
  453TMC3     C 6802   4.027   0.005  11.528  0.1032 -0.1466  0.2891
  453TMC3     O 6803   4.121   0.053  11.471  0.4298  0.0460 -0.7374
  453TMC3     H 6804   3.808   4.609  11.617  1.6688 -1.4981  0.1047
  453TMC3    H1 6805   4.023   4.706  11.262  0.8133  0.7964  1.7802
  453TMC3    H2 6806   3.667   4.466  11.260  1.4816 -1.7095  0.7381
  453TMC3    C7 6807   3.849   4.567  11.100  0.4257  0.1249  0.1796
  453TMC3    C8 6808   3.642   4.443  11.508  0.0866 -0.2369 -0.3775
  453TMC3    O1 6809   3.785   4.475  11.044  0.0997 -0.0483  0.0981
  453TMC3    O2 6810   3.550   4.397  11.446 -0.1258 -0.8191  0.8255
  454MPD2     C 6811   2.481   4.690  15.949 -0.6393 -0.9501 -0.1490
  454MPD2    C1 6812   2.450   4.563  15.898  0.5394  0.0142  0.1822
  454MPD2    C2 6813   2.360   4.479  15.960 -0.1941 -0.2064  0.6798
  454MPD2    C3 6814   2.306   4.507  16.083  0.8140 -0.4932  0.0412
  454MPD2    C4 6815   2.341   4.633  16.133 -0.4879  0.7542 -0.8118
  454MPD2    C5 6816   2.432   4.717  16.070  0.5537 -0.1722  0.4280
  454MPD2     H 6817   2.328   4.393  15.902  0.9385 -0.8277  0.9828
  454MPD2    H1 6818   2.299   4.656  16.230 -1.8741 -2.1518 -0.7246
  454MPD2    H2 6819   2.560   0.015  15.904  0.9640 -1.5475  1.8570
  454MPD2    H3 6820   2.470   0.066  16.127 -0.5347  1.7177 -1.6236
  454MPD2     N 6821   2.216   4.422  16.146  0.5401  0.2743  0.5446
  454MPD2    H5 6822   2.200   4.437  16.245  0.8004 -0.5701  0.7106
  454MPD2    N1 6823   2.493   4.516  15.772 -0.0178 -0.2210  0.3079
  454MPD2    H7 6824   2.464   4.428  15.729  1.5900  2.1232 -5.5392
  455TMC3    C1 6825   2.058   4.243  16.166 -0.6586 -0.5153  0.1963
  455TMC3    C2 6826   2.078   4.227  16.299 -0.1138  0.5624  0.4179
  455TMC3    C3 6827   1.984   4.160  16.375 -0.4181  0.1623  0.4064
  455TMC3    C4 6828   1.953   4.189  16.097  0.0383 -0.6298  0.3719
  455TMC3    C5 6829   1.870   4.116  16.175  0.7118  0.0583  0.4341
  455TMC3    C6 6830   1.869   4.111  16.315  0.3838  0.0809  0.8468
  455TMC3     C 6831   2.154   4.317  16.086  1.0546  0.3098 -0.3057
  455TMC3     O 6832   2.159   4.272  15.974 -0.2034  0.1615 -0.1686
  455TMC3     H 6833   2.174   4.251  16.344  0.4866 -0.5489 -0.2613
  455TMC3    H1 6834   1.934   4.219  15.995  0.5512  1.1656  0.8047
  455TMC3    H2 6835   1.795   4.051  16.365 -1.4108  2.3880  0.9803
  455TMC3    C7 6836   1.819   3.998  16.114 -0.0350  0.1674 -0.1219
  455TMC3    C8 6837   1.988   4.191  16.520  0.7113  0.1562 -0.2052
  455TMC3    O1 6838   1.723   3.939  16.166 -0.4840 -0.9609 -0.0273
  455TMC3    O2 6839   2.103   4.208  16.562  0.2636  0.0981  0.5400
  456MPD2     C 6840   0.539   4.252  15.696 -0.0174 -0.7614 -0.0390
  456MPD2    C1 6841   0.625   4.278  15.800 -0.3994 -0.4169  0.9365
  456MPD2    C2 6842   0.573   4.337  15.912  0.8124  0.0837 -0.8042
  456MPD2    C3 6843   0.440   4.378  15.924 -0.0595  0.2169  0.4290
  456MPD2    C4 6844   0.359   4.370  15.811 -0.2055  0.6641  0.3411
  456MPD2    C5 6845   0.408   4.301  15.704  0.0194  0.9542  0.1055
  456MPD2     H 6846   0.642   4.341  15.996 -0.9439  0.8329  0.6175
  456MPD2    H1 6847   0.256   4.403  15.809 -0.5504 -0.5827 -3.2901
  456MPD2    H2 6848   0.563   4.192  15.609  1.4990  0.8613 -0.7491
  456MPD2    H3 6849   0.350   4.282  15.614 -0.0787  2.9196 -0.2450
  456MPD2     N 6850   0.400   4.438  16.045  0.5203  0.2758 -0.2474
  456MPD2    H5 6851   0.476   4.451  16.111  0.1359  0.0601  0.2378
  456MPD2    N1 6852   0.761   4.226  15.794  0.1265  0.3683 -0.2546
  456MPD2    H7 6853   0.782   4.184  15.704  1.4211 -0.8144  0.5970
  457TMC3    C1 6854   0.248   4.516  16.211 -0.5511 -0.5742  0.4638
  457TMC3    C2 6855   0.130   4.581  16.231 -0.4010  0.5913  0.0973
  457TMC3    C3 6856   0.078   4.580  16.355 -0.3514  0.2624  0.7225
  457TMC3    C4 6857   0.327   4.471  16.309 -1.0455 -0.6026 -0.6541
  457TMC3    C5 6858   0.278   4.481  16.435  0.6814  0.2337  0.1606
  457TMC3    C6 6859   0.153   4.537  16.459  0.5661  0.2363 -0.1974
  457TMC3     C 6860   0.267   4.472  16.069  0.3763 -0.0793  0.0132
  457TMC3     O 6861   0.172   4.485  15.995 -0.3487 -0.3841  0.0389
  457TMC3     H 6862   0.072   4.625  16.151  0.5039 -0.7826 -1.3076
  457TMC3    H1 6863   0.406   4.399  16.292 -1.1060 -1.1310  1.3059
  457TMC3    H2 6864   0.100   4.527  16.554  1.1888  1.9276  0.3154
  457TMC3    C7 6865   0.371   4.482  16.535 -0.4012  0.2806  0.7853
  457TMC3    C8 6866   0.015   4.705  16.393  0.9646  0.0856 -0.7789
  457TMC3    O1 6867   0.478   4.420  16.517 -0.8064 -0.1244  0.4871
  457TMC3    O2 6868   0.062   0.008  16.501  0.5404  0.1862  0.1220
  458MPD2     C 6869   2.730   3.594  12.267  0.0459 -0.4268 -0.1862
  458MPD2    C1 6870   2.805   3.695  12.219  0.2279 -0.0058 -0.4740
  458MPD2    C2 6871   2.759   3.756  12.101  0.2610  0.3785 -0.1564
  458MPD2    C3 6872   2.641   3.727  12.038  0.4718  0.7921  0.1600
  458MPD2    C4 6873   2.556   3.633  12.099  0.9500  0.7821 -0.5129
  458MPD2    C5 6874   2.610   3.561  12.201 -0.2436 -0.0738 -0.0297
  458MPD2     H 6875   2.813   3.841  12.063 -3.9973  2.8982 -0.4953
  458MPD2    H1 6876   2.465   3.604  12.048  1.3711  0.1190 -0.8938
  458MPD2    H2 6877   2.767   3.542  12.354 -1.4754  1.7834  1.8125
  458MPD2    H3 6878   2.562   3.468  12.232  1.5017 -1.1447 -0.5159
  458MPD2     N 6879   2.597   3.813  11.939 -0.5217  0.1478 -0.1710
  458MPD2    H5 6880   2.654   3.895  11.925 -0.1464 -0.0261  0.3311
  458MPD2    N1 6881   2.922   3.744  12.289  1.1164 -0.3091  0.0909
  458MPD2    H7 6882   2.954   3.687  12.366  1.1190 -0.7307 -0.2241
  459TMC3    C1 6883   3.069   3.909  12.377  0.4389  0.3143 -0.2681
  459TMC3    C2 6884   3.122   4.030  12.360 -0.2781 -0.1193  0.1899
  459TMC3    C3 6885   3.197   4.090  12.458  0.8727  0.1616  0.0844
  459TMC3    C4 6886   3.107   3.829  12.483 -0.3599  0.3111  0.2318
  459TMC3    C5 6887   3.176   3.888  12.582  0.1872 -0.1152  0.1444
  459TMC3    C6 6888   3.224   4.018  12.573  0.3371 -0.4272 -0.1984
  459TMC3     C 6889   2.985   3.861  12.266 -0.1148  0.8088  0.1165
  459TMC3     O 6890   2.973   3.939  12.170  0.0327 -0.6399  0.1820
  459TMC3     H 6891   3.091   4.089  12.275  0.3857  1.4847  1.0599
  459TMC3    H1 6892   3.058   3.734  12.503  1.1053 -0.0789  1.9332
  459TMC3    H2 6893   3.278   4.062  12.656 -0.2570 -0.5121  0.2378
  459TMC3    C7 6894   3.173   3.830  12.712  0.1012  0.8145  0.6567
  459TMC3    C8 6895   3.290   4.196  12.421 -0.2313  0.5160 -0.1130
  459TMC3    O1 6896   3.156   3.712  12.723  0.1135 -0.8778 -0.2758
  459TMC3    O2 6897   3.376   4.225  12.503 -0.4887 -0.3761  0.6594
  460MPD2     C 6898   2.021   1.139  10.498 -0.1350  0.2524  0.2266
  460MPD2    C1 6899   1.893   1.086  10.500  0.3305  0.3631  1.1205
  460MPD2    C2 6900   1.799   1.111  10.402 -0.6619 -0.0316  0.0404
  460MPD2    C3 6901   1.839   1.188  10.288  0.1010 -0.6595  0.3164
  460MPD2    C4 6902   1.964   1.230  10.284 -0.1646 -0.6517 -0.1596
  460MPD2    C5 6903   2.056   1.206  10.381 -0.0648  0.3715 -0.4264
  460MPD2     H 6904   1.702   1.063  10.408  0.1781 -1.8372 -0.7451
  460MPD2    H1 6905   2.007   1.270  10.193 -0.7272  1.2258  0.4010
  460MPD2    H2 6906   2.088   1.121  10.581 -1.1541  2.0158  1.4091
  460MPD2    H3 6907   2.155   1.249  10.380 -0.7390  1.9039 -1.4523
  460MPD2     N 6908   1.744   1.210  10.186 -0.0452 -0.6635  0.3258
  460MPD2    H5 6909   1.669   1.142  10.179 -0.7061  0.2506 -1.3913
  460MPD2    N1 6910   1.864   1.027  10.629  0.1612  0.3300  0.4885
  460MPD2    H7 6911   1.938   1.024  10.699  2.2693 -1.7920 -1.8686
  461TMC3    C1 6912   1.636   1.312  10.002  0.0756 -0.7539  0.4770
  461TMC3    C2 6913   1.585   1.192   9.955 -0.3512 -0.3113 -0.0869
  461TMC3    C3 6914   1.494   1.189   9.856 -0.1091  0.1203 -0.2723
  461TMC3    C4 6915   1.593   1.430   9.961  0.6614 -0.3167 -0.6086
  461TMC3    C5 6916   1.484   1.424   9.881 -0.1881 -0.0276  0.0412
  461TMC3    C6 6917   1.433   1.311   9.824 -0.3020  1.4223  0.5498
  461TMC3     C 6918   1.748   1.312  10.097 -0.4022  0.2336  0.5079
  461TMC3     O 6919   1.831   1.401  10.091 -0.0960  0.7653  0.6088
  461TMC3     H 6920   1.631   1.096   9.976  0.0234  0.6070  3.3694
  461TMC3    H1 6921   1.650   1.516   9.994 -0.8164  1.5578 -2.9501
  461TMC3    H2 6922   1.351   1.321   9.753  1.5628 -0.6398 -1.8617
  461TMC3    C7 6923   1.413   1.551   9.864 -0.3520 -0.5110  0.2311
  461TMC3    C8 6924   1.546   1.117   9.739 -0.3290 -0.4407 -0.3276
  461TMC3    O1 6925   1.345   1.561   9.762 -0.2454  0.1636  0.2574
  461TMC3    O2 6926   1.667   1.083   9.732 -0.1041 -0.1986  0.5541
  462TMC3    C1 6927   2.590   2.700   0.282 -0.5406  0.0625 -0.7251
  462TMC3    C2 6928   2.718   2.659   0.307  0.1177  0.4698  0.1674
  462TMC3    C3 6929   2.748   2.528   0.264  0.3955 -0.2391  1.0028
  462TMC3    C4 6930   2.501   2.624   0.214 -0.3125  0.3684 -0.0940
  462TMC3    C5 6931   2.538   2.503   0.171  0.6296 -0.0550  0.2872
  462TMC3    C6 6932   2.657   2.445   0.201 -0.3273 -0.9585 -0.3521
  462TMC3     C 6933   2.533   2.801   0.369 -0.3037 -0.5706  0.6559
  462TMC3     O 6934   2.412   2.819   0.354  0.1701 -0.4691  0.6392
  462TMC3     H 6935   2.796   2.720   0.350  0.3581 -0.3643  0.9012
  462TMC3    H1 6936   2.397   2.654   0.207 -0.5544 -0.8815 -1.7147
  462TMC3    H2 6937   2.688   2.358   0.143  1.0703 -0.2343 -0.6907
  462TMC3    C7 6938   2.434   2.403   0.125  0.3615 -0.1668 -0.3227
  462TMC3    C8 6939   2.881   2.479   0.286 -0.6281  0.1386  0.0014
  462TMC3    O1 6940   2.462   2.285   0.126  0.4546 -0.3988  0.0007
  462TMC3    O2 6941   2.966   2.547   0.339 -0.1890 -0.0988  0.3396
  463MPD2     C 6942   3.569   0.508   1.444  0.3421 -0.0653  0.2513
  463MPD2    C1 6943   3.465   0.584   1.408  0.0408  0.2652 -0.3228
  463MPD2    C2 6944   3.472   0.674   1.311  0.2150 -0.4757 -0.2357
  463MPD2    C3 6945   3.589   0.688   1.244  0.7128  0.5253 -0.3315
  463MPD2    C4 6946   3.700   0.612   1.277  0.2611 -0.1231 -0.3182
  463MPD2    C5 6947   3.693   0.529   1.384  0.0632 -0.2084  0.0836
  463MPD2     H 6948   3.393   0.742   1.283 -0.3279 -1.7934 -1.9410
  463MPD2    H1 6949   3.793   0.618   1.222  1.1858 -1.4394  1.0770
  463MPD2    H2 6950   3.565   0.422   1.510 -3.1539 -1.7020 -2.0927
  463MPD2    H3 6951   3.776   0.468   1.416  0.2534 -0.0219 -0.0527
  463MPD2     N 6952   3.608   0.770   1.130  0.1824 -0.1502  0.4789
  463MPD2    H5 6953   3.697   0.775   1.081  0.2955 -1.8007  0.5416
  463MPD2    N1 6954   3.341   0.558   1.464  0.0954 -0.4610 -0.0197
  463MPD2    H7 6955   3.261   0.606   1.423 -0.8877 -2.0293  0.0429
  464TMC3    C1 6956   3.162   0.466   1.585  0.9211 -0.3593 -0.2339
  464TMC3    C2 6957   3.087   0.575   1.545  0.1077  0.2427  0.2578
  464TMC3    C3 6958   2.975   0.602   1.619 -0.9607  1.1636  0.8315
  464TMC3    C4 6959   3.117   0.375   1.680  0.2551  0.3830 -0.4844
  464TMC3    C5 6960   2.998   0.401   1.744  0.8572 -0.3886  0.4690
  464TMC3    C6 6961   2.930   0.515   1.715 -0.3580  1.2629  0.5482
  464TMC3     C 6962   3.302   0.464   1.557  0.2971 -0.6252  0.0894
  464TMC3     O 6963   3.372   0.384   1.616  0.4920 -0.1502 -0.7749
  464TMC3     H 6964   3.109   0.619   1.448 -3.8933  2.0978  0.2079
  464TMC3    H1 6965   3.180   0.293   1.714 -0.6731  0.2593  0.9058
  464TMC3    H2 6966   2.835   0.538   1.763 -0.2519 -0.5075  1.6236
  464TMC3    C7 6967   2.939   0.289   1.824 -0.6627  0.3415  0.6496
  464TMC3    C8 6968   2.895   0.713   1.578  0.5345 -0.5113 -0.3560
  464TMC3    O1 6969   3.011   0.216   1.892  0.4294  0.0119 -0.1948
  464TMC3    O2 6970   2.916   0.756   1.463  0.0864 -0.2334 -0.0709
  465MPD2     C 6971   4.388   4.460  16.638 -0.4668 -0.5633 -0.2928
  465MPD2    C1 6972   4.276   4.372  16.638 -0.0037 -0.4196  0.3037
  465MPD2    C2 6973   4.175   4.402  16.550 -0.0015  0.3202  0.3684
  465MPD2    C3 6974   4.183   4.516  16.466 -0.1882 -0.1647 -0.6264
  465MPD2    C4 6975   4.295   4.592  16.471  0.1075  0.4053 -0.3931
  465MPD2    C5 6976   4.395   4.569  16.559  0.2706 -0.6290  0.6543
  465MPD2     H 6977   4.090   4.335  16.549 -0.4501  0.9204 -1.7325
  465MPD2    H1 6978   4.308   4.675  16.402 -0.8736 -0.6838 -1.8898
  465MPD2    H2 6979   4.478   4.452  16.699  0.2782  1.6139 -1.1084
  465MPD2    H3 6980   4.476   4.641  16.563 -0.6052  0.3984 -0.0786
  465MPD2     N 6981   4.060   4.565  16.406  0.4212 -0.0331  0.6303
  465MPD2    H5 6982   3.972   4.518  16.425  0.1225 -0.0486 -0.7842
  465MPD2    N1 6983   4.265   4.262  16.722  0.2459 -0.3496 -0.1830
  465MPD2    H7 6984   4.173   4.218  16.725 -0.6404  1.4195 -1.1611
  466TMC3    C1 6985   3.712   0.038  16.373 -0.0517  0.0447 -0.8738
  466TMC3    C2 6986   3.699   0.148  16.292 -0.2670 -0.3940 -0.0575
  466TMC3    C3 6987   3.801   0.169  16.199  0.5277 -0.3838  0.4342
  466TMC3    C4 6988   3.821   4.692  16.375  0.4570  0.0747 -0.8656
  466TMC3    C5 6989   3.921   4.722  16.286 -0.2183  0.4089  0.2586
  466TMC3    C6 6990   3.915   0.101  16.203 -0.1928  0.1858 -1.0448
  466TMC3     C 6991   3.623   0.039  16.485  0.1953  0.7414  0.1927
  466TMC3     O 6992   3.585   0.149  16.527  0.3878 -0.5449  0.4735
  466TMC3     H 6993   3.614   0.215  16.291 -0.7926 -1.0624 -0.3692
  466TMC3    H1 6994   3.809   4.608  16.442  0.2948 -0.0825 -1.0914
  466TMC3    H2 6995   4.006   0.122  16.148 -0.0705  2.1904 -0.0512
  466TMC3    C7 6996   4.054   4.667  16.311  0.6185 -0.2572 -0.2982
  466TMC3    C8 6997   3.834   0.306  16.158 -0.0760 -0.3230  0.7319
  466TMC3    O1 6998   4.149   4.734  16.261  0.1624 -0.1342 -0.2552
  466TMC3    O2 6999   3.908   0.307  16.055  0.4302  0.0053  0.5910
  467TMC3    C1 7000   0.523   2.859  13.253 -0.0503 -0.4283  0.0670
  467TMC3    C2 7001   0.538   2.973  13.186 -0.6243 -0.2078 -0.1409
  467TMC3    C3 7002   0.424   3.054  13.180 -0.5807  0.4364 -0.5244
  467TMC3    C4 7003   0.408   2.810  13.306 -0.1407  0.7771  0.3821
  467TMC3    C5 7004   0.303   2.899  13.306  0.2105 -0.3490  0.1447
  467TMC3    C6 7005   0.307   3.016  13.236 -0.1008  0.1099 -0.2177
  467TMC3     C 7006   0.650   2.788  13.277 -0.4364 -0.2948  0.2154
  467TMC3     O 7007   0.656   2.724  13.382  0.0769  0.5182  0.4971
  467TMC3     H 7008   0.636   3.000  13.149 -0.4800  0.9866  1.1246
  467TMC3    H1 7009   0.404   2.713  13.354 -0.8068 -0.1983 -1.6359
  467TMC3    H2 7010   0.221   3.082  13.242  0.0669  0.0111  3.3257
  467TMC3    C7 7011   0.174   2.847  13.363 -0.3070 -0.0056  0.3977
  467TMC3    C8 7012   0.435   3.169  13.094 -0.2285 -0.1730  0.2908
  467TMC3    O1 7013   0.170   2.743  13.420  0.0791 -0.1154  0.3950
  467TMC3    O2 7014   0.361   3.265  13.115 -0.1250 -0.0940  0.0479
  468MPD2     C 7015   3.663   0.875  10.100  0.6244 -0.2184  0.0190
  468MPD2    C1 7016   3.714   0.870  10.229 -0.8699 -0.0279 -0.2488
  468MPD2    C2 7017   3.749   0.755  10.283  0.7964  0.3601  0.0098
  468MPD2    C3 7018   3.734   0.640  10.215 -1.1317  0.0115  0.3596
  468MPD2    C4 7019   3.692   0.645  10.086 -0.9093  0.0235  0.1073
  468MPD2    C5 7020   3.651   0.762  10.023 -0.5978 -1.0489  0.6936
  468MPD2     H 7021   3.776   0.760  10.388 -2.9352 -1.8371  1.0925
  468MPD2    H1 7022   3.678   0.552  10.033 -2.4071  0.3131 -0.0330
  468MPD2    H2 7023   3.631   0.968  10.055  1.4662  0.1549  0.1901
  468MPD2    H3 7024   3.607   0.767   9.924  0.2595 -0.5598  0.3336
  468MPD2     N 7025   3.739   0.516  10.273  0.0374 -0.2625 -0.1289
  468MPD2    H5 7026   3.706   0.438  10.218  0.0118 -1.4832  1.5999
  468MPD2    N1 7027   3.743   0.991  10.301  0.2648  0.5341  0.0053
  468MPD2    H7 7028   3.791   0.978  10.389  1.6482 -3.7839 -1.3640
  469TMC3    C1 7029   3.771   1.221  10.335  0.2537 -0.2372  0.3516
  469TMC3    C2 7030   3.903   1.210  10.355 -0.2280 -0.6586  0.6634
  469TMC3    C3 7031   3.959   1.264  10.470  0.1057  0.2594 -0.0398
  469TMC3    C4 7032   3.697   1.272  10.436  0.0212  0.3708  0.6440
  469TMC3    C5 7033   3.755   1.324  10.551 -0.4479 -0.3129  0.6001
  469TMC3    C6 7034   3.893   1.318  10.573 -0.4431 -0.0156  0.6129
  469TMC3     C 7035   3.706   1.115  10.256 -0.5495 -0.5276 -0.5419
  469TMC3     O 7036   3.608   1.140  10.190 -0.1412  0.1649 -0.3761
  469TMC3     H 7037   3.960   1.150  10.285 -1.2751 -0.7950 -0.0724
  469TMC3    H1 7038   3.589   1.273  10.422 -0.0429 -0.4852  1.0500
  469TMC3    H2 7039   3.937   1.365  10.661 -0.3645  2.1562 -0.5984
  469TMC3    C7 7040   3.661   1.358  10.661  0.2997  0.4318  0.1859
  469TMC3    C8 7041   4.098   1.224  10.483  0.0667  0.3671 -0.4378
  469TMC3    O1 7042   3.550   1.376  10.621 -0.5452  0.4140  0.0342
  469TMC3    O2 7043   4.165   1.227  10.379 -0.0462  0.0072 -0.3280
  470TMC3    C1 7044   1.620   2.422   0.531 -0.6294  0.1713  0.4595
  470TMC3    C2 7045   1.640   2.516   0.630 -1.1642  0.2856 -0.2949
  470TMC3    C3 7046   1.678   2.456   0.746 -0.2492 -0.6218  0.0857
  470TMC3    C4 7047   1.620   2.289   0.552  0.2745 -0.0938  0.3957
  470TMC3    C5 7048   1.629   2.239   0.675  0.1811 -0.4550 -0.3397
  470TMC3    C6 7049   1.656   2.322   0.777  0.2334  0.7873 -0.2050
  470TMC3     C 7050   1.554   2.471   0.409  0.2872 -0.1001  0.1228
  470TMC3     O 7051   1.545   2.392   0.320  0.0192 -0.1945 -0.4507
  470TMC3     H 7052   1.666   2.619   0.607 -1.8579  0.2277 -1.3692
  470TMC3    H1 7053   1.609   2.215   0.473 -1.8130 -0.8848  1.4393
  470TMC3    H2 7054   1.650   2.288   0.879  2.1165  0.5098 -0.1926
  470TMC3    C7 7055   1.549   2.123   0.704 -0.3851 -0.3016  0.1549
  470TMC3    C8 7056   1.718   2.541   0.856  0.9186 -0.6251 -0.5736
  470TMC3    O1 7057   1.471   2.090   0.613 -0.1278 -0.0390 -0.5640
  470TMC3    O2 7058   1.674   2.653   0.840  0.2501 -0.3834  0.3643
  471MPD2     C 7059   2.479   3.529  16.025 -0.3867  0.3796 -0.5086
  471MPD2    C1 7060   2.499   3.396  16.051 -0.1646  0.2982 -0.1707
  471MPD2    C2 7061   2.552   3.361  16.174 -0.2630 -0.1493 -0.3098
  471MPD2    C3 7062   2.566   3.460  16.274 -0.5432 -0.3927 -0.7428
  471MPD2    C4 7063   2.523   3.590  16.246  0.3949  0.3779 -0.6392
  471MPD2    C5 7064   2.480   3.623  16.124  0.2354 -0.6209  0.4812
  471MPD2     H 7065   2.578   3.257  16.186  0.1020  0.0542  0.6587
  471MPD2    H1 7066   2.541   3.656  16.329  0.0614  2.1785 -2.0056
  471MPD2    H2 7067   2.436   3.558  15.930 -0.9782 -0.4674 -0.5008
  471MPD2    H3 7068   2.436   3.719  16.100 -1.8735 -1.0622  2.5938
  471MPD2     N 7069   2.605   3.426  16.408 -0.2145  0.2088 -0.1091
  471MPD2    H5 7070   2.577   3.483  16.487 -0.8027  0.6661 -0.6511
  471MPD2    N1 7071   2.471   3.289  15.962 -0.0171  1.0659 -0.3102
  471MPD2    H7 7072   2.502   3.197  15.990  1.9057  1.7810 -0.0800
  472TMC3    C1 7073   2.387   3.161  15.782  0.3708 -0.1589 -0.0982
  472TMC3    C2 7074   2.290   3.139  15.686  0.5828 -0.3968 -0.2729
  472TMC3    C3 7075   2.230   3.018  15.669 -0.0103  0.0734  0.2672
  472TMC3    C4 7076   2.420   3.052  15.868  0.4871 -0.6627  0.1280
  472TMC3    C5 7077   2.374   2.930  15.835 -0.0479  0.7336 -0.4074
  472TMC3    C6 7078   2.277   2.912  15.742 -0.1939 -0.1023  0.4692
  472TMC3     C 7079   2.418   3.295  15.833 -0.4398  0.5469  0.6847
  472TMC3     O 7080   2.384   3.395  15.768  0.4767  0.1310  0.0238
  472TMC3     H 7081   2.264   3.217  15.616 -0.7085 -0.5562  0.0299
  472TMC3    H1 7082   2.493   3.059  15.949  0.1769  3.1896  0.0595
  472TMC3    H2 7083   2.251   2.809  15.720 -3.1055  0.8028 -0.4035
  472TMC3    C7 7084   2.392   2.826  15.940 -0.1406 -0.3092 -0.5277
  472TMC3    C8 7085   2.122   3.010  15.574  1.4830  0.1682 -0.8016
  472TMC3    O1 7086   2.429   2.849  16.054 -0.0275 -0.5847 -0.0622
  472TMC3    O2 7087   2.121   3.080  15.475  0.4882  0.4992 -0.1556
  473MPD2     C 7088   1.765   0.848  13.067 -0.3767  0.2632  0.5083
  473MPD2    C1 7089   1.688   0.841  13.179 -0.2183 -0.8003  0.7717
  473MPD2    C2 7090   1.734   0.900  13.289 -0.1374 -0.0581 -0.1623
  473MPD2    C3 7091   1.856   0.961  13.290  0.5974 -0.2078 -0.1916
  473MPD2    C4 7092   1.933   0.979  13.175 -0.7970 -0.0328 -0.1289
  473MPD2    C5 7093   1.878   0.922  13.061  0.4933  0.1634  0.3654
  473MPD2     H 7094   1.671   0.905  13.377  1.0216  0.9540  0.6210
  473MPD2    H1 7095   2.014   1.051  13.168 -0.9629  0.2505  0.9348
  473MPD2    H2 7096   1.738   0.801  12.973 -1.3185  2.7660 -0.4584
  473MPD2    H3 7097   1.931   0.931  12.967 -0.3494  0.0622 -0.1163
  473MPD2     N 7098   1.904   1.034  13.399  0.3423 -0.7622 -0.0773
  473MPD2    H5 7099   1.988   1.090  13.387  1.4344 -2.5151 -0.5538
  473MPD2    N1 7100   1.560   0.774  13.181 -0.9077 -0.3101 -0.8777
  473MPD2    H7 7101   1.504   0.776  13.266  2.1567 -1.2338  1.1957
  474TMC3    C1 7102   1.895   1.130  13.622  0.1506  0.0394  0.0990
  474TMC3    C2 7103   1.954   1.241  13.567  0.6760  0.2675 -0.2263
  474TMC3    C3 7104   1.980   1.351  13.642 -0.1176  0.1228 -0.8133
  474TMC3    C4 7105   1.851   1.126  13.755 -0.1087 -0.3117  0.7377
  474TMC3    C5 7106   1.885   1.242  13.822 -0.9662 -0.3696 -0.8000
  474TMC3    C6 7107   1.949   1.355  13.778 -0.0301  0.3243 -0.5828
  474TMC3     C 7108   1.849   1.030  13.528 -0.2946 -0.4050  0.4115
  474TMC3     O 7109   1.760   0.959  13.579 -0.1065 -0.0318  0.3219
  474TMC3     H 7110   1.980   1.248  13.462  0.7715 -0.6294 -0.2690
  474TMC3    H1 7111   1.798   1.048  13.808  1.1858 -0.9362  1.1363
  474TMC3    H2 7112   1.967   1.453  13.821  0.5110 -0.1925  0.3681
  474TMC3    C7 7113   1.820   1.262  13.950  0.0902  0.5245  0.5624
  474TMC3    C8 7114   1.914   1.454  13.568 -0.5388 -0.0518  0.2600
  474TMC3    O1 7115   1.716   1.196  13.972  0.1502 -0.3347  0.2162
  474TMC3    O2 7116   1.828   1.418  13.493  0.3420 -0.2991 -0.3941
  475MPD2     C 7117   0.200   3.215  10.372  0.2262 -0.2012 -0.4327
  475MPD2    C1 7118   0.208   3.333  10.446 -0.4547 -0.1886  0.1997
  475MPD2    C2 7119   0.096   3.386  10.510  0.3771 -0.2774  0.3912
  475MPD2    C3 7120   4.705   3.331  10.483 -0.1778 -0.0309  0.0077
  475MPD2    C4 7121   4.694   3.211  10.414  0.1468 -0.5699  0.0922
  475MPD2    C5 7122   0.075   3.157  10.358  0.3912  0.0073 -0.5884
  475MPD2     H 7123   0.114   3.478  10.564 -0.5185 -1.2699  2.3584
  475MPD2    H1 7124   4.607   3.153  10.384 -0.1498 -0.1581  0.1516
  475MPD2    H2 7125   0.290   3.173  10.327 -0.1333 -1.6642  0.2234
  475MPD2    H3 7126   0.073   3.058  10.313  1.4387 -0.0013 -0.6073
  475MPD2     N 7127   4.590   3.403  10.530 -0.1357  0.2544 -0.9226
  475MPD2    H5 7128   4.611   3.487  10.583 -0.7271 -0.5789  0.6291
  475MPD2    N1 7129   0.331   3.402  10.462  0.3681 -0.3321 -0.0498
  475MPD2    H7 7130   0.333   3.478  10.529 -1.6631 -0.8946  0.6666
  476TMC3    C1 7131   0.525   3.505  10.386  0.2673  0.1650 -0.0257
  476TMC3    C2 7132   0.489   3.579  10.276 -0.5181  0.0629 -0.4223
  476TMC3    C3 7133   0.457   3.710  10.293  0.6828 -0.3288  0.2262
  476TMC3    C4 7134   0.529   3.561  10.506  0.2180  0.1145 -0.3767
  476TMC3    C5 7135   0.493   3.692  10.524 -0.5304 -0.0784 -0.0410
  476TMC3    C6 7136   0.452   3.765  10.420 -0.6077 -0.0435  0.3499
  476TMC3     C 7137   0.440   3.385  10.379 -0.0596 -0.3643 -0.3558
  476TMC3     O 7138   0.452   3.306  10.285  0.6438 -0.3204  0.0273
  476TMC3     H 7139   0.489   3.533  10.178  0.6935 -1.0958  0.1149
  476TMC3    H1 7140   0.551   3.501  10.593 -1.6866  0.5127  0.3719
  476TMC3    H2 7141   0.447   3.873  10.423  0.9373  0.0216  0.5847
  476TMC3    C7 7142   0.398   3.698  10.633  0.3106  0.0300  0.2803
  476TMC3    C8 7143   0.340   3.757  10.225  0.2142  0.3148 -0.3203
  476TMC3    O1 7144   0.369   3.590  10.680  0.2920 -0.2540 -0.0793
  476TMC3    O2 7145   0.308   3.872  10.227 -0.3307 -0.1652  0.1209
  477MPD2     C 7146   2.150   0.372  11.218 -0.1321  0.4928  0.4663
  477MPD2    C1 7147   2.096   0.330  11.334 -0.2851  0.1172  0.0911
  477MPD2    C2 7148   2.173   0.318  11.450 -0.5992  0.2914  0.6964
  477MPD2    C3 7149   2.307   0.356  11.459  0.5488  0.8451 -0.8872
  477MPD2    C4 7150   2.360   0.408  11.344  0.4356  1.1117 -0.3424
  477MPD2    C5 7151   2.284   0.408  11.229 -0.5304  0.0597  0.1250
  477MPD2     H 7152   2.126   0.304  11.547 -0.3985 -2.9346  0.3222
  477MPD2    H1 7153   2.466   0.431  11.336  0.2863  2.6429  2.2232
  477MPD2    H2 7154   2.099   0.365  11.123 -0.7470  0.5765  0.7916
  477MPD2    H3 7155   2.331   0.439  11.137  2.2062 -0.4740  1.3581
  477MPD2     N 7156   2.395   0.327  11.573 -0.0255 -0.7534 -0.1180
  477MPD2    H5 7157   2.350   0.291  11.656  2.0385  0.4061  1.5305
  477MPD2    N1 7158   1.961   0.304  11.329  0.4276 -0.4214 -0.0336
  477MPD2    H7 7159   1.916   0.321  11.240  0.8047 -0.8388 -0.3014
  478TMC3    C1 7160   1.734   0.268  11.396 -0.2321 -0.0643  0.2906
  478TMC3    C2 7161   1.675   0.359  11.479  1.0378 -0.3830  0.6884
  478TMC3    C3 7162   1.598   0.459  11.424 -0.6110  0.7028  0.2395
  478TMC3    C4 7163   1.717   0.268  11.261  0.0778 -0.0511  0.5669
  478TMC3    C5 7164   1.630   0.358  11.209  0.1878 -0.9098  0.0603
  478TMC3    C6 7165   1.577   0.456  11.287  0.3411  0.0974 -0.3548
  478TMC3     C 7166   1.876   0.246  11.424  0.0381 -0.5712  0.1753
  478TMC3     O 7167   1.903   0.207  11.535 -0.0912  0.0413 -0.3093
  478TMC3     H 7168   1.723   0.361  11.577  1.0800 -1.0462  0.6805
  478TMC3    H1 7169   1.763   0.189  11.202  0.9315 -0.0422  1.2271
  478TMC3    H2 7170   1.534   0.544  11.239  0.1918  0.9224  1.3161
  478TMC3    C7 7171   1.682   0.418  11.093  0.5822 -0.1053 -0.1157
  478TMC3    C8 7172   1.608   0.585  11.495 -0.5580  0.4855 -0.1107
  478TMC3    O1 7173   1.785   0.474  11.131 -0.3543 -0.4873 -0.0308
  478TMC3    O2 7174   1.643   0.581  11.610 -0.1508  0.1038  0.1070
  479MPD2     C 7175   1.760   2.650  14.755  0.2555 -0.3490 -0.1207
  479MPD2    C1 7176   1.668   2.591  14.839  0.1200 -0.0294  0.2134
  479MPD2    C2 7177   1.685   2.605  14.974 -0.5626 -0.6942 -0.1549
  479MPD2    C3 7178   1.793   2.683  15.024 -0.4030 -0.4408  0.0597
  479MPD2    C4 7179   1.875   2.750  14.940  0.6480  0.0944 -0.6187
  479MPD2    C5 7180   1.855   2.735  14.808  0.0618 -0.4356  0.2140
  479MPD2     H 7181   1.631   2.539  15.041 -0.7099 -1.5105 -1.0829
  479MPD2    H1 7182   1.959   2.806  14.977  0.2864 -0.5163  1.1183
  479MPD2    H2 7183   1.754   2.645  14.647 -0.7287 -1.0097 -0.0320
  479MPD2    H3 7184   1.921   2.797  14.748  0.3097 -1.7326 -0.8516
  479MPD2     N 7185   1.816   2.705  15.162  0.0816  1.0730  1.3118
  479MPD2    H5 7186   1.906   2.750  15.177  1.0336 -0.2479 -0.4693
  479MPD2    N1 7187   1.556   2.529  14.779  0.2061 -0.8191  0.2272
  479MPD2    H7 7188   1.564   2.533  14.678 -0.7405 -1.6684  0.1174
  480TMC3    C1 7189   1.390   2.592  15.357 -0.5545  0.2620 -0.4212
  480TMC3    C2 7190   1.322   2.684  15.283  0.3761  0.2582 -0.0671
  480TMC3    C3 7191   1.400   2.767  15.197 -0.0861 -0.2094 -0.0922
  480TMC3    C4 7192   1.526   2.580  15.346  0.4056 -0.3505 -0.2446
  480TMC3    C5 7193   1.591   2.661  15.257 -0.2730 -0.3949 -1.1317
  480TMC3    C6 7194   1.534   2.762  15.188 -0.1426 -0.1670 -0.5997
  480TMC3     C 7195   1.339   2.537  15.479  0.5259  0.5122 -0.0940
  480TMC3     O 7196   1.417   2.490  15.563  0.4346  0.1760  0.3885
  480TMC3     H 7197   1.218   2.712  15.300  0.4628  0.6716 -0.2086
  480TMC3    H1 7198   1.576   2.509  15.411  0.5555  1.2458  1.3832
  480TMC3    H2 7199   1.596   2.813  15.115 -0.7046  0.8598 -0.3639
  480TMC3    C7 7200   1.736   2.658  15.271 -0.4717 -1.3450  0.3701
  480TMC3    C8 7201   1.327   2.830  15.093 -0.4944  0.1712  0.2200
  480TMC3    O1 7202   1.786   2.622  15.377 -0.1128  0.4237 -0.0238
  480TMC3    O2 7203   1.201   2.841  15.109 -0.5701 -0.0616 -0.4279
  481MPD2     C 7204   3.308   2.617  13.873 -0.3528 -0.1005 -0.3822
  481MPD2    C1 7205   3.242   2.496  13.900  0.3291 -0.4624  0.5665
  481MPD2    C2 7206   3.230   2.447  14.028  0.6942 -0.1525 -0.0040
  481MPD2    C3 7207   3.290   2.514  14.135 -0.6235  0.1465 -0.1587
  481MPD2    C4 7208   3.364   2.625  14.109 -0.1001 -0.5805  0.1522
  481MPD2    C5 7209   3.380   2.669  13.978 -0.3008  0.2975 -0.1733
  481MPD2     H 7210   3.187   2.348  14.041 -0.7438  0.2173 -1.9485
  481MPD2    H1 7211   3.417   2.672  14.191 -0.7307 -0.9166  0.7524
  481MPD2    H2 7212   3.306   2.666  13.776 -2.1364 -0.1221 -0.3531
  481MPD2    H3 7213   3.441   2.759  13.971  0.1587  0.0020  0.0871
  481MPD2     N 7214   3.270   2.475  14.268  0.1997 -0.1691  0.5501
  481MPD2    H5 7215   3.310   2.534  14.340  2.2011 -0.6504 -0.1681
  481MPD2    N1 7216   3.176   2.427  13.791 -0.8703 -0.0839 -0.1225
  481MPD2    H7 7217   3.168   2.471  13.700  1.1897  0.0424 -0.2595
  482TMC3    C1 7218   3.000   2.294  13.686 -0.9873 -0.2259 -0.2221
  482TMC3    C2 7219   2.920   2.183  13.697 -0.3567 -0.5389  0.2601
  482TMC3    C3 7220   2.814   2.179  13.611  0.1368  0.0209  0.0402
  482TMC3    C4 7221   2.981   2.393  13.595  0.1184 -0.1817  0.6027
  482TMC3    C5 7222   2.875   2.377  13.510 -0.1206  0.4351 -0.4450
  482TMC3    C6 7223   2.784   2.272  13.518 -0.0379 -0.7309  0.2019
  482TMC3     C 7224   3.093   2.310  13.800 -0.5989  0.3908  0.0524
  482TMC3     O 7225   3.118   2.206  13.859  0.4279  0.1164 -0.1891
  482TMC3     H 7226   2.943   2.102  13.765 -1.0608 -0.7995  0.1902
  482TMC3    H1 7227   3.029   2.490  13.602 -0.2204 -0.1152  2.1665
  482TMC3    H2 7228   2.686   2.269  13.472  0.5966 -2.9494 -0.9664
  482TMC3    C7 7229   2.848   2.492  13.428  0.0544 -0.4845 -0.7163
  482TMC3    C8 7230   2.755   2.042  13.607  0.0536  0.2665  0.1666
  482TMC3    O1 7231   2.920   2.589  13.445  0.0604 -0.5323  0.5140
  482TMC3    O2 7232   2.833   1.949  13.613 -0.3288  0.1107 -0.4771
  483TMC3    C1 7233   1.384   1.177   0.914 -0.3725 -0.5422 -0.0584
  483TMC3    C2 7234   1.458   1.283   0.874 -0.2158 -0.8028  0.2286
  483TMC3    C3 7235   1.591   1.272   0.899  0.1829 -0.4105  0.3693
  483TMC3    C4 7236   1.436   1.062   0.966 -0.8487 -0.4230 -0.5104
  483TMC3    C5 7237   1.571   1.064   0.991  0.4842 -0.9574  0.3095
  483TMC3    C6 7238   1.653   1.165   0.956  0.4393  0.5019 -0.4629
  483TMC3     C 7239   1.237   1.187   0.878  0.4932 -0.6644  0.1985
  483TMC3     O 7240   1.206   1.301   0.846 -0.1363 -0.0393 -0.2648
  483TMC3     H 7241   1.420   1.376   0.833  1.8543 -0.6939 -1.4275
  483TMC3    H1 7242   1.363   0.984   0.989  0.3783 -1.8659 -1.4979
  483TMC3    H2 7243   1.761   1.163   0.960  0.4426  2.7383  0.6506
  483TMC3    C7 7244   1.627   0.946   1.057  0.1702  0.0627 -0.3991
  483TMC3    C8 7245   1.675   1.355   0.809 -0.0015  0.2246 -1.1372
  483TMC3    O1 7246   1.542   0.887   1.123  0.3424  0.1867 -0.2867
  483TMC3    O2 7247   1.613   1.423   0.725  0.2421 -0.3811  0.5873
  484MPD2     C 7248   3.297   4.350  12.093  0.0563  0.5178 -0.8628
  484MPD2    C1 7249   3.345   4.324  12.215 -1.2458  0.1311  0.1302
  484MPD2    C2 7250   3.474   4.355  12.243  0.2761  0.3853  0.2319
  484MPD2    C3 7251   3.557   4.404  12.149 -0.7478 -0.0774  0.2066
  484MPD2    C4 7252   3.503   4.433  12.027 -0.0313 -0.4636  0.3568
  484MPD2    C5 7253   3.375   4.413  11.999 -0.0166  0.4424  0.1584
  484MPD2     H 7254   3.512   4.337  12.343  1.1804  1.2620  0.0446
  484MPD2    H1 7255   3.554   4.492  11.952 -1.1752  1.5781  1.1779
  484MPD2    H2 7256   3.201   4.315  12.056  0.0229 -1.4420  1.0296
  484MPD2    H3 7257   3.337   4.440  11.901 -0.1779 -1.7462 -0.3798
  484MPD2     N 7258   3.696   4.422  12.163 -0.1265 -0.4080  0.3333
  484MPD2    H5 7259   3.742   4.468  12.085 -0.1257 -1.0580 -0.0454
  484MPD2    N1 7260   3.255   4.255  12.298 -0.2322  0.2702  0.9545
  484MPD2    H7 7261   3.159   4.246  12.265  0.3531 -0.3947 -0.5691
  485TMC3    C1 7262   3.913   4.388  12.244  0.4835 -0.2555 -0.2578
  485TMC3    C2 7263   3.985   4.399  12.357 -0.0259 -0.4496 -0.9415
  485TMC3    C3 7264   4.122   4.421  12.350  0.5810  0.2753 -0.3978
  485TMC3    C4 7265   3.973   4.418  12.117 -0.4874  0.0697 -0.2898
  485TMC3    C5 7266   4.103   4.441  12.122 -0.0125 -0.2700 -0.5011
  485TMC3    C6 7267   4.182   4.441  12.232  0.3821 -1.0456 -0.2520
  485TMC3     C 7268   3.770   4.364  12.260 -0.1988 -0.1195 -0.1681
  485TMC3     O 7269   3.738   4.309  12.364 -0.1602 -0.1146  0.3296
  485TMC3     H 7270   3.943   4.384  12.456  0.6909 -0.8255 -0.6883
  485TMC3    H1 7271   3.912   4.430  12.027  1.1190 -0.2533 -1.4250
  485TMC3    H2 7272   4.276   4.495  12.222 -0.1893  0.3019  1.5666
  485TMC3    C7 7273   4.179   4.373  12.014  0.0415 -0.2662  0.3269
  485TMC3    C8 7274   4.203   4.323  12.419 -0.5817  0.6725  1.0662
  485TMC3    O1 7275   4.145   4.381  11.898 -0.0251  0.4533  0.5520
  485TMC3    O2 7276   4.321   4.319  12.383 -0.0888  0.3302  0.0187
  486MPD2     C 7277   1.195   2.691  12.603  0.4651  0.0619  0.5519
  486MPD2    C1 7278   1.086   2.646  12.533 -0.1528  0.4536  0.1489
  486MPD2    C2 7279   0.993   2.740  12.483  0.0346  0.0827 -0.0813
  486MPD2    C3 7280   1.016   2.875  12.489 -0.4275  0.3893  0.1397
  486MPD2    C4 7281   1.128   2.918  12.546 -0.0569  0.3388 -0.3533
  486MPD2    C5 7282   1.219   2.828  12.610 -0.1109 -0.7832  0.2771
  486MPD2     H 7283   0.905   2.701  12.433 -1.0541  2.2645  0.1153
  486MPD2    H1 7284   1.173   3.014  12.569  0.1396 -0.0946  1.0587
  486MPD2    H2 7285   1.269   2.624  12.647 -0.3268  0.0749  1.9202
  486MPD2    H3 7286   1.309   2.876  12.646  0.6063 -1.7033 -0.2793
  486MPD2     N 7287   0.909   2.961  12.455 -0.7123  0.0245 -0.4829
  486MPD2    H5 7288   0.828   2.911  12.421 -1.2134 -0.3953  1.3246
  486MPD2    N1 7289   1.062   2.502  12.523  0.1155  0.1558 -0.1255
  486MPD2    H7 7290   1.145   2.450  12.552 -1.2018 -1.5123  0.6717
  487TMC3    C1 7291   0.954   2.287  12.476 -0.0454 -0.7170 -0.3318
  487TMC3    C2 7292   0.848   2.230  12.414  0.3334 -0.1356  0.6123
  487TMC3    C3 7293   0.799   2.115  12.472 -0.2390 -0.1134 -0.2516
  487TMC3    C4 7294   1.007   2.236  12.597 -0.0883  0.3558 -0.1867
  487TMC3    C5 7295   0.961   2.116  12.641  0.4271  0.0346 -0.8101
  487TMC3    C6 7296   0.868   2.047  12.564  0.1051 -0.1401  0.7900
  487TMC3     C 7297   0.966   2.436  12.450 -0.2423 -0.6425 -0.2869
  487TMC3     O 7298   0.882   2.484  12.374  0.1660  0.2148  0.2890
  487TMC3     H 7299   0.788   2.288  12.345 -1.5579  0.4902  2.7865
  487TMC3    H1 7300   1.069   2.298  12.661  1.5804 -0.1382 -1.3023
  487TMC3    H2 7301   0.818   1.959  12.602  0.1674 -1.1382 -1.4393
  487TMC3    C7 7302   0.943   2.109  12.783  0.7504  0.4903  0.4369
  487TMC3    C8 7303   0.652   2.117  12.493  0.9303 -0.2459  0.4390
  487TMC3    O1 7304   1.033   2.148  12.858  0.2639  0.1193 -0.3281
  487TMC3    O2 7305   0.614   2.229  12.523 -0.1026  0.0242  0.4165
  488MPD2     C 7306   1.174   0.131  15.526  0.2086 -0.3122 -0.2619
  488MPD2    C1 7307   1.219   0.219  15.626  0.0838 -0.5085 -0.3319
  488MPD2    C2 7308   1.251   0.159  15.747 -0.4534 -0.1644 -0.3201
  488MPD2    C3 7309   1.233   0.021  15.769 -0.5296 -0.1437  0.4338
  488MPD2    C4 7310   1.191   4.671  15.663 -0.1094 -0.8657  0.7751
  488MPD2    C5 7311   1.156   4.730  15.547 -0.1574  0.3841  0.0057
  488MPD2     H 7312   1.293   0.211  15.832 -1.1772 -0.7808  0.4183
  488MPD2    H1 7313   1.183   4.563  15.662 -1.5265 -0.7514 -1.0227
  488MPD2    H2 7314   1.148   0.168  15.427 -1.0626 -1.7576 -0.4888
  488MPD2    H3 7315   1.123   4.672  15.461 -2.3637  1.5724  0.0687
  488MPD2     N 7316   1.271   4.697  15.894  0.1993  0.2003  0.6607
  488MPD2    H5 7317   1.308   0.019  15.969 -1.5688  0.0276  1.6757
  488MPD2    N1 7318   1.236   0.360  15.610 -0.4599 -0.6618  0.1649
  488MPD2    H7 7319   1.262   0.414  15.692  0.3471 -0.1976 -0.4023
  489TMC3    C1 7320   1.290   4.557  16.076  0.2056  0.5597 -0.5628
  489TMC3    C2 7321   1.341   4.665  16.151 -0.3466 -0.2514 -0.2576
  489TMC3    C3 7322   1.326   4.657  16.290 -0.0049 -0.3427 -0.2136
  489TMC3    C4 7323   1.250   4.440  16.136 -0.7260  0.0039 -0.3030
  489TMC3    C5 7324   1.238   4.436  16.270 -0.1397  0.2692 -0.3763
  489TMC3    C6 7325   1.272   4.546  16.350 -0.4295 -0.0411 -0.4696
  489TMC3     C 7326   1.260   4.570  15.937  0.5277  0.2500  0.1333
  489TMC3     O 7327   1.217   4.471  15.875  0.1474 -0.3065  0.1103
  489TMC3     H 7328   1.374   0.026  16.110  0.2920  0.8291  2.7895
  489TMC3    H1 7329   1.221   4.356  16.073 -0.2812  0.0168 -0.5210
  489TMC3    H2 7330   1.230   4.549  16.450  1.4160 -2.0770  0.3460
  489TMC3    C7 7331   1.164   4.329  16.337 -0.0161  0.3935 -0.3432
  489TMC3    C8 7332   1.377   0.032  16.364  0.2892 -0.4143  0.2793
  489TMC3    O1 7333   1.075   4.277  16.267 -0.4167  0.0536  1.3128
  489TMC3    O2 7334   1.483   0.086  16.332 -0.2517  0.1869 -0.2881
  490MPD2     C 7335   2.092   3.902  17.353  0.4053 -0.5158 -0.0556
  490MPD2    C1 7336   2.025   3.784  17.389  0.2964 -0.2542  0.3209
  490MPD2    C2 7337   2.045   3.741  17.515 -0.3324  0.6515 -0.8334
  490MPD2    C3 7338   2.119   3.808  17.608 -0.0327  0.3351 -0.6046
  490MPD2    C4 7339   2.179   3.924  17.572  0.7685 -0.4637 -0.1784
  490MPD2    C5 7340   2.178   3.968  17.445  0.5774 -0.1915 -0.2648
  490MPD2     H 7341   1.987   3.653  17.543 -0.6993  1.5404  1.2032
  490MPD2    H1 7342   2.234   3.989  17.639 -2.1977 -0.3694  2.1726
  490MPD2    H2 7343   2.080   3.941  17.253 -0.2726 -0.5328  0.0144
  490MPD2    H3 7344   2.238   4.052  17.411  0.6462 -0.2110 -0.1910
  490MPD2     N 7345   2.123   3.760   0.005 -0.0192 -0.3149  0.1600
  490MPD2    H5 7346   2.162   3.826   0.072  0.2849  0.5387 -0.8528
  490MPD2    N1 7347   1.926   3.723  17.305  0.4615 -0.0117  0.2223
  490MPD2    H7 7348   1.873   3.651  17.352 -1.7353  2.3296  1.3102
  491TMC3    C1 7349   1.813   3.634  17.124  0.6446 -0.2683 -0.2100
  491TMC3    C2 7350   1.712   3.599  17.213  0.3174  0.4109  0.2423
  491TMC3    C3 7351   1.655   3.477  17.195  0.1254 -0.4342  0.3191
  491TMC3    C4 7352   1.855   3.545  17.030 -0.4149  0.3543  0.9848
  491TMC3    C5 7353   1.792   3.421  17.025 -0.2171  0.4717  0.2675
  491TMC3    C6 7354   1.680   3.392  17.094  0.2422 -0.4191  0.0487
  491TMC3     C 7355   1.914   3.732  17.169 -0.7025  0.3817 -0.4240
  491TMC3     O 7356   1.995   3.778  17.091  0.1259  0.0152  0.1138
  491TMC3     H 7357   1.692   3.665  17.296 -0.9762  0.0798  0.1946
  491TMC3    H1 7358   1.937   3.574  16.964 -1.2584  1.4272  0.4161
  491TMC3    H2 7359   1.616   3.310  17.065  0.2657 -0.2002 -0.6327
  491TMC3    C7 7360   1.804   3.348  16.899  1.0391  0.2851  0.3130
  491TMC3    C8 7361   1.557   3.444  17.281 -0.2288 -0.1161  0.1529
  491TMC3    O1 7362   1.728   3.253  16.878  0.1175  0.5075  0.3779
  491TMC3    O2 7363   1.512   3.541  17.340 -0.8508  0.0419  0.2676
  492MPD2     C 7364   1.720   4.287  11.265  0.0950 -0.1369  0.6202
  492MPD2    C1 7365   1.728   4.185  11.181  0.1915 -0.1084  0.7507
  492MPD2    C2 7366   1.723   4.054  11.226 -0.1997  0.0336 -0.1538
  492MPD2    C3 7367   1.702   4.026  11.358 -0.5845 -0.6245  0.3668
  492MPD2    C4 7368   1.716   4.133  11.448  0.4120  0.0062 -0.0853
  492MPD2    C5 7369   1.716   4.262  11.401 -0.1885 -0.0451  0.4896
  492MPD2     H 7370   1.724   3.975  11.152  1.9414 -1.2616  1.2597
  492MPD2    H1 7371   1.714   4.130  11.556  1.8399  1.5124 -0.0172
  492MPD2    H2 7372   1.711   4.388  11.226 -2.3217  0.3263  2.4221
  492MPD2    H3 7373   1.707   4.354  11.456  1.2737 -1.3492  2.9321
  492MPD2     N 7374   1.671   3.902  11.421  0.6491  0.0369 -0.3881
  492MPD2    H5 7375   1.666   3.889  11.522 -1.9662  0.8826 -0.4048
  492MPD2    N1 7376   1.727   4.226  11.048 -0.0521 -0.3470 -0.1399
  492MPD2    H7 7377   1.712   4.325  11.030  0.6158 -0.0496  0.9784
  493TMC3    C1 7378   1.737   4.192  10.814  0.3560  0.5690 -0.1797
  493TMC3    C2 7379   1.843   4.281  10.808  0.1321 -0.2527  0.4224
  493TMC3    C3 7380   1.927   4.266  10.695 -0.5663 -0.0450 -0.1404
  493TMC3    C4 7381   1.710   4.108  10.709  1.3834 -0.6938 -0.2021
  493TMC3    C5 7382   1.792   4.102  10.607  0.3239  0.2641 -0.2046
  493TMC3    C6 7383   1.911   4.176  10.592  0.0447 -0.2661  0.1480
  493TMC3     C 7384   1.705   4.140  10.945 -0.0874 -0.2880 -0.1918
  493TMC3     O 7385   1.650   4.033  10.945  0.1229  0.4713 -0.1801
  493TMC3     H 7386   1.852   4.366  10.875  0.5531  1.2874 -1.5831
  493TMC3    H1 7387   1.620   4.048  10.711  0.1994  1.0692 -0.9122
  493TMC3    H2 7388   1.976   4.157  10.508 -0.5267  0.5015 -0.4691
  493TMC3    C7 7389   1.740   4.023  10.502 -0.5753  0.1905 -0.8146
  493TMC3    C8 7390   2.047   4.343  10.714  0.4299 -0.4508 -0.6416
  493TMC3    O1 7391   1.668   3.933  10.538  0.2266 -0.2494 -0.1539
  493TMC3    O2 7392   2.097   4.339  10.828  0.9196 -0.3417  0.2279
  494TMC3    C1 7393   2.461   0.858   0.313  0.3847 -0.3764  0.4944
  494TMC3    C2 7394   2.454   0.721   0.312 -0.5386 -0.6018  0.4588
  494TMC3    C3 7395   2.485   0.661   0.194  0.5726  0.1251  0.2090
  494TMC3    C4 7396   2.467   0.927   0.198 -0.0705 -0.1935 -0.4741
  494TMC3    C5 7397   2.484   0.869   0.073 -0.7261  0.1676  0.0384
  494TMC3    C6 7398   2.499   0.732   0.071 -0.0207  0.2581 -0.0269
  494TMC3     C 7399   2.476   0.916   0.447  0.2417  0.2652 -0.5811
  494TMC3     O 7400   2.409   1.014   0.477  0.2336 -0.8586  0.0100
  494TMC3     H 7401   2.446   0.667   0.406 -1.0782 -1.3283  0.0020
  494TMC3    H1 7402   2.464   1.035   0.204 -1.8829 -0.2486 -0.6282
  494TMC3    H2 7403   2.498   0.678  17.715 -0.8036  3.2412 -1.7585
  494TMC3    C7 7404   2.491   0.943  17.684  0.0020 -0.3164  0.9404
  494TMC3    C8 7405   2.517   0.529   0.189  0.2427  0.0597 -0.1826
  494TMC3    O1 7406   2.529   0.881  17.585  0.5132  0.2167 -0.0547
  494TMC3    O2 7407   2.483   0.455   0.280  0.1277  0.5135 -0.4246
  495TMC3    C1 7408   1.738   2.583  14.275 -0.0643 -0.0104  0.0768
  495TMC3    C2 7409   1.658   2.587  14.158 -0.9965 -0.4353 -0.4888
  495TMC3    C3 7410   1.580   2.696  14.143 -0.4530 -0.5999 -0.2490
  495TMC3    C4 7411   1.743   2.679  14.373 -0.3543 -0.2394 -0.1314
  495TMC3    C5 7412   1.656   2.784  14.361 -0.1402  0.3561 -0.0836
  495TMC3    C6 7413   1.580   2.792  14.246  0.5311 -0.3836  0.3040
  495TMC3     C 7414   1.839   2.482  14.292 -0.4320 -0.5569 -0.2187
  495TMC3     O 7415   1.934   2.516  14.364 -0.5169  0.0983  0.0855
  495TMC3     H 7416   1.657   2.495  14.099 -1.3796 -1.0905  0.5322
  495TMC3    H1 7417   1.808   2.674  14.460 -0.0667 -2.0828 -0.4542
  495TMC3    H2 7418   1.521   2.881  14.227  0.7304 -0.3838 -0.3297
  495TMC3    C7 7419   1.617   2.850  14.484  0.1382  0.3677 -0.0923
  495TMC3    C8 7420   1.489   2.725  14.032  0.1306  0.1152  0.1141
  495TMC3    O1 7421   1.703   2.860  14.571  0.1917 -0.0174 -0.4055
  495TMC3    O2 7422   1.401   2.808  14.050  0.2540 -0.1926 -0.5433
  496MPD2     C 7423   3.579   3.106  14.688  0.2533  0.5565 -0.3877
  496MPD2    C1 7424   3.641   3.044  14.791  0.5439  0.6530  0.7555
  496MPD2    C2 7425   3.592   3.050  14.921 -0.8193 -0.1465  0.0401
  496MPD2    C3 7426   3.461   3.084  14.942 -0.7312 -0.0086 -0.2919
  496MPD2    C4 7427   3.394   3.145  14.836  0.3841  0.7458  1.0340
  496MPD2    C5 7428   3.453   3.152  14.715  0.6510 -0.2277  0.4853
  496MPD2     H 7429   3.643   3.005  15.005  0.1658 -0.3917 -0.6923
  496MPD2    H1 7430   3.291   3.180  14.844  0.8499  2.0905  1.1833
  496MPD2    H2 7431   3.628   3.107  14.591 -0.5887  0.8227 -0.8181
  496MPD2    H3 7432   3.390   3.193  14.637  0.1981 -2.1105 -0.1523
  496MPD2     N 7433   3.394   3.060  15.063  0.0970 -0.1152  0.2289
  496MPD2    H5 7434   3.299   3.096  15.068 -0.8984 -2.6971 -0.3236
  496MPD2    N1 7435   3.769   2.986  14.761 -0.1940 -0.8750  0.0704
  496MPD2    H7 7436   3.820   3.012  14.677  0.0070  0.3770  0.5880
  497TMC3    C1 7437   3.366   2.985  15.296  0.2365 -0.6261  0.2345
  497TMC3    C2 7438   3.256   2.912  15.277 -0.2978 -0.8107  0.7353
  497TMC3    C3 7439   3.178   2.882  15.384  0.2059  0.1972  0.4442
  497TMC3    C4 7440   3.395   3.028  15.421  0.9464  0.1099  0.0818
  497TMC3    C5 7441   3.324   2.991  15.527  0.3383 -0.2808  0.7048
  497TMC3    C6 7442   3.209   2.917  15.514 -0.8620  0.0096 -0.4962
  497TMC3     C 7443   3.457   3.025  15.183 -0.3972 -0.6764  0.0903
  497TMC3     O 7444   3.575   3.023  15.214 -0.4726 -0.8809  0.2083
  497TMC3     H 7445   3.238   2.882  15.174  0.4960  0.0003  0.3601
  497TMC3    H1 7446   3.474   3.102  15.430  1.6521 -0.3623 -2.2608
  497TMC3    H2 7447   3.147   2.892  15.599  0.4078 -0.4743  0.2819
  497TMC3    C7 7448   3.335   3.065  15.650  0.4407 -0.1727  0.0502
  497TMC3    C8 7449   3.062   2.805  15.347 -0.0034  0.3218  0.2036
  497TMC3    O1 7450   3.251   3.055  15.737 -0.0576  0.5045  0.2602
  497TMC3    O2 7451   3.061   2.741  15.243 -0.9855 -0.5957 -0.2626
  498MPD2     C 7452   4.571   3.027   9.736  0.3679 -0.3125 -0.4162
  498MPD2    C1 7453   4.493   3.138   9.748 -0.3226 -0.4592 -0.3635
  498MPD2    C2 7454   4.358   3.116   9.749 -1.1835  0.6044  0.1163
  498MPD2    C3 7455   4.300   2.990   9.746  0.1923  0.0011 -0.8322
  498MPD2    C4 7456   4.381   2.880   9.720  0.3908  0.7540 -0.5692
  498MPD2    C5 7457   4.516   2.903   9.710 -0.5932  0.2925 -0.4495
  498MPD2     H 7458   4.296   3.204   9.760 -0.6243  0.7183  2.3271
  498MPD2    H1 7459   4.344   2.780   9.702  0.6125  0.0943  2.6096
  498MPD2    H2 7460   4.679   3.038   9.743  0.0674  1.3867  1.3928
  498MPD2    H3 7461   4.577   2.820   9.674 -0.3380  0.3417 -0.1260
  498MPD2     N 7462   4.165   2.977   9.775  0.0774 -0.6765  0.5317
  498MPD2    H5 7463   4.111   3.062   9.790 -0.9143 -0.8727 -2.0332
  498MPD2    N1 7464   4.536   3.275   9.755  0.4833  0.1817  0.2097
  498MPD2    H7 7465   4.472   3.354   9.756  0.7548  0.4402 -2.4748
  499TMC3    C1 7466   4.683   3.454   9.758 -0.0791  0.7635 -0.1438
  499TMC3    C2 7467   0.069   3.508   9.806 -0.0843  0.7436 -0.0819
  499TMC3    C3 7468   0.099   3.639   9.772  0.5089 -0.0377  0.1235
  499TMC3    C4 7469   4.586   3.531   9.690  0.1156  0.2675  0.1900
  499TMC3    C5 7470   4.619   3.660   9.669  0.2820 -1.5293  0.5911
  499TMC3    C6 7471   0.004   3.718   9.712  0.1579 -0.4577  0.1251
  499TMC3     C 7472   4.672   3.311   9.755  1.0709 -0.2455 -0.2490
  499TMC3     O 7473   0.045   3.254   9.778 -0.0447  0.1904 -0.0724
  499TMC3     H 7474   0.135   3.451   9.871 -0.5722 -0.3494 -0.5381
  499TMC3    H1 7475   4.503   3.485   9.637 -0.5556 -0.1560  1.6032
  499TMC3    H2 7476   0.028   3.822   9.698  1.4467 -0.5462  1.6273
  499TMC3    C7 7477   4.518   3.746   9.609  0.0285 -0.8215  0.4789
  499TMC3    C8 7478   0.236   3.700   9.805 -0.4304 -0.0743  0.1139
  499TMC3    O1 7479   4.551   3.860   9.574  0.0044 -0.1055  0.1521
  499TMC3    O2 7480   0.250   3.819   9.779  0.3832  0.5879  0.2538
  500MPD2     C 7481   0.753   4.579  10.198 -1.3062 -0.5553 -0.3268
  500MPD2    C1 7482   0.767   4.614  10.062 -0.2818  1.2028  0.9322
  500MPD2    C2 7483   0.687   4.555   9.965 -0.2511 -0.0962  0.2627
  500MPD2    C3 7484   0.590   4.463  10.009 -0.6972  0.1211  0.5340
  500MPD2    C4 7485   0.580   4.434  10.147  0.0030  0.0692 -0.2038
  500MPD2    C5 7486   0.659   4.493  10.240  0.3813  0.9485  0.8117
  500MPD2     H 7487   0.695   4.586   9.861  0.0458 -2.1628 -0.3179
  500MPD2    H1 7488   0.497   4.374  10.184  0.9242 -1.3026 -0.3851
  500MPD2    H2 7489   0.817   4.636  10.265 -0.9156 -3.4192  1.7223
  500MPD2    H3 7490   0.636   4.486  10.345 -0.1815 -0.1243  0.6175
  500MPD2     N 7491   0.503   4.380   9.934 -0.8091 -0.4628 -0.4173
  500MPD2    H5 7492   0.436   4.322   9.984  1.6973 -1.6496  1.5844
  500MPD2    N1 7493   0.863   4.700  10.012 -0.3456  0.1536  0.7049
  500MPD2    H7 7494   0.862   4.712   9.911  1.4064  2.0514  0.9251
  501TMC3    C1 7495   1.050   0.104   9.997  0.7694  0.8532  0.0115
  501TMC3    C2 7496   1.003   0.167   9.889  0.8143  0.2404 -0.4750
  501TMC3    C3 7497   1.092   0.234   9.808  0.0020 -0.0786 -0.2261
  501TMC3    C4 7498   1.183   0.107  10.027 -0.1322 -0.3703  0.0425
  501TMC3    C5 7499   1.267   0.174   9.949 -0.1138  0.6713 -0.8367
  501TMC3    C6 7500   1.227   0.237   9.831 -0.0756 -0.3164  0.1973
  501TMC3     C 7501   0.971   0.012  10.071  0.3987 -0.1855 -0.5427
  501TMC3     O 7502   0.999   0.012  10.187  0.1659  0.3693  0.0002
  501TMC3     H 7503   0.897   0.180   9.875  0.5397  0.2351  1.5487
  501TMC3    H1 7504   1.225   0.046  10.106  2.6358 -0.3363 -1.4108
  501TMC3    H2 7505   1.298   0.294   9.771 -1.6871  1.5257  0.0545
  501TMC3    C7 7506   1.389   0.190  10.014  0.1485  0.0729 -0.2340
  501TMC3    C8 7507   1.026   0.311   9.698 -1.1400 -0.0761 -0.1739
  501TMC3    O1 7508   1.451   0.095  10.066 -0.1885  1.0482  0.4701
  501TMC3    O2 7509   0.927   0.253   9.652  0.1850 -0.0950 -0.3490
  502TMC3    C1 7510   1.337   4.049  14.665  0.3369  0.4149 -0.4447
  502TMC3    C2 7511   1.336   4.186  14.652  0.0174  0.6020  0.4910
  502TMC3    C3 7512   1.205   4.236  14.642  0.3701 -0.3763  0.8441
  502TMC3    C4 7513   1.228   3.962  14.645  0.6776  0.2295  0.1580
  502TMC3    C5 7514   1.105   4.025  14.641  0.0513  0.6223  0.4927
  502TMC3    C6 7515   1.086   4.164  14.642  0.7369  0.4914  0.4745
  502TMC3     C 7516   1.463   3.990  14.706 -0.2924  0.1542  0.3983
  502TMC3     O 7517   1.566   4.048  14.667 -0.0633  0.0817 -0.2967
  502TMC3     H 7518   1.428   4.244  14.649  1.6664 -1.9925  0.5047
  502TMC3    H1 7519   1.234   3.854  14.652 -1.3555  0.3244  3.3861
  502TMC3    H2 7520   0.988   4.209  14.652  0.2856 -0.2018 -0.8215
  502TMC3    C7 7521   0.995   3.932  14.616 -0.4756 -0.3142  1.0875
  502TMC3    C8 7522   1.189   4.381  14.633 -0.0557 -0.3582  0.3536
  502TMC3    O1 7523   1.024   3.832  14.547 -0.0651 -0.1606 -0.0728
  502TMC3    O2 7524   1.085   4.424  14.590  0.2904  0.1037 -0.4118
  503MPD2     C 7525   3.011   4.267  16.662  0.4995  1.2278 -0.1090
  503MPD2    C1 7526   3.044   4.307  16.791 -1.1387 -0.5559  0.1023
  503MPD2    C2 7527   3.118   4.221  16.870 -0.2677  0.1869  0.0467
  503MPD2    C3 7528   3.184   4.108  16.820  0.0251  0.3953 -0.4564
  503MPD2    C4 7529   3.159   4.071  16.692  0.3419  0.0319 -0.0035
  503MPD2    C5 7530   3.075   4.155  16.615 -0.6528  0.0959 -0.2835
  503MPD2     H 7531   3.133   4.268  16.967  1.1894 -2.6053  1.1672
  503MPD2    H1 7532   3.209   3.988  16.644  2.9492  1.5089  0.1697
  503MPD2    H2 7533   2.948   4.318  16.591  1.4442  2.2063 -0.2499
  503MPD2    H3 7534   3.060   4.115  16.515  2.5430 -2.7309  0.3404
  503MPD2     N 7535   3.269   4.035  16.907  0.5780 -0.1763 -0.1877
  503MPD2    H5 7536   3.271   4.076  17.000  2.2613  0.8463 -0.6619
  503MPD2    N1 7537   2.999   4.428  16.850 -0.1503 -0.1895 -0.1572
  503MPD2    H7 7538   3.021   4.430  16.949 -1.3016 -1.1514  0.1257
  504TMC3    C1 7539   3.426   3.868  16.981 -0.4972 -0.4163  0.5906
  504TMC3    C2 7540   3.415   3.911  17.111 -0.2476 -0.1634  0.2159
  504TMC3    C3 7541   3.528   3.917  17.186  0.2544  0.1587 -0.2027
  504TMC3    C4 7542   3.538   3.800  16.941 -0.7785 -1.0633 -0.0236
  504TMC3    C5 7543   3.646   3.788  17.029  0.1023  0.7610  0.0371
  504TMC3    C6 7544   3.647   3.859  17.149 -0.0757 -0.3738 -0.6954
  504TMC3     C 7545   3.349   3.929  16.873  0.7140  0.0101 -0.1749
  504TMC3     O 7546   3.391   3.901  16.760 -0.4256 -0.0705  0.2421
  504TMC3     H 7547   3.327   3.961  17.148  0.4724  1.9475 -0.9274
  504TMC3    H1 7548   3.531   3.744  16.849  2.5963  0.4527 -1.1816
  504TMC3    H2 7549   3.739   3.886  17.199 -1.7448  0.3483  1.9810
  504TMC3    C7 7550   3.769   3.762  16.955  0.6202 -0.0425 -0.2543
  504TMC3    C8 7551   3.520   3.979  17.318  0.1028  0.2915  0.0932
  504TMC3    O1 7552   3.764   3.772  16.835 -0.1839  0.0287  0.1730
  504TMC3    O2 7553   3.439   4.070  17.340 -0.2383 -0.4316 -0.0535
  505MPD2     C 7554   2.897   3.279  10.005  0.2439  0.2201  0.2847
  505MPD2    C1 7555   2.880   3.199  10.114  0.8413 -0.1309 -0.1919
  505MPD2    C2 7556   2.931   3.245  10.235 -0.2387 -0.0389 -0.0629
  505MPD2    C3 7557   2.998   3.368  10.253  0.5787 -0.1144  0.5729
  505MPD2    C4 7558   3.008   3.443  10.138 -0.4312  0.3477  0.2045
  505MPD2    C5 7559   2.965   3.389  10.020  0.5321 -0.2091 -0.4243
  505MPD2     H 7560   2.939   3.179  10.321 -0.1360 -0.6678 -0.5553
  505MPD2    H1 7561   3.059   3.539  10.136  0.4020 -0.0483  1.8258
  505MPD2    H2 7562   2.858   3.247   9.909  0.6001  2.2377 -0.5213
  505MPD2    H3 7563   2.998   3.442   9.931  3.5232  0.8692  1.3228
  505MPD2     N 7564   3.048   3.400  10.380 -0.3145 -0.4532  0.0703
  505MPD2    H5 7565   3.024   3.327  10.447 -1.2591 -0.1943  0.0146
  505MPD2    N1 7566   2.819   3.070  10.096 -0.6869  0.0734  0.5700
  505MPD2    H7 7567   2.807   3.043   9.999 -0.1218  3.6360 -0.4946
  506TMC3    C1 7568   2.769   2.842  10.159 -0.1740  0.2424  0.7280
  506TMC3    C2 7569   2.860   2.788  10.072  0.4071 -0.5760  0.9220
  506TMC3    C3 7570   2.873   2.659  10.079 -0.4509 -0.4525  0.0123
  506TMC3    C4 7571   2.720   2.769  10.263  0.4375 -0.2131 -0.5899
  506TMC3    C5 7572   2.755   2.645  10.280  0.2313 -0.3136 -0.2464
  506TMC3    C6 7573   2.821   2.578  10.177 -0.4997  0.1787 -0.2767
  506TMC3     C 7574   2.789   2.980  10.194  0.2462  0.0585 -0.1401
  506TMC3     O 7575   2.796   3.002  10.313 -0.1209  0.5873  0.2466
  506TMC3     H 7576   2.910   2.849   9.997  0.8011 -0.1535  1.5253
  506TMC3    H1 7577   2.654   2.814  10.337  0.8097 -2.5085  1.1008
  506TMC3    H2 7578   2.842   2.476  10.204  1.1328  0.2810 -1.1711
  506TMC3    C7 7579   2.816   2.620  10.408  0.7223  0.1867 -0.2862
  506TMC3    C8 7580   2.970   2.593   9.992 -0.4580  0.4796 -0.0235
  506TMC3    O1 7581   2.848   2.509  10.446 -0.7626  1.3543 -0.4355
  506TMC3    O2 7582   2.964   2.473   9.993 -0.3553 -0.3542  0.1717
  507TMC3    C1 7583   4.694   4.280  14.296  1.0542 -0.0439 -0.8578
  507TMC3    C2 7584   4.578   4.223  14.240  0.4872 -0.6207  0.1750
  507TMC3    C3 7585   4.530   4.275  14.129 -0.3404 -0.1881 -0.1593
  507TMC3    C4 7586   0.010   4.393  14.243  0.0187  0.4624  0.9791
  507TMC3    C5 7587   4.688   4.446  14.130  0.0028 -0.2680  0.5793
  507TMC3    C6 7588   4.587   4.380  14.064  0.4353 -0.9230  0.6447
  507TMC3     C 7589   4.716   4.270  14.440 -0.3812  0.3709 -0.0013
  507TMC3     O 7590   0.078   4.325  14.488 -0.4249 -1.0451  1.0426
  507TMC3     H 7591   4.523   4.142  14.287 -2.5617  1.1675 -0.3197
  507TMC3    H1 7592   0.093   4.443  14.292  0.8191 -0.4104  0.5265
  507TMC3    H2 7593   4.535   4.439  13.989 -0.0820 -1.3664  0.6594
  507TMC3    C7 7594   4.674   4.593  14.117 -0.4942  0.4755  0.1021
  507TMC3    C8 7595   4.390   4.277  14.127  0.7394 -0.7014 -0.3982
  507TMC3    O1 7596   4.575   4.634  14.060 -0.1210  0.0250 -0.2380
  507TMC3    O2 7597   4.330   4.172  14.110 -0.3988  0.0111 -0.2295
  508MPD2     C 7598   0.397   1.865  15.579 -0.0055  0.2150 -0.9274
  508MPD2    C1 7599   0.323   1.931  15.669 -0.2569 -0.0109  0.0117
  508MPD2    C2 7600   0.258   2.048  15.634  0.3280  0.1393 -0.5957
  508MPD2    C3 7601   0.275   2.098  15.508  0.8991 -0.4933 -0.4816
  508MPD2    C4 7602   0.340   2.027  15.411  0.1006  0.2040  0.6327
  508MPD2    C5 7603   0.399   1.908  15.452 -0.0753  0.4178 -0.0834
  508MPD2     H 7604   0.209   2.107  15.710  0.6561 -1.0854  0.5710
  508MPD2    H1 7605   0.341   2.054  15.306 -2.3940  0.7034  0.7421
  508MPD2    H2 7606   0.454   1.776  15.605 -1.5843  0.0615  2.0177
  508MPD2    H3 7607   0.443   1.847  15.374  0.8096  0.2053  0.5884
  508MPD2     N 7608   0.219   2.221  15.477 -0.2259 -0.1086 -0.0825
  508MPD2    H5 7609   0.163   2.275  15.543  0.0900  0.5212 -0.3361
  508MPD2    N1 7610   0.318   1.881  15.795  0.4843  0.3402 -0.6379
  508MPD2    H7 7611   0.352   1.786  15.806  0.3836  0.5799  1.6829
  509TMC3    C1 7612   0.197   2.610  15.231 -0.1769  0.4959  0.1192
  509TMC3    C2 7613   0.229   2.686  15.341 -0.6296 -0.0144 -0.0085
  509TMC3    C3 7614   0.233   2.624  15.462  0.1233 -0.2422  0.2997
  509TMC3    C4 7615   0.160   2.475  15.244  0.5827 -0.0199 -0.2866
  509TMC3    C5 7616   0.170   2.419  15.363  0.2618 -0.2470 -0.4419
  509TMC3    C6 7617   0.203   2.493  15.471  0.4952  0.4670 -0.0330
  509TMC3     C 7618   0.205   2.672  15.103 -0.3113  0.7117 -0.0685
  509TMC3     O 7619   0.276   2.771  15.093 -0.1863  0.5164 -0.3609
  509TMC3     H 7620   0.253   2.792  15.344 -2.9449  0.4650  1.4363
  509TMC3    H1 7621   0.155   2.407  15.159  0.2009  0.2982 -0.5186
  509TMC3    H2 7622   0.225   2.442  15.565  3.5907  1.1134 -0.4084
  509TMC3    C7 7623   0.221   2.285  15.356 -0.1366 -0.7958  0.5163
  509TMC3    C8 7624   0.343   2.662  15.553 -0.4690  0.5877  0.3394
  509TMC3    O1 7625   0.289   2.266  15.255  0.4495 -0.4091  0.6906
  509TMC3    O2 7626   0.359   2.604  15.664  0.0082  0.3854 -0.0229
  510MPD2     C 7627   2.796   3.613  13.904 -0.5481  0.4644  0.2013
  510MPD2    C1 7628   2.870   3.599  14.026  0.6080 -0.9893  0.7299
  510MPD2    C2 7629   2.999   3.638  14.029 -0.0071  0.6022 -0.6618
  510MPD2    C3 7630   3.054   3.707  13.916  0.1751 -0.0330 -0.2586
  510MPD2    C4 7631   2.972   3.743  13.806  0.2215  0.4021 -0.3112
  510MPD2    C5 7632   2.846   3.688  13.800 -0.2880 -0.0107  0.6958
  510MPD2     H 7633   3.074   3.611  14.101 -1.8982  1.0424  1.4745
  510MPD2    H1 7634   3.007   3.793  13.715  1.8162  1.9647  1.1470
  510MPD2    H2 7635   2.699   3.567  13.891  0.7372 -1.6777 -1.8306
  510MPD2    H3 7636   2.785   3.687  13.710 -3.0593  4.1259  2.5215
  510MPD2     N 7637   3.196   3.729  13.904 -0.2781  0.6906  0.2794
  510MPD2    H5 7638   3.248   3.676  13.973 -0.8738 -1.3713 -0.8580
  510MPD2    N1 7639   2.807   3.521  14.128  0.2741  0.8110  0.3335
  510MPD2    H7 7640   2.717   3.480  14.104  0.6281  0.0483  0.3293
  511TMC3    C1 7641   2.796   3.406  14.328  0.2046  0.3969  0.8468
  511TMC3    C2 7642   2.783   3.418  14.460  0.3596  0.7591  0.1869
  511TMC3    C3 7643   2.720   3.320  14.526 -0.0417  0.2230  0.0623
  511TMC3    C4 7644   2.774   3.284  14.265  0.0558 -0.3834 -0.1035
  511TMC3    C5 7645   2.718   3.185  14.337  0.0174 -0.1699  0.1014
  511TMC3    C6 7646   2.692   3.203  14.468 -0.0874  0.2321 -0.8818
  511TMC3     C 7647   2.860   3.512  14.255  0.0148  0.5645 -0.5924
  511TMC3     O 7648   2.932   3.587  14.315 -0.2362 -0.3680 -0.1386
  511TMC3     H 7649   2.806   3.513  14.505  1.0876 -0.4519  2.3877
  511TMC3    H1 7650   2.830   3.267  14.174  0.9475  0.0498  0.3569
  511TMC3    H2 7651   2.619   3.133  14.509  0.9130  0.0799  0.6398
  511TMC3    C7 7652   2.689   3.060  14.274  0.2613 -0.0672  0.0006
  511TMC3    C8 7653   2.682   3.346  14.665  0.4071  0.0726  0.0258
  511TMC3    O1 7654   2.689   3.065  14.157 -0.7682  0.5155  0.1274
  511TMC3    O2 7655   2.658   3.464  14.693  0.2984  0.2743 -0.0398
  512TMC3    C1 7656   1.577   2.687  12.941 -0.0746  0.0571  0.3725
  512TMC3    C2 7657   1.702   2.691  12.992  0.3498 -0.0330 -0.4218
  512TMC3    C3 7658   1.745   2.576  13.051  0.0224  0.1787  0.3738
  512TMC3    C4 7659   1.498   2.580  12.930  0.1864  0.4592  0.5604
  512TMC3    C5 7660   1.554   2.465  12.984  0.4369  0.1040  0.4521
  512TMC3    C6 7661   1.670   2.459  13.049 -0.0483 -0.3434 -0.5187
  512TMC3     C 7662   1.510   2.809  12.900  0.4538  0.0353  0.1284
  512TMC3     O 7663   1.388   2.814  12.911  0.2489  0.5427 -0.3815
  512TMC3     H 7664   1.751   2.786  13.012  1.0663 -0.3192 -0.8425
  512TMC3    H1 7665   1.398   2.586  12.889  0.7281 -0.2678 -0.8688
  512TMC3    H2 7666   1.707   2.378  13.110 -1.7381 -0.8642 -0.2160
  512TMC3    C7 7667   1.478   2.348  12.955  0.3015 -0.3426 -0.7417
  512TMC3    C8 7668   1.877   2.576  13.103 -0.1934 -0.0536 -1.0765
  512TMC3    O1 7669   1.372   2.363  12.894  0.0155  0.2265  0.5195
  512TMC3    O2 7670   1.914   2.463  13.135 -0.1143 -0.8559  0.4308
  513MPD2     C 7671   3.214   2.992  13.523 -0.0614  0.6365  0.6809
  513MPD2    C1 7672   3.235   2.874  13.455 -0.4280 -0.0075  0.8191
  513MPD2    C2 7673   3.337   2.793  13.496  0.1044  0.2162 -0.1046
  513MPD2    C3 7674   3.425   2.832  13.600 -1.0035  1.0556 -0.2550
  513MPD2    C4 7675   3.390   2.942  13.675  0.4399 -0.1962 -0.9347
  513MPD2    C5 7676   3.287   3.018  13.636 -0.3491  0.0632  0.4711
  513MPD2     H 7677   3.364   2.706  13.437  0.8997  1.0424 -0.9603
  513MPD2    H1 7678   3.439   2.972  13.767 -0.3338 -0.3479 -0.4719
  513MPD2    H2 7679   3.134   3.055  13.488  0.1546  0.4891 -0.0853
  513MPD2    H3 7680   3.253   3.103  13.696 -1.8406 -1.1667  1.3740
  513MPD2     N 7681   3.527   2.738  13.629 -0.3240 -0.0864  0.0747
  513MPD2    H5 7682   3.535   2.660  13.564  2.0989 -1.4236  1.9674
  513MPD2    N1 7683   3.166   2.847  13.339  0.2770 -0.2097 -0.3559
  513MPD2    H7 7684   3.091   2.912  13.318  0.2700 -0.8189 -2.2093
  514TMC3    C1 7685   3.085   2.716  13.148  0.2042 -0.1145  0.0749
  514TMC3    C2 7686   3.111   2.815  13.053 -0.2909 -0.3277  0.1545
  514TMC3    C3 7687   3.132   2.788  12.918 -0.2872 -0.1784  0.4777
  514TMC3    C4 7688   3.097   2.588  13.104  0.1607 -0.1370 -0.2704
  514TMC3    C5 7689   3.124   2.564  12.978  0.6762 -0.1638 -0.9306
  514TMC3    C6 7690   3.136   2.654  12.882 -0.4611 -0.1016 -0.6607
  514TMC3     C 7691   3.164   2.723  13.273  0.0780  0.5726 -0.5565
  514TMC3     O 7692   3.225   2.620  13.303 -0.0157  0.6164 -0.1051
  514TMC3     H 7693   3.122   2.917  13.090 -0.4018  0.4279 -1.8771
  514TMC3    H1 7694   3.064   2.501  13.160  0.2832  0.5798  0.9189
  514TMC3    H2 7695   3.158   2.621  12.781 -0.8078 -0.8814 -0.4766
  514TMC3    C7 7696   3.231   2.464  12.965  0.7704  0.3073 -0.5212
  514TMC3    C8 7697   3.139   2.901  12.821 -0.0894  0.2016  0.6903
  514TMC3    O1 7698   3.250   2.421  12.855 -0.3389 -0.1638  0.4082
  514TMC3    O2 7699   3.111   3.008  12.874 -0.0017 -0.6395  0.3345
  515MPD2     C 7700   1.434   0.382  14.471  0.0052  0.2482 -0.7548
  515MPD2    C1 7701   1.498   0.250  14.463  0.7779 -0.4271 -0.4188
  515MPD2    C2 7702   1.600   0.229  14.554  0.3754  0.3843 -0.1199
  515MPD2    C3 7703   1.642   0.329  14.643 -0.4509  0.6263 -0.5099
  515MPD2    C4 7704   1.570   0.448  14.650 -0.2593  0.5595 -0.5680
  515MPD2    C5 7705   1.470   0.478  14.569 -0.6606 -0.0380 -0.4045
  515MPD2     H 7706   1.652   0.134  14.549 -1.8623 -0.9912  2.6028
  515MPD2    H1 7707   1.593   0.528  14.720  0.7215 -1.1339  1.0368
  515MPD2    H2 7708   1.355   0.401  14.398 -1.9280  0.5527  1.4316
  515MPD2    H3 7709   1.422   0.575  14.581 -1.4112 -0.2813 -1.3938
  515MPD2     N 7710   1.732   0.307  14.748  0.7911  0.2481  0.5000
  515MPD2    H5 7711   1.726   0.382  14.817  2.1341  0.6621  0.1646
  515MPD2    N1 7712   1.466   0.151  14.371 -0.1443  0.1210 -0.0759
  515MPD2    H7 7713   1.516   0.062  14.375 -1.3419 -0.5709 -0.3679
  516TMC3    C1 7714   1.342   0.030  14.220 -0.4186 -0.7482  0.0220
  516TMC3    C2 7715   1.276   0.034  14.097  0.3422  0.0772 -0.5566
  516TMC3    C3 7716   1.251   4.653  14.037 -0.0763 -0.2983  0.3934
  516TMC3    C4 7717   1.371   4.640  14.275 -0.4169 -0.3636  0.1510
  516TMC3    C5 7718   1.335   4.528  14.209 -0.3636 -0.0215  0.3678
  516TMC3    C6 7719   1.279   4.527  14.087 -0.7743 -0.1096 -0.1738
  516TMC3     C 7720   1.368   0.159  14.281 -0.2504  0.1282  0.0371
  516TMC3     O 7721   1.311   0.259  14.234 -0.2210 -0.3030  0.2539
  516TMC3     H 7722   1.235   0.124  14.053 -0.0544  0.3516  0.3660
  516TMC3    H1 7723   1.414   4.630  14.374  1.2600  1.7114 -0.3781
  516TMC3    H2 7724   1.285   4.437  14.027 -0.8190 -0.8299  0.8954
  516TMC3    C7 7725   1.385   4.401  14.258 -0.0559  0.0531 -0.1678
  516TMC3    C8 7726   1.236   4.663  13.904  0.6941  0.1268 -0.3227
  516TMC3    O1 7727   1.475   4.386  14.337 -0.5948 -0.0868  0.0817
  516TMC3    O2 7728   1.164   4.584  13.850  0.5337 -0.5388 -0.4471
  517MPD2     C 7729   1.415   1.317  17.429  0.3846 -0.5128  0.0727
  517MPD2    C1 7730   1.543   1.273  17.447  0.4195 -0.1069  0.1849
  517MPD2    C2 7731   1.632   1.356  17.525 -0.1934  0.1600  0.0488
  517MPD2    C3 7732   1.596   1.486  17.559 -0.1543  0.1225 -1.1135
  517MPD2    C4 7733   1.470   1.531  17.524  0.3743  0.1383 -0.9162
  517MPD2    C5 7734   1.383   1.446  17.463 -0.2907 -0.9761  0.3498
  517MPD2     H 7735   1.722   1.314  17.568  0.3044 -0.0931 -1.2512
  517MPD2    H1 7736   1.435   1.627  17.558  2.3390 -0.4514  2.8183
  517MPD2    H2 7737   1.331   1.254  17.402 -0.2705  0.2424  0.3328
  517MPD2    H3 7738   1.281   1.480  17.448 -0.1760 -1.5574 -1.7890
  517MPD2     N 7739   1.686   1.575  17.618 -0.4058  0.8557 -0.2960
  517MPD2    H5 7740   1.667   1.674  17.609  0.8507  1.2421  1.3852
  517MPD2    N1 7741   1.577   1.141  17.409  0.4825 -0.3506 -0.1493
  517MPD2    H7 7742   1.505   1.076  17.378  1.6608 -1.2194 -1.0736
  518TMC3    C1 7743   1.727   0.970  17.336  0.1761 -0.2018  0.0098
  518TMC3    C2 7744   1.648   0.857  17.372  0.3212 -0.7040 -0.1499
  518TMC3    C3 7745   1.690   0.744  17.312  0.1131  0.2873  0.3803
  518TMC3    C4 7746   1.829   0.963  17.251 -0.1672  0.0694 -0.3599
  518TMC3    C5 7747   1.857   0.844  17.190  0.2144 -0.4612 -0.4287
  518TMC3    C6 7748   1.787   0.725  17.219  0.4512  1.0654  0.7872
  518TMC3     C 7749   1.708   1.101  17.399  0.6365  0.1236  0.1352
  518TMC3     O 7750   1.816   1.160  17.410 -0.0589 -0.5834  0.3436
  518TMC3     H 7751   1.569   0.861  17.446 -0.0104 -0.4780 -0.5075
  518TMC3    H1 7752   1.875   1.054  17.213  1.7221 -0.1752  1.3366
  518TMC3    H2 7753   1.804   0.630  17.169 -0.1577  0.1867  2.2543
  518TMC3    C7 7754   1.989   0.839  17.131 -0.0940 -0.6689 -0.2772
  518TMC3    C8 7755   1.606   0.629  17.322 -0.1610  0.5098  0.3662
  518TMC3    O1 7756   2.057   0.937  17.126 -0.7828 -0.7235  0.4185
  518TMC3    O2 7757   1.591   0.553  17.231 -0.0593  0.4668 -0.1713
  519MPD2     C 7758   3.411   4.440  14.340  0.2409 -0.2497 -0.1399
  519MPD2    C1 7759   3.336   4.491  14.232  0.2523  0.3812 -0.0515
  519MPD2    C2 7760   3.374   4.466  14.103 -0.0057 -0.4078  0.3083
  519MPD2    C3 7761   3.495   4.391  14.085  0.0427  0.2744  0.1683
  519MPD2    C4 7762   3.567   4.337  14.188 -0.5415 -1.1976  0.1639
  519MPD2    C5 7763   3.525   4.363  14.318  0.2231  0.0702 -0.2439
  519MPD2     H 7764   3.302   4.490  14.025  1.8841 -0.4201 -1.4412
  519MPD2    H1 7765   3.656   4.277  14.179 -0.7508 -1.3292 -1.1302
  519MPD2    H2 7766   3.373   4.444  14.442 -0.6137  0.6933 -0.4977
  519MPD2    H3 7767   3.576   4.320  14.404 -2.5762 -3.1079 -0.2006
  519MPD2     N 7768   3.521   4.349  13.956 -0.0148 -0.1255 -0.8268
  519MPD2    H5 7769   3.595   4.281  13.944 -0.3247 -0.4859 -0.6997
  519MPD2    N1 7770   3.219   4.567  14.260  0.1566 -0.4483  0.0120
  519MPD2    H7 7771   3.189   4.579  14.356 -1.5526 -1.3165 -0.4007
  520TMC3    C1 7772   3.513   4.310  13.732  0.7703 -0.3753  0.3126
  520TMC3    C2 7773   3.468   4.340  13.599  0.2123  0.7646 -0.2289
  520TMC3    C3 7774   3.500   4.264  13.493  0.0023  0.0848  0.1996
  520TMC3    C4 7775   3.601   4.206  13.751 -0.2466 -0.2285 -0.1756
  520TMC3    C5 7776   3.644   4.142  13.639  0.7274  0.0191  0.0321
  520TMC3    C6 7777   3.594   4.164  13.506  0.1124  0.5003  0.5620
  520TMC3     C 7778   3.468   4.395  13.838 -0.6447 -0.4733 -0.0423
  520TMC3     O 7779   3.393   4.490  13.816  0.0215 -0.0254  0.2250
  520TMC3     H 7780   3.397   4.422  13.591 -0.5918 -0.3303 -4.3450
  520TMC3    H1 7781   3.629   4.168  13.849 -2.6417  1.4065  1.1510
  520TMC3    H2 7782   3.629   4.119  13.415  0.1241  0.0380  0.7967
  520TMC3    C7 7783   3.747   4.038  13.651 -0.1508 -0.3416  0.3142
  520TMC3    C8 7784   3.419   4.286  13.370 -0.4868  0.1374 -0.7502
  520TMC3    O1 7785   3.805   4.040  13.758 -0.1288 -0.6014 -0.1441
  520TMC3    O2 7786   3.473   4.258  13.265  0.3472 -0.1085 -0.1764
  521MPD2     C 7787   3.717   2.592  16.914 -0.6068  0.3418 -0.1471
  521MPD2    C1 7788   3.767   2.500  16.997  0.4186 -0.2961  0.5208
  521MPD2    C2 7789   3.905   2.490  17.001  0.1465 -0.2307 -0.5368
  521MPD2    C3 7790   3.990   2.572  16.933  0.3725  0.9840  0.6256
  521MPD2    C4 7791   3.931   2.666  16.858  0.4601 -0.4801 -0.5879
  521MPD2    C5 7792   3.796   2.675  16.843  0.0803  0.2350 -0.8072
  521MPD2     H 7793   3.943   2.416  17.070 -0.7842 -0.6907 -0.5155
  521MPD2    H1 7794   3.996   2.730  16.801 -2.0562 -0.1208 -3.0688
  521MPD2    H2 7795   3.610   2.599  16.896 -0.3628  1.8779 -1.0450
  521MPD2    H3 7796   3.754   2.745  16.771  0.2940  1.0887 -0.1031
  521MPD2     N 7797   4.131   2.549  16.944  0.3436 -0.6229  0.7807
  521MPD2    H5 7798   4.151   2.473  17.010 -0.6440 -2.2195 -0.7542
  521MPD2    N1 7799   3.681   2.413  17.074 -0.3798  0.4190  0.1460
  521MPD2    H7 7800   3.585   2.423  17.043 -1.3580 -1.3903  2.5336
  522TMC3    C1 7801   4.350   2.538  16.871 -0.3773  0.7020  0.3416
  522TMC3    C2 7802   4.350   2.398  16.864 -0.1630 -0.2328 -0.9289
  522TMC3    C3 7803   4.459   2.337  16.802 -0.4646 -0.0255  0.3190
  522TMC3    C4 7804   4.453   2.604  16.807 -0.0125  0.2558 -0.0965
  522TMC3    C5 7805   4.552   2.541  16.729 -0.1892  0.2772 -0.3299
  522TMC3    C6 7806   4.554   2.403  16.721  0.0016  0.0662 -0.3690
  522TMC3     C 7807   4.228   2.605  16.870 -0.2501  0.0513  0.0731
  522TMC3     O 7808   4.217   2.684  16.778 -0.0930  0.1905 -0.3314
  522TMC3     H 7809   4.275   2.332  16.908 -0.3291  1.3943  1.2052
  522TMC3    H1 7810   4.468   2.711  16.819  0.1508  0.1125  1.0129
  522TMC3    H2 7811   4.646   2.370  16.673 -0.3375 -1.8156  0.2471
  522TMC3    C7 7812   4.600   2.609  16.609  1.1055  0.3176 -0.2957
  522TMC3    C8 7813   4.461   2.195  16.790 -0.0168 -0.7627  0.0090
  522TMC3    O1 7814   4.647   2.536  16.529 -0.1946  0.5984  0.2105
  522TMC3    O2 7815   4.398   2.130  16.870  0.2656 -0.0236 -0.1360
  523MPD2     C 7816   1.418   1.871  10.055 -0.1127 -0.5748 -0.4994
  523MPD2    C1 7817   1.394   1.785   9.952 -0.0822 -0.2356  0.3805
  523MPD2    C2 7818   1.313   1.844   9.853  0.5678 -0.3207  0.2766
  523MPD2    C3 7819   1.260   1.974   9.867 -0.4305  0.0186 -0.5789
  523MPD2    C4 7820   1.285   2.047   9.980  0.9281 -0.2222 -0.3417
  523MPD2    C5 7821   1.368   1.997  10.073 -0.3104  0.7776  0.3041
  523MPD2     H 7822   1.312   1.786   9.762 -1.3249 -1.3875  0.9625
  523MPD2    H1 7823   1.254   2.150   9.993  0.9450 -0.2177 -0.3370
  523MPD2    H2 7824   1.491   1.846  10.131 -1.2150  0.0508  0.7618
  523MPD2    H3 7825   1.399   2.060  10.155 -1.2378  1.5680  0.0462
  523MPD2     N 7826   1.171   2.039   9.772 -0.3559 -0.1142 -0.6424
  523MPD2    H5 7827   1.157   2.137   9.795  1.6473  0.2981 -1.1186
  523MPD2    N1 7828   1.445   1.651   9.957 -0.0188  0.4943  0.2834
  523MPD2    H7 7829   1.502   1.620  10.035  2.8984  0.2380 -1.9211
  524TMC3    C1 7830   1.024   2.073   9.600 -0.5607 -0.7037 -0.4946
  524TMC3    C2 7831   0.939   2.017   9.513 -0.3006 -0.3399 -0.1996
  524TMC3    C3 7832   0.823   2.085   9.495 -0.3529  0.7784 -0.3214
  524TMC3    C4 7833   0.998   2.189   9.672  0.1163  0.7898 -0.3817
  524TMC3    C5 7834   0.881   2.248   9.651 -0.7189  0.1505  0.1194
  524TMC3    C6 7835   0.790   2.194   9.565 -0.0655 -0.0286 -0.8947
  524TMC3     C 7836   1.109   1.979   9.666 -0.6823  0.1393  0.3262
  524TMC3     O 7837   1.114   1.862   9.627 -0.1926 -0.5934 -0.8879
  524TMC3     H 7838   0.967   1.922   9.469  1.9252 -0.2519  1.0337
  524TMC3    H1 7839   1.066   2.245   9.736  0.6750 -0.1491 -0.1596
  524TMC3    H2 7840   0.687   2.226   9.568  0.1739  0.7712 -0.9965
  524TMC3    C7 7841   0.838   2.353   9.737  0.1070  0.4323  0.3072
  524TMC3    C8 7842   0.730   2.022   9.398 -0.3651 -0.6884 -0.0613
  524TMC3    O1 7843   0.889   2.369   9.851  0.0413 -0.0676 -0.0893
  524TMC3    O2 7844   0.764   1.918   9.345 -0.3117  0.0400 -0.3482
  525MPD2     C 7845   0.091   4.028  13.950 -0.4103  0.5662  0.0553
  525MPD2    C1 7846   0.220   4.019  13.992 -0.0354  0.5275  0.9505
  525MPD2    C2 7847   0.309   4.114  13.943 -0.3470  0.0531  0.7425
  525MPD2    C3 7848   0.262   4.232  13.875  0.7396 -0.0335  0.4579
  525MPD2    C4 7849   0.131   4.242  13.847 -0.2217  0.1216  0.5261
  525MPD2    C5 7850   0.046   4.135  13.882 -0.3213  0.5170  0.2424
  525MPD2     H 7851   0.414   4.107  13.968 -0.3807 -2.2412  0.2624
  525MPD2    H1 7852   0.099   4.315  13.774 -0.5078  0.5961  1.1302
  525MPD2    H2 7853   0.016   3.956  13.983  1.6604 -2.0198 -0.8967
  525MPD2    H3 7854   4.676   4.134  13.855 -0.1235 -4.0802 -0.2612
  525MPD2     N 7855   0.350   4.337  13.839  0.3272 -0.1577  0.6827
  525MPD2    H5 7856   0.302   4.424  13.819 -0.3522 -0.6325  0.2394
  525MPD2    N1 7857   0.276   3.908  14.062 -0.0113 -0.1882  0.5263
  525MPD2    H7 7858   0.374   3.913  14.088  0.3861 -1.1956 -0.8067
  526TMC3    C1 7859   0.278   3.707  14.185  0.3493 -0.4829 -0.1428
  526TMC3    C2 7860   0.218   3.671  14.300  0.2929  0.1424  0.5283
  526TMC3    C3 7861   0.291   3.585  14.377  0.4666 -0.2310  0.7186
  526TMC3    C4 7862   0.400   3.661  14.149 -0.0843 -0.1297  0.5785
  526TMC3    C5 7863   0.472   3.578  14.231  0.8787  0.1089  0.4603
  526TMC3    C6 7864   0.424   3.550  14.351  0.2703  0.1881  0.1866
  526TMC3     C 7865   0.201   3.797  14.106  0.5983 -0.3521 -0.3645
  526TMC3     O 7866   0.079   3.775  14.097 -0.5323 -0.1401 -0.1446
  526TMC3     H 7867   0.128   3.724  14.329  0.7569  0.5485  1.2322
  526TMC3    H1 7868   0.435   3.678  14.048  1.9162 -1.4625  1.0353
  526TMC3    H2 7869   0.475   3.482  14.418 -0.0178 -0.2609 -0.0515
  526TMC3    C7 7870   0.579   3.496  14.175 -0.9017 -0.0953 -0.7304
  526TMC3    C8 7871   0.240   3.548  14.506 -0.7650 -0.2056  0.3521
  526TMC3    O1 7872   0.636   3.418  14.247 -0.3045  0.3980  0.4150
  526TMC3    O2 7873   0.318   3.515  14.598  0.4977  0.2988  0.3907
  527MPD2     C 7874   2.343   1.486   1.375 -0.1136 -0.2778 -0.2864
  527MPD2    C1 7875   2.307   1.484   1.240 -0.4441 -0.0208  0.4760
  527MPD2    C2 7876   2.405   1.441   1.148  0.6594 -0.3166  0.1779
  527MPD2    C3 7877   2.524   1.387   1.190  0.0087  0.1292  0.3648
  527MPD2    C4 7878   2.554   1.399   1.321  0.4077  1.1219 -0.3063
  527MPD2    C5 7879   2.467   1.444   1.417  0.3104  0.0881 -0.6274
  527MPD2     H 7880   2.370   1.440   1.045  2.2418  0.6244 -0.3593
  527MPD2    H1 7881   2.649   1.359   1.352 -1.2425 -3.1454 -0.7814
  527MPD2    H2 7882   2.280   1.525   1.454  0.4410  0.0798 -0.0216
  527MPD2    H3 7883   2.503   1.438   1.519  0.9385 -0.7619 -0.8985
  527MPD2     N 7884   2.615   1.325   1.105 -0.2941 -0.3285  0.3642
  527MPD2    H5 7885   2.597   1.335   1.006  1.5764 -0.8740 -0.0374
  527MPD2    N1 7886   2.187   1.540   1.191  0.0957  0.6263  0.4686
  527MPD2    H7 7887   2.180   1.558   1.092 -2.0500  1.5946  0.7846
  528TMC3    C1 7888   1.949   1.579   1.195 -0.5422  0.0364 -0.2674
  528TMC3    C2 7889   1.953   1.639   1.076 -0.3724  0.2554 -0.0843
  528TMC3    C3 7890   1.837   1.641   1.005 -0.7741 -0.3950  0.0469
  528TMC3    C4 7891   1.846   1.529   1.258 -0.4482  0.4573  0.5599
  528TMC3    C5 7892   1.740   1.515   1.177  0.4482  0.3266  0.1606
  528TMC3    C6 7893   1.728   1.576   1.052  0.4714  0.4640  0.3934
  528TMC3     C 7894   2.074   1.567   1.268 -0.8496 -0.6463 -0.5758
  528TMC3     O 7895   2.050   1.552   1.385  0.1056  0.5031  0.6697
  528TMC3     H 7896   2.045   1.683   1.040  0.4114 -1.0571  0.3217
  528TMC3    H1 7897   1.865   1.472   1.348  0.7375  2.2468  1.4439
  528TMC3    H2 7898   1.641   1.562   0.990 -0.0562  1.6261  0.8608
  528TMC3    C7 7899   1.634   1.429   1.221 -0.5617  0.0758 -0.0791
  528TMC3    C8 7900   1.839   1.723   0.882 -0.6892  0.5157  0.2974
  528TMC3    O1 7901   1.522   1.451   1.179  0.3845  0.3415 -0.0281
  528TMC3    O2 7902   1.933   1.801   0.876 -0.1417  0.0831  0.0674
  529MPD2     C 7903   0.357   0.427   0.713 -0.1178 -0.7767 -0.8218
  529MPD2    C1 7904   0.382   0.305   0.650 -0.0854 -0.1942 -0.0361
  529MPD2    C2 7905   0.438   0.312   0.522 -0.1404  0.8610  0.1899
  529MPD2    C3 7906   0.478   0.433   0.469  0.2019 -0.0534  0.7438
  529MPD2    C4 7907   0.455   0.550   0.531 -0.0133  0.1506  0.3450
  529MPD2    C5 7908   0.402   0.544   0.653 -0.3789  0.4224 -0.4212
  529MPD2     H 7909   0.460   0.216   0.477  0.4332  0.4890  1.2505
  529MPD2    H1 7910   0.482   0.647   0.492  0.7322 -0.6017 -1.0348
  529MPD2    H2 7911   0.319   0.429   0.815 -1.5839  1.9660 -1.4283
  529MPD2    H3 7912   0.386   0.637   0.707  0.2921 -0.3266  1.0634
  529MPD2     N 7913   0.544   0.437   0.342  0.4236  0.4865 -0.1591
  529MPD2    H5 7914   0.563   0.527   0.300  1.0460  0.4946  0.1359
  529MPD2    N1 7915   0.382   0.179   0.719  0.3491 -0.7201  0.4017
  529MPD2    H7 7916   0.413   0.105   0.657 -1.0546 -2.0949  1.3558
  530TMC3    C1 7917   0.393   0.019   0.891 -0.4995 -0.3034 -0.1626
  530TMC3    C2 7918   0.383   4.725   1.018  0.1791 -0.0689  0.2158
  530TMC3    C3 7919   0.397   4.602   1.060 -0.0258 -0.7231  0.0108
  530TMC3    C4 7920   0.419   4.650   0.802 -0.1209 -0.7546 -1.1022
  530TMC3    C5 7921   0.418   4.521   0.852 -0.3916  0.5746  0.1439
  530TMC3    C6 7922   0.421   4.492   0.984  0.0950  0.5579  0.0480
  530TMC3     C 7923   0.363   0.150   0.849 -0.0095  0.0858 -0.3650
  530TMC3     O 7924   0.332   0.225   0.938 -0.3500  0.1290  0.1401
  530TMC3     H 7925   0.349   0.062   1.092  1.3612  0.0604  0.6271
  530TMC3    H1 7926   0.404   4.669   0.696  0.4064 -2.2499 -1.4401
  530TMC3    H2 7927   0.411   4.396   1.033 -1.6433  1.6095  1.7828
  530TMC3    C7 7928   0.415   4.411   0.751  0.0482 -0.2206  0.2026
  530TMC3    C8 7929   0.426   4.584   1.204  0.6652 -1.2282  0.3102
  530TMC3    O1 7930   0.463   4.425   0.637 -0.2172 -1.1634  0.1836
  530TMC3    O2 7931   0.374   4.662   1.283  0.7369  0.1416 -0.6957
  531MPD2     C 7932   3.672   2.262  13.146  0.0476  0.1044  0.3383
  531MPD2    C1 7933   3.607   2.321  13.255 -0.4284 -0.4658  0.7684
  531MPD2    C2 7934   3.481   2.378  13.231  0.5108  0.2092 -0.6164
  531MPD2    C3 7935   3.421   2.378  13.103  0.6627 -0.6105  0.0101
  531MPD2    C4 7936   3.489   2.327  12.998 -0.7956  0.0314  0.2688
  531MPD2    C5 7937   3.610   2.262  13.019 -0.5520  0.2960 -0.1541
  531MPD2     H 7938   3.429   2.425  13.314 -1.2812 -0.5891 -1.2847
  531MPD2    H1 7939   3.453   2.311  12.896  0.2894  1.5599 -0.3443
  531MPD2    H2 7940   3.762   2.206  13.167  0.7197  0.2491 -2.2343
  531MPD2    H3 7941   3.668   2.217  12.939 -0.9946 -1.1213  0.3156
  531MPD2     N 7942   3.305   2.451  13.078 -0.0900  0.6786  0.3067
  531MPD2    H5 7943   3.272   2.506  13.156 -1.6142  0.1351  0.0420
  531MPD2    N1 7944   3.673   2.333  13.381  0.3262  0.1375  0.1927
  531MPD2    H7 7945   3.750   2.272  13.405  0.7313  0.4855 -0.2279
  532TMC3    C1 7946   3.716   2.440  13.596 -0.8705 -0.3357  0.0582
  532TMC3    C2 7947   3.643   2.513  13.677 -0.8123  0.0454  0.3750
  532TMC3    C3 7948   3.691   2.620  13.734  0.1163  0.1020 -0.5224
  532TMC3    C4 7949   3.846   2.465  13.568 -0.2824  0.5899 -0.0545
  532TMC3    C5 7950   3.894   2.579  13.620  0.1384 -0.0119  0.6629
  532TMC3    C6 7951   3.827   2.645  13.712  0.1816 -0.4483 -0.2816
  532TMC3     C 7952   3.641   2.430  13.471 -0.0164 -0.3733  0.2426
  532TMC3     O 7953   3.554   2.520  13.467  0.3657 -0.0001  0.4651
  532TMC3     H 7954   3.537   2.493  13.693  0.1190 -2.8325  2.8932
  532TMC3    H1 7955   3.894   2.413  13.485 -0.3486 -0.6033  0.6608
  532TMC3    H2 7956   3.866   2.723  13.775 -1.7657 -1.0393  1.6790
  532TMC3    C7 7957   4.034   2.581  13.655 -0.1008  0.1665  0.4352
  532TMC3    C8 7958   3.604   2.737  13.739  0.2606  0.0732 -0.4267
  532TMC3    O1 7959   4.087   2.684  13.707  0.8336  0.3032  0.2730
  532TMC3    O2 7960   3.636   2.832  13.813  0.1017  0.5861  0.4075
  533TMC3    C1 7961   0.533   4.481  13.875  0.5937  0.2023  0.5293
  533TMC3    C2 7962   0.672   4.474  13.892 -0.3529  0.3019 -0.4342
  533TMC3    C3 7963   0.719   4.523  14.013  0.4292 -0.1404 -0.1256
  533TMC3    C4 7964   0.450   4.538  13.973  0.6782  0.1490  0.7691
  533TMC3    C5 7965   0.504   4.569  14.097 -0.2562  0.3810  0.0915
  533TMC3    C6 7966   0.642   4.555  14.125 -0.4039 -0.1969  0.0204
  533TMC3     C 7967   0.490   4.344  13.844 -0.3341  0.3473 -0.7019
  533TMC3     O 7968   0.574   4.252  13.852 -0.0527 -0.1051 -0.4770
  533TMC3     H 7969   0.736   4.440  13.811 -1.0146  0.9644 -1.2370
  533TMC3    H1 7970   0.342   4.528  13.973  0.6316  0.6568  1.9020
  533TMC3    H2 7971   0.687   4.598  14.214 -0.4060 -0.5642  0.1979
  533TMC3    C7 7972   0.419   4.566  14.211  0.6722 -0.6443  0.2148
  533TMC3    C8 7973   0.849   4.592  14.021 -0.0962  0.8703  0.3163
  533TMC3    O1 7974   0.307   4.516  14.204 -0.3781 -0.0766  0.0065
  533TMC3    O2 7975   0.907   4.594  14.131  0.3101  0.5420 -0.5687
  534MPD2     C 7976   2.742   0.073   1.935  0.1827 -0.7857  0.7094
  534MPD2    C1 7977   2.726   0.141   1.819 -0.4774 -0.5071  0.2908
  534MPD2    C2 7978   2.620   0.111   1.741  0.0880  0.5257 -0.3936
  534MPD2    C3 7979   2.537   0.006   1.776  0.4304 -0.6033  0.7247
  534MPD2    C4 7980   2.552   4.678   1.893  0.9342 -0.0718  0.4107
  534MPD2    C5 7981   2.655   4.704   1.974  0.2063 -0.5773 -0.3899
  534MPD2     H 7982   2.616   0.160   1.645  1.5238  1.3872 -0.0018
  534MPD2    H1 7983   2.476   4.614   1.937  0.4108  0.7352  0.6858
  534MPD2    H2 7984   2.824   0.097   2.002 -0.3104 -0.0506  1.0604
  534MPD2    H3 7985   2.664   4.644   2.064  0.7838 -0.5712 -0.4476
  534MPD2     N 7986   2.432   4.705   1.692  0.2882 -0.2572 -0.3665
  534MPD2    H5 7987   2.356   4.664   1.745  1.9727  0.3608  2.5243
  534MPD2    N1 7988   2.812   0.247   1.774 -0.4715 -0.1967  0.3434
  534MPD2    H7 7989   2.779   0.313   1.705  0.3579  1.5259  1.6094
  535TMC3    C1 7990   2.303   4.717   1.486  0.0837  0.0673  0.0049
  535TMC3    C2 7991   2.188   4.713   1.555  0.4367 -0.3540  0.1265
  535TMC3    C3 7992   2.074   4.723   1.478 -0.5106  0.5860 -0.2204
  535TMC3    C4 7993   2.310   4.732   1.351  0.2776  0.5203 -0.7729
  535TMC3    C5 7994   2.188   0.010   1.281 -0.6528 -0.2866 -0.3855
  535TMC3    C6 7995   2.069   0.009   1.343  0.2145  0.4014  0.7883
  535TMC3     C 7996   2.432   4.722   1.556 -0.1883  0.0906 -0.3287
  535TMC3     O 7997   2.525   4.731   1.478  0.5339  0.3911  0.1675
  535TMC3     H 7998   2.184   4.693   1.661  1.4652  0.4917  0.3246
  535TMC3    H1 7999   2.405   4.728   1.298  0.7763  0.1573  0.1503
  535TMC3    H2 8000   1.980   0.039   1.289  1.7051  0.7084 -1.5150
  535TMC3    C7 8001   2.202   0.059   1.143  0.1386 -1.0850  0.2065
  535TMC3    C8 8002   1.946   4.708   1.534  0.4814 -0.6356  0.2422
  535TMC3    O1 8003   2.297   0.012   1.080 -0.3015 -1.0044 -0.0190
  535TMC3    O2 8004   1.860   4.686   1.455  0.5364  0.1356 -0.3934
  536MPD2     C 8005   1.832   3.135  15.836 -0.3567  0.8867  0.3245
  536MPD2    C1 8006   1.698   3.143  15.868 -0.1118  0.2814 -0.1761
  536MPD2    C2 8007   1.614   3.229  15.805 -0.4421  0.1096 -0.4609
  536MPD2    C3 8008   1.666   3.318  15.705 -0.4734  0.1232  0.6671
  536MPD2    C4 8009   1.787   3.292  15.655  0.1673 -0.1074  0.2032
  536MPD2    C5 8010   1.866   3.207  15.728 -0.4448 -0.1121  0.3034
  536MPD2     H 8011   1.514   3.234  15.846 -0.1265  1.7149  0.0988
  536MPD2    H1 8012   1.827   3.358  15.579  0.7005  2.9653  3.0964
  536MPD2    H2 8013   1.903   3.069  15.883 -0.3827  1.1929  0.7987
  536MPD2    H3 8014   1.973   3.209  15.709 -0.8178 -1.4866 -1.9327
  536MPD2     N 8015   1.588   3.417  15.643  0.1401 -0.3351 -0.1078
  536MPD2    H5 8016   1.628   3.458  15.559 -0.6030 -0.6261 -0.6004
  536MPD2    N1 8017   1.652   3.057  15.970  0.7667 -0.5853 -0.5815
  536MPD2    H7 8018   1.719   3.007  16.027  0.0272  0.5866  1.3094
  537TMC3    C1 8019   1.523   2.996  16.151 -0.1311  0.0157 -0.0360
  537TMC3    C2 8020   1.619   3.044  16.241 -0.2057  0.2265 -0.0012
  537TMC3    C3 8021   1.596   2.997  16.369  0.0134 -0.0750  0.1089
  537TMC3    C4 8022   1.405   2.930  16.185 -0.8504 -0.5800  0.8348
  537TMC3    C5 8023   1.389   2.898  16.321 -0.2035  0.3704 -0.5245
  537TMC3    C6 8024   1.495   2.918  16.411 -0.2570 -1.0836  1.1716
  537TMC3     C 8025   1.527   3.039  16.009 -0.3479 -0.1632 -0.2784
  537TMC3     O 8026   1.415   3.065  15.964  0.7855 -0.1052  0.0357
  537TMC3     H 8027   1.687   3.125  16.216 -1.3987  1.0617 -0.5192
  537TMC3    H1 8028   1.322   2.909  16.119 -0.4303 -0.7527  0.3626
  537TMC3    H2 8029   1.498   2.882  16.513  1.7056 -0.0687  1.4697
  537TMC3    C7 8030   1.282   2.815  16.360  0.2420 -0.3911 -0.4018
  537TMC3    C8 8031   1.674   3.063  16.474 -0.0334 -0.3405 -0.4024
  537TMC3    O1 8032   1.189   2.804  16.281 -0.6399  0.1095  0.4942
  537TMC3    O2 8033   1.647   3.030  16.591  0.0607  0.8569 -0.3213
  538TMC3    C1 8034   1.957   1.394  10.759  0.7457  0.1159  0.2668
  538TMC3    C2 8035   2.090   1.406  10.757 -0.1520  0.3691  0.0184
  538TMC3    C3 8036   2.138   1.481  10.656 -0.4557  0.1339 -0.2671
  538TMC3    C4 8037   1.875   1.451  10.664  0.5210  0.4615 -0.5330
  538TMC3    C5 8038   1.928   1.522  10.562  0.0732  0.1120  1.4674
  538TMC3    C6 8039   2.060   1.551  10.565 -0.4306  0.5812  0.3204
  538TMC3     C 8040   1.893   1.327  10.865  0.2572 -0.0261  0.2138
  538TMC3     O 8041   1.778   1.298  10.848  0.2337 -0.3214 -0.1993
  538TMC3     H 8042   2.160   1.349  10.818 -1.0092 -1.5774 -0.7969
  538TMC3    H1 8043   1.773   1.415  10.652 -0.2388  2.2953  0.4863
  538TMC3    H2 8044   2.109   1.599  10.481  0.3301 -0.0084  0.4291
  538TMC3    C7 8045   1.833   1.615  10.515  0.2007 -0.1621 -0.5774
  538TMC3    C8 8046   2.278   1.452  10.624  0.0479  0.0784  0.4901
  538TMC3    O1 8047   1.757   1.569  10.430  0.3172  0.0927 -0.0510
  538TMC3    O2 8048   2.323   1.341  10.654 -0.2478  0.3365  0.3942
  539MPD2     C 8049   1.613   0.859  11.603  0.3464 -0.4890  0.2630
  539MPD2    C1 8050   1.573   0.824  11.475  0.3250 -0.2319  0.8703
  539MPD2    C2 8051   1.530   0.929  11.391  0.2850 -0.2478  0.8688
  539MPD2    C3 8052   1.520   1.058  11.429  0.0138  0.1365 -0.9232
  539MPD2    C4 8053   1.567   1.089  11.558 -0.0053  0.2239  0.7420
  539MPD2    C5 8054   1.606   0.988  11.644  0.5046 -0.2667 -0.2325
  539MPD2     H 8055   1.483   0.905  11.297  1.3140 -1.3657  0.6335
  539MPD2    H1 8056   1.565   1.192  11.592 -0.9546  0.6711 -0.6859
  539MPD2    H2 8057   1.656   0.788  11.672 -1.3872 -1.1799  0.6386
  539MPD2    H3 8058   1.638   1.017  11.743  0.6865 -0.7165 -0.1600
  539MPD2     N 8059   1.453   1.164  11.352 -0.3420  0.7504  0.3920
  539MPD2    H5 8060   1.443   1.250  11.405  0.2503  1.0832 -0.0313
  539MPD2    N1 8061   1.564   0.693  11.426 -0.3268  0.2360  0.2507
  539MPD2    H7 8062   1.522   0.673  11.336  0.7775 -0.4603 -0.1081
  540TMC3    C1 8063   1.368   1.291  11.184  0.3796  0.6530  0.6250
  540TMC3    C2 8064   1.333   1.314  11.056 -0.1545  0.1423  0.1447
  540TMC3    C3 8065   1.311   1.449  11.017 -0.2189 -0.0326 -0.0272
  540TMC3    C4 8066   1.357   1.392  11.277 -0.1756  0.5768 -0.1420
  540TMC3    C5 8067   1.334   1.519  11.233  0.9719  0.0125 -0.0019
  540TMC3    C6 8068   1.321   1.562  11.105 -0.3882 -0.0547  0.2955
  540TMC3     C 8069   1.401   1.157  11.225  0.5861 -0.1522 -0.0525
  540TMC3     O 8070   1.419   1.068  11.142  0.1639 -0.3183  0.0396
  540TMC3     H 8071   1.312   1.229  10.992 -2.1433  1.6815 -1.2532
  540TMC3    H1 8072   1.327   1.379  11.381 -0.6302  0.2668 -0.3129
  540TMC3    H2 8073   1.302   1.662  11.068 -2.3249 -1.0294 -1.3652
  540TMC3    C7 8074   1.268   1.606  11.328 -0.1862 -0.9462 -0.4162
  540TMC3    C8 8075   1.330   1.481  10.877 -0.3440  0.6818 -0.1294
  540TMC3    O1 8076   1.213   1.570  11.433 -0.0483 -0.0375  0.4451
  540TMC3    O2 8077   1.357   1.599  10.854 -0.0041 -0.3318  0.2529
  541MPD2     C 8078   0.672   2.437  12.957 -0.0508 -0.4640 -0.7717
  541MPD2    C1 8079   0.552   2.504  12.970  0.0182  0.7265  0.2494
  541MPD2    C2 8080   0.493   2.560  12.859  0.0387 -0.2577  0.4342
  541MPD2    C3 8081   0.557   2.553  12.737 -0.4758 -0.5611  0.0575
  541MPD2    C4 8082   0.666   2.472  12.719 -0.5324 -0.1312 -0.2830
  541MPD2    C5 8083   0.727   2.429  12.831 -0.5873  0.1106  0.7835
  541MPD2     H 8084   0.403   2.620  12.871  0.7829  0.5531  2.0726
  541MPD2    H1 8085   0.721   2.461  12.626 -1.1496  1.1093 -0.7928
  541MPD2    H2 8086   0.723   2.397  13.044  1.0888  4.0148  0.5996
  541MPD2    H3 8087   0.819   2.372  12.824 -0.2804  0.5923  0.8711
  541MPD2     N 8088   0.495   2.609  12.619  0.5778  0.5077 -0.0485
  541MPD2    H5 8089   0.537   2.587  12.529 -0.2085 -0.2157 -0.2320
  541MPD2    N1 8090   0.487   2.496  13.094  0.3490 -0.2323  0.2932
  541MPD2    H7 8091   0.542   2.438  13.156 -0.5516  1.2376  2.4555
  542TMC3    C1 8092   0.334   2.729  12.481 -0.1837 -0.2119 -0.3931
  542TMC3    C2 8093   0.347   2.630  12.382 -0.1937  0.3716 -0.2031
  542TMC3    C3 8094   0.310   2.671  12.253  0.3932 -0.0034  0.0779
  542TMC3    C4 8095   0.276   2.849  12.454 -0.1431  0.3828 -0.4147
  542TMC3    C5 8096   0.231   2.874  12.328  0.0170 -0.1953 -0.2163
  542TMC3    C6 8097   0.257   2.792  12.224 -0.2992 -0.1182  0.1908
  542TMC3     C 8098   0.388   2.699  12.615 -0.1663 -0.1919  0.0313
  542TMC3     O 8099   0.345   2.768  12.707 -0.2478  0.0216 -0.4104
  542TMC3     H 8100   0.405   2.538  12.393 -0.4202 -0.1411 -3.4180
  542TMC3    H1 8101   0.251   2.922  12.531 -1.4923 -0.4069 -0.1016
  542TMC3    H2 8102   0.234   2.803  12.119  0.1121  2.3767  0.3658
  542TMC3    C7 8103   0.181   3.011  12.297 -0.1356 -0.4435 -0.1433
  542TMC3    C8 8104   0.317   2.562  12.155  0.1902  0.1455  0.6650
  542TMC3    O1 8105   0.213   3.105  12.373 -0.0306  0.0279  0.2103
  542TMC3    O2 8106   0.327   2.586  12.036  0.2839 -0.7993  0.2048
  543TMC3    C1 8107   0.077   4.176  17.018  0.6093  0.2436  0.3538
  543TMC3    C2 8108   0.124   4.072  17.095  0.6839 -0.3842 -0.1016
  543TMC3    C3 8109   0.070   4.056  17.217  0.4671  0.3983 -0.1056
  543TMC3    C4 8110   4.707   4.255  17.058  0.0257 -0.2193 -0.2973
  543TMC3    C5 8111   4.658   4.227  17.180 -0.1301 -0.4268 -0.6896
  543TMC3    C6 8112   4.704   4.132  17.266  0.3237  0.6726  0.4289
  543TMC3     C 8113   0.136   4.185  16.884 -0.6079 -0.0690  0.2116
  543TMC3     O 8114   0.236   4.114  16.870  0.4640  0.3191 -0.0607
  543TMC3     H 8115   0.202   4.010  17.053  1.6559  1.2581 -0.7379
  543TMC3    H1 8116   4.658   4.324  16.990  0.3623  0.7148  0.4063
  543TMC3    H2 8117   4.653   4.107  17.358 -0.2099  1.5150  0.3583
  543TMC3    C7 8118   4.512   4.254  17.204  0.0968 -0.3604  0.6391
  543TMC3    C8 8119   0.120   3.934  17.287 -0.6298  0.0041 -0.4056
  543TMC3    O1 8120   4.456   4.200  17.300  0.4986  0.2403  0.6349
  543TMC3    O2 8121   0.178   3.859  17.211  0.1160 -0.0339 -0.1202
  544MPD2     C 8122   0.235   3.642  17.707 -0.1124 -0.0319 -0.1506
  544MPD2    C1 8123   0.268   3.624  17.575  0.0203  0.7617 -0.1707
  544MPD2    C2 8124   0.225   3.716  17.482 -0.1886  0.2874 -0.1565
  544MPD2    C3 8125   0.149   3.831  17.512  0.4801 -0.8555 -0.2999
  544MPD2    C4 8126   0.117   3.841  17.645 -0.2241  0.2201  0.5862
  544MPD2    C5 8127   0.161   3.751   0.004 -0.1742 -0.3024  0.3808
  544MPD2     H 8128   0.254   3.704  17.378 -2.4171  0.6928 -0.8211
  544MPD2    H1 8129   0.062   3.927  17.680 -0.6583  0.5542 -0.9577
  544MPD2    H2 8130   0.270   3.571   0.043  1.4940 -0.4727 -1.3492
  544MPD2    H3 8131   0.140   3.764   0.110 -0.7115 -1.8187  0.4523
  544MPD2     N 8132   0.114   3.935  17.424 -0.5287  0.2433 -0.2112
  544MPD2    H5 8133   0.084   4.022  17.467  1.9631 -0.4127  2.8505
  544MPD2    N1 8134   0.334   3.505  17.542 -0.1787  0.9275 -0.3943
  544MPD2    H7 8135   0.349   3.443  17.621 -1.6056 -1.5072 -2.0391
  545TMC3    C1 8136   0.478   3.355  17.434 -0.5745 -0.5986  0.8413
  545TMC3    C2 8137   0.529   3.319  17.555  0.0031 -0.0942  0.1149
  545TMC3    C3 8138   0.583   3.193  17.566 -0.3576 -0.1504  0.1358
  545TMC3    C4 8139   0.486   3.284  17.323  0.0839  0.0597  0.0683
  545TMC3    C5 8140   0.533   3.160  17.340 -0.0566  0.6786 -0.2349
  545TMC3    C6 8141   0.572   3.109  17.459 -0.4562 -0.3763 -0.1616
  545TMC3     C 8142   0.392   3.470  17.421  0.9060  0.3965  0.8025
  545TMC3     O 8143   0.379   3.520  17.310 -0.2687  0.3356  0.3767
  545TMC3     H 8144   0.534   3.381  17.644  0.9453  0.0406 -0.0283
  545TMC3    H1 8145   0.436   3.307  17.230 -1.2899  0.4778  0.8953
  545TMC3    H2 8146   0.630   3.017  17.465  0.5509  0.2011 -1.0306
  545TMC3    C7 8147   0.498   3.063  17.239 -0.3153  0.3449 -0.3270
  545TMC3    C8 8148   0.625   3.156  17.698  0.4646  0.2455 -0.1879
  545TMC3    O1 8149   0.503   3.097  17.121 -0.9645  0.0756 -0.3698
  545TMC3    O2 8150   0.657   3.241   0.038  0.1617  0.8408 -0.0117
  546MPD2     C 8151   1.374   3.858  17.453  1.2075  0.3520  0.2013
  546MPD2    C1 8152   1.318   3.897  17.337 -0.0594  0.0059  0.4389
  546MPD2    C2 8153   1.310   4.034  17.308  0.5223 -0.1636  0.3368
  546MPD2    C3 8154   1.357   4.128  17.398  0.4178  0.5073 -0.0705
  546MPD2    C4 8155   1.401   4.086  17.517 -0.1872 -0.2416  0.0683
  546MPD2    C5 8156   1.417   3.951  17.548  0.0381 -0.5920 -0.4117
  546MPD2     H 8157   1.272   4.068  17.212  1.2081 -1.6614 -0.4656
  546MPD2    H1 8158   1.444   4.163  17.580  0.3451 -1.8355  1.6493
  546MPD2    H2 8159   1.395   3.754  17.477 -0.8863  0.5547  2.9781
  546MPD2    H3 8160   1.454   3.915  17.643  0.5435  0.6340 -0.1358
  546MPD2     N 8161   1.373   4.270  17.372  0.0538  0.2846 -0.3052
  546MPD2    H5 8162   1.399   4.336  17.444  0.5066 -1.5422  1.2069
  546MPD2    N1 8163   1.266   3.794  17.260  0.4380  0.0516 -0.0472
  546MPD2    H7 8164   1.264   3.706  17.310 -1.4031 -0.9540 -1.8284
  547TMC3    C1 8165   1.185   3.672  17.090 -0.6119  0.2747 -0.3226
  547TMC3    C2 8166   1.106   3.666  16.979  0.3607  0.2084  0.6838
  547TMC3    C3 8167   1.068   3.552  16.931  0.0801  0.3115 -0.6811
  547TMC3    C4 8168   1.245   3.558  17.138  0.0851  0.4386 -0.3006
  547TMC3    C5 8169   1.197   3.436  17.090 -0.6757  0.2026  0.1070
  547TMC3    C6 8170   1.112   3.430  16.983 -0.3889 -0.3391  0.5560
  547TMC3     C 8171   1.199   3.804  17.144 -0.7456 -0.2302  0.4980
  547TMC3     O 8172   1.164   3.898  17.076  0.1320 -0.0142 -0.0525
  547TMC3     H 8173   1.066   3.755  16.932 -0.8741 -0.7393 -0.0811
  547TMC3    H1 8174   1.307   3.552  17.227  0.0414  0.0280 -0.2981
  547TMC3    H2 8175   1.075   3.336  16.944 -0.1444 -0.3795  0.4200
  547TMC3    C7 8176   1.189   3.328  17.187  0.3643 -0.3725  0.0245
  547TMC3    C8 8177   0.992   3.551  16.806 -0.2339 -0.2800 -0.1474
  547TMC3    O1 8178   1.180   3.357  17.305 -0.9404  0.0716 -0.5407
  547TMC3    O2 8179   1.005   3.647  16.735 -0.0070  0.0731  0.4011
  548MPD2     C 8180   1.043   4.431  12.414  0.2047 -0.0895 -0.5857
  548MPD2    C1 8181   0.988   4.319  12.365 -0.2732 -0.0876  0.1443
  548MPD2    C2 8182   1.061   4.218  12.313 -0.6694 -0.0309 -0.3805
  548MPD2    C3 8183   1.197   4.241  12.289 -0.7445 -0.9817 -0.1563
  548MPD2    C4 8184   1.256   4.361  12.324  0.2749 -0.3942  0.9965
  548MPD2    C5 8185   1.179   4.455  12.392  0.0762  0.2403 -0.2181
  548MPD2     H 8186   1.028   4.121  12.277  0.6173 -0.5488 -0.1528
  548MPD2    H1 8187   1.353   4.395  12.288 -0.1346  2.4295  2.4894
  548MPD2    H2 8188   0.969   4.504  12.444  1.5348  1.1461 -0.2676
  548MPD2    H3 8189   1.216   4.555  12.410 -0.8901  0.6533 -0.5050
  548MPD2     N 8190   1.264   4.133  12.234 -1.0822 -0.1100 -0.4012
  548MPD2    H5 8191   1.212   4.052  12.202 -0.7666 -0.0393 -1.0951
  548MPD2    N1 8192   0.846   4.316  12.376 -0.5385  0.1283  0.0219
  548MPD2    H7 8193   0.807   4.401  12.415  0.1211 -0.0679  1.1127
  549TMC3    C1 8194   0.626   4.216  12.375  0.8905  0.2057 -0.2179
  549TMC3    C2 8195   0.583   4.343  12.352  0.5874 -0.4574 -0.1522
  549TMC3    C3 8196   0.449   4.364  12.367  0.3520  0.2431  0.0719
  549TMC3    C4 8197   0.551   4.112  12.408  0.0636  0.0512 -0.0387
  549TMC3    C5 8198   0.418   4.134  12.415  0.1336  0.2965  0.2460
  549TMC3    C6 8199   0.370   4.256  12.402 -0.1403  0.3086 -0.2989
  549TMC3     C 8200   0.770   4.204  12.355 -0.3769  0.2947  0.2952
  549TMC3     O 8201   0.811   4.097  12.305 -0.1519 -0.2355  0.0105
  549TMC3     H 8202   0.635   4.403  12.278  0.2566  0.2229  0.1587
  549TMC3    H1 8203   0.590   4.015  12.437  0.0871  0.1879  0.3812
  549TMC3    H2 8204   0.263   4.266  12.392 -0.0947  1.8426  0.6903
  549TMC3    C7 8205   0.318   4.025  12.454  0.2618  0.1716 -0.4458
  549TMC3    C8 8206   0.390   4.494  12.326  0.3071 -0.3797 -0.7812
  549TMC3    O1 8207   0.198   4.049  12.456 -0.6318 -0.4416  0.5933
  549TMC3    O2 8208   0.272   4.502  12.291  0.0469 -0.0183  0.6016
  550TMC3    C1 8209   4.450   2.260  12.281  1.0133  0.2034 -0.1419
  550TMC3    C2 8210   4.439   2.307  12.410  0.0055 -0.3186 -0.4063
  550TMC3    C3 8211   4.485   2.437  12.432 -0.3567  0.1611  0.0712
  550TMC3    C4 8212   4.477   2.340  12.178 -0.0513  0.0636 -0.1781
  550TMC3    C5 8213   4.497   2.472  12.199  1.2883  0.4730 -0.2915
  550TMC3    C6 8214   4.509   2.522  12.323 -0.2058 -1.0795  0.1312
  550TMC3     C 8215   4.368   2.145  12.245 -0.4936  0.0017 -0.0980
  550TMC3     O 8216   4.344   2.069  12.339 -0.1891  0.0552 -0.1497
  550TMC3     H 8217   4.428   2.249  12.501 -1.8914  0.3369 -0.2293
  550TMC3    H1 8218   4.497   2.305  12.078  1.1171  1.4822 -0.4341
  550TMC3    H2 8219   4.511   2.627  12.346 -1.2144 -0.6086 -1.9313
  550TMC3    C7 8220   4.403   2.541  12.125 -0.3434 -0.2603  0.7389
  550TMC3    C8 8221   4.463   2.503  12.561  0.0350 -0.3544 -0.4674
  550TMC3    O1 8222   4.303   2.474  12.102 -0.0214  0.0848  0.2925
  550TMC3    O2 8223   4.507   2.612  12.583 -0.2102 -0.4038  0.0032
  551TMC3    C1 8224   2.164   0.203  13.290 -0.2314 -0.5445  0.8815
  551TMC3    C2 8225   2.289   0.194  13.241 -1.5285  0.0528 -0.3032
  551TMC3    C3 8226   2.379   0.300  13.255  0.7688 -0.4995  0.4284
  551TMC3    C4 8227   2.123   0.318  13.368 -0.3846 -0.4165 -0.1082
  551TMC3    C5 8228   2.220   0.418  13.381  0.6418  0.1069  0.3494
  551TMC3    C6 8229   2.347   0.408  13.329 -0.2529 -0.0857 -0.7783
  551TMC3     C 8230   2.074   0.166  13.185 -0.2825 -0.0689 -0.1346
  551TMC3     O 8231   2.122   0.138  13.077 -0.2083 -0.6836 -0.3501
  551TMC3     H 8232   2.314   0.101  13.191  0.9273 -0.4310  1.8283
  551TMC3    H1 8233   2.026   0.317  13.415 -0.1630  0.4383  0.3533
  551TMC3    H2 8234   2.418   0.490  13.335  0.7745 -1.1381  1.5089
  551TMC3    C7 8235   2.203   0.505  13.492  0.1385 -0.2156  0.3475
  551TMC3    C8 8236   2.447   0.329  13.132  0.0945 -0.5747  0.3903
  551TMC3    O1 8237   2.127   0.466  13.583  0.0016 -0.2463 -0.2527
  551TMC3    O2 8238   2.485   0.240  13.062 -0.0308  0.1238 -0.1228
  552MPD2     C 8239   4.315   2.510  14.075  0.6380 -0.9214  0.0697
  552MPD2    C1 8240   4.282   2.411  14.159 -0.2078  0.3816 -0.3945
  552MPD2    C2 8241   4.363   2.377  14.270  0.2470 -0.0825  0.4028
  552MPD2    C3 8242   4.477   2.457  14.296 -0.1486 -0.1811 -0.1164
  552MPD2    C4 8243   4.509   2.560  14.206 -0.0401 -0.5070 -0.4244
  552MPD2    C5 8244   4.429   2.584  14.094 -0.3440  0.2229  0.0636
  552MPD2     H 8245   4.332   2.289  14.324 -0.2600 -1.4380 -2.1028
  552MPD2    H1 8246   4.593   2.627  14.220  0.0696 -0.1423 -2.8588
  552MPD2    H2 8247   4.263   2.533  13.983 -0.4788  1.6521  1.3265
  552MPD2    H3 8248   4.463   2.652  14.017  0.2408  0.7921  0.8159
  552MPD2     N 8249   4.578   2.424  14.387 -0.0734  0.4589  0.2814
  552MPD2    H5 8250   4.666   2.475  14.385 -0.3701  0.9058 -1.3926
  552MPD2    N1 8251   4.167   2.329  14.138  0.3014 -0.3122 -0.2260
  552MPD2    H7 8252   4.165   2.239  14.185 -2.6579 -1.0749 -1.8283
  553TMC3    C1 8253   3.964   2.247  14.046  0.0255 -0.1363  0.0539
  553TMC3    C2 8254   3.925   2.220  13.919 -0.5339 -0.0190 -0.1464
  553TMC3    C3 8255   3.918   2.087  13.877  0.0841  0.2870  0.3733
  553TMC3    C4 8256   3.985   2.142  14.136 -0.4036 -0.3567  0.1441
  553TMC3    C5 8257   4.005   2.014  14.086  0.2150  0.4233 -0.1301
  553TMC3    C6 8258   3.961   1.984  13.956  0.4863 -0.3752  0.1090
  553TMC3     C 8259   4.058   2.358  14.058  0.2546 -0.5859  0.2465
  553TMC3     O 8260   4.034   2.452  13.986 -0.0765  0.0239 -0.4393
  553TMC3     H 8261   3.918   2.301  13.846  2.1023  0.1670 -0.1973
  553TMC3    H1 8262   4.005   2.168  14.240 -0.7346  0.4514  0.0048
  553TMC3    H2 8263   3.968   1.886  13.912 -0.3923  0.5562 -2.1017
  553TMC3    C7 8264   4.124   1.962  14.132 -0.7511 -0.6736  0.0452
  553TMC3    C8 8265   3.933   2.058  13.735 -0.0090  0.0598 -0.8126
  553TMC3    O1 8266   4.198   2.018  14.207  0.6256 -0.5489  0.3638
  553TMC3    O2 8267   4.007   2.130  13.669 -0.2830  0.1648 -0.1840
  554TMC3    C1 8268   0.460   0.970  11.210 -0.4276 -0.1431  0.2889
  554TMC3    C2 8269   0.394   0.923  11.100 -0.2219  0.2358  0.9142
  554TMC3    C3 8270   0.379   1.005  10.997 -0.3684  0.0710  0.4316
  554TMC3    C4 8271   0.516   1.093  11.220 -0.0509 -0.7136 -0.3049
  554TMC3    C5 8272   0.494   1.175  11.107 -0.4412 -0.1741 -0.6370
  554TMC3    C6 8273   0.424   1.131  11.000  0.2032 -0.5192 -0.1669
  554TMC3     C 8274   0.494   0.867  11.299 -0.2396 -0.0986  0.0943
  554TMC3     O 8275   0.428   0.765  11.282  0.3492 -0.5142 -0.3530
  554TMC3     H 8276   0.352   0.824  11.093 -2.2209  1.0974  0.6646
  554TMC3    H1 8277   0.586   1.125  11.296 -1.1614  0.0526  0.3889
  554TMC3    H2 8278   0.407   1.199  10.917 -0.9898 -0.6438 -0.0230
  554TMC3    C7 8279   0.590   1.277  11.065 -0.0784  0.1550 -0.0455
  554TMC3    C8 8280   0.378   0.942  10.866 -0.1784 -0.3362 -0.0766
  554TMC3    O1 8281   0.627   1.274  10.949 -0.4872 -0.1925  0.4039
  554TMC3    O2 8282   0.451   1.001  10.787  0.3243  0.0142 -0.2873
  555TMC3    C1 8283   0.357   1.140  14.964  0.2579 -0.5924 -0.2557
  555TMC3    C2 8284   0.371   1.205  15.080 -0.1133 -0.0188  0.6804
  555TMC3    C3 8285   0.412   1.135  15.194  0.4270 -0.3344 -0.2763
  555TMC3    C4 8286   0.382   1.009  14.951  0.4649 -1.3584  0.5977
  555TMC3    C5 8287   0.404   0.934  15.063 -0.3568 -0.5450  0.3031
  555TMC3    C6 8288   0.420   0.998  15.187 -0.2862 -0.3707 -0.1196
  555TMC3     C 8289   0.312   1.207  14.841  0.1191 -0.7444 -0.1716
  555TMC3     O 8290   0.256   1.131  14.762 -0.4638 -0.3514 -0.5094
  555TMC3     H 8291   0.350   1.311  15.092  1.4933  0.4204 -0.3756
  555TMC3    H1 8292   0.362   0.962  14.856  0.1063 -2.0402  1.0102
  555TMC3    H2 8293   0.439   0.936  15.273 -0.4661 -1.5380 -0.9240
  555TMC3    C7 8294   0.352   0.804  15.069 -0.1619  0.3864  0.6541
  555TMC3    C8 8295   0.398   1.205  15.322 -0.0393  0.1320 -0.3562
  555TMC3    O1 8296   0.345   0.760  15.183  0.2729  0.2440 -0.2060
  555TMC3    O2 8297   0.349   1.317  15.319 -0.5878 -0.0216 -0.4358
  556MPD2     C 8298   2.371   2.650  10.626  0.4857 -0.2354  0.0875
  556MPD2    C1 8299   2.475   2.572  10.677  0.0872 -0.1279  0.4492
  556MPD2    C2 8300   2.524   2.485  10.584 -0.4786  0.2366 -0.2110
  556MPD2    C3 8301   2.482   2.471  10.449 -0.0401  0.2021  0.0359
  556MPD2    C4 8302   2.388   2.562  10.404  0.5172  0.0505 -0.9149
  556MPD2    C5 8303   2.336   2.651  10.496 -0.2678 -0.4810 -0.4293
  556MPD2     H 8304   2.600   2.415  10.616  0.2746  1.5053  0.7730
  556MPD2    H1 8305   2.351   2.564  10.302  2.0736 -1.9485 -1.5114
  556MPD2    H2 8306   2.313   2.718  10.687  0.3161 -0.8248  0.5797
  556MPD2    H3 8307   2.256   2.720  10.471 -1.3128 -1.4741  0.2181
  556MPD2     N 8308   2.548   2.375  10.368 -0.1888  0.4824  0.3118
  556MPD2    H5 8309   2.619   2.326  10.422  0.4563 -0.4564 -1.4128
  556MPD2    N1 8310   2.525   2.566  10.809 -0.5366  0.5034  0.2877
  556MPD2    H7 8311   2.603   2.504  10.828 -0.9002 -0.1170 -0.2251
  557TMC3    C1 8312   2.624   2.249  10.192  0.1910 -0.0228  0.0076
  557TMC3    C2 8313   2.645   2.228  10.060  0.4913 -0.5585  0.0896
  557TMC3    C3 8314   2.696   2.102  10.020  0.4217  0.2637  0.6840
  557TMC3    C4 8315   2.657   2.149  10.284 -0.0632  0.6531 -0.4208
  557TMC3    C5 8316   2.691   2.020  10.241 -0.0435  0.9240 -0.7044
  557TMC3    C6 8317   2.724   2.000  10.111  0.4026 -0.3043 -0.0118
  557TMC3     C 8318   2.543   2.361  10.233  0.2307  0.3241  0.1316
  557TMC3     O 8319   2.507   2.442  10.144 -0.4056 -0.3541  0.0080
  557TMC3     H 8320   2.617   2.301   9.984  0.5941 -0.2060  0.3931
  557TMC3    H1 8321   2.635   2.156  10.390 -3.5809 -0.1904 -1.1013
  557TMC3    H2 8322   2.742   1.900  10.074 -0.3920 -0.1191 -0.8976
  557TMC3    C7 8323   2.651   1.915  10.330  0.2888 -0.0863  0.1851
  557TMC3    C8 8324   2.658   2.059   9.882  0.0279  0.2268 -0.0876
  557TMC3    O1 8325   2.585   1.948  10.430  0.1596 -0.2016  0.2423
  557TMC3    O2 8326   2.564   2.123   9.827  0.1898  0.5916 -0.2572
  558TMC3    C1 8327   0.388   4.302   9.744 -0.2709 -0.1439 -0.9112
  558TMC3    C2 8328   0.289   4.248   9.823 -0.0492  0.0528  0.9866
  558TMC3    C3 8329   0.193   4.184   9.749 -0.1069 -0.9330 -0.3473
  558TMC3    C4 8330   0.380   4.299   9.607  0.4965  0.1931  0.9287
  558TMC3    C5 8331   0.283   4.229   9.542 -0.4632  0.1039 -0.6009
  558TMC3    C6 8332   0.191   4.156   9.611 -0.8861  0.7394 -0.6062
  558TMC3     C 8333   0.496   4.383   9.800 -0.6022 -0.2009 -0.4898
  558TMC3     O 8334   0.574   4.432   9.718  0.0835 -0.3846  0.3008
  558TMC3     H 8335   0.271   4.268   9.928 -0.9178  0.5027  0.7525
  558TMC3    H1 8336   0.453   4.345   9.541  1.4228 -3.3250 -0.5261
  558TMC3    H2 8337   0.108   4.107   9.562 -0.0807  0.5363 -1.7626
  558TMC3    C7 8338   0.261   4.267   9.406  0.3407  0.5181  0.2500
  558TMC3    C8 8339   0.069   4.144   9.820  0.1948 -0.2748  0.3806
  558TMC3    O1 8340   0.355   4.322   9.344 -0.2421 -0.1102  0.1184
  558TMC3    O2 8341   4.727   4.081   9.755  0.5614  0.4545  0.1202
  559MPD2     C 8342   0.632   0.435   9.936  1.1665  0.6621  0.4566
  559MPD2    C1 8343   0.560   0.330   9.997  0.0009 -0.4534  0.4834
  559MPD2    C2 8344   0.625   0.262  10.102 -0.8787 -0.1876 -0.1305
  559MPD2    C3 8345   0.742   0.310  10.160  0.4220 -0.3084 -0.4295
  559MPD2    C4 8346   0.801   0.419  10.101 -0.0669 -0.0301  0.3268
  559MPD2    C5 8347   0.755   0.479   9.981  0.3829  0.3349 -0.0157
  559MPD2     H 8348   0.567   0.184  10.149 -1.0924  0.9045  1.4273
  559MPD2    H1 8349   0.891   0.463  10.143 -1.3064  2.3282  0.5323
  559MPD2    H2 8350   0.582   0.487   9.855  2.8468 -1.9810 -2.2673
  559MPD2    H3 8351   0.812   0.551   9.923  0.9754 -1.8123 -2.1215
  559MPD2     N 8352   0.782   0.255  10.286  0.5110  0.1721  0.0979
  559MPD2    H5 8353   0.729   0.178  10.325  1.4900  0.2254  1.4995
  559MPD2    N1 8354   0.427   0.315   9.961 -0.6491  0.4550 -0.2151
  559MPD2    H7 8355   0.397   0.371   9.882 -1.7428 -0.3199 -0.3540
  560TMC3    C1 8356   0.866   0.229  10.497  0.1184 -0.5336  0.4764
  560TMC3    C2 8357   0.766   0.138  10.513 -0.1402 -1.2399  0.9646
  560TMC3    C3 8358   0.716   0.120  10.635 -0.3318  0.6512 -0.1198
  560TMC3    C4 8359   0.921   0.296  10.605  0.4972 -0.3256  0.4421
  560TMC3    C5 8360   0.875   0.266  10.732  0.5516  0.0884 -0.0195
  560TMC3    C6 8361   0.774   0.178  10.748  0.1903  0.1276  0.6548
  560TMC3     C 8362   0.884   0.295  10.372  0.2931  0.0547  0.4613
  560TMC3     O 8363   0.964   0.388  10.359 -0.0361 -0.1957  0.1592
  560TMC3     H 8364   0.729   0.083  10.427 -1.5567  0.8590  0.2356
  560TMC3    H1 8365   0.995   0.374  10.590  0.2073  0.3273  2.4431
  560TMC3    H2 8366   0.717   0.176  10.841  1.1906  0.8320  1.2776
  560TMC3    C7 8367   0.925   0.331  10.853 -0.1394  0.0070  0.2407
  560TMC3    C8 8368   0.569   0.105  10.650 -0.5710 -0.5238 -0.1312
  560TMC3    O1 8369   0.892   0.284  10.961  0.1041 -0.0202  0.2642
  560TMC3    O2 8370   0.524   0.038  10.741  0.1145 -0.0969  0.0554
  561TMC3    C1 8371   3.294   4.265  11.164 -1.0353  0.8683 -0.3351
  561TMC3    C2 8372   3.238   4.246  11.284  0.3516  0.1222  0.0685
  561TMC3    C3 8373   3.233   4.345  11.371 -0.2899  0.3188  0.6567
  561TMC3    C4 8374   3.337   4.390  11.132  0.0154 -0.4271  0.4734
  561TMC3    C5 8375   3.318   4.495  11.219  0.9686 -0.1647 -0.1801
  561TMC3    C6 8376   3.263   4.469  11.342  0.3102  0.4438 -0.2085
  561TMC3     C 8377   3.305   4.154  11.071 -0.3152 -0.1550  1.0339
  561TMC3     O 8378   3.284   4.046  11.117 -0.1916 -0.0288 -0.1890
  561TMC3     H 8379   3.212   4.146  11.314 -2.0396  0.8957  0.5709
  561TMC3    H1 8380   3.383   4.401  11.035 -1.9949  1.2829 -0.2864
  561TMC3    H2 8381   3.249   4.551  11.412  3.7661  0.0942  0.9158
  561TMC3    C7 8382   3.397   4.618  11.205 -0.4847 -0.1974 -0.5189
  561TMC3    C8 8383   3.144   4.326  11.486  0.3378  1.0283 -0.0256
  561TMC3    O1 8384   3.386   4.694  11.296  0.2800  1.4102  0.2570
  561TMC3    O2 8385   3.130   4.216  11.535  0.3095 -0.0653 -0.1728
  562TMC3    C1 8386   0.073   0.842  16.346  0.1173 -0.1752  0.3130
  562TMC3    C2 8387   0.047   0.979  16.351 -0.6913  0.0968  0.6248
  562TMC3    C3 8388   4.733   1.037  16.240 -0.0935  0.0367  0.4117
  562TMC3    C4 8389   0.069   0.781  16.226 -0.9454 -0.5241  0.1728
  562TMC3    C5 8390   0.023   0.848  16.114  0.5129  0.3721 -0.1731
  562TMC3    C6 8391   4.720   0.975  16.119 -0.3900  0.0491  0.7457
  562TMC3     C 8392   0.114   0.778  16.472 -0.7755 -0.0530  0.4056
  562TMC3     O 8393   0.139   0.850  16.569  0.0826  1.1579  0.0719
  562TMC3     H 8394   0.062   1.034  16.443 -0.4175  1.1844 -0.0748
  562TMC3    H1 8395   0.117   0.684  16.226  0.0841 -0.0037 -2.0381
  562TMC3    H2 8396   4.695   1.032  16.030  1.0772 -0.4609  0.0062
  562TMC3    C7 8397   0.030   0.785  15.981 -0.3294  0.6512 -0.3695
  562TMC3    C8 8398   4.668   1.160  16.271 -0.2514  0.6475  0.5673
  562TMC3    O1 8399   4.713   0.848  15.892  0.0631 -0.1528  0.1851
  562TMC3    O2 8400   4.629   1.178  16.384  0.4629  0.3365 -0.1194
  563MPD2     C 8401   3.131   2.454  15.236  0.1391 -0.0594  0.0235
  563MPD2    C1 8402   3.115   2.426  15.369  0.1892 -0.2916 -0.2163
  563MPD2    C2 8403   3.226   2.438  15.453  0.2121  0.4835  0.0922
  563MPD2    C3 8404   3.337   2.504  15.411 -0.3464  0.4046  0.2660
  563MPD2    C4 8405   3.344   2.556  15.285  0.1725 -0.1900 -0.2340
  563MPD2    C5 8406   3.241   2.524  15.194  0.1305 -0.7016  0.0525
  563MPD2     H 8407   3.220   2.395  15.552 -0.1642 -0.3142 -0.2775
  563MPD2    H1 8408   3.439   2.595  15.248 -0.3348  1.2191 -0.0764
  563MPD2    H2 8409   3.053   2.430  15.164  0.1493  0.6438 -0.2241
  563MPD2    H3 8410   3.253   2.538  15.087 -0.4978 -0.4004  0.0221
  563MPD2     N 8411   3.424   2.538  15.522  0.2473 -0.0044 -0.1140
  563MPD2    H5 8412   3.407   2.500  15.614 -0.7292 -0.5727 -0.5271
  563MPD2    N1 8413   2.991   2.378  15.421  0.2171  0.8870 -0.0426
  563MPD2    H7 8414   2.985   2.362  15.521 -1.5829 -0.4364 -0.3587
  564TMC3    C1 8415   2.763   2.342  15.445  0.2101 -0.0892  0.2677
  564TMC3    C2 8416   2.682   2.231  15.440  0.1199 -0.6129 -0.3348
  564TMC3    C3 8417   2.595   2.200  15.546  0.9638  0.5504 -0.0668
  564TMC3    C4 8418   2.763   2.414  15.561 -0.3328 -0.4817  0.2909
  564TMC3    C5 8419   2.675   2.388  15.665 -0.2211 -0.3428 -1.1617
  564TMC3    C6 8420   2.589   2.281  15.655  0.0827  0.9404  0.1941
  564TMC3     C 8421   2.872   2.366  15.350  0.6181 -0.1402  0.3204
  564TMC3     O 8422   2.842   2.354  15.229 -0.2755  0.2574 -0.2404
  564TMC3     H 8423   2.689   2.170  15.350  1.3638 -1.0046  0.0212
  564TMC3    H1 8424   2.829   2.501  15.561 -0.3118 -0.4695 -2.7803
  564TMC3    H2 8425   2.520   2.259  15.736 -0.4268  0.5915 -0.3324
  564TMC3    C7 8426   2.722   2.437  15.798  0.5354  0.3792 -0.6554
  564TMC3    C8 8427   2.546   2.066  15.565 -0.1319 -0.5742 -0.2704
  564TMC3    O1 8428   2.797   2.535  15.805  0.3013 -0.7418  0.5026
  564TMC3    O2 8429   2.508   2.033  15.675  0.3831 -0.3034 -0.0220
  565TMC3    C1 8430   2.491   3.849  10.090 -0.3349 -0.0622  0.1192
  565TMC3    C2 8431   2.411   3.863  10.197  0.5313 -0.1994  0.0069
  565TMC3    C3 8432   2.345   3.753  10.232 -0.0253 -0.0394  0.3723
  565TMC3    C4 8433   2.505   3.734  10.013  0.3204 -0.5818  0.5944
  565TMC3    C5 8434   2.419   3.631  10.041 -0.3029  0.3083  0.4161
  565TMC3    C6 8435   2.333   3.642  10.152  0.0511  0.1669 -0.8709
  565TMC3     C 8436   2.576   3.966  10.056 -0.2209 -0.3182 -0.0518
  565TMC3     O 8437   2.661   3.958   9.967  0.2043  0.1216 -0.1001
  565TMC3     H 8438   2.372   3.954  10.240  0.3656  0.0195 -0.6004
  565TMC3    H1 8439   2.574   3.723   9.930  0.1928  3.0715  0.0085
  565TMC3    H2 8440   2.286   3.554  10.195 -0.2449  0.1327 -1.2586
  565TMC3    C7 8441   2.462   3.503   9.991 -0.2395  0.8411  0.0453
  565TMC3    C8 8442   2.255   3.770  10.346 -0.9759 -0.2843  0.7014
  565TMC3    O1 8443   2.548   3.509   9.913  0.2505 -0.3121  0.3779
  565TMC3    O2 8444   2.301   3.832  10.444 -0.0565 -0.2461  0.6262
  566MPD2     C 8445   4.232   0.749  14.211  0.1223  0.0417 -0.5245
  566MPD2    C1 8446   4.261   0.674  14.100  0.6215 -0.0693 -0.4393
  566MPD2    C2 8447   4.157   0.608  14.042 -0.5686  0.2323  0.0825
  566MPD2    C3 8448   4.031   0.609  14.094 -0.2348 -0.2685  0.1008
  566MPD2    C4 8449   4.012   0.680  14.208  0.1491  0.7847  0.3348
  566MPD2    C5 8450   4.109   0.748  14.266  0.4060 -1.0226  0.1787
  566MPD2     H 8451   4.177   0.534  13.966 -0.2943  1.9318 -1.4871
  566MPD2    H1 8452   3.918   0.681  14.261 -0.8556 -1.0389 -1.4182
  566MPD2    H2 8453   4.315   0.804  14.255  1.2444 -0.5681 -1.8788
  566MPD2    H3 8454   4.100   0.808  14.356  1.3183  1.5379 -1.4353
  566MPD2     N 8455   3.926   0.535  14.038  0.1540 -0.3393 -0.7532
  566MPD2    H5 8456   3.845   0.522  14.098  0.8933  0.0227  0.3337
  566MPD2    N1 8457   4.384   0.681  14.041 -0.2930 -0.2406  0.3705
  566MPD2    H7 8458   4.459   0.725  14.094  0.9512  2.4150 -3.5944
  567TMC3    C1 8459   4.565   0.642  13.897 -0.6149 -0.3354 -0.4085
  567TMC3    C2 8460   4.621   0.578  13.796 -0.2598  0.1668 -0.1311
  567TMC3    C3 8461   0.020   0.587  13.778  0.1989  0.1324  0.4772
  567TMC3    C4 8462   4.634   0.734  13.976 -0.3176 -0.1210 -0.0596
  567TMC3    C5 8463   0.033   0.753  13.942 -0.1748  0.9862 -0.4163
  567TMC3    C6 8464   0.103   0.672  13.853  0.1356 -0.3691  0.3860
  567TMC3     C 8465   4.421   0.628  13.921 -0.3254 -0.0046 -0.5913
  567TMC3     O 8466   4.352   0.591  13.829  0.5295 -0.1304 -0.5013
  567TMC3     H 8467   4.576   0.507  13.728  0.7332 -0.4212 -0.1651
  567TMC3    H1 8468   4.586   0.796  14.051 -0.6868 -1.2757  0.6548
  567TMC3    H2 8469   0.211   0.674  13.846  0.0666 -3.5024 -1.6547
  567TMC3    C7 8470   0.125   0.830  14.021  0.1712 -0.6629  0.4369
  567TMC3    C8 8471   0.057   0.577  13.642  0.5664  0.6399 -0.7119
  567TMC3    O1 8472   0.241   0.851  13.987 -0.0830 -0.1990  0.3963
  567TMC3    O2 8473   4.706   0.549  13.561  0.0134 -1.2041  0.4066
  568MPD2     C 8474   2.540   0.785  16.416  0.0437  0.2707 -0.1869
  568MPD2    C1 8475   2.428   0.859  16.446 -0.1750  0.0150  0.4109
  568MPD2    C2 8476   2.375   0.960  16.354  0.0507  0.8604  0.1949
  568MPD2    C3 8477   2.447   0.979  16.233  0.4250  0.3321 -0.3074
  568MPD2    C4 8478   2.559   0.896  16.201 -0.1162 -0.7087  0.4418
  568MPD2    C5 8479   2.596   0.798  16.287  0.3928  0.1238  1.0503
  568MPD2     H 8480   2.291   1.019  16.388  0.5256  0.5230  1.9300
  568MPD2    H1 8481   2.610   0.907  16.106 -1.1293 -0.6383 -0.0937
  568MPD2    H2 8482   2.567   0.706  16.484  1.0070 -0.7211 -1.7138
  568MPD2    H3 8483   2.672   0.726  16.258 -0.4566 -0.3295 -0.0503
  568MPD2     N 8484   2.406   1.089  16.154  0.3787 -0.0585  0.1044
  568MPD2    H5 8485   2.340   1.156  16.191  0.7181  0.5973 -0.4872
  568MPD2    N1 8486   2.374   0.825  16.575  0.2250 -0.0800 -0.3987
  568MPD2    H7 8487   2.401   0.736  16.616  1.0388 -0.2096 -1.2077
  569TMC3    C1 8488   2.422   1.254  15.990  0.7016  0.1832 -0.2554
  569TMC3    C2 8489   2.357   1.337  16.076  0.5026  0.3420 -0.4853
  569TMC3    C3 8490   2.330   1.460  16.028  0.9271  0.5481  0.6190
  569TMC3    C4 8491   2.435   1.278  15.852  0.5395 -0.0589 -0.0024
  569TMC3    C5 8492   2.396   1.402  15.810  0.0827  0.0618  1.1831
  569TMC3    C6 8493   2.346   1.494  15.893  0.5431 -0.1874  0.6037
  569TMC3     C 8494   2.462   1.118  16.028  0.4052  0.1155 -0.1384
  569TMC3     O 8495   2.548   1.061  15.959  0.4238 -0.6139 -0.8487
  569TMC3     H 8496   2.366   1.325  16.183  1.1698 -0.5549 -0.6428
  569TMC3    H1 8497   2.480   1.204  15.787  0.2565  1.1289 -1.5549
  569TMC3    H2 8498   2.327   1.593  15.853 -1.3123 -0.4783  0.7493
  569TMC3    C7 8499   2.412   1.441  15.670 -0.0546  0.2217 -0.0666
  569TMC3    C8 8500   2.279   1.557  16.120  0.8572  0.2213  0.0627
  569TMC3    O1 8501   2.419   1.350  15.590 -0.8800 -0.2140  0.1674
  569TMC3    O2 8502   2.299   1.677  16.095  0.6124 -0.5894 -0.9067
  570TMC3    C1 8503   1.259   0.566  15.523 -0.3297  0.5124 -0.1577
  570TMC3    C2 8504   1.299   0.631  15.409  0.1718 -0.3536  0.2348
  570TMC3    C3 8505   1.359   0.752  15.435 -0.1345 -0.3274 -0.1946
  570TMC3    C4 8506   1.260   0.614  15.648  0.5812 -0.0179  0.1176
  570TMC3    C5 8507   1.301   0.739  15.667  0.6787 -0.5631 -0.3558
  570TMC3    C6 8508   1.355   0.806  15.562  0.3405 -0.7800  0.3690
  570TMC3     C 8509   1.211   0.435  15.498 -0.1207 -0.2718 -0.1798
  570TMC3     O 8510   1.164   0.404  15.388 -0.3919 -0.4652  0.2131
  570TMC3     H 8511   1.296   0.589  15.309  1.5134 -0.2882  0.1615
  570TMC3    H1 8512   1.212   0.564  15.732  0.2625  0.4182  0.1932
  570TMC3    H2 8513   1.394   0.908  15.564 -2.0359  0.1079  0.8213
  570TMC3    C7 8514   1.301   0.792  15.797  0.3802 -0.0858  0.0413
  570TMC3    C8 8515   1.436   0.811  15.326 -0.4390 -0.7078 -0.9742
  570TMC3    O1 8516   1.306   0.721  15.892 -0.3731 -0.7727 -0.0771
  570TMC3    O2 8517   1.535   0.879  15.361  0.2274  0.7111  0.2747
  571MPD2     C 8518   3.695   1.803  17.079  0.2163  0.3086 -0.1453
  571MPD2    C1 8519   3.759   1.763  17.187 -0.3004  0.1695 -0.1374
  571MPD2    C2 8520   3.880   1.825  17.217 -0.1380 -0.5100 -0.3396
  571MPD2    C3 8521   3.938   1.926  17.142 -0.0313  0.3751 -0.5026
  571MPD2    C4 8522   3.866   1.964  17.034  0.7693 -0.3236 -0.3428
  571MPD2    C5 8523   3.748   1.907  17.004 -0.5588 -0.0576 -0.3597
  571MPD2     H 8524   3.933   1.801  17.309  1.8300 -1.2004 -1.6554
  571MPD2    H1 8525   3.898   2.047  16.973 -0.6646  0.3563 -0.1766
  571MPD2    H2 8526   3.604   1.751  17.053 -0.8045  0.8175  2.4173
  571MPD2    H3 8527   3.690   1.944  16.920 -1.6659  0.9321  0.8417
  571MPD2     N 8528   4.058   1.989  17.161  0.2132 -1.0678  0.2121
  571MPD2    H5 8529   4.077   2.055  17.087  1.1881 -0.5277  0.9380
  571MPD2    N1 8530   3.702   1.674  17.281 -0.1303 -0.6389  0.2015
  571MPD2    H7 8531   3.754   1.620  17.349 -0.5643 -0.0834  0.9737
  572TMC3    C1 8532   4.263   2.031  17.269 -0.5846  0.6771  0.2293
  572TMC3    C2 8533   4.353   2.005  17.372  0.6039 -0.0072  0.4008
  572TMC3    C3 8534   4.445   2.096  17.397 -0.1586 -0.8228  0.4452
  572TMC3    C4 8535   4.263   2.147  17.199  0.3783  0.4786 -0.6214
  572TMC3    C5 8536   4.359   2.240  17.239  0.0805 -0.0665  0.3432
  572TMC3    C6 8537   4.442   2.216  17.341  0.1074 -0.3954 -0.7496
  572TMC3     C 8538   4.139   1.953  17.267 -0.1346  0.7683 -0.0745
  572TMC3     O 8539   4.131   1.859  17.344 -0.0050 -0.2827 -0.1629
  572TMC3     H 8540   4.334   1.915  17.430 -0.1488 -0.0280  0.1183
  572TMC3    H1 8541   4.198   2.169  17.115 -0.8841 -1.1511 -0.0804
  572TMC3    H2 8542   4.526   2.280  17.368  0.6153 -0.8450 -1.2850
  572TMC3    C7 8543   4.328   2.374  17.208  0.0090 -0.5615 -0.2521
  572TMC3    C8 8544   4.534   2.081  17.512  0.2564  0.3148 -0.0985
  572TMC3    O1 8545   4.212   2.388  17.173  0.0467 -0.8276  0.1729
  572TMC3    O2 8546   4.644   2.132  17.497  0.2311 -0.3244  0.3180
  573MPD2     C 8547   0.280   2.041   0.470 -0.9751  0.7582 -0.0862
  573MPD2    C1 8548   0.204   2.134   0.420  0.0811 -0.2506  0.0448
  573MPD2    C2 8549   0.199   2.163   0.284  0.1293  0.4606 -0.2695
  573MPD2    C3 8550   0.294   2.104   0.203  0.3516 -0.2271 -0.0609
  573MPD2    C4 8551   0.371   1.998   0.257 -0.0323  0.8858 -0.0652
  573MPD2    C5 8552   0.370   1.970   0.391 -0.3719 -0.2922  0.0795
  573MPD2     H 8553   0.147   2.248   0.241  0.7684  0.4074 -1.1533
  573MPD2    H1 8554   0.446   1.955   0.193  1.0788  1.2729  0.9644
  573MPD2    H2 8555   0.275   2.023   0.576 -0.2403  1.0195 -0.0035
  573MPD2    H3 8556   0.437   1.900   0.439 -1.1767 -1.0509  0.1013
  573MPD2     N 8557   0.309   2.118   0.067 -0.6092  0.3923  0.3993
  573MPD2    H5 8558   0.381   2.063   0.022 -1.9002  0.2063 -1.4043
  573MPD2    N1 8559   0.112   2.200   0.506 -0.4635  0.0117 -0.3404
  573MPD2    H7 8560   0.116   2.159   0.598  0.1872  1.3750  0.2324
  574TMC3    C1 8561   0.276   2.181  17.582  0.1818 -0.3166  0.2507
  574TMC3    C2 8562   0.272   2.298  17.503 -0.0008  0.4518 -0.2710
  574TMC3    C3 8563   0.227   2.283  17.374  0.1184 -0.3885  0.3340
  574TMC3    C4 8564   0.248   2.054  17.535 -0.7278 -0.0817 -0.6317
  574TMC3    C5 8565   0.217   2.045  17.404 -0.2748 -0.3997  0.1054
  574TMC3    C6 8566   0.212   2.154  17.321 -0.1429  0.0051 -0.0491
  574TMC3     C 8567   0.241   2.209  17.717 -0.1389  0.0294  0.0752
  574TMC3     O 8568   0.190   2.313   0.010 -0.4972 -0.1164  0.1246
  574TMC3     H 8569   0.271   2.395  17.551  0.8435 -0.7914  2.3042
  574TMC3    H1 8570   0.228   1.971  17.601 -0.2194  1.4010  1.3747
  574TMC3    H2 8571   0.216   2.139  17.214  0.9595  2.6034 -0.3712
  574TMC3    C7 8572   0.156   1.925  17.357  0.7795 -0.2217 -0.8510
  574TMC3    C8 8573   0.231   2.390  17.272 -0.3327 -0.2848  0.4401
  574TMC3    O1 8574   0.192   1.815  17.395  0.5885 -0.7375 -0.2640
  574TMC3    O2 8575   0.214   2.349  17.159  0.3082  0.4454  0.0504
  575TMC3    C1 8576   2.094   4.058  11.141  0.6153  0.0339  0.1036
  575TMC3    C2 8577   2.085   3.955  11.230 -0.0749 -0.5454  0.4497
  575TMC3    C3 8578   2.048   3.834  11.177  0.9015  0.7107  0.4108
  575TMC3    C4 8579   2.056   4.050  11.007  0.2740  0.0887  0.2973
  575TMC3    C5 8580   2.001   3.926  10.968  0.0840 -0.5242 -0.1954
  575TMC3    C6 8581   1.995   3.820  11.051 -0.2466  0.3230  0.4376
  575TMC3     C 8582   2.071   4.189  11.212  0.1961  0.3718  0.3678
  575TMC3     O 8583   2.074   4.190  11.334 -0.9572  0.1696 -0.0141
  575TMC3     H 8584   2.123   3.962  11.331  0.8259  0.7281  0.0135
  575TMC3    H1 8585   2.063   4.133  10.938 -2.4904 -1.2125 -1.5760
  575TMC3    H2 8586   1.996   3.718  11.014 -0.2094  1.3509 -2.3909
  575TMC3    C7 8587   2.019   3.890  10.827 -0.0030  0.0179 -0.1038
  575TMC3    C8 8588   2.013   3.719  11.268  0.0923  0.4766 -0.4596
  575TMC3    O1 8589   2.088   3.965  10.757 -0.7136  0.0923 -0.0376
  575TMC3    O2 8590   1.949   3.633  11.216  0.2848  0.1719 -0.3591
  576MPD2     C 8591   2.178   0.254  12.211 -0.1833 -0.0579  0.3879
  576MPD2    C1 8592   2.290   0.331  12.222  0.3065  0.3336  0.0036
  576MPD2    C2 8593   2.303   0.410  12.329 -0.1991 -0.0880 -0.7446
  576MPD2    C3 8594   2.216   0.395  12.437  0.2342  0.2526  0.3725
  576MPD2    C4 8595   2.113   0.303  12.432 -0.3587  0.1000 -0.0725
  576MPD2    C5 8596   2.096   0.238  12.318  0.4208 -0.6017 -0.1255
  576MPD2     H 8597   2.389   0.477  12.335 -0.5127  0.1864  0.7047
  576MPD2    H1 8598   2.045   0.283  12.514 -1.1008 -0.6043 -0.8479
  576MPD2    H2 8599   2.157   0.190  12.126 -2.7036  1.1121  0.1269
  576MPD2    H3 8600   2.017   0.166  12.300 -0.6378  1.1859 -2.5995
  576MPD2     N 8601   2.232   0.478  12.552  0.0166 -0.1335  0.4230
  576MPD2    H5 8602   2.295   0.558  12.554 -0.9886  0.6727 -0.1079
  576MPD2    N1 8603   2.389   0.350  12.126  0.2282 -0.2487  0.2525
  576MPD2    H7 8604   2.454   0.428  12.139 -1.0250  0.8440 -0.0096
  577TMC3    C1 8605   2.525   0.304  11.938 -0.1278  0.4354 -0.0178
  577TMC3    C2 8606   2.638   0.227  11.962  0.5473  0.2931 -0.7942
  577TMC3    C3 8607   2.724   0.220  11.855 -0.5610 -0.2259 -0.4123
  577TMC3    C4 8608   2.485   0.352  11.818 -0.4635 -0.6653 -0.3126
  577TMC3    C5 8609   2.574   0.340  11.712 -0.4543  0.6105  0.5742
  577TMC3    C6 8610   2.695   0.279  11.734 -0.2491  0.0091 -0.0284
  577TMC3     C 8611   2.419   0.265  12.023 -0.0517  0.0230 -0.0253
  577TMC3     O 8612   2.379   0.151  12.002  0.1875  0.5297  0.1497
  577TMC3     H 8613   2.657   0.165  12.048 -0.0669  1.5209  0.2394
  577TMC3    H1 8614   2.383   0.386  11.809  1.2405  3.8901 -2.3281
  577TMC3    H2 8615   2.760   0.274  11.648 -0.0389 -0.2450  0.1466
  577TMC3    C7 8616   2.529   0.352  11.587  0.4979 -0.4813  0.1716
  577TMC3    C8 8617   2.827   0.121  11.868  0.2176  0.1182  0.0679
  577TMC3    O1 8618   2.605   0.407  11.512 -0.0469  0.4964 -0.0521
  577TMC3    O2 8619   2.860   0.101  11.987  0.1686 -0.6291 -0.4385
  578MPD2     C 8620   0.588   0.231   1.310 -0.6124  0.5863  0.5044
  578MPD2    C1 8621   0.694   0.195   1.228  0.5652  0.2277  0.1313
  578MPD2    C2 8622   0.786   0.105   1.276  0.2529 -0.0582 -0.3160
  578MPD2    C3 8623   0.791   0.082   1.413 -0.2465 -0.1093  0.1685
  578MPD2    C4 8624   0.694   0.134   1.500 -0.2720 -0.1584 -0.3182
  578MPD2    C5 8625   0.584   0.185   1.443  0.1510 -1.1560 -0.1400
  578MPD2     H 8626   0.864   0.069   1.211  1.1729 -0.5020  1.0391
  578MPD2    H1 8627   0.691   0.106   1.605  3.9191  1.5396  0.2460
  578MPD2    H2 8628   0.505   0.294   1.280 -0.9659  0.2174  0.7132
  578MPD2    H3 8629   0.504   0.205   1.513  0.6221  0.6973 -0.1310
  578MPD2     N 8630   0.892   4.734   1.468  0.1080  0.6936 -0.4837
  578MPD2    H5 8631   0.966   4.709   1.404  0.4259  1.5813 -0.4634
  578MPD2    N1 8632   0.690   0.251   1.100  0.0812 -0.0006 -0.2813
  578MPD2    H7 8633   0.621   0.325   1.092  1.3998  1.5366  2.4460
  579TMC3    C1 8634   1.031   4.619   1.604 -0.4818 -0.4488 -0.2930
  579TMC3    C2 8635   1.111   4.636   1.709 -0.6934  0.2324  0.0557
  579TMC3    C3 8636   1.234   4.578   1.697 -0.4821  0.1767 -0.4395
  579TMC3    C4 8637   1.049   4.528   1.502 -0.1490  0.4008 -0.3831
  579TMC3    C5 8638   1.170   4.465   1.494  0.1582 -0.5441 -0.4984
  579TMC3    C6 8639   1.262   4.498   1.587 -0.4259 -0.1049  0.5199
  579TMC3     C 8640   0.913   4.696   1.599  0.0535 -0.5369  0.5764
  579TMC3     O 8641   0.844   4.707   1.702 -0.1093  0.1438 -0.3782
  579TMC3     H 8642   1.091   4.717   1.779  0.6861  0.4779  0.1736
  579TMC3    H1 8643   0.975   4.510   1.425  0.4095 -1.8081 -0.3859
  579TMC3    H2 8644   1.362   4.459   1.571  0.1473  1.7606 -0.4360
  579TMC3    C7 8645   1.217   4.401   1.372 -0.1847  0.6785 -0.4525
  579TMC3    C8 8646   1.337   4.644   1.772 -0.1384 -0.1652  0.1787
  579TMC3    O1 8647   1.321   4.339   1.388 -0.2598  0.1192  0.0310
  579TMC3    O2 8648   1.299   4.710   1.870  0.3094 -0.0543 -0.3293
  580TMC3    C1 8649   0.285   4.074  12.008  0.3834 -0.5113  0.3120
  580TMC3    C2 8650   0.374   4.176  12.037  0.0693 -0.5688  0.2330
  580TMC3    C3 8651   0.502   4.135  12.075  0.9874  0.1261  0.1353
  580TMC3    C4 8652   0.311   3.943  12.016  0.0537 -0.2852 -0.0626
  580TMC3    C5 8653   0.434   3.906  12.056 -0.8974  0.1872  0.7423
  580TMC3    C6 8654   0.527   4.001  12.094 -0.6440  0.4318 -0.3550
  580TMC3     C 8655   0.172   4.104  11.921 -0.3101 -0.3008  0.4974
  580TMC3     O 8656   0.173   4.051  11.812  0.6312  0.5327  0.3685
  580TMC3     H 8657   0.351   4.278  12.009  1.3468 -0.4644 -0.4436
  580TMC3    H1 8658   0.243   3.871  11.972 -0.8095  0.6348 -0.2275
  580TMC3    H2 8659   0.620   3.973  12.142 -1.3339 -0.1305  0.6567
  580TMC3    C7 8660   0.470   3.760  12.059  0.5338  0.6578 -0.5652
  580TMC3    C8 8661   0.604   4.221  12.032  0.0083 -0.0661 -0.2517
  580TMC3    O1 8662   0.572   3.728  12.119  0.6080 -0.2839 -0.7756
  580TMC3    O2 8663   0.583   4.342  12.041  0.7366  0.2367  0.1457
  581MPD2     C 8664   3.422   3.463  15.073  0.0222 -0.7851 -0.1897
  581MPD2    C1 8665   3.336   3.516  15.168 -0.3374 -0.3646 -0.4030
  581MPD2    C2 8666   3.228   3.591  15.134  0.0937  0.1149  0.2102
  581MPD2    C3 8667   3.197   3.625  15.007  0.2025 -0.0434 -0.2574
  581MPD2    C4 8668   3.284   3.579  14.906  0.3532  0.5151 -0.4087
  581MPD2    C5 8669   3.394   3.499  14.938  0.1374 -0.0134 -0.4454
  581MPD2     H 8670   3.151   3.617  15.206  0.0694 -0.1757  0.2867
  581MPD2    H1 8671   3.273   3.618  14.806 -0.2114  0.1870 -0.4751
  581MPD2    H2 8672   3.499   3.393  15.104  0.3250 -1.9352 -3.5860
  581MPD2    H3 8673   3.467   3.483  14.860  0.1217  0.9388 -0.6566
  581MPD2     N 8674   3.079   3.701  14.976 -0.3114  0.3773 -0.0048
  581MPD2    H5 8675   3.036   3.748  15.055 -2.9936 -1.7165 -0.2264
  581MPD2    N1 8676   3.359   3.476  15.295  0.3643  0.7274  0.1066
  581MPD2    H7 8677   3.436   3.412  15.315 -0.6781 -0.7715 -0.7012
  582TMC3    C1 8678   3.296   3.431  15.524 -0.3484  0.6418 -0.2763
  582TMC3    C2 8679   3.278   3.501  15.635 -0.0397 -0.0075 -0.2165
  582TMC3    C3 8680   3.167   3.471  15.705 -0.2556  0.2075  0.2261
  582TMC3    C4 8681   3.218   3.319  15.486  0.2912 -0.3428 -0.4090
  582TMC3    C5 8682   3.099   3.306  15.554 -0.5986  0.4926  0.0973
  582TMC3    C6 8683   3.068   3.386  15.663 -1.0245 -0.3327 -0.0377
  582TMC3     C 8684   3.296   3.525  15.409  1.1320  0.7543 -0.4363
  582TMC3     O 8685   3.223   3.624  15.425  0.6925 -0.1366 -0.7639
  582TMC3     H 8686   3.329   3.596  15.650 -0.0723  0.1755 -1.2761
  582TMC3    H1 8687   3.223   3.277  15.386  1.2420 -0.3319 -0.3605
  582TMC3    H2 8688   2.979   3.362  15.720 -0.9634  0.6739  0.4873
  582TMC3    C7 8689   2.997   3.288  15.458 -0.1081 -0.6837 -0.4934
  582TMC3    C8 8690   3.115   3.580  15.782  0.1389 -0.0405 -0.2236
  582TMC3    O1 8691   3.010   3.200  15.375 -0.4461 -0.5496 -0.3173
  582TMC3    O2 8692   3.027   3.645  15.736  0.5498  0.6742  0.3722
  583MPD2     C 8693   3.307   0.862  16.477  0.2524 -0.0592  0.4921
  583MPD2    C1 8694   3.283   0.995  16.451  0.0299  0.1503 -1.1637
  583MPD2    C2 8695   3.209   1.070  16.540 -0.3858 -0.3967 -0.4252
  583MPD2    C3 8696   3.144   1.012  16.650 -0.3842  0.6309 -0.3921
  583MPD2    C4 8697   3.165   0.877  16.663 -0.1056  0.4594  0.5554
  583MPD2    C5 8698   3.238   0.799  16.575 -0.3290 -0.1188 -0.1257
  583MPD2     H 8699   3.201   1.177  16.523  0.4237 -0.0294  1.5245
  583MPD2    H1 8700   3.121   0.825  16.747  2.4448 -0.2307  1.4404
  583MPD2    H2 8701   3.365   0.790  16.419  1.5461  1.4127 -0.0265
  583MPD2    H3 8702   3.245   0.694  16.600  1.0491 -0.3348 -1.4283
  583MPD2     N 8703   3.063   1.085  16.735 -0.1781 -0.8495  0.1798
  583MPD2    H5 8704   3.070   1.184  16.718  1.0392 -0.8911  0.4278
  583MPD2    N1 8705   3.351   1.054  16.339 -0.0881  0.1482 -0.1368
  583MPD2    H7 8706   3.342   1.155  16.339  2.5056  0.3991  1.4823
  584TMC3    C1 8707   2.944   1.124  16.943  0.2055  0.3654  0.0288
  584TMC3    C2 8708   2.995   1.250  16.947  0.0959  0.0197 -0.0611
  584TMC3    C3 8709   2.983   1.328  17.054  0.7371  0.0548 -0.2927
  584TMC3    C4 8710   2.867   1.077  17.046  0.1155 -0.0106  0.1676
  584TMC3    C5 8711   2.823   1.178  17.130 -0.2491 -0.9367  0.0605
  584TMC3    C6 8712   2.891   1.296  17.148 -0.5385  0.0685  0.0328
  584TMC3     C 8713   2.990   1.027  16.843 -0.1816 -0.9670  0.0486
  584TMC3     O 8714   2.949   0.910  16.857 -0.4944 -0.0328 -0.1373
  584TMC3     H 8715   3.068   1.276  16.871 -0.5956 -2.5951 -1.6052
  584TMC3    H1 8716   2.813   0.983  17.041  0.1406 -0.0725  0.9744
  584TMC3    H2 8717   2.859   1.359  17.231  0.3472  0.9378 -0.2918
  584TMC3    C7 8718   2.723   1.137  17.226 -0.1863  0.0788 -0.8058
  584TMC3    C8 8719   3.023   1.460  17.057 -0.0363  0.1336  0.3851
  584TMC3    O1 8720   2.730   1.021  17.268 -0.1897 -0.6604  0.4332
  584TMC3    O2 8721   3.020   1.517  17.162 -0.2154 -0.6665  0.3089
  585MPD2     C 8722   2.065   4.322   0.628 -0.0778 -0.4414 -0.5970
  585MPD2    C1 8723   2.135   4.353   0.516 -0.1224 -0.0507  0.5401
  585MPD2    C2 8724   2.176   4.250   0.432 -0.1422 -0.3540  0.1807
  585MPD2    C3 8725   2.161   4.115   0.479  0.0882 -0.4734 -0.2254
  585MPD2    C4 8726   2.096   4.089   0.594 -0.4714 -0.3327 -0.1555
  585MPD2    C5 8727   2.056   4.195   0.670  0.1492  0.0043 -0.3490
  585MPD2     H 8728   2.214   4.270   0.332 -1.9186 -0.4902 -0.5200
  585MPD2    H1 8729   2.080   3.992   0.640 -0.3011 -0.9297 -1.3559
  585MPD2    H2 8730   2.030   4.399   0.696  1.3995  0.8808 -1.3199
  585MPD2    H3 8731   2.013   4.174   0.767  0.3459 -0.9665 -0.4759
  585MPD2     N 8732   2.212   4.018   0.393 -0.0048 -1.0034  0.4720
  585MPD2    H5 8733   2.267   4.043   0.311 -3.6187  3.2910 -0.6698
  585MPD2    N1 8734   2.154   4.485   0.480 -0.3038 -0.3994  0.4856
  585MPD2    H7 8735   2.101   4.559   0.526 -0.7731  0.7146 -1.8758
  586TMC3    C1 8736   2.233   3.799   0.294 -0.5563 -0.1324 -0.2418
  586TMC3    C2 8737   2.360   3.786   0.268  0.8093 -0.8607 -0.3272
  586TMC3    C3 8738   2.399   3.681   0.182  0.0442  0.9031 -0.3439
  586TMC3    C4 8739   2.143   3.714   0.241 -0.1827 -0.8338 -0.8462
  586TMC3    C5 8740   2.181   3.609   0.162 -0.3027 -0.1008 -0.4519
  586TMC3    C6 8741   2.312   3.582   0.142 -0.2532  0.4419 -0.0739
  586TMC3     C 8742   2.179   3.884   0.403  0.2524 -0.2472  0.7356
  586TMC3     O 8743   2.091   3.827   0.472  0.2343  0.2325 -0.1909
  586TMC3     H 8744   2.422   3.860   0.317 -0.2156  0.2535 -0.7085
  586TMC3    H1 8745   2.035   3.724   0.250 -0.2776 -0.8865 -1.8895
  586TMC3    H2 8746   2.344   3.509   0.069 -0.0462  2.7471 -2.3088
  586TMC3    C7 8747   2.117   3.624   0.036  0.1884 -0.0713  0.4270
  586TMC3    C8 8748   2.489   3.711   0.072  0.5141  0.4785 -0.0821
  586TMC3    O1 8749   2.122   3.528  17.699  0.1372  0.1857 -0.6937
  586TMC3    O2 8750   2.523   3.619   0.001 -0.0729  0.4276  0.4152
  587TMC3    C1 8751   0.341   3.486  15.652 -0.2053  0.9616 -0.5149
  587TMC3    C2 8752   0.324   3.543  15.781 -0.1707 -0.6766 -0.2049
  587TMC3    C3 8753   0.425   3.606  15.844  0.1909 -0.4286 -0.2377
  587TMC3    C4 8754   0.467   3.488  15.587 -0.4592  0.0749 -0.3303
  587TMC3    C5 8755   0.564   3.544  15.664  0.0111 -0.1813 -0.8479
  587TMC3    C6 8756   0.550   3.604  15.788 -0.2805  0.4635  0.6570
  587TMC3     C 8757   0.232   3.450  15.565  0.6933 -0.1311 -0.0438
  587TMC3     O 8758   0.268   3.406  15.459 -0.1549  0.4019  0.0968
  587TMC3     H 8759   0.242   3.513  15.846  0.4180  1.0743  1.3505
  587TMC3    H1 8760   0.490   3.425  15.502 -0.5583 -1.5838  0.8681
  587TMC3    H2 8761   0.636   3.653  15.832  0.2821  0.4794 -0.4698
  587TMC3    C7 8762   0.701   3.531  15.622  0.2456 -0.8857  0.1209
  587TMC3    C8 8763   0.416   3.615  15.985  0.0656  0.5352 -0.4311
  587TMC3    O1 8764   0.789   3.548  15.703  0.2427 -0.4187 -0.6247
  587TMC3    O2 8765   0.518   3.588  16.042  0.1750  0.3816  0.6687
  588TMC3    C1 8766   2.035   1.149   9.544  0.1112  0.1398  0.0714
  588TMC3    C2 8767   2.020   1.018   9.508 -0.0278  0.0661 -0.2187
  588TMC3    C3 8768   2.114   0.926   9.549  0.5463 -0.2345 -0.0139
  588TMC3    C4 8769   2.145   1.194   9.620  0.2820 -0.0729  0.0140
  588TMC3    C5 8770   2.230   1.096   9.655  0.1856 -0.0729  0.2586
  588TMC3    C6 8771   2.211   0.963   9.634  0.4060  0.1537  0.3600
  588TMC3     C 8772   1.935   1.253   9.516  0.2964  0.2601 -0.1049
  588TMC3     O 8773   1.859   1.251   9.419 -0.3268 -0.3593 -0.0447
  588TMC3     H 8774   1.939   0.997   9.440 -0.1947 -1.5627  0.5007
  588TMC3    H1 8775   2.162   1.301   9.632 -0.3389  0.0539 -0.1919
  588TMC3    H2 8776   2.291   0.894   9.658  0.9278  0.9956  1.0245
  588TMC3    C7 8777   2.305   1.133   9.773 -0.7231 -0.7830  0.2621
  588TMC3    C8 8778   2.073   0.786   9.533 -0.0004  0.0527 -0.4338
  588TMC3    O1 8779   2.416   1.089   9.794 -0.4283  0.6794 -0.2213
  588TMC3    O2 8780   2.001   0.761   9.436 -0.1987 -0.1798  0.2386
  589TMC3    C1 8781   1.672   3.228   1.393 -0.3115 -0.1361  0.0020
  589TMC3    C2 8782   1.789   3.295   1.412 -0.3635 -0.6153  0.3194
  589TMC3    C3 8783   1.895   3.258   1.333 -0.1180 -0.0999 -0.0746
  589TMC3    C4 8784   1.669   3.114   1.318 -0.1041  0.6721 -0.6054
  589TMC3    C5 8785   1.788   3.070   1.261  0.5801  0.2760 -0.4885
  589TMC3    C6 8786   1.900   3.147   1.254 -0.5282 -0.0636  0.4973
  589TMC3     C 8787   1.576   3.234   1.503  0.1761  0.4374 -0.3084
  589TMC3     O 8788   1.515   3.130   1.531 -0.1176  0.3177  0.2189
  589TMC3     H 8789   1.798   3.373   1.487  1.1351  0.5662 -1.0826
  589TMC3    H1 8790   1.575   3.060   1.315  0.4979 -0.3200 -1.7837
  589TMC3    H2 8791   1.997   3.110   1.222 -1.3188 -0.9191 -0.9140
  589TMC3    C7 8792   1.781   2.940   1.205 -0.0595 -0.3022 -0.7590
  589TMC3    C8 8793   2.013   3.340   1.351 -0.1767  0.1502 -0.5177
  589TMC3    O1 8794   1.671   2.901   1.164  0.0824 -0.0530  0.3998
  589TMC3    O2 8795   2.032   3.396   1.459 -0.2473 -0.3411  0.6084
  590MPD2     C 8796   0.759   1.538  16.340  0.3834 -0.8692  0.9592
  590MPD2    C1 8797   0.730   1.623  16.235 -0.5602 -0.5965  0.3657
  590MPD2    C2 8798   0.833   1.701  16.190 -0.5292 -0.6084  0.8251
  590MPD2    C3 8799   0.956   1.699  16.246 -0.5902  0.0939 -0.2075
  590MPD2    C4 8800   0.981   1.609  16.345  0.1910 -0.2276 -0.2729
  590MPD2    C5 8801   0.884   1.527  16.394 -0.6562  0.0789 -0.4109
  590MPD2     H 8802   0.808   1.781  16.122 -0.4068  0.8294  2.4582
  590MPD2    H1 8803   1.080   1.600  16.389 -0.6979  1.0262  1.9856
  590MPD2    H2 8804   0.680   1.471  16.372  0.4162  0.1494  3.2148
  590MPD2    H3 8805   0.897   1.453  16.471 -0.4870 -1.1775 -1.6407
  590MPD2     N 8806   1.051   1.794  16.198 -0.8976 -0.6085 -0.0190
  590MPD2    H5 8807   1.002   1.861  16.139 -0.7811 -0.0700  0.4959
  590MPD2    N1 8808   0.601   1.663  16.190  0.2500  0.3947 -0.5673
  590MPD2    H7 8809   0.605   1.740  16.123  0.7129  0.5747 -0.3356
  591TMC3    C1 8810   1.237   1.929  16.143  0.1677  0.0109  0.1459
  591TMC3    C2 8811   1.369   1.945  16.120  0.0983  0.1797  0.4503
  591TMC3    C3 8812   1.417   2.066  16.080  1.2987 -0.5403 -0.5199
  591TMC3    C4 8813   1.151   2.039  16.122  1.0418 -0.5359  0.6299
  591TMC3    C5 8814   1.203   2.155  16.072  0.5253 -0.0043  0.0392
  591TMC3    C6 8815   1.334   2.170  16.051 -0.5857 -0.6862 -0.3838
  591TMC3     C 8816   1.183   1.819  16.234 -0.2820 -0.3775 -0.2760
  591TMC3     O 8817   1.268   1.746  16.294  0.3662 -0.0517  0.2985
  591TMC3     H 8818   1.429   1.854  16.119 -0.3737 -0.1187 -1.0915
  591TMC3    H1 8819   1.047   2.026  16.148  0.9574 -0.0121  0.5526
  591TMC3    H2 8820   1.378   2.264  16.019 -0.6047 -0.5753 -0.0819
  591TMC3    C7 8821   1.110   2.240  15.999 -0.0804  0.3161  0.0914
  591TMC3    C8 8822   1.555   2.069  16.030 -0.3478 -0.7593 -0.0132
  591TMC3    O1 8823   0.990   2.233  16.030  0.5997  0.5896  0.3086
  591TMC3    O2 8824   1.594   1.974  15.964 -0.3575 -0.2990  0.4740
  592MPD2     C 8825   1.275   3.570  11.103  0.7684  0.6976  0.2147
  592MPD2    C1 8826   1.268   3.615  11.229  0.3793 -0.0501  0.0796
  592MPD2    C2 8827   1.184   3.542  11.318 -0.5697  0.1578  0.0015
  592MPD2    C3 8828   1.109   3.434  11.281  0.4245 -0.0123  0.0410
  592MPD2    C4 8829   1.120   3.389  11.149  0.1193 -0.0460  0.1570
  592MPD2    C5 8830   1.207   3.457  11.065 -0.3248  0.3506 -0.2608
  592MPD2     H 8831   1.171   3.567  11.422 -1.8820  0.5660 -0.2543
  592MPD2    H1 8832   1.080   3.294  11.116 -0.8405  0.9692 -1.6323
  592MPD2    H2 8833   1.350   3.612  11.037  0.1273  1.8542  0.2276
  592MPD2    H3 8834   1.217   3.416  10.965  1.6722  2.0301 -0.7478
  592MPD2     N 8835   1.026   3.370  11.375 -0.1564  0.6434  0.0893
  592MPD2    H5 8836   1.012   3.422  11.461 -0.4308  1.8315 -0.6769
  592MPD2    N1 8837   1.310   3.750  11.262 -0.1513  0.2910 -0.1138
  592MPD2    H7 8838   1.330   3.816  11.187  1.0551 -0.6441 -0.6197
  593TMC3    C1 8839   1.331   3.942  11.400  0.1139  0.3977  0.4305
  593TMC3    C2 8840   1.339   4.004  11.524  0.8255  0.3412  0.8204
  593TMC3    C3 8841   1.367   4.140  11.530  0.3084  0.4717 -0.1364
  593TMC3    C4 8842   1.327   4.015  11.289 -0.0210 -0.1634  0.8019
  593TMC3    C5 8843   1.356   4.149  11.295  0.1642 -1.3002 -0.7455
  593TMC3    C6 8844   1.374   4.210  11.414 -0.0741 -0.1043  0.1016
  593TMC3     C 8845   1.307   3.802  11.390 -0.4663  0.4564 -0.7144
  593TMC3     O 8846   1.288   3.749  11.499  0.2410 -0.3133  0.0227
  593TMC3     H 8847   1.345   3.948  11.616  1.9183  1.4419  1.4131
  593TMC3    H1 8848   1.331   3.973  11.189  1.1320  3.0859 -0.5085
  593TMC3    H2 8849   1.371   4.318  11.418 -0.0089 -0.1261  0.7419
  593TMC3    C7 8850   1.383   4.228  11.181 -0.2288  0.4388 -0.5641
  593TMC3    C8 8851   1.367   4.207  11.659  0.2951  0.7599  1.3192
  593TMC3    O1 8852   1.433   4.337  11.207  0.4309  0.3526  0.0566
  593TMC3    O2 8853   1.295   4.168  11.751  0.0156 -0.2648 -0.2695
  594MPD2     C 8854   0.648   2.364  14.559  0.7530  0.7947 -0.7082
  594MPD2    C1 8855   0.535   2.436  14.515 -0.0907 -0.2723 -0.6253
  594MPD2    C2 8856   0.551   2.535  14.417 -0.0591  0.4331  0.2043
  594MPD2    C3 8857   0.672   2.544  14.352 -0.6098 -0.0632 -0.3346
  594MPD2    C4 8858   0.783   2.471  14.390  0.1632 -0.1674 -0.5862
  594MPD2    C5 8859   0.769   2.380  14.492  0.6621  0.9872  0.3915
  594MPD2     H 8860   0.465   2.594  14.389  0.1415  1.1847  1.1957
  594MPD2    H1 8861   0.875   2.459  14.334  0.4266  4.2910 -1.1633
  594MPD2    H2 8862   0.644   2.276  14.623  0.0869  0.2890 -1.4436
  594MPD2    H3 8863   0.853   2.311  14.502  2.3613  3.0191  0.0943
  594MPD2     N 8864   0.679   2.613  14.225 -0.5175  0.2935  0.6563
  594MPD2    H5 8865   0.597   2.672  14.216  1.2280  2.6123 -0.0700
  594MPD2    N1 8866   0.414   2.395  14.572  0.3089  0.2317 -0.0554
  594MPD2    H7 8867   0.423   2.320  14.639  1.3591  2.3539  2.1747
  595TMC3    C1 8868   0.817   2.708  13.793 -0.4927  0.0384  0.6026
  595TMC3    C2 8869   0.791   2.621  13.892 -0.3826 -0.4082  0.0162
  595TMC3    C3 8870   0.736   2.674  14.003 -0.2901 -0.6480  0.2299
  595TMC3    C4 8871   0.770   2.840  13.800 -0.1395  0.3539  0.1770
  595TMC3    C5 8872   0.702   2.880  13.914  0.3922 -0.3862 -0.0054
  595TMC3    C6 8873   0.678   2.793  14.018  0.2849  0.2852  0.0494
  595TMC3     C 8874   0.942   2.686  13.718 -0.6636 -0.0160  1.0046
  595TMC3     O 8875   0.940   2.704  13.602  0.0381 -1.1105  0.5555
  595TMC3     H 8876   0.837   2.523  13.884 -0.1013 -0.4699  2.5364
  595TMC3    H1 8877   0.790   2.911  13.721 -0.4624  0.3204  0.0637
  595TMC3    H2 8878   0.630   2.822  14.111  0.1388  2.3887 -0.6765
  595TMC3    C7 8879   0.677   3.017  13.949  0.2129  0.0792 -0.2402
  595TMC3    C8 8880   0.770   2.596  14.123 -0.1860  0.5425  0.0994
  595TMC3    O1 8881   0.614   3.043  14.050  0.6820 -0.0207 -0.1285
  595TMC3    O2 8882   0.880   2.543  14.108  0.2743  0.2548  0.1033
  596MPD2     C 8883   4.110   0.605  16.595  0.0095  0.4727  0.0973
  596MPD2    C1 8884   4.096   0.736  16.540 -0.9297  0.2617  0.3903
  596MPD2    C2 8885   4.106   0.759  16.406 -0.0890  0.8901 -0.0427
  596MPD2    C3 8886   4.111   0.657  16.316  0.8895 -0.0616 -0.2231
  596MPD2    C4 8887   4.114   0.528  16.368  0.2028  0.3420 -0.1430
  596MPD2    C5 8888   4.110   0.504  16.501  0.7790 -0.7684 -0.4756
  596MPD2     H 8889   4.095   0.862  16.375 -1.1894  0.7945  0.0062
  596MPD2    H1 8890   4.107   0.446  16.297 -0.2593  2.0273 -2.0544
  596MPD2    H2 8891   4.106   0.594  16.703 -0.0882  0.9888  0.1498
  596MPD2    H3 8892   4.119   0.403  16.540 -2.5080 -1.2069 -0.8563
  596MPD2     N 8893   4.124   0.680  16.173  0.0901  0.7374  0.3354
  596MPD2    H5 8894   4.157   0.603  16.117  1.4494  1.2066  0.4904
  596MPD2    N1 8895   4.069   0.848  16.617 -0.7447  0.4073  0.1201
  596MPD2    H7 8896   4.047   0.936  16.571  0.8524  0.9326  0.3625
  597TMC3    C1 8897   3.995   0.975  16.783  0.3954 -1.1785  0.3840
  597TMC3    C2 8898   4.024   1.091  16.713 -0.0310 -0.7970 -0.0186
  597TMC3    C3 8899   3.958   1.205  16.747  0.1672  0.1313  0.0543
  597TMC3    C4 8900   3.905   0.975  16.886  0.2347  0.3746 -0.1321
  597TMC3    C5 8901   3.846   1.094  16.927 -0.1402 -0.3698  0.1266
  597TMC3    C6 8902   3.861   1.207  16.849  0.5448 -0.1052  0.9522
  597TMC3     C 8903   4.051   0.850  16.751  0.1180 -0.1688 -0.0438
  597TMC3     O 8904   4.043   0.764  16.844 -0.4491 -0.1414 -0.3894
  597TMC3     H 8905   4.098   1.089  16.633  0.5131 -1.6655  0.5124
  597TMC3    H1 8906   3.880   0.884  16.939  2.1600  0.4582  0.9226
  597TMC3    H2 8907   3.800   1.294  16.874  0.0020  0.2104 -1.5416
  597TMC3    C7 8908   3.733   1.085  17.021  0.5531 -0.4080 -0.0833
  597TMC3    C8 8909   4.010   1.328  16.690 -0.0152 -0.1279 -1.7013
  597TMC3    O1 8910   3.717   0.973  17.069 -0.3948  0.3051 -0.4581
  597TMC3    O2 8911   4.090   1.315  16.597  0.6259  0.1837 -0.1266
  598TMC3    C1 8912   2.355   2.350  14.863 -0.3466 -0.1571 -0.1100
  598TMC3    C2 8913   2.275   2.237  14.870  0.4369 -0.2181 -0.3816
  598TMC3    C3 8914   2.225   2.193  14.748 -0.4154  0.3108  0.2848
  598TMC3    C4 8915   2.388   2.413  14.748  0.5963 -0.2063  0.2643
  598TMC3    C5 8916   2.344   2.362  14.626  0.6141 -0.3899 -0.8625
  598TMC3    C6 8917   2.260   2.252  14.630 -0.5961 -0.1746  0.0130
  598TMC3     C 8918   2.399   2.415  14.985 -0.2933  0.4449  0.0759
  598TMC3     O 8919   2.519   2.441  14.972 -0.1928 -0.5302  0.6137
  598TMC3     H 8920   2.244   2.206  14.969 -2.2195  0.0245 -1.1132
  598TMC3    H1 8921   2.451   2.501  14.761  0.6586 -0.2636  0.3510
  598TMC3    H2 8922   2.230   2.207  14.536  1.6941 -0.2388 -0.7025
  598TMC3    C7 8923   2.368   2.429  14.502 -0.2690 -0.6030  0.1277
  598TMC3    C8 8924   2.138   2.080  14.734  0.6996 -0.5963  0.1329
  598TMC3    O1 8925   2.318   2.377  14.403  0.2068  0.4057  0.0753
  598TMC3    O2 8926   2.103   2.051  14.620 -0.0484 -0.0473 -0.1127
  599MPD2     C 8927   2.134   0.151  15.495  0.1730 -0.0492  0.1706
  599MPD2    C1 8928   2.157   0.026  15.557 -0.1574  0.2586  0.7165
  599MPD2    C2 8929   2.108   4.732  15.687 -0.2329  0.1387  0.1416
  599MPD2    C3 8930   2.050   0.099  15.760  1.0344  0.5094  0.1817
  599MPD2    C4 8931   2.045   0.222  15.703  0.1006 -0.0774  0.0132
  599MPD2    C5 8932   2.074   0.250  15.569  0.2384 -0.4499 -0.4642
  599MPD2     H 8933   2.147   4.646  15.742  1.3571 -0.2311 -1.5795
  599MPD2    H1 8934   1.999   0.304  15.757 -1.2646  0.4771 -1.9716
  599MPD2    H2 8935   2.150   0.174  15.390  1.7551  2.5385  0.9718
  599MPD2    H3 8936   2.074   0.349  15.524  0.9092  0.4417  1.4886
  599MPD2     N 8937   2.015   0.083  15.898  0.1817 -0.4905 -0.1532
  599MPD2    H5 8938   1.994   0.167  15.951  0.6622 -0.4641 -0.0108
  599MPD2    N1 8939   2.218   4.664  15.476  0.2423 -0.0647 -0.7415
  599MPD2    H7 8940   2.258   4.701  15.391 -1.8246  2.6565 -0.5099
  600TMC3    C1 8941   1.960   4.689  16.090 -0.4684 -1.2199 -0.6925
  600TMC3    C2 8942   1.869   4.594  16.132 -0.1455 -0.2985  0.5030
  600TMC3    C3 8943   1.802   4.618  16.249  0.4542 -0.4942  0.4708
  600TMC3    C4 8944   2.002   0.058  16.175 -0.2152  0.5487 -0.6642
  600TMC3    C5 8945   1.937   0.074  16.292  0.1258 -0.4445  0.1921
  600TMC3    C6 8946   1.829   4.725  16.330 -0.3385  0.5517 -0.0347
  600TMC3     C 8947   1.982   4.693  15.946 -0.2364  0.2165 -0.1155
  600TMC3     O 8948   1.964   4.584  15.893  1.0024  0.7172 -0.3316
  600TMC3     H 8949   1.834   4.517  16.065  0.3973 -1.2873  1.3499
  600TMC3    H1 8950   2.074   0.129  16.138  1.3100 -0.2591  0.7377
  600TMC3    H2 8951   1.775   0.012  16.422 -1.1340  1.3312 -0.6861
  600TMC3    C7 8952   1.933   0.203  16.357  0.1670  0.6892  0.5037
  600TMC3    C8 8953   1.726   4.508  16.310  0.3449 -0.1885  0.2474
  600TMC3    O1 8954   1.826   0.227  16.412 -0.0712 -0.0690 -0.0126
  600TMC3    O2 8955   1.706   4.514  16.428 -0.5332  0.1335  0.4396
  601MPD2     C 8956   4.423   2.864  17.118 -0.0990 -0.5455 -0.2360
  601MPD2    C1 8957   4.304   2.798  17.134  0.3477  0.5360  0.2104
  601MPD2    C2 8958   4.300   2.665  17.167  0.1112  0.0302  0.3262
  601MPD2    C3 8959   4.416   2.596  17.182 -0.2412  0.0505  0.6000
  601MPD2    C4 8960   4.537   2.661  17.161  0.4004 -0.4172 -0.1021
  601MPD2    C5 8961   4.539   2.799  17.137  0.2376 -0.7609 -0.1041
  601MPD2     H 8962   4.206   2.621  17.196  1.6220 -3.7464 -0.5381
  601MPD2    H1 8963   4.621   2.595  17.176  1.1365  0.5215 -0.0838
  601MPD2    H2 8964   4.442   2.967  17.092  0.4438 -1.2662 -2.6917
  601MPD2    H3 8965   4.630   2.854  17.120 -0.3665  0.7325  1.4591
  601MPD2     N 8966   4.432   2.458  17.210  0.9088  0.2715  0.2878
  601MPD2    H5 8967   4.527   2.421  17.209  1.3343  1.3356  1.0775
  601MPD2    N1 8968   4.180   2.866  17.109 -0.2922 -0.3099 -0.4287
  601MPD2    H7 8969   4.097   2.824  17.149  0.4950 -1.7098 -0.2710
  602TMC3    C1 8970   4.034   3.042  17.047  0.7006 -0.1000  0.3300
  602TMC3    C2 8971   4.018   3.175  17.017  0.2236  0.2255 -0.6811
  602TMC3    C3 8972   3.892   3.226  17.005 -0.4027  0.5363 -0.2618
  602TMC3    C4 8973   3.927   2.956  17.047 -0.7989  0.1305 -0.9359
  602TMC3    C5 8974   3.801   3.009  17.007  0.0965 -0.0149  1.0793
  602TMC3    C6 8975   3.792   3.144  16.990 -0.5987 -0.3048  0.8765
  602TMC3     C 8976   4.167   2.987  17.046  0.8895 -0.4327 -0.7719
  602TMC3     O 8977   4.248   3.050  16.979  0.9857 -0.1464 -0.2014
  602TMC3     H 8978   4.096   3.245  17.044  0.8101 -1.1656  1.2760
  602TMC3    H1 8979   3.935   2.848  17.050  1.3609  0.3072 -0.4539
  602TMC3    H2 8980   3.697   3.195  16.974 -1.2596 -2.0749 -0.8661
  602TMC3    C7 8981   3.679   2.950  17.056  0.3549  0.4231  0.3014
  602TMC3    C8 8982   3.866   3.338  17.106  0.4157 -0.5306 -0.2012
  602TMC3    O1 8983   3.696   2.861  17.140  0.3376  0.6627  0.3676
  602TMC3    O2 8984   3.952   3.353  17.189 -0.4928  0.6264  0.1720
  603TMC3    C1 8985   2.665   3.361  11.234 -0.2170  0.3132  0.1102
  603TMC3    C2 8986   2.618   3.311  11.350 -0.1647  0.1373  0.1161
  603TMC3    C3 8987   2.503   3.240  11.350 -0.5505 -0.4049  0.0465
  603TMC3    C4 8988   2.612   3.321  11.117  0.5753  1.0319 -0.8212
  603TMC3    C5 8989   2.497   3.244  11.119  0.1897 -0.2224  0.1620
  603TMC3    C6 8990   2.445   3.204  11.237 -0.3035  0.6306  0.3672
  603TMC3     C 8991   2.767   3.472  11.240 -0.2332 -0.2255  0.5381
  603TMC3     O 8992   2.807   3.518  11.350 -0.9226 -0.7928  0.0348
  603TMC3     H 8993   2.673   3.338  11.440  0.5661  2.7933 -1.1328
  603TMC3    H1 8994   2.658   3.349  11.022 -2.0165 -1.7905 -2.9089
  603TMC3    H2 8995   2.386   3.113  11.240  0.1785  0.3510  1.3569
  603TMC3    C7 8996   2.445   3.194  10.994  0.0036 -0.2495  0.8862
  603TMC3    C8 8997   2.439   3.202  11.473 -1.1043 -0.4608 -0.0805
  603TMC3    O1 8998   2.517   3.211  10.895  0.1111  0.2432  0.5132
  603TMC3    O2 8999   2.365   3.106  11.480  0.1321  0.5929 -0.0773
  604MPD2     C 9000   3.821   2.664  15.998  0.1456 -0.9082  0.3360
  604MPD2    C1 9001   3.701   2.596  16.006  0.6801 -0.3081  0.0068
  604MPD2    C2 9002   3.671   2.487  15.921  0.0731  0.2228  0.6820
  604MPD2    C3 9003   3.760   2.458  15.821 -0.2086 -1.0887 -0.2636
  604MPD2    C4 9004   3.880   2.529  15.819 -0.2475  0.6655 -0.4841
  604MPD2    C5 9005   3.907   2.624  15.907 -0.3175  0.4777  0.5344
  604MPD2     H 9006   3.587   2.420  15.932  0.5965 -0.3159  1.3741
  604MPD2    H1 9007   3.961   2.519  15.748  1.6764 -1.7769  2.0356
  604MPD2    H2 9008   3.844   2.753  16.055 -2.1329 -0.7840  1.0739
  604MPD2    H3 9009   4.002   2.672  15.886 -0.4598  0.1123 -0.9450
  604MPD2     N 9010   3.725   2.366  15.721  0.5950  0.5985 -0.1698
  604MPD2    H5 9011   3.631   2.328  15.727 -0.2772  2.5447 -1.4082
  604MPD2    N1 9012   3.597   2.638  16.096 -0.3661 -0.5783 -0.2326
  604MPD2    H7 9013   3.608   2.723  16.150 -1.9980  0.1359 -1.0358
  605TMC3    C1 9014   3.396   2.625  16.218  0.6566  0.2378  0.1857
  605TMC3    C2 9015   3.391   2.755  16.253  0.2053  0.7737 -0.0764
  605TMC3    C3 9016   3.292   2.799  16.347  0.0184 -0.0954 -0.0018
  605TMC3    C4 9017   3.283   2.551  16.242 -0.5052  0.3043 -0.2869
  605TMC3    C5 9018   3.192   2.595  16.333 -0.3254 -0.1961  0.5339
  605TMC3    C6 9019   3.195   2.715  16.394 -0.4266 -0.4447 -0.0036
  605TMC3     C 9020   3.472   2.577  16.108  0.5695 -0.3851  0.3034
  605TMC3     O 9021   3.414   2.503  16.026  0.0537 -0.4605 -0.0014
  605TMC3     H 9022   3.459   2.821  16.201  0.6616  0.2709 -0.1197
  605TMC3    H1 9023   3.266   2.451  16.203  1.7074 -0.0563 -0.3358
  605TMC3    H2 9024   3.105   2.751  16.444  0.9727  0.2863  1.9623
  605TMC3    C7 9025   3.066   2.523  16.342  0.6919 -0.3266 -0.1943
  605TMC3    C8 9026   3.294   2.932  16.395  0.6296  0.8826  0.8756
  605TMC3    O1 9027   3.004   2.522  16.445 -0.2164  0.2523 -0.1460
  605TMC3    O2 9028   3.196   2.962  16.460 -0.0206  0.0561 -0.2436
  606TMC3    C1 9029   4.475   0.629  17.222 -0.7352 -0.0393  0.2889
  606TMC3    C2 9030   4.578   0.669  17.299 -0.4834  0.1033  0.6780
  606TMC3    C3 9031   4.626   0.587  17.403  0.1663  0.3138 -0.1184
  606TMC3    C4 9032   4.425   0.507  17.240 -0.4949 -0.7214 -0.2976
  606TMC3    C5 9033   4.475   0.421  17.341  0.2622  0.7586 -0.8918
  606TMC3    C6 9034   4.570   0.464  17.426  0.1287 -0.0691  0.3039
  606TMC3     C 9035   4.424   0.720  17.118 -0.0984 -0.3307  0.4115
  606TMC3     O 9036   4.350   0.670  17.030  0.3365 -0.0583  0.3756
  606TMC3     H 9037   4.643   0.746  17.259 -0.9228  1.1424  1.9477
  606TMC3    H1 9038   4.355   0.467  17.167 -1.7043  2.7621 -1.0273
  606TMC3    H2 9039   4.610   0.391  17.495 -1.5000 -1.2371  0.0183
  606TMC3    C7 9040   4.409   0.289  17.360  0.5732 -0.0072  0.5079
  606TMC3    C8 9041   0.018   0.609  17.464 -0.1300  0.4709 -0.4576
  606TMC3    O1 9042   4.472   0.210  17.428  0.2872  0.0335 -0.0921
  606TMC3    O2 9043   0.088   0.510  17.496  0.0059  0.0916  0.3863
  607MPD2     C 9044   1.288   3.099  11.466 -0.0454 -0.7009  0.1675
  607MPD2    C1 9045   1.278   3.204  11.556 -0.4003  0.1099 -0.6291
  607MPD2    C2 9046   1.202   3.190  11.672 -0.2867 -0.1135 -0.4170
  607MPD2    C3 9047   1.154   3.057  11.707  0.4170 -0.4094 -0.1316
  607MPD2    C4 9048   1.158   2.961  11.613 -0.3004  0.2299  0.2974
  607MPD2    C5 9049   1.218   2.981  11.494 -0.1205 -0.4167  0.7853
  607MPD2     H 9050   1.225   3.262  11.750  1.3542  2.0193 -2.8857
  607MPD2    H1 9051   1.106   2.867  11.629  0.8172 -0.7703 -2.0213
  607MPD2    H2 9052   1.354   3.121  11.383 -1.3861 -0.3248 -0.8061
  607MPD2    H3 9053   1.226   2.892  11.432  2.4865 -0.8785  1.8033
  607MPD2     N 9054   1.111   3.045  11.840 -0.3165  0.3759  0.3724
  607MPD2    H5 9055   1.125   3.126  11.899  0.3038 -0.2837  1.1386
  607MPD2    N1 9056   1.361   3.319  11.544  0.2961 -0.1063  0.8127
  607MPD2    H7 9057   1.344   3.390  11.615 -3.1817 -0.4304  0.2984
  608TMC3    C1 9058   1.549   3.466  11.490  0.1998  0.0839  0.2716
  608TMC3    C2 9059   1.580   3.467  11.611 -0.4741  0.5027 -0.4556
  608TMC3    C3 9060   1.663   3.573  11.650 -0.2536  0.2597  0.0749
  608TMC3    C4 9061   1.575   3.559  11.391  0.0453 -0.6473  0.0393
  608TMC3    C5 9062   1.648   3.667  11.436  0.0532 -0.1833  0.0549
  608TMC3    C6 9063   1.696   3.675  11.565 -0.0192  0.0451  0.1450
  608TMC3     C 9064   1.465   3.349  11.452 -0.1149  0.0904  0.3682
  608TMC3     O 9065   1.493   3.307  11.341  0.1700 -0.5526  0.3427
  608TMC3     H 9066   1.560   3.378  11.669  2.9943 -1.0928 -1.7035
  608TMC3    H1 9067   1.535   3.549  11.291  2.4333  1.5593 -1.1621
  608TMC3    H2 9068   1.751   3.758  11.608  0.1272 -1.1218  2.2152
  608TMC3    C7 9069   1.650   3.784  11.346 -0.0553 -0.4031  1.1294
  608TMC3    C8 9070   1.677   3.588  11.789 -0.0921 -0.5453 -0.0885
  608TMC3    O1 9071   1.617   3.775  11.226 -0.2796 -0.4457  0.5547
  608TMC3    O2 9072   1.756   3.668  11.830 -0.0874 -0.0594 -0.1566
  609TMC3    C1 9073   4.499   1.671   9.106  0.2104  0.0957  0.2775
  609TMC3    C2 9074   4.414   1.595   9.033 -0.7544  0.1873  0.2508
  609TMC3    C3 9075   4.464   1.492   8.955  0.5402 -0.5727  0.7651
  609TMC3    C4 9076   4.635   1.664   9.091  0.1635  0.6770 -0.3468
  609TMC3    C5 9077   4.681   1.563   9.003 -0.3035  0.2183 -0.0055
  609TMC3    C6 9078   4.597   1.462   8.953 -0.0433  0.4330  0.1353
  609TMC3     C 9079   4.441   1.763   9.207  0.9238 -0.3136 -0.3421
  609TMC3     O 9080   4.322   1.796   9.205 -0.4533 -0.3624 -0.9344
  609TMC3     H 9081   4.312   1.629   9.040 -0.2989  1.9597 -1.6296
  609TMC3    H1 9082   4.705   1.746   9.104  0.5573 -0.0127  1.7956
  609TMC3    H2 9083   4.642   1.385   8.892  2.4311  0.8963  1.3709
  609TMC3    C7 9084   0.081   1.527   9.024  0.1342  0.5010  0.1553
  609TMC3    C8 9085   4.377   1.396   8.888  0.2330  0.1476  0.4912
  609TMC3    O1 9086   0.137   1.580   9.117 -0.1240 -0.2473  0.3970
  609TMC3    O2 9087   4.428   1.290   8.852 -0.3310 -0.2279 -0.0968
  610TMC3    C1 9088   2.074   3.380  12.294  0.5291  0.6368 -0.3286
  610TMC3    C2 9089   1.994   3.380  12.185  0.3044 -0.2814  0.3676
  610TMC3    C3 9090   1.900   3.281  12.166  0.0068  1.1396  0.8148
  610TMC3    C4 9091   2.036   3.300  12.401  0.1106 -0.3486  0.2559
  610TMC3    C5 9092   1.944   3.202  12.385 -0.0755 -0.0194 -0.2562
  610TMC3    C6 9093   1.886   3.181  12.259 -0.0956 -0.1943 -0.1181
  610TMC3     C 9094   2.174   3.482  12.322 -0.3571 -0.2868 -0.1804
  610TMC3     O 9095   2.233   3.474  12.429  0.4995  0.4773  0.0733
  610TMC3     H 9096   2.004   3.451  12.103 -1.9809 -1.1827 -0.6789
  610TMC3    H1 9097   2.085   3.310  12.498  2.9764  2.8148 -1.5235
  610TMC3    H2 9098   1.819   3.103  12.225 -0.4019  0.2014 -0.4267
  610TMC3    C7 9099   1.931   3.095  12.486  0.1376  0.2455 -0.1987
  610TMC3    C8 9100   1.834   3.268  12.036  0.9618  0.6800 -0.6020
  610TMC3    O1 9101   2.013   3.097  12.572 -0.2821  0.1990  0.1304
  610TMC3    O2 9102   1.911   3.269  11.946 -0.0847 -0.2375 -0.1470
  611MPD2     C 9103   0.985   2.870  10.461  0.3538  0.0356 -1.1747
  611MPD2    C1 9104   1.032   2.743  10.468 -0.6209 -0.3149  0.5450
  611MPD2    C2 9105   1.152   2.719  10.541 -0.4083  0.4192  0.1705
  611MPD2    C3 9106   1.228   2.825  10.596 -0.4223 -0.0255 -0.9653
  611MPD2    C4 9107   1.184   2.947  10.563 -0.7463  0.4043  0.6023
  611MPD2    C5 9108   1.063   2.973  10.503  0.8658  0.0632  0.2660
  611MPD2     H 9109   1.189   2.620  10.563 -0.6696  0.9669  3.1368
  611MPD2    H1 9110   1.245   3.036  10.575  1.7389 -1.4531  1.7602
  611MPD2    H2 9111   0.883   2.882  10.424  0.6987  3.9720 -0.9013
  611MPD2    H3 9112   1.037   3.074  10.473 -2.3911 -0.6269  0.7645
  611MPD2     N 9113   1.348   2.825  10.669  0.2776 -0.0112 -0.2253
  611MPD2    H5 9114   1.399   2.913  10.683 -0.0657  0.1702 -0.1259
  611MPD2    N1 9115   0.948   2.641  10.413  0.4049 -0.2937  1.2247
  611MPD2    H7 9116   0.867   2.675  10.361  1.0170 -1.2527 -0.3527
  612TMC3    C1 9117   1.506   2.727  10.812 -0.5258 -0.2193  0.3612
  612TMC3    C2 9118   1.608   2.804  10.765  0.2319  0.6275  0.3909
  612TMC3    C3 9119   1.729   2.790  10.825 -0.5626  0.0679  0.0764
  612TMC3    C4 9120   1.522   2.647  10.924  0.1896 -0.3397 -0.3644
  612TMC3    C5 9121   1.647   2.637  10.980  0.4138  0.5603 -0.0681
  612TMC3    C6 9122   1.749   2.712  10.931  1.0578  0.2894  0.3180
  612TMC3     C 9123   1.381   2.711  10.736  0.6067  0.7325  0.6087
  612TMC3     O 9124   1.329   2.605  10.739 -0.8930  0.8836 -0.2997
  612TMC3     H 9125   1.600   2.863  10.674  0.2526  1.4796  0.9357
  612TMC3    H1 9126   1.444   2.572  10.939  0.4572 -0.7449 -0.9794
  612TMC3    H2 9127   1.846   2.704  10.978  0.2695 -2.0999  1.5642
  612TMC3    C7 9128   1.658   2.573  11.112 -0.1236 -0.0688 -0.2168
  612TMC3    C8 9129   1.846   2.850  10.765 -0.6263 -0.2992 -0.5394
  612TMC3    O1 9130   1.769   2.583  11.164 -0.3914  0.1433 -0.0076
  612TMC3    O2 9131   1.837   2.853  10.643  0.2185  0.2037  0.7108
  613MPD2     C 9132   0.512   0.278  16.490  0.4233  0.0728  0.0167
  613MPD2    C1 9133   0.468   0.335  16.373 -0.1855 -0.8332  0.6327
  613MPD2    C2 9134   0.453   0.259  16.259  0.2409 -0.0434 -0.4465
  613MPD2    C3 9135   0.482   0.120  16.264 -0.5496 -0.4310  0.2462
  613MPD2    C4 9136   0.527   0.065  16.383  0.6188 -0.8276  0.4928
  613MPD2    C5 9137   0.541   0.143  16.497  0.1198  0.2324 -0.4081
  613MPD2     H 9138   0.431   0.306  16.163  0.1219 -1.7584 -1.2558
  613MPD2    H1 9139   0.552   4.695  16.396  1.4526 -0.7427 -0.4217
  613MPD2    H2 9140   0.546   0.344  16.569 -1.9796  0.6465  0.5878
  613MPD2    H3 9141   0.580   0.109  16.592 -2.6706 -2.0326 -0.0610
  613MPD2     N 9142   0.483   0.042  16.147  0.4316 -0.3838 -0.1825
  613MPD2    H5 9143   0.532   4.689  16.152 -0.7175 -1.1075 -1.5271
  613MPD2    N1 9144   0.469   0.473  16.372 -0.3955 -0.4631  0.2682
  613MPD2    H7 9145   0.493   0.525  16.456 -1.6776  1.4493 -0.5666
  614TMC3    C1 9146   0.505   0.664  16.237  0.0193  0.6694  0.0691
  614TMC3    C2 9147   0.641   0.636  16.229  0.2753  1.3585 -0.4072
  614TMC3    C3 9148   0.703   0.678  16.119  0.4486 -0.8077 -0.3055
  614TMC3    C4 9149   0.441   0.750  16.155 -0.4511 -0.3391 -0.0356
  614TMC3    C5 9150   0.508   0.791  16.047  0.2893  0.0150 -0.2226
  614TMC3    C6 9151   0.640   0.754  16.024  0.4075  0.0463 -0.2590
  614TMC3     C 9152   0.415   0.552  16.274 -0.1668 -0.1282 -0.0068
  614TMC3     O 9153   0.326   0.524  16.196 -0.4902  0.0633 -0.0395
  614TMC3     H 9154   0.690   0.563  16.292 -1.1763  2.2197  1.6981
  614TMC3    H1 9155   0.336   0.770  16.174 -0.8547 -0.7572 -1.8138
  614TMC3    H2 9156   0.687   0.805  15.941 -1.8418  0.7012 -1.1057
  614TMC3    C7 9157   0.452   0.910  15.985  1.0226  0.0566  0.8775
  614TMC3    C8 9158   0.793   0.584  16.063 -0.0232  0.0749  0.4888
  614TMC3    O1 9159   0.374   0.977  16.060  0.3389  0.7163 -0.2028
  614TMC3    O2 9160   0.804   0.591  15.942  0.4222  0.2875  0.2080
  615MPD2     C 9161   0.136   2.629  16.122 -0.4403  0.8456 -0.2720
  615MPD2    C1 9162   0.156   2.623  15.986  0.5458  0.6469 -0.1859
  615MPD2    C2 9163   0.102   2.516  15.915 -0.0811 -0.2721  0.7647
  615MPD2    C3 9164   0.005   2.433  15.971  0.1777 -0.0679  0.3357
  615MPD2    C4 9165   4.707   2.454  16.103 -0.0218  0.5974 -0.4596
  615MPD2    C5 9166   0.042   2.548  16.175 -0.0241  0.5819 -0.2637
  615MPD2     H 9167   0.120   2.509  15.808  1.2827 -0.1118  0.9903
  615MPD2    H1 9168   4.624   2.397  16.142 -1.1069  1.2844 -1.7777
  615MPD2    H2 9169   0.170   2.716  16.178  1.5594  1.1606 -1.9414
  615MPD2    H3 9170   0.022   2.553  16.282  0.3683 -0.4693 -0.1440
  615MPD2     N 9171   4.675   2.334  15.898  0.3864 -0.3824 -0.0700
  615MPD2    H5 9172   4.591   2.289  15.930  0.8079 -0.6281  0.6899
  615MPD2    N1 9173   0.243   2.713  15.908  0.4665  0.4391  0.2084
  615MPD2    H7 9174   0.259   2.688  15.811  0.4553  0.3045  0.2402
  616TMC3    C1 9175   0.338   2.917  15.845 -0.3980  0.5628 -0.0100
  616TMC3    C2 9176   0.449   2.999  15.855 -0.2196  0.4967 -0.3420
  616TMC3    C3 9177   0.485   3.076  15.748 -0.1427 -0.1539  0.3285
  616TMC3    C4 9178   0.248   2.927  15.741 -0.4750  0.0767  0.1950
  616TMC3    C5 9179   0.287   3.013  15.635 -0.2432 -0.2798  0.3899
  616TMC3    C6 9180   0.407   3.075  15.630  0.1808  0.6680 -0.2026
  616TMC3     C 9181   0.302   2.827  15.952  0.2292 -0.3381 -0.1911
  616TMC3     O 9182   0.311   2.868  16.066 -0.5421 -0.3377 -0.3207
  616TMC3     H 9183   0.506   2.996  15.947  0.5479 -0.4114 -0.8411
  616TMC3    H1 9184   0.152   2.877  15.744 -1.0579  1.0249 -2.8023
  616TMC3    H2 9185   0.448   3.133  15.549 -0.3670  0.3747 -0.6931
  616TMC3    C7 9186   0.199   3.009  15.526  0.2958 -0.0458 -0.7893
  616TMC3    C8 9187   0.626   3.100  15.730 -0.1307  0.5650 -0.0276
  616TMC3    O1 9188   0.088   2.964  15.549  0.3982 -0.3016 -0.0342
  616TMC3    O2 9189   0.645   3.182  15.642  0.1090  0.4097 -0.5024
  617MPD2     C 9190   2.978   0.434  13.919  0.0942  0.2151  0.3528
  617MPD2    C1 9191   3.018   0.362  14.028 -0.0023  0.5338 -0.0745
  617MPD2    C2 9192   2.919   0.319  14.113  0.2252 -0.6786  0.8876
  617MPD2    C3 9193   2.778   0.330  14.082  0.4604  0.4096  0.2441
  617MPD2    C4 9194   2.752   0.411  13.978  0.3097  0.2537 -0.2072
  617MPD2    C5 9195   2.850   0.456  13.899 -0.0917 -0.5154 -0.3097
  617MPD2     H 9196   2.953   0.257  14.195  2.2914  0.1084  0.6245
  617MPD2    H1 9197   2.648   0.430  13.952  0.5061 -1.5775 -2.3636
  617MPD2    H2 9198   3.054   0.474  13.853  0.2932 -0.7283 -0.0062
  617MPD2    H3 9199   2.825   0.512  13.810  3.2438  0.7263 -0.4802
  617MPD2     N 9200   2.672   0.270  14.143 -0.6744 -0.0268  0.1982
  617MPD2    H5 9201   2.579   0.298  14.112 -0.2764 -0.4256 -1.3497
  617MPD2    N1 9202   3.158   0.330  14.045  0.8143 -0.2162 -0.2959
  617MPD2    H7 9203   3.224   0.364  13.976 -0.1859  1.8957 -0.2249
  618TMC3    C1 9204   3.360   0.288  14.148  0.4267 -0.1353 -0.7011
  618TMC3    C2 9205   3.432   0.171  14.151  0.1444  0.2140  0.2544
  618TMC3    C3 9206   3.530   0.160  14.054  0.1740  0.0358  0.5151
  618TMC3    C4 9207   3.397   0.398  14.075  0.3746  0.1282 -0.1561
  618TMC3    C5 9208   3.495   0.378  13.984  0.4645 -0.3417 -0.1108
  618TMC3    C6 9209   3.562   0.260  13.969 -0.4028 -0.4369  0.2362
  618TMC3     C 9210   3.217   0.276  14.154 -0.3694  0.0342  0.0163
  618TMC3     O 9211   3.175   0.195  14.237  0.2129  0.2788  0.1898
  618TMC3     H 9212   3.403   0.081  14.203 -0.4881 -0.1595 -0.7469
  618TMC3    H1 9213   3.338   0.489  14.074  0.3305  0.1246  1.3273
  618TMC3    H2 9214   3.636   0.250  13.890 -2.1177 -3.3961 -0.9919
  618TMC3    C7 9215   3.461   0.440  13.856 -0.5671 -0.1896 -0.7319
  618TMC3    C8 9216   3.598   0.029  14.033 -1.1612  0.3114 -0.1179
  618TMC3    O1 9217   3.340   0.455  13.833 -0.0775  0.2532 -0.3686
  618TMC3    O2 9218   3.651   4.710  14.129  0.0177 -0.7626 -0.1763
  619MPD2     C 9219   4.389   1.409  13.694  0.3924  0.5793  0.0038
  619MPD2    C1 9220   4.318   1.519  13.660 -0.2551  0.1725 -0.0251
  619MPD2    C2 9221   4.191   1.537  13.710  0.0255 -0.8016  0.8049
  619MPD2    C3 9222   4.132   1.435  13.777  0.2401  0.0373  0.1931
  619MPD2    C4 9223   4.196   1.315  13.795  0.5630  0.1317  0.6241
  619MPD2    C5 9224   4.328   1.309  13.760 -0.5285 -0.4210 -1.1060
  619MPD2     H 9225   4.145   1.634  13.690  1.3986 -0.3175 -0.0153
  619MPD2    H1 9226   4.154   1.232  13.851 -0.4809  1.2074  1.4427
  619MPD2    H2 9227   4.491   1.402  13.657  0.1625 -2.2309 -0.0406
  619MPD2    H3 9228   4.370   1.209  13.762  2.5226  0.9094  0.1876
  619MPD2     N 9229   4.000   1.446  13.835  0.2212  0.2700  0.7901
  619MPD2    H5 9230   3.944   1.362  13.843  1.8771 -1.0660 -1.6634
  619MPD2    N1 9231   4.371   1.629  13.590  0.3669 -0.3122  0.2820
  619MPD2    H7 9232   4.317   1.706  13.551  1.9353 -0.0561 -1.3730
  620TMC3    C1 9233   4.510   1.745  13.461 -0.0600  0.5820 -0.8008
  620TMC3    C2 9234   4.401   1.743  13.379  0.2418 -0.2401  0.1237
  620TMC3    C3 9235   4.355   1.864  13.332  0.1073 -0.9172  0.7647
  620TMC3    C4 9236   4.576   1.865  13.490 -0.1150  0.5678 -0.4650
  620TMC3    C5 9237   4.543   1.981  13.420  0.3930 -0.3762  0.3724
  620TMC3    C6 9238   4.430   1.983  13.349  0.1535  0.4092 -0.2269
  620TMC3     C 9239   4.505   1.649  13.569 -0.3553 -0.2506 -0.0292
  620TMC3     O 9240   4.604   1.588  13.597  0.0484  0.2841 -0.0948
  620TMC3     H 9241   4.343   1.653  13.364 -1.0257  0.2885  1.8567
  620TMC3    H1 9242   4.641   1.876  13.576 -1.3864 -1.4645  0.7730
  620TMC3    H2 9243   4.393   2.076  13.305  0.5462  0.4367 -0.4946
  620TMC3    C7 9244   4.549   2.097  13.507  0.4624 -0.1467  0.8005
  620TMC3    C8 9245   4.222   1.902  13.362 -0.7038  0.0756  0.1563
  620TMC3    O1 9246   4.657   2.146  13.529  0.5240 -0.4489  0.3289
  620TMC3    O2 9247   4.201   2.014  13.406  0.2269 -0.4656 -0.7736
  621MPD2     C 9248   3.440   2.046  10.532 -0.3311  0.1924  0.1535
  621MPD2    C1 9249   3.559   1.996  10.574  0.2245 -0.7951 -0.3882
  621MPD2    C2 9250   3.672   2.046  10.510 -0.1430  0.6792  0.2260
  621MPD2    C3 9251   3.663   2.122  10.387  0.6311  0.3400 -0.3326
  621MPD2    C4 9252   3.538   2.171  10.349 -0.4073 -0.3981  0.6790
  621MPD2    C5 9253   3.430   2.127  10.419  0.5430  0.2796  0.3847
  621MPD2     H 9254   3.771   2.009  10.531 -0.2682 -0.7492 -1.7243
  621MPD2    H1 9255   3.524   2.234  10.262 -0.4521  1.6558  2.1710
  621MPD2    H2 9256   3.349   2.017  10.584 -0.3562  3.1674  1.7600
  621MPD2    H3 9257   3.333   2.165  10.389  0.3032  0.2595  1.1371
  621MPD2     N 9258   3.786   2.158  10.328  0.0582  0.0166  0.3305
  621MPD2    H5 9259   3.868   2.133  10.383  0.6806 -0.9348 -1.0182
  621MPD2    N1 9260   3.578   1.908  10.677  0.3959 -0.4209 -0.0555
  621MPD2    H7 9261   3.675   1.898  10.703  0.2712  0.5012  0.7900
  622TMC3    C1 9262   3.513   1.839  10.901  0.3876  0.9547 -0.3594
  622TMC3    C2 9263   3.489   1.960  10.962 -0.2181 -0.2403  0.3634
  622TMC3    C3 9264   3.571   2.021  11.052  0.2750  0.5279 -0.3585
  622TMC3    C4 9265   3.634   1.783  10.929  1.2302 -0.1382 -0.3648
  622TMC3    C5 9266   3.717   1.844  11.022  0.0979  0.5291 -0.3701
  622TMC3    C6 9267   3.685   1.958  11.093 -0.6964  0.5004 -0.2959
  622TMC3     C 9268   3.476   1.850  10.756  0.1948 -0.0326  0.3397
  622TMC3     O 9269   3.359   1.856  10.729 -0.3991 -0.3977  0.2609
  622TMC3     H 9270   3.391   2.003  10.945 -0.3471 -0.5106  0.4313
  622TMC3    H1 9271   3.663   1.692  10.878  0.7188 -1.2243  1.3009
  622TMC3    H2 9272   3.755   2.006  11.159 -0.0924  0.4607 -0.9041
  622TMC3    C7 9273   3.840   1.777  11.068 -0.2646  0.2519  0.2136
  622TMC3    C8 9274   3.590   2.164  11.039  0.6887  0.5730 -0.1133
  622TMC3    O1 9275   3.866   1.801  11.184 -0.1536  0.1386 -0.6818
  622TMC3    O2 9276   3.685   2.214  11.097  0.0578 -0.1912  0.3278
  623MPD2     C 9277   4.009   3.043  15.697  0.3756  0.2740  0.4798
  623MPD2    C1 9278   3.905   3.043  15.793  0.4476 -0.3650  0.8459
  623MPD2    C2 9279   3.921   3.125  15.901 -0.1675  0.4473 -0.4458
  623MPD2    C3 9280   4.032   3.197  15.926  0.3160  0.3345 -0.3331
  623MPD2    C4 9281   4.133   3.194  15.838  0.2243 -0.2073 -0.6748
  623MPD2    C5 9282   4.117   3.111  15.732  0.0887 -0.4178  0.1177
  623MPD2     H 9283   3.836   3.155  15.962 -1.0107 -1.1962 -0.7937
  623MPD2    H1 9284   4.224   3.252  15.848  0.0421 -0.0174 -0.1420
  623MPD2    H2 9285   4.004   2.993  15.601 -0.9565  0.3708  0.4918
  623MPD2    H3 9286   4.200   3.110  15.662 -0.9895 -2.4610 -1.1188
  623MPD2     N 9287   4.036   3.280  16.042 -0.2074 -0.0656  0.0474
  623MPD2    H5 9288   3.956   3.282  16.104  0.4708  3.0875  0.8111
  623MPD2    N1 9289   3.787   2.967  15.769 -0.1123  0.3186  0.4725
  623MPD2    H7 9290   3.775   2.938  15.673 -1.1214 -1.0538  1.0116
  624TMC3    C1 9291   4.209   3.266  16.400  0.7402 -0.1399 -0.4508
  624TMC3    C2 9292   4.082   3.253  16.454 -0.3028 -0.0640  0.0677
  624TMC3    C3 9293   3.972   3.298  16.381  0.1419  0.3309 -0.2479
  624TMC3    C4 9294   4.228   3.340  16.288 -0.1127 -0.4748 -0.5418
  624TMC3    C5 9295   4.112   3.380  16.224 -1.3083 -0.0244 -0.0254
  624TMC3    C6 9296   3.986   3.358  16.262  0.0350  0.1860 -0.4593
  624TMC3     C 9297   4.315   3.188  16.455  0.6377  0.6675  0.2077
  624TMC3     O 9298   4.298   3.142  16.565  0.6038 -0.5441  0.6778
  624TMC3     H 9299   4.080   3.207  16.552  1.4407 -1.9253 -0.7767
  624TMC3    H1 9300   4.325   3.353  16.242 -1.4711  2.6775 -2.4534
  624TMC3    H2 9301   3.902   3.404  16.211 -1.4434  0.2261  1.9669
  624TMC3    C7 9302   4.137   3.358  16.087 -0.2617 -0.6963 -0.1377
  624TMC3    C8 9303   3.841   3.252  16.416 -0.1932  0.0455 -0.3488
  624TMC3    O1 9304   4.241   3.383  16.033  0.2752  0.9657 -0.0441
  624TMC3    O2 9305   3.840   3.141  16.465  0.3359  0.1415 -0.9205
  625MPD2     C 9306   4.209   3.299   0.500 -0.1837 -0.2788 -0.2277
  625MPD2    C1 9307   4.184   3.428   0.459  0.0823  0.2762 -0.3350
  625MPD2    C2 9308   4.285   3.523   0.461  0.4010  0.3623  0.7698
  625MPD2    C3 9309   4.404   3.492   0.524 -0.4946 -0.0292 -0.1655
  625MPD2    C4 9310   4.428   3.365   0.572  0.1603 -0.4514 -0.7292
  625MPD2    C5 9311   4.333   3.274   0.560  0.9501  0.4197 -0.1707
  625MPD2     H 9312   4.272   3.616   0.406 -0.8463  1.0167  2.1609
  625MPD2    H1 9313   4.521   3.335   0.620  0.3503 -1.8431 -1.9760
  625MPD2    H2 9314   4.140   3.216   0.504  0.4513 -0.7820  0.3526
  625MPD2    H3 9315   4.357   3.176   0.600  2.1005  1.1208  0.8343
  625MPD2     N 9316   4.509   3.596   0.521 -0.4382 -0.1434  0.4355
  625MPD2    H5 9317   4.484   3.677   0.466  0.4375  0.4150  0.8649
  625MPD2    N1 9318   4.050   3.465   0.416  0.1003  0.1243  0.6135
  625MPD2    H7 9319   4.043   3.557   0.373  0.3179  0.8328  2.0991
  626TMC3    C1 9320   3.824   3.479   0.393 -0.5934 -0.2065  0.5060
  626TMC3    C2 9321   3.837   3.560   0.280  1.1842  0.1963  0.1747
  626TMC3    C3 9322   3.744   3.661   0.267  0.6582 -0.1968 -0.3485
  626TMC3    C4 9323   3.732   3.495   0.491 -0.0904 -0.0405 -0.3088
  626TMC3    C5 9324   3.651   3.598   0.474 -0.4189  0.3079 -0.7274
  626TMC3    C6 9325   3.653   3.682   0.366 -0.0994 -0.0003 -0.1621
  626TMC3     C 9326   3.935   3.401   0.439  0.5787  0.7492  0.5627
  626TMC3     O 9327   3.913   3.298   0.503 -0.0825  0.3710  0.6656
  626TMC3     H 9328   3.915   3.534   0.210  0.7522 -0.8954  0.0986
  626TMC3    H1 9329   3.731   3.419   0.568 -1.9252 -1.3647 -1.6392
  626TMC3    H2 9330   3.576   3.757   0.351  0.5491  0.5418 -0.7735
  626TMC3    C7 9331   3.587   3.618   0.608 -0.2291  0.1698  0.1340
  626TMC3    C8 9332   3.725   3.709   0.130 -0.7347 -0.0249 -0.1292
  626TMC3    O1 9333   3.637   3.575   0.708  0.1889 -1.0314 -0.3849
  626TMC3    O2 9334   3.753   3.634   0.038 -0.2793 -0.3409  0.5625
  627MPD2     C 9335   2.436   3.786  14.418  0.2819 -0.7657  0.0749
  627MPD2    C1 9336   2.472   3.694  14.514  0.6520 -0.6145  0.2628
  627MPD2    C2 9337   2.385   3.583  14.529 -0.1813  0.1536  0.2581
  627MPD2    C3 9338   2.268   3.570  14.460  0.0169 -0.3134  0.0748
  627MPD2    C4 9339   2.236   3.666  14.362 -0.3068  0.3033  0.2212
  627MPD2    C5 9340   2.324   3.771  14.340 -0.2774  0.1442  1.0773
  627MPD2     H 9341   2.425   3.506  14.594  2.3351 -1.2156 -2.8815
  627MPD2    H1 9342   2.143   3.667  14.306  0.4220  1.0214 -0.9568
  627MPD2    H2 9343   2.493   3.875  14.394 -1.5880  0.1410 -0.9917
  627MPD2    H3 9344   2.306   3.845  14.263 -0.2463 -1.6186 -0.6512
  627MPD2     N 9345   2.170   3.477  14.492 -0.8683 -0.0880 -0.6957
  627MPD2    H5 9346   2.207   3.401  14.548 -0.4613 -1.0533 -2.2762
  627MPD2    N1 9347   2.570   3.712  14.609 -0.1550 -0.2287  0.1967
  627MPD2    H7 9348   2.590   3.632  14.669  0.8788  1.1627  1.7323
  628TMC3    C1 9349   2.701   3.844  14.754 -0.1709 -0.3120  1.0633
  628TMC3    C2 9350   2.806   3.761  14.766  0.1472  0.5451  0.5213
  628TMC3    C3 9351   2.899   3.787  14.863  0.2605  0.0028 -0.4367
  628TMC3    C4 9352   2.708   3.970  14.806 -0.3468 -0.3660  0.1160
  628TMC3    C5 9353   2.826   4.007  14.874 -0.8391  0.2422  0.1173
  628TMC3    C6 9354   2.917   3.916  14.919 -0.1658  0.5687 -0.2018
  628TMC3     C 9355   2.620   3.834  14.639  0.1530 -0.2922  0.0653
  628TMC3     O 9356   2.594   3.942  14.587  0.3573  0.1407  0.2749
  628TMC3     H 9357   2.797   3.662  14.724 -1.0959  0.2349  1.5411
  628TMC3    H1 9358   2.627   4.043  14.800  0.3634  0.6567  2.9358
  628TMC3    H2 9359   3.011   3.944  14.966  0.5410  0.2958 -1.4753
  628TMC3    C7 9360   2.852   4.145  14.908  0.2457  0.0884 -0.7167
  628TMC3    C8 9361   3.018   3.706  14.852  0.1354  0.1932 -0.0859
  628TMC3    O1 9362   2.893   4.176  15.019  0.3391 -0.1820  0.2674
  628TMC3    O2 9363   3.025   3.631  14.758  0.1171 -0.3857 -0.0296
  629MPD2     C 9364   1.127   3.099  15.809 -0.3836 -0.0529 -0.0650
  629MPD2    C1 9365   1.079   2.980  15.858  0.4331 -0.4150  0.3291
  629MPD2    C2 9366   0.941   2.961  15.862  0.2313  0.6587  0.6702
  629MPD2    C3 9367   0.855   3.053  15.797  1.1894  0.6914  0.3648
  629MPD2    C4 9368   0.910   3.174  15.748 -0.3658  0.2565  0.3697
  629MPD2    C5 9369   1.046   3.197  15.763 -0.3317 -0.6421 -0.2263
  629MPD2     H 9370   0.892   2.869  15.891 -0.5585  2.2027  4.2939
  629MPD2    H1 9371   0.853   3.260  15.714 -1.0357  0.9553  3.3028
  629MPD2    H2 9372   1.232   3.122  15.821 -0.8896  1.3807  1.7672
  629MPD2    H3 9373   1.079   3.299  15.746  1.3940 -0.9979  0.8855
  629MPD2     N 9374   0.713   3.030  15.807  0.4644 -0.0175 -0.1508
  629MPD2    H5 9375   0.686   2.947  15.859 -0.8094  2.1515  2.5868
  629MPD2    N1 9376   1.174   2.877  15.887 -0.7453 -0.4116 -0.5571
  629MPD2    H7 9377   1.271   2.892  15.863 -0.1115 -1.6480  1.1809
  630TMC3    C1 9378   1.264   2.673  15.946 -0.0406  0.4079 -0.0915
  630TMC3    C2 9379   1.359   2.699  15.851 -0.4671 -0.0508 -0.1354
  630TMC3    C3 9380   1.480   2.643  15.865 -0.5102  0.3493 -0.0679
  630TMC3    C4 9381   1.291   2.610  16.061 -0.5539  0.3417  0.9264
  630TMC3    C5 9382   1.426   2.586  16.084 -0.1249  0.6986  0.2500
  630TMC3    C6 9383   1.522   2.597  15.987  0.3207  0.7840 -0.4761
  630TMC3     C 9384   1.142   2.756  15.946  0.0719 -0.0097  0.1406
  630TMC3     O 9385   1.036   2.718  15.994  0.3441  0.2205 -0.1740
  630TMC3     H 9386   1.322   2.727  15.753  1.4632 -2.9842 -1.6997
  630TMC3    H1 9387   1.221   2.592  16.142  0.7820 -0.9884  1.7886
  630TMC3    H2 9388   1.620   2.553  16.000  0.4254  1.1895  0.1080
  630TMC3    C7 9389   1.475   2.553  16.215  0.2784  0.1887  0.1149
  630TMC3    C8 9390   1.592   2.676  15.773  0.7011 -0.1225 -0.1734
  630TMC3    O1 9391   1.398   2.494  16.291  0.5703 -0.2159  0.0601
  630TMC3    O2 9392   1.704   2.629  15.804 -0.2627 -0.1800 -0.1574
  631MPD2     C 9393   4.177   2.834  15.398  0.1553 -0.3393  0.3616
  631MPD2    C1 9394   4.164   2.728  15.309 -0.4275 -0.6848 -0.3908
  631MPD2    C2 9395   4.177   2.598  15.356  0.4531  0.1734 -0.2948
  631MPD2    C3 9396   4.217   2.573  15.483 -0.2233  0.4119 -1.1469
  631MPD2    C4 9397   4.222   2.679  15.573 -0.3411  0.2216  0.4294
  631MPD2    C5 9398   4.205   2.808  15.530 -0.2811 -0.6782  0.3250
  631MPD2     H 9399   4.176   2.513  15.289  0.6616 -0.8325  0.9720
  631MPD2    H1 9400   4.230   2.669  15.681  0.9155 -0.3845  0.2721
  631MPD2    H2 9401   4.172   2.940  15.378 -0.1551 -0.5344 -0.5968
  631MPD2    H3 9402   4.220   2.886  15.604 -1.2011  0.1630 -0.3746
  631MPD2     N 9403   4.243   2.436  15.520 -0.3718  0.0117 -0.2523
  631MPD2    H5 9404   4.242   2.365  15.447 -0.8924  1.8473 -2.0481
  631MPD2    N1 9405   4.163   2.751  15.169 -0.2235 -0.2063  0.2702
  631MPD2    H7 9406   4.143   2.668  15.114  2.6257 -1.0347  0.5019
  632TMC3    C1 9407   4.160   2.870  14.964 -0.1138 -1.2109  0.0990
  632TMC3    C2 9408   4.029   2.829  14.942 -0.2154  1.0685 -0.7195
  632TMC3    C3 9409   3.968   2.878  14.827 -0.0034  0.1990 -0.5711
  632TMC3    C4 9410   4.239   2.948  14.880 -0.7326 -0.3461 -0.1607
  632TMC3    C5 9411   4.174   2.991  14.765  0.7480 -0.0890  0.4238
  632TMC3    C6 9412   4.043   2.955  14.739 -0.5652 -0.1358 -0.8963
  632TMC3     C 9413   4.198   2.866  15.107  0.2330  0.5452 -0.0673
  632TMC3     O 9414   4.268   2.959  15.152  0.1679  0.1034  0.0895
  632TMC3     H 9415   3.977   2.770  15.017  1.6314 -1.1479 -1.1616
  632TMC3    H1 9416   4.338   2.976  14.913 -0.7203 -0.4206 -0.1352
  632TMC3    H2 9417   3.993   2.978  14.646 -0.4592 -0.6971 -1.0918
  632TMC3    C7 9418   4.231   3.090  14.675 -0.0717 -0.3927 -0.4682
  632TMC3    C8 9419   3.828   2.902  14.849  0.4493  0.2150  0.3612
  632TMC3    O1 9420   4.158   3.162  14.607 -0.1172  0.1623 -0.2180
  632TMC3    O2 9421   3.785   2.850  14.949  0.0329  0.3092 -0.3020
  633MPD2     C 9422   3.218   0.897  17.081 -0.6537 -0.6212 -0.3495
  633MPD2    C1 9423   3.333   0.831  17.041  0.3421  0.3159 -0.0305
  633MPD2    C2 9424   3.372   0.707  17.089 -0.3856  0.3762 -0.4983
  633MPD2    C3 9425   3.282   0.641  17.174  0.4021  0.2296  0.3746
  633MPD2    C4 9426   3.161   0.703  17.203 -0.1337  0.0231 -0.9272
  633MPD2    C5 9427   3.124   0.830  17.152 -0.0872 -0.0440 -0.1210
  633MPD2     H 9428   3.455   0.655  17.043 -0.6007 -1.0981  0.7853
  633MPD2    H1 9429   3.095   0.649  17.270  1.2846  1.1410  1.3464
  633MPD2    H2 9430   3.184   0.991  17.038 -1.2350 -1.2362 -1.2252
  633MPD2    H3 9431   3.023   0.867  17.170  0.1050  0.8523 -0.8954
  633MPD2     N 9432   3.309   0.508  17.220  0.4382  0.8555 -0.4122
  633MPD2    H5 9433   3.235   0.444  17.246  0.0814  1.6157  0.4197
  633MPD2    N1 9434   3.420   0.884  16.942 -0.7313  0.3060  0.3182
  633MPD2    H7 9435   3.504   0.837  16.908  0.4035  2.0642  0.6797
  634TMC3    C1 9436   3.508   1.028  16.775  0.0314 -0.1230 -0.3993
  634TMC3    C2 9437   3.554   0.918  16.716 -0.4481  0.0890  0.5143
  634TMC3    C3 9438   3.634   0.939  16.601  0.4625 -0.7051 -0.2463
  634TMC3    C4 9439   3.529   1.158  16.731  0.5449  0.1176  0.6413
  634TMC3    C5 9440   3.598   1.173  16.622  0.5877  0.1765  0.4761
  634TMC3    C6 9441   3.665   1.072  16.559 -0.5104  0.0381 -0.0597
  634TMC3     C 9442   3.403   1.006  16.878  0.1726 -0.3741 -0.6040
  634TMC3     O 9443   3.310   1.082  16.881  0.3552  0.2307 -0.6460
  634TMC3     H 9444   3.517   0.817  16.730 -2.7211  0.8392  0.0163
  634TMC3    H1 9445   3.496   1.242  16.792  1.5882  0.1891  1.1152
  634TMC3    H2 9446   3.746   1.095  16.492  0.2108  3.5299  2.0031
  634TMC3    C7 9447   3.612   1.299  16.561 -0.1108  0.9224 -0.3839
  634TMC3    C8 9448   3.653   0.819  16.514 -0.0239  0.5383  0.5527
  634TMC3    O1 9449   3.667   1.295  16.450  0.3449  0.1486  0.2296
  634TMC3    O2 9450   3.609   0.715  16.552 -0.1654  0.8811  0.0032
  635TMC3    C1 9451   3.538   1.534  17.370  0.2867  0.5674 -0.4412
  635TMC3    C2 9452   3.641   1.448  17.398  0.6034 -0.0709  0.4145
  635TMC3    C3 9453   3.623   1.352  17.497  0.7013 -0.3793  0.3074
  635TMC3    C4 9454   3.414   1.526  17.437 -0.9772  0.0118 -0.2025
  635TMC3    C5 9455   3.407   1.437  17.537 -0.7283  0.5750  0.2160
  635TMC3    C6 9456   3.505   1.345  17.567  0.5492  0.1693 -0.3764
  635TMC3     C 9457   3.563   1.648  17.282 -0.4165  0.4545 -0.1473
  635TMC3     O 9458   3.465   1.698  17.227 -0.6471  0.4027 -0.3650
  635TMC3     H 9459   3.721   1.436  17.326 -0.2481 -2.7531 -0.1169
  635TMC3    H1 9460   3.333   1.593  17.411 -1.2371 -0.4918 -0.6664
  635TMC3    H2 9461   3.493   1.268  17.642  0.8928 -0.2497 -0.7579
  635TMC3    C7 9462   3.279   1.437  17.609 -0.7555  0.6668  0.0132
  635TMC3    C8 9463   3.700   1.233  17.485 -0.0071 -0.3467 -0.2141
  635TMC3    O1 9464   3.176   1.488  17.561  0.0974  0.1951 -0.1611
  635TMC3    O2 9465   3.651   1.124  17.519  0.0259 -0.0734 -0.1538
  636MPD2     C 9466   0.040   0.606  15.738  0.0348 -0.0281  0.2685
  636MPD2    C1 9467   0.108   0.582  15.851 -0.2662  0.0618  0.4696
  636MPD2    C2 9468   0.185   0.469  15.856  0.4193 -0.3218  0.0770
  636MPD2    C3 9469   0.208   0.393  15.744 -0.7508 -0.3630  0.6107
  636MPD2    C4 9470   0.155   0.439  15.626  0.1181 -0.4056 -0.0699
  636MPD2    C5 9471   0.060   0.536  15.625 -0.2988  0.3222  0.5015
  636MPD2     H 9472   0.236   0.444  15.948 -0.0237 -1.2518  0.0692
  636MPD2    H1 9473   0.179   0.386  15.535 -0.2668 -2.2049  0.8703
  636MPD2    H2 9474   4.687   0.670  15.744 -0.3980 -0.6905  1.0057
  636MPD2    H3 9475   4.729   0.544  15.540 -0.3810  0.3668  0.5702
  636MPD2     N 9476   0.294   0.287  15.754  0.0296  0.2732  0.3138
  636MPD2    H5 9477   0.305   0.254  15.849  0.6115  1.9159  0.8110
  636MPD2    N1 9478   0.088   0.660  15.975 -0.1531 -0.1340  0.6010
  636MPD2    H7 9479   0.128   0.619  16.059 -1.9132  0.7202  1.8613
  637TMC3    C1 9480   0.414   0.088  15.705  0.1194  0.3753  0.0834
  637TMC3    C2 9481   0.361   0.044  15.818 -0.0598 -0.6935  0.0436
  637TMC3    C3 9482   0.440   4.735  15.919 -0.2550  0.7752  0.0281
  637TMC3    C4 9483   0.545   0.084  15.683 -0.2925  0.2090 -0.1502
  637TMC3    C5 9484   0.626   0.039  15.781 -0.2360  0.2191  0.5314
  637TMC3    C6 9485   0.578   4.728  15.900  0.4245 -0.0727  0.5179
  637TMC3     C 9486   0.346   0.209  15.653 -0.2064  0.0363 -0.1564
  637TMC3     O 9487   0.358   0.229  15.532 -0.5973  0.3771  0.6029
  637TMC3     H 9488   0.255   0.056  15.839 -0.4439 -0.3391 -2.0395
  637TMC3    H1 9489   0.582   0.115  15.586 -1.1292  0.8961 -0.2546
  637TMC3    H2 9490   0.638   4.720  15.990 -0.9112 -3.3805  1.1201
  637TMC3    C7 9491   0.722   0.138  15.805 -0.0693  0.1761  0.5876
  637TMC3    C8 9492   0.409   0.073  16.037  0.0489  0.0163  0.1244
  637TMC3    O1 9493   0.701   0.258  15.775 -0.6957 -0.1450  0.4033
  637TMC3    O2 9494   0.322   0.159  16.024 -0.3993 -0.0277  0.3903
  638MPD2     C 9495   0.504   4.706  14.554  0.0137  0.0095 -0.0361
  638MPD2    C1 9496   0.449   4.619  14.453  0.3974  0.1747  0.1117
  638MPD2    C2 9497   0.380   4.505  14.495  0.5680 -0.1107 -0.1320
  638MPD2    C3 9498   0.383   4.477  14.627 -0.1172  0.8005 -0.3625
  638MPD2    C4 9499   0.443   4.556  14.718 -0.1090 -0.5404 -0.6864
  638MPD2    C5 9500   0.505   4.673  14.682  0.0638 -0.1768 -0.0870
  638MPD2     H 9501   0.317   4.447  14.429  0.7209 -1.5252  0.9805
  638MPD2    H1 9502   0.443   4.537  14.824  1.3132 -0.1963 -0.6281
  638MPD2    H2 9503   0.549   0.066  14.525 -0.5310  0.5208  0.7866
  638MPD2    H3 9504   0.549   0.007  14.753  0.5130  0.7066 -1.2208
  638MPD2     N 9505   0.297   4.370  14.670  0.0517  0.3569  0.5442
  638MPD2    H5 9506   0.236   4.325  14.603  0.4368 -1.2350  1.2742
  638MPD2    N1 9507   0.478   4.639  14.318 -0.0376  0.5031 -0.4702
  638MPD2    H7 9508   0.530   4.722  14.291  0.6932  0.1819 -0.0733
  639TMC3    C1 9509   0.259   4.174  14.804  0.1985  0.3388  0.1101
  639TMC3    C2 9510   0.183   4.110  14.709 -0.0608 -0.3360 -0.0374
  639TMC3    C3 9511   0.113   3.997  14.731  0.1056  0.5316  0.0819
  639TMC3    C4 9512   0.282   4.107  14.928 -0.4942  1.2693  0.0386
  639TMC3    C5 9513   0.235   3.979  14.936  0.2953 -0.1723  0.1606
  639TMC3    C6 9514   0.140   3.922  14.845  0.0186 -0.3493 -0.0658
  639TMC3     C 9515   0.311   4.308  14.788 -0.2156 -0.4153  0.3709
  639TMC3     O 9516   0.386   4.335  14.883 -0.0205 -0.3752 -0.5708
  639TMC3     H 9517   0.156   4.161  14.617 -0.4301 -1.1454 -0.3779
  639TMC3    H1 9518   0.349   4.154  15.000  2.3347  0.0700 -1.8127
  639TMC3    H2 9519   0.110   3.817  14.838 -1.3133 -0.0469  1.0424
  639TMC3    C7 9520   0.342   3.880  14.957 -0.0995 -0.4322 -0.0617
  639TMC3    C8 9521   0.041   3.929  14.624  0.1251 -0.3770 -0.2893
  639TMC3    O1 9522   0.304   3.762  14.952 -0.5081  0.0782  0.2741
  639TMC3    O2 9523   0.081   3.969  14.515 -0.0725 -0.5419 -0.0739
  640MPD2     C 9524   0.254   2.671   9.974 -0.5727 -0.3484  0.5307
  640MPD2    C1 9525   0.140   2.650   9.902 -0.0337  0.1737 -0.6118
  640MPD2    C2 9526   0.027   2.729   9.927 -0.1672 -0.6158  0.2395
  640MPD2    C3 9527   0.044   2.836  10.013 -0.4013 -0.0870 -0.3787
  640MPD2    C4 9528   0.167   2.867  10.056 -0.1925  0.3140  0.1331
  640MPD2    C5 9529   0.271   2.784  10.037  0.0247 -1.1201  0.5872
  640MPD2     H 9530   4.663   2.704   9.890 -0.2069 -1.1260  0.6753
  640MPD2    H1 9531   0.180   2.961  10.108 -0.0496 -0.0002  0.6686
  640MPD2    H2 9532   0.341   2.612   9.949  0.3223  1.0954  0.2920
  640MPD2    H3 9533   0.365   2.814  10.081  1.1449 -0.8577 -1.9613
  640MPD2     N 9534   4.681   2.922  10.053  0.4579 -0.9439  0.9833
  640MPD2    H5 9535   4.714   3.000  10.109 -1.9145  1.9147 -1.5492
  640MPD2    N1 9536   0.137   2.533   9.824 -0.6274 -0.5339 -0.1738
  640MPD2    H7 9537   0.221   2.476   9.832 -0.4686 -0.3077 -0.2212
  641TMC3    C1 9538   0.061   2.366   9.676  0.0835  1.4303  0.3500
  641TMC3    C2 9539   0.143   2.265   9.718  0.7744 -0.2351 -0.8530
  641TMC3    C3 9540   0.142   2.152   9.644  0.1391 -0.0788 -0.3178
  641TMC3    C4 9541   4.722   2.358   9.560  0.0383 -0.2162 -0.5347
  641TMC3    C5 9542   4.720   2.232   9.494 -0.7603 -0.0101 -0.2105
  641TMC3    C6 9543   0.073   2.137   9.530 -0.2522 -0.3908 -0.4732
  641TMC3     C 9544   0.034   2.490   9.745  0.3842  0.3950  0.0274
  641TMC3     O 9545   4.673   2.561   9.704 -0.2213 -0.3181 -0.0577
  641TMC3     H 9546   0.189   2.272   9.816 -0.5051  2.8009 -0.4676
  641TMC3    H1 9547   4.672   2.448   9.527 -1.3966 -0.6182  0.5349
  641TMC3    H2 9548   0.066   2.037   9.487 -0.6777 -0.8241  0.6241
  641TMC3    C7 9549   4.621   2.213   9.388 -0.8130 -0.2934  0.1573
  641TMC3    C8 9550   0.252   2.065   9.663  0.6846  0.1062  0.5129
  641TMC3    O1 9551   4.652   2.134   9.297  0.4696  0.2421 -0.0625
  641TMC3    O2 9552   0.235   1.947   9.639  0.4045  0.8054 -0.7512
  642TMC3    C1 9553   1.419   4.027  12.117  0.5557 -0.0179  0.7081
  642TMC3    C2 9554   1.513   4.048  12.018 -0.9018 -0.2500  0.2744
  642TMC3    C3 9555   1.515   3.966  11.906  0.2700  0.3373  0.1079
  642TMC3    C4 9556   1.328   3.918  12.102 -0.3176  0.1839  0.0851
  642TMC3    C5 9557   1.338   3.839  11.995  0.6587 -0.0328 -0.1183
  642TMC3    C6 9558   1.424   3.863  11.896 -0.0980 -0.1744 -0.8582
  642TMC3     C 9559   1.396   4.137  12.202  0.1888 -0.0570  0.5114
  642TMC3     O 9560   1.483   4.222  12.216  0.6661  0.3236  0.0169
  642TMC3     H 9561   1.565   4.143  12.010 -1.6084  0.1668  0.6451
  642TMC3    H1 9562   1.254   3.905  12.179 -1.9652 -1.7563 -1.8226
  642TMC3    H2 9563   1.425   3.803  11.805  0.3316 -2.1486  0.4538
  642TMC3    C7 9564   1.228   3.752  11.957  0.1632  0.5769 -0.2727
  642TMC3    C8 9565   1.637   3.979  11.827 -0.2812  0.7570  0.5997
  642TMC3    O1 9566   1.221   3.724  11.834  0.5369 -0.2644 -0.3888
  642TMC3    O2 9567   1.623   3.955  11.707 -0.0444  0.3014  0.0316
  643TMC3    C1 9568   0.977   3.367  17.694  0.2122  0.2726 -0.2857
  643TMC3    C2 9569   0.909   3.408  17.587  0.1218  0.4565  0.2078
  643TMC3    C3 9570   0.877   3.321  17.485 -0.4824  0.1359  0.0042
  643TMC3    C4 9571   1.049   3.247  17.696 -0.3318 -0.6717  0.5189
  643TMC3    C5 9572   1.024   3.165  17.583 -0.5253  0.1821 -0.7705
  643TMC3    C6 9573   0.934   3.199  17.486 -0.1517 -0.1271 -0.6744
  643TMC3     C 9574   0.983   3.461   0.065 -0.1055  0.6097  0.1577
  643TMC3     O 9575   0.962   3.580   0.036 -0.6115  0.1545 -0.8145
  643TMC3     H 9576   0.848   3.496  17.601 -1.8140 -0.9369  0.5728
  643TMC3    H1 9577   1.114   3.216   0.039 -1.5956  0.8674  2.1524
  643TMC3    H2 9578   0.897   3.126  17.415 -2.0033 -0.6002  0.7751
  643TMC3    C7 9579   1.051   3.026  17.619  0.7789  0.5003  0.7019
  643TMC3    C8 9580   0.852   3.365  17.351  0.1082 -0.1004  0.5076
  643TMC3    O1 9581   1.030   2.998  17.733 -0.0880 -0.1624  0.0734
  643TMC3    O2 9582   0.822   3.282  17.266  0.1697 -0.0727 -0.1496
  644MPD2     C 9583   0.154   3.431   9.433  0.0558  0.7587 -0.7121
  644MPD2    C1 9584   0.047   3.347   9.422 -0.0040 -0.1672  0.8328
  644MPD2    C2 9585   4.664   3.405   9.364 -0.0413  0.3597  0.2814
  644MPD2    C3 9586   4.651   3.539   9.329 -0.4454  0.0104  0.1702
  644MPD2    C4 9587   0.024   3.622   9.354 -0.1921 -1.1621 -0.0906
  644MPD2    C5 9588   0.143   3.562   9.400  0.3846 -0.4209 -0.9750
  644MPD2     H 9589   4.582   3.338   9.342  0.1211  0.1355  0.3599
  644MPD2    H1 9590   0.019   3.730   9.339 -0.0538 -1.0327  0.7490
  644MPD2    H2 9591   0.245   3.387   9.473  0.4040  1.3586 -0.8311
  644MPD2    H3 9592   0.234   3.621   9.395  0.1467  0.0053 -0.2942
  644MPD2     N 9593   4.524   3.587   9.281  0.4961  0.5241 -0.3556
  644MPD2    H5 9594   4.453   3.517   9.261  0.6567  0.3678 -0.3851
  644MPD2    N1 9595   0.067   3.208   9.455 -0.3984 -0.2996  0.4371
  644MPD2    H7 9596   0.154   3.182   9.501  0.3309  1.4638  0.0630
  645TMC3    C1 9597   4.366   3.731   9.192 -0.0445  0.6716  0.3851
  645TMC3    C2 9598   4.349   3.829   9.099 -0.7580  0.0471  1.0001
  645TMC3    C3 9599   4.239   3.833   9.021 -0.0359 -0.1372 -0.2103
  645TMC3    C4 9600   4.268   3.635   9.206  0.1800 -0.1121  0.2552
  645TMC3    C5 9601   4.155   3.647   9.130  0.8403  0.2699  0.3648
  645TMC3    C6 9602   4.141   3.742   9.037  0.4357  0.0247 -0.1067
  645TMC3     C 9603   4.502   3.718   9.244  0.1589  0.1282 -0.0364
  645TMC3     O 9604   4.574   3.817   9.240  0.1971  0.1852  0.1218
  645TMC3     H 9605   4.435   3.889   9.071 -0.6894  0.8090  2.8188
  645TMC3    H1 9606   4.269   3.560   9.284  0.8745 -2.0286 -1.6186
  645TMC3    H2 9607   4.058   3.736   8.966  1.2982 -0.9292 -1.0252
  645TMC3    C7 9608   4.045   3.546   9.126 -1.1093 -0.0080 -0.3506
  645TMC3    C8 9609   4.255   3.887   8.883 -0.6645 -0.0228  0.4575
  645TMC3    O1 9610   3.952   3.562   9.048 -0.1267  0.0438  0.3209
  645TMC3    O2 9611   4.358   3.953   8.863 -0.6729  1.3282 -0.3337
  646MPD2     C 9612   0.385   3.241  13.894  0.6533 -0.3347 -0.7950
  646MPD2    C1 9613   0.303   3.254  14.004 -0.6046 -0.3766 -0.0404
  646MPD2    C2 9614   0.195   3.332  13.995  0.0544 -0.3233  0.4828
  646MPD2    C3 9615   0.164   3.410  13.887  0.2816  0.6744 -0.0157
  646MPD2    C4 9616   0.251   3.416  13.785 -0.1146 -0.2426  0.2382
  646MPD2    C5 9617   0.358   3.325  13.786 -0.9409  0.0299 -0.0848
  646MPD2     H 9618   0.117   3.323  14.070  1.0793  0.6438  1.6559
  646MPD2    H1 9619   0.230   3.478  13.699  1.2291  1.7962  1.3905
  646MPD2    H2 9620   0.462   3.165  13.888  0.6570 -0.1672 -2.8906
  646MPD2    H3 9621   0.422   3.321  13.699 -2.0132 -0.0644 -0.8709
  646MPD2     N 9622   0.045   3.487  13.899  0.5720  0.2164  0.0780
  646MPD2    H5 9623   4.728   3.474  13.985  3.4914 -2.0561  1.4947
  646MPD2    N1 9624   0.345   3.192  14.123 -0.1568  0.4806 -0.4775
  646MPD2    H7 9625   0.426   3.132  14.113 -0.4596  0.5001 -2.9935
  647TMC3    C1 9626   0.366   3.130  14.349  0.5330 -0.1242 -0.2492
  647TMC3    C2 9627   0.292   3.109  14.462 -0.1649 -0.4074  0.3092
  647TMC3    C3 9628   0.365   3.059  14.569  0.1860 -0.0592  0.2742
  647TMC3    C4 9629   0.504   3.138  14.342  0.0351 -0.5032  0.6921
  647TMC3    C5 9630   0.568   3.103  14.458  0.7171  0.6630 -0.6554
  647TMC3    C6 9631   0.501   3.059  14.571 -0.3520 -0.4276  0.2523
  647TMC3     C 9632   0.294   3.203  14.249  0.0618 -0.7174 -0.1690
  647TMC3     O 9633   0.206   3.281  14.285  0.1761 -0.2848  0.1373
  647TMC3     H 9634   0.184   3.117  14.454  0.0477  2.8840  0.4223
  647TMC3    H1 9635   0.555   3.161  14.249 -3.0892  1.4069 -0.5720
  647TMC3    H2 9636   0.562   3.033  14.656 -1.2106 -0.5198  0.8309
  647TMC3    C7 9637   0.704   3.043  14.449 -0.0506  0.2332 -0.4297
  647TMC3    C8 9638   0.302   2.970  14.673  0.5329  0.5203 -0.8094
  647TMC3    O1 9639   0.745   2.991  14.552  0.3545  0.4591  0.3131
  647TMC3    O2 9640   0.372   2.927  14.765 -0.0778 -0.1140 -0.2291
  648TMC3    C1 9641   4.137   0.787  15.963 -0.2575 -0.3095  0.0078
  648TMC3    C2 9642   4.229   0.697  15.913 -0.1400 -0.1544 -0.7230
  648TMC3    C3 9643   4.272   0.710  15.785  0.2322  0.4948  0.3830
  648TMC3    C4 9644   4.083   0.879  15.887 -0.2634 -0.0337  0.1689
  648TMC3    C5 9645   4.130   0.892  15.757  0.3830 -0.2322  0.3858
  648TMC3    C6 9646   4.222   0.801  15.704  0.0351 -0.0974  0.7043
  648TMC3     C 9647   4.116   0.801  16.107 -0.0380 -0.1762 -0.8811
  648TMC3     O 9648   4.074   0.910  16.149 -0.1216  0.0537 -0.0322
  648TMC3     H 9649   4.246   0.610  15.976  1.1490 -0.8220 -1.9868
  648TMC3    H1 9650   4.006   0.944  15.928 -0.6151  0.7589 -1.7202
  648TMC3    H2 9651   4.266   0.811  15.606 -1.2995 -1.6003 -0.0608
  648TMC3    C7 9652   4.089   0.995  15.673 -0.1311  0.0105 -0.5279
  648TMC3    C8 9653   4.377   0.620  15.737  0.4213  0.0973  0.8046
  648TMC3    O1 9654   4.101   0.988  15.552  0.7308  0.5490  0.0566
  648TMC3    O2 9655   4.398   0.621  15.614  0.5779 -0.6171  0.7687
  649TMC3    C1 9656   2.773   1.639  12.713  0.5086  0.0533  0.2637
  649TMC3    C2 9657   2.881   1.672  12.640  0.1275  0.0676 -0.2216
  649TMC3    C3 9658   3.002   1.672  12.706 -0.8405 -0.0210  0.3514
  649TMC3    C4 9659   2.788   1.611  12.846 -0.2514 -0.1283 -0.4475
  649TMC3    C5 9660   2.905   1.613  12.907 -0.2383 -0.3546 -0.0724
  649TMC3    C6 9661   3.020   1.645  12.841 -0.4582  0.5733 -0.4153
  649TMC3     C 9662   2.640   1.661  12.657  0.2506 -0.0910 -0.7232
  649TMC3     O 9663   2.554   1.670  12.745  0.5046  0.0011 -0.7864
  649TMC3     H 9664   2.874   1.721  12.544  2.7122  1.2526  0.1849
  649TMC3    H1 9665   2.699   1.593  12.904  0.7582 -0.0411  1.1242
  649TMC3    H2 9666   3.118   1.636  12.886 -0.5865  1.0433 -0.0471
  649TMC3    C7 9667   2.920   1.519  13.014  0.1333 -0.6238 -0.2848
  649TMC3    C8 9668   3.127   1.716  12.638 -0.3444  0.1599 -0.2642
  649TMC3    O1 9669   2.817   1.461  13.044 -0.5437 -0.6120  0.1985
  649TMC3    O2 9670   3.220   1.738  12.709 -0.7672  0.5645  0.0336
  650TMC3    C1 9671   0.790   3.163  12.422 -0.4881  0.6418  0.2957
  650TMC3    C2 9672   0.750   3.271  12.496 -0.6992 -0.1639  0.3686
  650TMC3    C3 9673   0.616   3.291  12.506 -0.1207  0.7369 -0.3039
  650TMC3    C4 9674   0.701   3.093  12.346 -0.3534  0.3702  0.4180
  650TMC3    C5 9675   0.573   3.123  12.348  0.0870  0.1872 -0.2832
  650TMC3    C6 9676   0.527   3.215  12.432  0.0823  0.2576  0.1489
  650TMC3     C 9677   0.905   3.098  12.468  0.2048 -0.4723 -0.1127
  650TMC3     O 9678   1.000   3.167  12.513  0.2860  0.1859 -0.2567
  650TMC3     H 9679   0.830   3.327  12.542 -0.4236  0.3139 -0.6948
  650TMC3    H1 9680   0.734   3.013  12.281  1.7488  1.1196  0.5562
  650TMC3    H2 9681   0.422   3.242  12.430 -0.5594 -2.2717  0.3104
  650TMC3    C7 9682   0.519   3.141  12.217  0.1118  0.1021 -0.3818
  650TMC3    C8 9683   0.574   3.434  12.524 -0.4417 -0.6215 -0.1947
  650TMC3    O1 9684   0.504   3.044  12.151  0.3796 -0.3923 -0.0282
  650TMC3    O2 9685   0.654   3.525  12.511 -0.5457 -0.1109  0.1340
  651MPD2     C 9686   4.148   4.627  10.111  0.4837 -0.2233  0.1003
  651MPD2    C1 9687   4.151   0.023  10.158 -0.5814 -0.3741 -0.0064
  651MPD2    C2 9688   4.263   0.106  10.146 -0.0494 -0.2193 -0.4595
  651MPD2    C3 9689   4.373   0.054  10.083 -0.6904  0.2295  0.8433
  651MPD2    C4 9690   4.374   4.654  10.036 -0.6142 -0.7313  0.0729
  651MPD2    C5 9691   4.263   4.575  10.058 -0.3102 -0.0916  0.9126
  651MPD2     H 9692   4.270   0.210  10.176  2.8058 -1.0684  1.9264
  651MPD2    H1 9693   4.450   4.611   9.971  0.0866 -0.1519  0.5114
  651MPD2    H2 9694   4.059   4.566  10.122  1.0883 -1.0407  0.4721
  651MPD2    H3 9695   4.252   4.481  10.004 -1.5678  0.1549  0.7599
  651MPD2     N 9696   4.486   0.133  10.062  0.0179 -0.3160 -0.0015
  651MPD2    H5 9697   4.486   0.229  10.094 -0.3706 -0.3423  0.0722
  651MPD2    N1 9698   4.047   0.084  10.234  0.3312  0.7792  0.8421
  651MPD2    H7 9699   4.060   0.171  10.284 -3.0265  1.2717  0.8708
  652TMC3    C1 9700   0.198   0.244   9.961  0.5695 -0.1598  0.0145
  652TMC3    C2 9701   0.100   0.167  10.012  0.4783 -0.1003  0.4569
  652TMC3    C3 9702   4.704   0.198   9.993 -0.2280  0.2693  0.0762
  652TMC3    C4 9703   0.162   0.362   9.899  0.1102  0.1904 -0.2768
  652TMC3    C5 9704   0.028   0.386   9.866  0.0581  0.3888 -0.1073
  652TMC3    C6 9705   4.666   0.300   9.914  0.6530 -0.0514  0.9219
  652TMC3     C 9706   0.333   0.231  10.022  0.3493  0.0753 -0.8737
  652TMC3     O 9707   0.347   0.150  10.114  0.6762 -0.9603  0.1373
  652TMC3     H 9708   0.123   0.083  10.076  0.8726 -0.4591 -0.1481
  652TMC3    H1 9709   0.229   0.438   9.860  1.4713  0.0917  1.8665
  652TMC3    H2 9710   4.559   0.318   9.905  0.9992  1.9856  0.9533
  652TMC3    C7 9711   4.723   0.500   9.785  0.5988  0.1105 -0.5311
  652TMC3    C8 9712   4.609   0.092  10.022  0.0496 -0.2033 -0.2024
  652TMC3    O1 9713   0.073   0.583   9.750  0.3475  0.0565  0.1172
  652TMC3    O2 9714   4.657   4.712  10.017 -0.2793 -0.2960  0.1012
  653MPD2     C 9715   3.256   0.310  17.539  0.0351  0.3852 -0.2400
  653MPD2    C1 9716   3.157   0.389  17.483  1.0011  0.2405  0.1839
  653MPD2    C2 9717   3.071   0.336  17.391 -0.1764 -1.1066  0.0127
  653MPD2    C3 9718   3.074   0.203  17.355  0.5727 -0.4573  0.7982
  653MPD2    C4 9719   3.175   0.123  17.416  0.0495 -1.3697  0.1885
  653MPD2    C5 9720   3.266   0.187  17.502  0.0237  0.1917  0.0338
  653MPD2     H 9721   2.993   0.399  17.350  1.5428  0.1515 -1.3448
  653MPD2    H1 9722   3.192   0.016  17.404 -1.7501 -1.8085  1.3936
  653MPD2    H2 9723   3.335   0.349  17.603  1.8104 -1.6232 -1.1935
  653MPD2    H3 9724   3.352   0.128  17.532  0.2830 -0.1815 -1.4571
  653MPD2     N 9725   2.994   0.170  17.243  0.7567  0.8976 -0.0112
  653MPD2    H5 9726   2.954   0.245  17.187  2.4221  2.2666  0.6456
  653MPD2    N1 9727   3.146   0.527  17.505 -0.9065 -0.1527 -0.6638
  653MPD2    H7 9728   3.060   0.572  17.475  0.8722  2.8952 -1.1623
  654TMC3    C1 9729   2.911   0.017  17.088 -0.5896 -0.0547  0.2805
  654TMC3    C2 9730   2.802   0.097  17.063 -0.3397  0.1276 -0.6035
  654TMC3    C3 9731   2.721   0.062  16.959 -0.1347  0.4461  0.0645
  654TMC3    C4 9732   2.938   4.644  17.011  0.5026  0.1495  0.0484
  654TMC3    C5 9733   2.867   4.620  16.894  0.2116 -0.3270 -0.2324
  654TMC3    C6 9734   2.757   4.699  16.866 -1.0590  0.4542 -0.4445
  654TMC3     C 9735   2.990   0.039  17.206 -0.7411  0.0310 -0.5469
  654TMC3     O 9736   3.051   4.677  17.251 -0.0152  0.1650  0.0161
  654TMC3     H 9737   2.765   0.178  17.124 -0.7931  0.8472 -1.8387
  654TMC3    H1 9738   3.024   4.583  17.033  1.6249  1.4508 -0.7308
  654TMC3    H2 9739   2.709   4.687  16.769 -0.9723  0.8597 -0.5379
  654TMC3    C7 9740   2.905   4.513  16.799  0.8346 -0.1532 -0.2433
  654TMC3    C8 9741   2.597   0.138  16.930  0.0950 -0.3142 -0.0680
  654TMC3    O1 9742   2.851   4.511  16.687  0.1141  0.1796  0.0240
  654TMC3    O2 9743   2.572   0.235  16.999 -0.1399 -0.4934  0.4641
  655MPD2     C 9744   0.096   1.032  15.606 -0.2692 -0.9066  0.1405
  655MPD2    C1 9745   0.035   1.124  15.524  0.7828  0.1667  0.1566
  655MPD2    C2 9746   0.034   1.091  15.389 -0.4177 -0.5086  0.1496
  655MPD2    C3 9747   0.080   0.971  15.340  0.4845 -0.2119  1.0606
  655MPD2    C4 9748   0.131   0.881  15.425  0.0043  0.1648 -0.5510
  655MPD2    C5 9749   0.138   0.910  15.561  0.2489  0.4693  0.1654
  655MPD2     H 9750   4.724   1.165  15.323 -0.0514  3.5259  4.4068
  655MPD2    H1 9751   0.176   0.793  15.380  1.4495 -0.0340  1.2753
  655MPD2    H2 9752   0.120   1.052  15.710  1.5037 -3.0571  0.1567
  655MPD2    H3 9753   0.189   0.839  15.626  0.7449  0.3223 -0.3827
  655MPD2     N 9754   0.069   0.930  15.213  0.4973  0.3917  0.0099
  655MPD2    H5 9755   0.068   0.829  15.203 -2.2652  0.3892  0.3265
  655MPD2    N1 9756   4.687   1.231  15.564  0.3908 -0.2186 -0.2808
  655MPD2    H7 9757   4.639   1.278  15.488  0.4037  0.6553  0.2502
  656TMC3    C1 9758   4.546   1.366  15.700  0.6425  0.0227 -0.1972
  656TMC3    C2 9759   4.478   1.374  15.816 -0.5303 -0.1609  0.4655
  656TMC3    C3 9760   4.377   1.462  15.818 -0.3012 -0.6645 -0.2011
  656TMC3    C4 9761   4.518   1.443  15.594 -0.6273  0.5885  0.2920
  656TMC3    C5 9762   4.404   1.527  15.599  0.8042  0.1393  0.1933
  656TMC3    C6 9763   4.333   1.539  15.714 -0.4838 -0.1389 -0.3512
  656TMC3     C 9764   4.646   1.263  15.689  0.3757  0.4998  0.2920
  656TMC3     O 9765   4.686   1.217  15.793 -0.3347  0.1390  0.4054
  656TMC3     H 9766   4.513   1.330  15.909 -0.3728 -3.4189 -1.1486
  656TMC3    H1 9767   4.589   1.454  15.513 -2.0709  0.6352 -0.9699
  656TMC3    H2 9768   4.245   1.602  15.726 -0.0890  0.2883  0.3309
  656TMC3    C7 9769   4.348   1.552  15.471  0.1101  0.3252 -0.0158
  656TMC3    C8 9770   4.329   1.512  15.945 -0.5734 -0.2466  0.2406
  656TMC3    O1 9771   4.410   1.510  15.377 -0.3083  0.7192  0.3968
  656TMC3    O2 9772   4.308   1.634  15.964 -0.3215 -0.3212 -0.0677
  657TMC3    C1 9773   3.200   4.730  15.133  0.3843 -1.1275 -0.2020
  657TMC3    C2 9774   3.305   0.029  15.211 -0.5573 -0.6800 -0.4408
  657TMC3    C3 9775   3.282   0.112  15.314  0.3390  0.3672  0.1123
  657TMC3    C4 9776   3.074   0.021  15.168 -0.0490 -0.3070  0.3527
  657TMC3    C5 9777   3.056   0.105  15.270 -1.1361 -0.2864  0.8160
  657TMC3    C6 9778   3.157   0.153  15.346 -0.2569 -0.7300 -0.4737
  657TMC3     C 9779   3.216   4.637  15.024  0.2455 -0.5092 -0.7105
  657TMC3     O 9780   3.121   4.566  14.991  0.5828 -0.3033  0.0116
  657TMC3     H 9781   3.400   0.003  15.166 -0.3902  1.0836 -1.0654
  657TMC3    H1 9782   2.990   4.724  15.106  1.0266  0.3276 -1.4374
  657TMC3    H2 9783   3.138   0.218  15.431 -1.4734 -1.2323 -0.3589
  657TMC3    C7 9784   2.951   0.203  15.241 -0.0231  0.9614 -0.1021
  657TMC3    C8 9785   3.385   0.194  15.365  0.2910 -0.2698  0.3428
  657TMC3    O1 9786   2.832   0.177  15.224  0.1953 -0.0087 -0.0888
  657TMC3    O2 9787   3.360   0.301  15.419 -0.1646 -0.0775 -0.7163
  658MPD2     C 9788   0.267   1.025  14.471 -0.1792 -0.6427 -0.1605
  658MPD2    C1 9789   0.141   0.974  14.487 -0.1589 -0.0823  0.7799
  658MPD2    C2 9790   0.089   0.926  14.368 -0.2031 -0.3406 -0.5055
  658MPD2    C3 9791   0.152   0.927  14.248  0.9336 -0.5103 -0.1880
  658MPD2    C4 9792   0.279   0.977  14.240  0.1228  0.3137  0.2707
  658MPD2    C5 9793   0.336   1.025  14.354  0.8326 -0.1879 -0.3733
  658MPD2     H 9794   4.721   0.893  14.360 -1.0374  2.2659 -0.7021
  658MPD2    H1 9795   0.354   0.967  14.162  0.3779 -0.4593  0.6127
  658MPD2    H2 9796   0.322   1.048  14.562  0.8696 -1.1067 -0.6667
  658MPD2    H3 9797   0.440   1.056  14.352  0.4500  1.2096  2.0543
  658MPD2     N 9798   0.073   0.869  14.143  0.1920  0.2473 -0.0506
  658MPD2    H5 9799   4.713   0.836  14.158  0.0829 -0.2041 -1.7671
  658MPD2    N1 9800   0.085   0.973  14.618 -0.2454 -0.4784 -0.0760
  658MPD2    H7 9801   0.133   1.011  14.699 -0.2459 -0.2976 -0.1620
  659TMC3    C1 9802   4.658   0.912  14.777 -0.4236 -0.8407  0.4399
  659TMC3    C2 9803   4.733   0.974  14.873  1.4554  0.4284  0.1695
  659TMC3    C3 9804   4.718   0.923  14.998  0.1486 -0.4891  0.3102
  659TMC3    C4 9805   4.558   0.826  14.801  0.2579 -0.2761  0.0103
  659TMC3    C5 9806   4.526   0.796  14.928  0.5905  0.3610  0.1579
  659TMC3    C6 9807   4.609   0.843  15.030 -0.4273 -0.0322 -0.1485
  659TMC3     C 9808   4.697   0.920  14.644  0.5071 -0.3094 -0.4018
  659TMC3     O 9809   4.626   0.857  14.565  0.8070  0.2986  0.2166
  659TMC3     H 9810   0.053   1.068  14.863 -0.4912  1.5990  0.5686
  659TMC3    H1 9811   4.499   0.787  14.720 -0.0906  0.6264 -0.1736
  659TMC3    H2 9812   4.593   0.800  15.128  1.3960  1.4686  0.7922
  659TMC3    C7 9813   4.412   0.716  14.957 -0.5438 -0.2108  0.0692
  659TMC3    C8 9814   0.027   1.009  15.109  0.2662  0.8256 -0.5451
  659TMC3    O1 9815   4.345   0.668  14.866 -0.1258 -0.0240 -0.4878
  659TMC3    O2 9816   0.033   1.131  15.093 -0.3131  0.1765  0.5460
  660MPD2     C 9817   2.466   0.098  12.330  0.2328  0.4597  0.5258
  660MPD2    C1 9818   2.390   4.716  12.312  0.6547  0.5517  0.3154
  660MPD2    C2 9819   2.352   4.649  12.428  0.1533 -0.0149 -0.1232
  660MPD2    C3 9820   2.383   4.696  12.555 -0.6045  0.8620  0.0798
  660MPD2    C4 9821   2.446   0.080  12.568 -0.5307  0.0888 -0.0435
  660MPD2    C5 9822   2.491   0.146  12.458 -0.0376 -0.3943  0.1854
  660MPD2     H 9823   2.301   4.556  12.406 -0.3192  0.5894 -1.6177
  660MPD2    H1 9824   2.465   0.121  12.666  1.6098 -0.4641 -0.2254
  660MPD2    H2 9825   2.507   0.147  12.243 -0.3689  0.3081  0.1543
  660MPD2    H3 9826   2.554   0.235  12.463 -0.7534  0.1092  0.1406
  660MPD2     N 9827   2.355   4.625  12.674  0.3920 -0.5386  0.9738
  660MPD2    H5 9828   2.353   4.679  12.760  2.5440 -1.0174  1.3417
  660MPD2    N1 9829   2.337   4.680  12.179  0.1575  0.1580  0.1348
  660MPD2    H7 9830   2.365   4.730  12.096  1.4899 -0.1984  0.3802
  661TMC3    C1 9831   2.213   4.573  12.016 -0.0631  0.4529 -0.4071
  661TMC3    C2 9832   2.307   4.617  11.925  0.7296  0.0617 -0.4690
  661TMC3    C3 9833   2.279   4.610  11.789 -0.1897 -0.1844 -0.1441
  661TMC3    C4 9834   2.096   4.521  11.976  0.8422  0.2568  0.2630
  661TMC3    C5 9835   2.067   4.529  11.840  0.0710  0.3704  0.4989
  661TMC3    C6 9836   2.152   4.575  11.742  0.2420  0.0014  0.1897
  661TMC3     C 9837   2.232   4.593  12.158 -0.3857 -0.0666  0.3418
  661TMC3     O 9838   2.152   4.537  12.232 -0.2354  0.2386 -0.5058
  661TMC3     H 9839   2.405   4.645  11.961  0.8388 -0.9992  0.0567
  661TMC3    H1 9840   2.031   4.462  12.040 -0.6507  0.3093 -1.1979
  661TMC3    H2 9841   2.121   4.593  11.640 -2.8297  1.4916  1.3925
  661TMC3    C7 9842   1.939   4.497  11.793  0.0431  0.3184 -0.2734
  661TMC3    C8 9843   2.383   4.647  11.698 -0.4736 -0.1915  0.1740
  661TMC3    O1 9844   1.927   4.446  11.680  0.1655 -0.2336  0.4061
  661TMC3    O2 9845   2.491   4.679  11.740 -0.4512 -0.4453 -1.1799
  662MPD2     C 9846   2.555   4.040  17.400  0.5706  0.0220  0.5057
  662MPD2    C1 9847   2.511   3.908  17.403  0.3948 -0.0258  0.6144
  662MPD2    C2 9848   2.490   3.854  17.530 -0.1097 -0.6133 -0.0345
  662MPD2    C3 9849   2.520   3.909  17.657 -0.3991  0.2163 -1.0018
  662MPD2    C4 9850   2.552   4.039  17.640  0.3723  0.1436  0.0298
  662MPD2    C5 9851   2.576   4.100  17.518  0.2363 -0.4173  0.4364
  662MPD2     H 9852   2.466   3.748  17.534 -5.0217  0.4503 -1.0923
  662MPD2    H1 9853   2.553   4.102  17.728 -1.9727  0.5040 -0.1959
  662MPD2    H2 9854   2.569   4.102  17.312 -1.8846 -0.9418 -0.5546
  662MPD2    H3 9855   2.590   4.207  17.511 -1.1704 -0.1330  1.9080
  662MPD2     N 9856   2.491   3.850   0.047 -0.2825 -0.1323 -0.1186
  662MPD2    H5 9857   2.475   3.917   0.122 -1.0980 -1.0014  0.4881
  662MPD2    N1 9858   2.489   3.843  17.280  0.0725  0.2938 -0.6978
  662MPD2    H7 9859   2.439   3.754  17.281 -0.2178  0.4460 -1.8212
  663TMC3    C1 9860   2.490   3.774  17.064 -0.2348 -0.6870 -0.6065
  663TMC3    C2 9861   2.371   3.710  17.100 -0.4036 -0.8427  1.1358
  663TMC3    C3 9862   2.310   3.640  16.994 -0.0812  0.0504 -0.4307
  663TMC3    C4 9863   2.552   3.760  16.944  0.5190  0.0727 -0.1970
  663TMC3    C5 9864   2.492   3.692  16.841 -0.6357 -0.0220  0.1047
  663TMC3    C6 9865   2.379   3.616  16.875 -0.0480  0.0358  0.5962
  663TMC3     C 9866   2.537   3.872  17.158 -1.0460 -0.8007  0.4498
  663TMC3     O 9867   2.606   3.966  17.123 -0.4969 -0.3813 -0.1955
  663TMC3     H 9868   2.295   3.748  17.168  1.0012  3.2460  0.4220
  663TMC3    H1 9869   2.644   3.812  16.921 -0.5889  1.9953 -0.2685
  663TMC3    H2 9870   2.323   3.569  16.795  0.6159 -2.6280  1.6938
  663TMC3    C7 9871   2.588   3.620  16.753 -0.8619  0.3086 -0.5301
  663TMC3    C8 9872   2.227   3.525  17.021  0.2729 -0.7616  0.1848
  663TMC3    O1 9873   2.562   3.617  16.633  0.1812 -0.4205 -0.2579
  663TMC3    O2 9874   2.189   3.460  16.925 -0.4643 -0.4642 -0.3479
  664MPD2     C 9875   1.196   1.789  17.095 -0.7823 -0.3984 -0.2220
  664MPD2    C1 9876   1.216   1.915  17.150  1.1998  0.0713 -0.2454
  664MPD2    C2 9877   1.165   1.929  17.283  0.4511 -0.2364  0.2529
  664MPD2    C3 9878   1.107   1.821  17.353 -0.0697  0.4202 -0.6463
  664MPD2    C4 9879   1.101   1.694  17.300 -0.3311  0.5584  0.6765
  664MPD2    C5 9880   1.139   1.684  17.169 -0.1607  0.4196  0.1545
  664MPD2     H 9881   1.164   2.022  17.337  2.3739 -0.4426  0.6641
  664MPD2    H1 9882   1.058   1.604  17.343  1.6927 -1.0191 -0.5951
  664MPD2    H2 9883   1.217   1.774  16.990  0.3232 -0.7569  0.0578
  664MPD2    H3 9884   1.135   1.583  17.130  1.6748  0.2054  0.5347
  664MPD2     N 9885   1.054   1.850  17.482 -0.3547  0.5263 -0.0717
  664MPD2    H5 9886   1.058   1.947  17.513  0.4048  0.6053 -0.4178
  664MPD2    N1 9887   1.281   2.029  17.087 -0.5722  0.0237  0.0981
  664MPD2    H7 9888   1.285   2.110  17.147 -0.0019  1.6365 -2.1137
  665TMC3    C1 9889   0.964   1.827  17.691  0.8169 -0.5189  0.4930
  665TMC3    C2 9890   0.897   1.745   0.038  0.8059  0.8122  0.0740
  665TMC3    C3 9891   0.855   1.806   0.155 -0.3099  0.4485  0.2861
  665TMC3    C4 9892   0.996   1.956  17.716  1.1471  0.3153  0.7475
  665TMC3    C5 9893   0.969   2.004   0.097 -0.2601  0.0829  0.2746
  665TMC3    C6 9894   0.899   1.930   0.190 -0.2975 -0.1382 -0.6069
  665TMC3     C 9895   1.016   1.757  17.574 -0.7873  0.3350 -0.3386
  665TMC3     O 9896   1.011   1.635  17.559 -0.4024  0.0559  0.2560
  665TMC3     H 9897   0.884   1.641   0.010  1.0491  0.9377 -0.5119
  665TMC3    H1 9898   1.064   2.016  17.657  0.4487  0.2888 -0.0868
  665TMC3    H2 9899   0.868   1.968   0.287 -0.2842 -0.1524 -0.5971
  665TMC3    C7 9900   0.988   2.146   0.124  0.6752  0.4310  0.3158
  665TMC3    C8 9901   0.784   1.724   0.247 -0.8320 -0.1220 -0.4793
  665TMC3    O1 9902   1.008   2.218   0.025  0.0816 -0.3314  0.2374
  665TMC3    O2 9903   0.792   1.764   0.361  0.4000 -0.0175  0.0907
  666TMC3    C1 9904   3.939   2.207  10.166  0.1771  0.5342  0.2914
  666TMC3    C2 9905   3.986   2.133  10.060 -0.9118  0.2487 -0.2156
  666TMC3    C3 9906   4.118   2.131  10.032 -0.1132  0.7756 -0.5888
  666TMC3    C4 9907   4.026   2.283  10.244 -0.0798  0.7644 -0.2192
  666TMC3    C5 9908   4.160   2.285  10.210  0.0946  0.2105 -0.5633
  666TMC3    C6 9909   4.205   2.205  10.108 -0.0929 -0.6647 -0.5072
  666TMC3     C 9910   3.797   2.200  10.199 -0.7873 -0.6413  0.4541
  666TMC3     O 9911   3.716   2.205  10.109 -0.0437  0.1823 -0.1240
  666TMC3     H 9912   3.912   2.081   9.999 -1.2867 -1.2982  1.5361
  666TMC3    H1 9913   3.990   2.344  10.326 -0.6164 -0.2392  0.3008
  666TMC3    H2 9914   4.311   2.188  10.091 -0.2679  0.4391 -2.6925
  666TMC3    C7 9915   4.250   2.365  10.295  0.1319  0.2819  0.2157
  666TMC3    C8 9916   4.160   2.005   9.983  0.2306 -0.1180  0.2773
  666TMC3    O1 9917   4.216   2.368  10.413 -0.5679 -0.1066  0.5905
  666TMC3    O2 9918   4.264   1.959  10.028  0.5276  0.0568 -0.6006
  667MPD2     C 9919   1.365   2.264  14.421 -0.3627 -0.2712 -0.2540
  667MPD2    C1 9920   1.426   2.159  14.489 -0.2539 -0.1852  0.3847
  667MPD2    C2 9921   1.355   2.045  14.515  0.0307  0.5285  0.5467
  667MPD2    C3 9922   1.220   2.046  14.497 -0.3378 -0.0628  0.6494
  667MPD2    C4 9923   1.160   2.155  14.443  0.0997  0.5500  0.4356
  667MPD2    C5 9924   1.230   2.259  14.395 -0.0233  0.3964 -0.0522
  667MPD2     H 9925   1.402   1.967  14.575  1.8647  1.1467 -0.0839
  667MPD2    H1 9926   1.053   2.151  14.423 -0.5635  0.6576  3.8547
  667MPD2    H2 9927   1.420   2.356  14.402  0.7238 -0.4666  1.8943
  667MPD2    H3 9928   1.180   2.334  14.335  0.0563  0.1042 -0.4768
  667MPD2     N 9929   1.143   1.947  14.553 -0.1178  0.0194  1.1118
  667MPD2    H5 9930   1.042   1.957  14.551 -0.2267 -0.8537  2.2308
  667MPD2    N1 9931   1.556   2.159  14.533 -1.1892 -0.2954  0.2786
  667MPD2    H7 9932   1.597   2.067  14.549  1.9166  1.4172  2.0085
  668TMC3    C1 9933   1.741   2.257  14.647 -0.2081  0.5985  0.5457
  668TMC3    C2 9934   1.842   2.341  14.646  0.3162 -0.3696  0.4660
  668TMC3    C3 9935   1.923   2.351  14.757 -0.8938 -0.4579  0.9495
  668TMC3    C4 9936   1.696   2.198  14.762 -0.6424  0.2108 -0.3346
  668TMC3    C5 9937   1.764   2.228  14.879 -0.7196  0.0163  0.5958
  668TMC3    C6 9938   1.876   2.306  14.878  0.3562  0.0180  0.2041
  668TMC3     C 9939   1.639   2.272  14.544 -0.3934 -0.2818  0.0943
  668TMC3     O 9940   1.615   2.389  14.512 -0.0253 -0.4750  0.0663
  668TMC3     H 9941   1.869   2.383  14.550  0.8162  0.3954  0.9458
  668TMC3    H1 9942   1.602   2.146  14.773 -0.0005 -0.9349 -0.2187
  668TMC3    H2 9943   1.925   2.329  14.972  0.0428  0.3888  0.2727
  668TMC3    C7 9944   1.699   2.213  15.012  0.1689 -0.7933 -0.2340
  668TMC3    C8 9945   2.018   2.458  14.776  0.4634  0.5290 -0.0891
  668TMC3    O1 9946   1.735   2.291  15.100 -0.1306 -0.0050  0.3164
  668TMC3    O2 9947   2.074   2.454  14.882 -0.8923 -0.8479  0.6249
  669TMC3    C1 9948   0.048   2.272  14.759  0.1389 -0.2171  0.4973
  669TMC3    C2 9949   4.671   2.275  14.676 -0.2014 -0.0179 -0.3414
  669TMC3    C3 9950   4.687   2.326  14.551 -0.5305  0.4980 -0.3844
  669TMC3    C4 9951   0.171   2.316  14.705 -0.0318 -0.1427 -0.5246
  669TMC3    C5 9952   0.178   2.368  14.574 -0.2902 -0.5361 -0.5212
  669TMC3    C6 9953   0.068   2.365  14.492 -0.2491  0.4009 -0.3586
  669TMC3     C 9954   0.043   2.179  14.869 -1.3575  0.1410 -0.1170
  669TMC3     O 9955   4.686   2.190  14.949  0.5067 -0.0959 -0.5224
  669TMC3     H 9956   4.580   2.220  14.694  0.8410 -2.0315 -1.2244
  669TMC3    H1 9957   0.257   2.311  14.770 -0.5289 -0.7662  0.0856
  669TMC3    H2 9958   0.076   2.377  14.384 -0.0775  0.1294 -0.3757
  669TMC3    C7 9959   0.292   2.436  14.521  0.4992 -0.4062  0.0392
  669TMC3    C8 9960   4.572   2.319  14.474  0.1688 -0.1831 -0.6369
  669TMC3    O1 9961   0.270   2.505  14.426 -0.4019 -0.3224 -0.8491
  669TMC3    O2 9962   4.478   2.239  14.496 -0.1949 -0.1893  0.1011
  670MPD2     C 9963   2.571   0.274  13.599  0.8594  0.1064  0.0243
  670MPD2    C1 9964   2.707   0.285  13.602 -0.4532 -0.0013  0.0836
  670MPD2    C2 9965   2.780   0.224  13.704 -0.4083  0.0508  0.0314
  670MPD2    C3 9966   2.710   0.136  13.787 -0.1777  1.0861  0.6562
  670MPD2    C4 9967   2.579   0.113  13.771 -0.1633  0.0365  0.0330
  670MPD2    C5 9968   2.509   0.185  13.680 -0.0611  0.2764  0.1395
  670MPD2     H 9969   2.887   0.238  13.706 -0.6339  1.6363  0.8582
  670MPD2    H1 9970   2.523   0.036  13.824 -0.6813 -0.4232 -1.1771
  670MPD2    H2 9971   2.510   0.339  13.538 -1.2687 -1.7594  0.1528
  670MPD2    H3 9972   2.401   0.174  13.678 -0.2163  1.8767 -0.2078
  670MPD2     N 9973   2.777   0.070  13.889 -0.1432 -0.5482  0.3266
  670MPD2    H5 9974   2.873   0.096  13.909  0.4780 -2.6049  0.0506
  670MPD2    N1 9975   2.786   0.370  13.516 -0.0263 -0.5371  0.2167
  670MPD2    H7 9976   2.885   0.379  13.537 -0.3724  0.1714  1.5274
  671TMC3    C1 9977   2.810   4.671  14.088  0.1731  1.0583  0.3886
  671TMC3    C2 9978   2.929   4.723  14.122  0.0755 -0.0916  0.2704
  671TMC3    C3 9979   3.002   4.663  14.212 -0.7018 -0.2356 -0.4787
  671TMC3    C4 9980   2.745   4.579  14.167  0.2805 -0.6392  0.2908
  671TMC3    C5 9981   2.818   4.518  14.263  0.1707  0.0485 -0.1405
  671TMC3    C6 9982   2.945   4.563  14.290 -0.6621 -0.0426  0.0763
  671TMC3     C 9983   2.745   4.694  13.957 -0.2488  0.5508  0.3226
  671TMC3     O 9984   2.650   4.621  13.935  0.1210 -0.1355 -0.5753
  671TMC3     H 9985   2.978   0.040  14.040 -0.0372  0.6624  0.6841
  671TMC3    H1 9986   2.639   4.559  14.154  0.5277 -0.7369 -1.7225
  671TMC3    H2 9987   2.991   4.509  14.371  2.3712  2.0298 -0.2479
  671TMC3    C7 9988   2.810   4.376  14.267  0.6146 -0.2673 -0.0656
  671TMC3    C8 9989   3.140   4.630  14.171 -0.2431  1.3792 -0.4768
  671TMC3    O1 9990   2.894   4.311  14.330 -0.3538  0.1503  0.4007
  671TMC3    O2 9991   3.177   4.671  14.056  0.5849 -0.1864 -0.0651
  672MPD2     C 9992   2.737   4.453   1.050  0.9191 -0.9820  0.0238
  672MPD2    C1 9993   2.770   4.548   0.962 -0.4574  0.0229  0.0567
  672MPD2    C2 9994   2.860   4.644   1.015  0.5567 -0.9154 -0.3505
  672MPD2    C3 9995   2.900   4.649   1.145 -0.0961  0.2889  0.3173
  672MPD2    C4 9996   2.847   4.561   1.233 -0.4440 -0.4652 -0.2341
  672MPD2    C5 9997   2.769   4.463   1.180  0.9348 -0.3270  0.1903
  672MPD2     H 9998   2.911   4.708   0.943 -1.2770  1.7306  0.7056
  672MPD2    H1 9999   2.868   4.560   1.339  1.1365  0.1152 -0.5367
  672MPD2    H210000   2.685   4.363   1.020 -0.1114  0.1572 -1.5385
  672MPD2    H310001   2.737   4.382   1.245  2.5443 -0.5415  0.7064
  672MPD2     N10002   3.008   4.734   1.178  0.1813 -0.1767  0.2872
  672MPD2    H510003   3.053   0.059   1.110 -0.2645  0.0985  0.2292
  672MPD2    N110004   2.744   4.530   0.825 -0.3343  0.3451  0.2420
  672MPD2    H710005   2.695   4.443   0.807  1.7212 -0.9055  0.7615
  673TMC3    C110006   2.790   4.569   0.595 -0.9503  0.1188 -0.3299
  673TMC3    C210007   2.805   4.432   0.580 -0.5632  0.2595  0.3668
  673TMC3    C310008   2.828   4.392   0.450  0.1131 -0.8317 -0.8705
  673TMC3    C410009   2.791   4.655   0.492  0.3439 -0.4190 -0.9035
  673TMC3    C510010   2.799   4.607   0.367 -0.6127  0.1832  0.3704
  673TMC3    C610011   2.839   4.477   0.344  0.2685 -0.6241 -0.0641
  673TMC3     C10012   2.770   4.620   0.724 -0.1935 -0.5465  0.0627
  673TMC3     O10013   2.776   0.007   0.739 -0.2540 -0.5240 -0.7618
  673TMC3     H10014   2.800   4.362   0.662 -0.9821 -0.2208 -0.0661
  673TMC3    H110015   2.755   0.022   0.508 -3.5263 -1.7701 -1.0132
  673TMC3    H210016   2.863   4.437   0.246 -1.0355  0.8551 -0.9712
  673TMC3    C710017   2.840   4.706   0.268 -0.1045  0.5564 -0.5004
  673TMC3    C810018   2.889   4.269   0.418  0.5605  0.3971  0.3120
  673TMC3    O110019   2.949   4.685   0.217 -0.1209 -0.0369  0.0815
  673TMC3    O210020   2.851   4.222   0.312  0.5827  0.0980 -0.1654
  674MPD2     C10021   2.707   0.095  17.454  0.0323 -0.2468 -0.1427
  674MPD2    C110022   2.707   4.717  17.538 -0.8106  0.1883  0.2857
  674MPD2    C210023   2.608   4.704  17.636  0.1710  0.2097 -0.6651
  674MPD2    C310024   2.519   0.070  17.659  1.1555 -0.1322 -0.4098
  674MPD2    C410025   2.519   0.186  17.584 -0.1920  0.1637  0.3533
  674MPD2    C510026   2.602   0.188  17.471  0.2544 -0.3438  0.0787
  674MPD2     H10027   2.596   4.615  17.697 -1.9451 -0.1745 -1.6481
  674MPD2    H110028   2.454   0.272  17.594 -0.2017  0.1209  0.6515
  674MPD2    H210029   2.770   0.096  17.366  1.1117  0.8751  0.6348
  674MPD2    H310030   2.597   0.274  17.404 -0.4279  0.0256  0.6068
  674MPD2     N10031   2.425   0.051   0.024  0.0954  0.5966 -0.1078
  674MPD2    H510032   2.439   4.699   0.074 -1.9112  1.7445  2.4738
  674MPD2    N110033   2.808   4.619  17.511 -0.8650  0.3377 -0.2993
  674MPD2    H710034   2.866   4.627  17.429  0.2221 -2.9629  0.1314
  675TMC3    C110035   2.914   4.409  17.504 -0.5542  0.2030  0.2363
  675TMC3    C210036   2.895   4.273  17.497 -0.2190  0.1657 -0.2542
  675TMC3    C310037   3.007   4.200  17.458  0.2638 -0.4077 -0.4136
  675TMC3    C410038   3.033   4.472  17.478  0.6482 -0.0451  0.3191
  675TMC3    C510039   3.138   4.399  17.440  0.4512 -0.0340  0.6346
  675TMC3    C610040   3.128   4.265  17.426 -0.3818 -0.7744  0.5781
  675TMC3     C10041   2.807   4.491  17.568 -0.5936 -0.0285 -0.2484
  675TMC3     O10042   2.733   4.445  17.654 -0.1995  0.4731 -0.0297
  675TMC3     H10043   2.798   4.241  17.533 -0.9223  1.9354 -0.5982
  675TMC3    H110044   3.048   4.575  17.506 -0.5078  0.2949 -0.3158
  675TMC3    H210045   3.219   4.208  17.415  0.2943  0.5888 -0.8693
  675TMC3    C710046   3.271   4.442  17.457  0.6159  0.5522 -0.1981
  675TMC3    C810047   3.001   4.053  17.475  0.0846 -0.4706  0.1391
  675TMC3    O110048   3.360   4.392  17.385  0.3656 -0.7692  0.5788
  675TMC3    O210049   3.097   3.990  17.431 -0.4132 -0.1928  0.2377
  676MPD2     C10050   0.583   2.850  10.801 -0.4766  0.4706  0.6605
  676MPD2    C110051   0.468   2.812  10.863 -0.0151  0.1079  0.3662
  676MPD2    C210052   0.413   2.689  10.821 -0.7543 -0.4404 -0.9003
  676MPD2    C310053   0.468   2.601  10.728  0.7300 -0.0297 -0.2780
  676MPD2    C410054   0.592   2.642  10.680  0.4983 -0.1858 -0.2809
  676MPD2    C510055   0.644   2.762  10.716 -0.8967  0.6653 -0.0200
  676MPD2     H10056   0.319   2.664  10.868 -1.4726  0.3063 -1.9495
  676MPD2    H110057   0.637   2.594  10.594  1.5402  2.3107 -1.1283
  676MPD2    H210058   0.632   2.945  10.820  0.6132 -0.0773  0.6211
  676MPD2    H310059   0.738   2.796  10.675  0.2926 -0.8386  1.4801
  676MPD2     N10060   0.409   2.477  10.680  0.0741 -0.2579 -0.3671
  676MPD2    H510061   0.469   2.411  10.632  1.1684 -0.6900  1.6244
  676MPD2    N110062   0.390   2.891  10.957  0.3784 -0.2275  0.0995
  676MPD2    H710063   0.315   2.844  11.007 -0.3361  0.1047 -0.6536
  677TMC3    C110064   0.331   3.059  11.101 -0.4273 -0.5619  0.0322
  677TMC3    C210065   0.214   2.986  11.133 -0.2673 -0.2227 -0.1568
  677TMC3    C310066   0.139   3.033  11.237 -0.4131 -0.5240 -0.2453
  677TMC3    C410067   0.371   3.159  11.181  0.5106 -0.2154 -0.0840
  677TMC3    C510068   0.291   3.204  11.284  0.1320  0.9371  0.2145
  677TMC3    C610069   0.174   3.148  11.308 -0.3765 -0.8673 -0.1802
  677TMC3     C10070   0.422   3.015  10.997  0.9604  0.2567 -0.1951
  677TMC3     O10071   0.519   3.082  10.966  0.0053 -0.1968  0.0349
  677TMC3     H10072   0.171   2.905  11.075  0.0825 -1.7168  1.6847
  677TMC3    H110073   0.467   3.206  11.167  0.0589  0.4834 -0.8502
  677TMC3    H210074   0.114   3.183  11.392 -0.3573  1.5738 -1.1572
  677TMC3    C710075   0.335   3.313  11.378  0.2862 -0.0332 -0.7611
  677TMC3    C810076   0.023   2.952  11.285 -0.6610  0.2978  0.6851
  677TMC3    O110077   0.273   3.312  11.485  0.0368  0.0097 -0.4827
  677TMC3    O210078   4.666   2.927  11.204 -0.1290 -0.1010 -0.0351
  678MPD2     C10079   2.454   3.550   1.207  0.3760  0.3996  0.1074
  678MPD2    C110080   2.386   3.514   1.094  0.5070 -0.4546 -0.0987
  678MPD2    C210081   2.271   3.440   1.111 -0.0631  0.3752  0.0985
  678MPD2    C310082   2.218   3.410   1.233  0.6082  0.4337  0.2397
  678MPD2    C410083   2.289   3.458   1.343 -0.1290 -0.8716  0.5382
  678MPD2    C510084   2.411   3.520   1.336  0.1617  0.1273  0.2942
  678MPD2     H10085   2.211   3.428   1.021 -0.4426 -2.3440  0.7139
  678MPD2    H110086   2.255   3.427   1.442 -0.4719 -2.4940 -0.0831
  678MPD2    H210087   2.549   3.602   1.197  0.3359  0.6775  1.2214
  678MPD2    H310088   2.469   3.533   1.426  0.5043  0.0046  0.0898
  678MPD2     N10089   2.103   3.334   1.249 -0.0845  0.0762 -0.0051
  678MPD2    H510090   2.073   3.287   1.164  1.5083 -0.9518 -0.0101
  678MPD2    N110091   2.432   3.540   0.957 -0.0430 -0.2959 -0.4891
  678MPD2    H710092   2.371   3.512   0.880  1.2259 -0.8859 -1.2814
  679TMC3    C110093   2.771   3.441   0.676  0.2345 -0.0287 -0.1746
  679TMC3    C210094   2.732   3.518   0.786  0.0052  0.1105 -0.0763
  679TMC3    C310095   2.599   3.546   0.800 -0.2731  0.1983  0.1783
  679TMC3    C410096   2.681   3.407   0.578  0.0089 -0.2275 -0.1226
  679TMC3    C510097   2.551   3.447   0.602 -0.1183 -0.6913 -0.1152
  679TMC3    C610098   2.509   3.514   0.713 -0.3857 -0.6499 -0.0553
  679TMC3     C10099   2.887   3.353   0.682 -0.2183 -0.6563  0.3486
  679TMC3     O10100   2.905   3.267   0.597 -0.0240 -0.0590 -0.3877
  679TMC3     H10101   2.799   3.557   0.861 -0.3073 -1.9380  1.2886
  679TMC3    H110102   2.711   3.343   0.496 -2.3644 -2.0582  0.4573
  679TMC3    H210103   2.405   3.544   0.713  0.0363  0.8135 -0.4799
  679TMC3    C710104   2.452   3.413   0.497  0.3444 -0.3438  0.6778
  679TMC3    C810105   2.558   3.593   0.928  0.0433  0.3376  0.8647
  679TMC3    O110106   2.335   3.442   0.506 -0.3340  0.5688 -0.9054
  679TMC3    O210107   2.638   3.657   0.995  0.0283  0.1702  0.3149
  680MPD2     C10108   2.371   1.723  13.504  0.1557 -0.4372 -0.1470
  680MPD2    C110109   2.495   1.694  13.553 -0.4614  0.6100  0.3092
  680MPD2    C210110   2.586   1.797  13.576  0.4675 -0.4626  0.3508
  680MPD2    C310111   2.543   1.931  13.551 -0.0681  0.3799 -0.4799
  680MPD2    C410112   2.411   1.954  13.508  0.8490 -0.0829  0.5256
  680MPD2    C510113   2.331   1.847  13.480 -0.1788 -0.0824 -0.3014
  680MPD2     H10114   2.679   1.778  13.627  0.7796 -0.1003 -0.0816
  680MPD2    H110115   2.371   2.054  13.496 -0.2871 -0.3994  1.7160
  680MPD2    H210116   2.314   1.636  13.473  0.4106 -0.1269 -1.4892
  680MPD2    H310117   2.242   1.872  13.423  0.5038 -2.0983 -2.2199
  680MPD2     N10118   2.622   2.047  13.588  0.4729 -0.3191  0.3359
  680MPD2    H510119   2.572   2.134  13.575  0.9737  0.1155  1.3374
  680MPD2    N110120   2.545   1.560  13.578  0.0016  0.4093  0.3591
  680MPD2    H710121   2.646   1.562  13.590  0.0741 -1.6489  0.1698
  681TMC3    C110122   2.541   1.320  13.581 -0.4761  0.0090 -0.1451
  681TMC3    C210123   2.497   1.241  13.680  0.9268 -0.4475  0.3540
  681TMC3    C310124   2.587   1.174  13.768  0.1283 -0.3140  0.0919
  681TMC3    C410125   2.672   1.326  13.546  0.3723 -0.5260  0.1029
  681TMC3    C510126   2.759   1.259  13.633 -1.0321 -0.1677 -0.1682
  681TMC3    C610127   2.722   1.185  13.744  0.3914 -0.0727 -0.0923
  681TMC3     C10128   2.470   1.441  13.565  0.1825  0.4551  0.4737
  681TMC3     O10129   2.349   1.423  13.552 -0.2436  0.1773  0.0326
  681TMC3     H10130   2.392   1.247  13.709  0.4476 -0.7752 -1.3170
  681TMC3    H110131   2.702   1.406  13.480 -1.7113 -0.0308 -0.2304
  681TMC3    H210132   2.795   1.139  13.810  0.1570  2.0642  1.6692
  681TMC3    C710133   2.888   1.235  13.580  0.0288 -0.2149  0.6812
  681TMC3    C810134   2.545   1.187  13.908  0.2053  0.3768  0.7559
  681TMC3    O110135   2.971   1.174  13.646 -0.0320 -0.2342  0.3722
  681TMC3    O210136   2.439   1.137  13.934  0.0924  0.0225 -0.6958
  682MPD2     C10137   4.411   3.138  11.286 -0.7493 -0.0447  0.0806
  682MPD2    C110138   4.287   3.145  11.229  0.5088  0.0311  0.0033
  682MPD2    C210139   4.176   3.197  11.298  0.2441 -0.0366  0.0183
  682MPD2    C310140   4.193   3.249  11.427  0.3345  0.1633 -0.3216
  682MPD2    C410141   4.323   3.258  11.476 -0.1704  0.2335 -0.6535
  682MPD2    C510142   4.431   3.203  11.408  0.3557 -0.3103  0.6038
  682MPD2     H10143   4.080   3.187  11.248 -0.1150  0.4262  0.6101
  682MPD2    H110144   4.339   3.293  11.577  1.4278 -0.6745 -0.5923
  682MPD2    H210145   4.495   3.090  11.239  0.5434  0.7471  1.5620
  682MPD2    H310146   4.527   3.211  11.457  0.4779 -0.0813  0.3267
  682MPD2     N10147   4.087   3.298  11.509  0.3953  0.4675 -0.1893
  682MPD2    H510148   4.129   3.327  11.596 -0.1006  0.2516  0.1214
  682MPD2    N110149   4.253   3.096  11.106  0.1553 -0.0057 -0.6478
  682MPD2    H710150   4.158   3.111  11.075 -0.1539  1.7454  1.1736
  683TMC3    C110151   3.892   3.358  11.821  0.0338 -0.4179 -0.4907
  683TMC3    C210152   3.778   3.278  11.844  0.3964 -0.3178  0.0257
  683TMC3    C310153   3.717   3.230  11.731 -0.2915 -0.4448  0.2667
  683TMC3    C410154   3.926   3.401  11.696  0.0997  0.0040  0.1942
  683TMC3    C510155   3.866   3.345  11.587  0.0586 -0.2002 -0.5899
  683TMC3    C610156   3.759   3.264  11.601 -0.7087 -0.7419  0.6108
  683TMC3     C10157   3.986   3.395  11.931 -0.1489 -0.0778 -0.2795
  683TMC3     O10158   4.062   3.485  11.908 -0.1764 -0.0660 -0.5580
  683TMC3     H10159   3.740   3.256  11.943 -0.5380  1.7724  0.1372
  683TMC3    H110160   4.012   3.466  11.679  0.7224 -0.6200  0.9431
  683TMC3    H210161   3.719   3.204  11.520  0.8337  0.0625 -0.7529
  683TMC3    C710162   3.951   3.307  11.477 -0.0263 -0.4514 -0.1057
  683TMC3    C810163   3.600   3.143  11.736  0.4399 -0.1340 -0.0611
  683TMC3    O110164   3.897   3.248  11.383 -0.2377 -0.3730 -0.0923
  683TMC3    O210165   3.500   3.190  11.788 -0.1317  0.4296 -0.6163
  684MPD2     C10166   3.028   2.838  16.119  0.4693  0.7171 -0.0806
  684MPD2    C110167   3.106   2.936  16.062 -0.4607  0.5009  0.1517
  684MPD2    C210168   3.079   3.068  16.083  0.2003 -0.3737 -0.7321
  684MPD2    C310169   2.976   3.105  16.162  0.0803  0.1464 -0.8112
  684MPD2    C410170   2.897   3.013  16.208 -0.6930  0.9118  0.5351
  684MPD2    C510171   2.917   2.881  16.190 -0.1223  0.2140 -0.2601
  684MPD2     H10172   3.149   3.140  16.042 -1.3195  1.0855 -0.7746
  684MPD2    H110173   2.809   3.029  16.268 -0.8285  1.4324  0.1922
  684MPD2    H210174   3.046   2.732  16.104 -0.3566  0.0104  3.9868
  684MPD2    H310175   2.840   2.813  16.224  0.1058  0.4669  0.7824
  684MPD2     N10176   2.934   3.242  16.171 -0.2553 -0.4948  0.5259
  684MPD2    H510177   2.860   3.261  16.237  1.0415 -0.1282  1.8859
  684MPD2    N110178   3.219   2.906  15.980  0.0496  0.7287  0.8016
  684MPD2    H710179   3.270   2.985  15.941  0.9504  0.5178  1.5415
  685TMC3    C110180   3.371   2.777  15.855  0.2056 -0.3794  0.5321
  685TMC3    C210181   3.382   2.694  15.741 -0.4425  0.8180 -0.3311
  685TMC3    C310182   3.498   2.702  15.671  1.0544 -0.1628  1.0841
  685TMC3    C410183   3.471   2.862  15.880 -0.1874  0.5011 -0.1477
  685TMC3    C510184   3.581   2.867  15.800  0.6200 -0.5302 -0.5019
  685TMC3    C610185   3.597   2.797  15.687  0.0435  0.0851 -0.8622
  685TMC3     C10186   3.253   2.776  15.941 -0.3536 -0.2188 -0.0040
  685TMC3     O10187   3.188   2.673  15.949 -0.0604  0.0616 -0.3754
  685TMC3     H10188   3.308   2.620  15.713 -0.2077  0.5067 -0.1325
  685TMC3    H110189   3.465   2.921  15.971 -2.1938 -0.8618  0.5941
  685TMC3    H210190   3.689   2.795  15.631 -1.5814  1.0193 -3.5374
  685TMC3    C710191   3.687   2.945  15.861 -0.6377  0.5634  0.3098
  685TMC3    C810192   3.492   2.658  15.528 -0.9981  0.3985 -0.2360
  685TMC3    O110193   3.670   2.982  15.975 -0.0980  0.0817 -0.2262
  685TMC3    O210194   3.531   2.726  15.435 -0.3326 -0.3571  0.1016
  686MPD2     C10195   4.517   2.694  15.215 -0.5874  0.1271 -0.3010
  686MPD2    C110196   4.537   2.639  15.340  0.3719  0.1601 -0.5631
  686MPD2    C210197   4.566   2.508  15.342  0.0779  0.2018 -0.1743
  686MPD2    C310198   4.564   2.421  15.229  0.2842  0.2350  0.0104
  686MPD2    C410199   4.546   2.483  15.103  0.1157  0.2058 -0.3799
  686MPD2    C510200   4.508   2.616  15.102  0.4110 -0.1693  0.0630
  686MPD2     H10201   4.606   2.464  15.433  1.1805 -1.2196 -1.3404
  686MPD2    H110202   4.547   2.430  15.008  0.0483  1.0619 -0.8608
  686MPD2    H210203   4.494   2.797  15.192 -0.8821  0.5915  2.1321
  686MPD2    H310204   4.492   2.674  15.012  2.0185 -1.5583 -1.1091
  686MPD2     N10205   4.605   2.284  15.230 -0.2810  0.5895  0.0626
  686MPD2    H510206   4.628   2.251  15.136 -1.6497 -0.6459  0.1621
  686MPD2    N110207   4.547   2.723  15.456  0.0877 -0.1151 -0.1700
  686MPD2    H710208   4.532   2.820  15.433  1.5541  0.5267  1.6468
  687TMC3    C110209   4.560   2.229  15.475  1.2664 -0.5564 -0.0051
  687TMC3    C210210   4.436   2.282  15.490  0.4064 -0.1271  0.1168
  687TMC3    C310211   4.399   2.299  15.620  0.0345 -0.2262  0.2790
  687TMC3    C410212   4.639   2.194  15.581 -0.7653  0.2926  0.3134
  687TMC3    C510213   4.596   2.226  15.709 -0.5614 -0.2230 -0.1383
  687TMC3    C610214   4.477   2.280  15.726  0.2641 -0.4841  0.6709
  687TMC3     C10215   4.607   2.195  15.340 -0.4655  0.0390  0.0456
  687TMC3     O10216   4.648   2.080  15.343 -0.9694 -0.6976  0.4696
  687TMC3     H10217   4.365   2.284  15.408  0.0253  1.5474  0.4842
  687TMC3    H110218   4.731   2.139  15.574 -1.5752 -1.0790  0.4385
  687TMC3    H210219   4.451   2.325  15.821  0.4172  0.4250  0.2841
  687TMC3    C710220   4.708   2.296  15.770 -0.2458  0.0598  0.5505
  687TMC3    C810221   4.296   2.403  15.637 -0.2362  0.1290  0.0794
  687TMC3    O110222   0.082   2.306  15.713  0.0862 -0.2206 -0.2631
  687TMC3    O210223   4.291   2.463  15.745 -0.3247 -0.5037  0.1446
  688MPD2     C10224   3.306   1.270  17.250  0.2970 -0.8104  0.0573
  688MPD2    C110225   3.378   1.153  17.281  0.1392 -0.5082  0.1887
  688MPD2    C210226   3.494   1.126  17.210  0.1287  0.5700  0.1064
  688MPD2    C310227   3.547   1.221  17.118  0.3063 -0.0335 -0.0538
  688MPD2    C410228   3.473   1.339  17.094  0.6196 -0.0622 -0.2951
  688MPD2    C510229   3.353   1.359  17.156  0.4409  0.4444 -0.8027
  688MPD2     H10230   3.546   1.034  17.235  2.2470  1.5934 -0.4716
  688MPD2    H110231   3.521   1.422  17.044  0.1728  0.6036  0.3645
  688MPD2    H210232   3.205   1.287  17.285  0.2525 -0.6274 -0.1596
  688MPD2    H310233   3.298   1.452  17.140  1.4135  1.0616 -0.5497
  688MPD2     N10234   3.662   1.198  17.038  0.2013 -0.0058  0.1646
  688MPD2    H510235   3.699   1.280  16.990 -0.7957 -0.6732 -1.7394
  688MPD2    N110236   3.336   1.058  17.378 -0.5220  0.0066 -0.7193
  688MPD2    H710237   3.397   0.978  17.395 -1.7802 -0.8718 -0.3132
  689TMC3    C110238   3.201   0.966  17.550 -0.0064 -0.2503 -0.7411
  689TMC3    C210239   3.122   0.998  17.654  0.0995  0.5401 -0.5643
  689TMC3    C310240   3.079   0.894  17.732  0.2804 -0.1087  0.2019
  689TMC3    C410241   3.234   0.838  17.516  0.1507  0.7831 -0.1589
  689TMC3    C510242   3.201   0.737  17.601  0.0277 -0.1244 -0.0709
  689TMC3    C610243   3.114   0.765  17.708  0.4290 -0.1364 -0.0478
  689TMC3     C10244   3.224   1.077  17.458 -0.7577  1.1642  0.3270
  689TMC3     O10245   3.138   1.167  17.460 -1.0530  0.0208  0.6165
  689TMC3     H10246   3.105   1.103  17.677 -0.8712  0.2544  0.0368
  689TMC3    H110247   3.291   0.815  17.426 -2.3032  0.3413 -1.6049
  689TMC3    H210248   3.086   0.686   0.039  1.8390  0.8824  1.6999
  689TMC3    C710249   3.242   0.602  17.575 -0.1562 -0.2111 -0.0735
  689TMC3    C810250   3.001   0.924   0.105  0.3033 -0.4952  0.1631
  689TMC3    O110251   3.356   0.574  17.611 -0.8859 -0.1672 -1.0429
  689TMC3    O210252   3.005   0.849   0.198 -0.0538  0.2562  0.1087
  690MPD2     C10253   1.663   3.207  15.111  0.5815 -0.7138  0.6862
  690MPD2    C110254   1.558   3.286  15.067  0.7046  0.6509  0.4319
  690MPD2    C210255   1.584   3.380  14.970  0.5737 -1.0782 -0.0772
  690MPD2    C310256   1.712   3.403  14.920  0.5261  0.7135  0.6033
  690MPD2    C410257   1.814   3.320  14.962 -0.3641 -0.6693  0.2554
  690MPD2    C510258   1.791   3.225  15.063  0.3172  0.2076  0.5060
  690MPD2     H10259   1.505   3.449  14.944  0.4658 -0.9095  0.7142
  690MPD2    H110260   1.914   3.317  14.920 -0.2234  1.0611  0.4622
  690MPD2    H210261   1.654   3.129  15.186  1.4847 -0.9285  0.5816
  690MPD2    H310262   1.876   3.171  15.102  0.5920  0.3793  0.1566
  690MPD2     N10263   1.729   3.503  14.823 -0.4733 -0.5345  0.1258
  690MPD2    H510264   1.644   3.548  14.791  0.6379  0.6849 -1.1018
  690MPD2    N110265   1.420   3.272  15.113 -0.1774 -0.0777  0.4595
  690MPD2    H710266   1.352   3.326  15.060 -0.3175 -0.5976  0.1099
  691TMC3    C110267   1.237   3.160  15.208 -0.3334 -0.3690  0.1225
  691TMC3    C210268   1.159   3.189  15.095 -0.2048  0.0667 -0.0864
  691TMC3    C310269   1.031   3.141  15.100 -0.7277  0.2398  0.2262
  691TMC3    C410270   1.188   3.090  15.313  0.0542  0.8652  0.4937
  691TMC3    C510271   1.059   3.038  15.307 -0.4324 -0.3409  0.1691
  691TMC3    C610272   0.977   3.068  15.201  0.2785 -0.4061  0.7538
  691TMC3     C10273   1.378   3.186  15.209  0.4475  0.1973  0.6374
  691TMC3     O10274   1.446   3.108  15.277 -0.4160  0.0180  0.7263
  691TMC3     H10275   1.204   3.226  15.003 -1.2250  1.1633 -0.1512
  691TMC3    H110276   1.241   3.085  15.407 -0.7952 -0.7432  0.8947
  691TMC3    H210277   0.872   3.044  15.190 -0.1475  3.0905 -2.7188
  691TMC3    C710278   1.012   2.942  15.412 -0.5729 -0.1947 -0.1168
  691TMC3    C810279   0.946   3.202  15.001 -0.2162  0.5796  0.0288
  691TMC3    O110280   1.086   2.920  15.510  0.3936 -0.1505 -0.6659
  691TMC3    O210281   0.993   3.223  14.886  0.2518 -0.2644 -0.1097
  692TMC3    C110282   2.367   4.491  15.443 -0.5367  0.3644 -0.1767
  692TMC3    C210283   2.473   4.566  15.484  0.4333 -0.1256 -0.6195
  692TMC3    C310284   2.570   4.509  15.568  0.1051  0.2183 -0.4142
  692TMC3    C410285   2.369   4.358  15.458  0.5270 -0.1512  0.0166
  692TMC3    C510286   2.472   4.296  15.526  0.3293 -0.3587  0.0160
  692TMC3    C610287   2.558   4.375  15.596 -0.2140  0.9322  0.9876
  692TMC3     C10288   2.239   4.530  15.501  0.1442  0.3283 -0.2346
  692TMC3     O10289   2.174   4.462  15.580  0.2342 -0.0605 -0.2127
  692TMC3     H10290   2.460   4.673  15.481  0.7884 -0.0334  1.4799
  692TMC3    H110291   2.286   4.298  15.422  0.3367 -1.0831  1.9707
  692TMC3    H210292   2.655   4.329  15.616 -0.6302 -0.3262  0.1088
  692TMC3    C710293   2.470   4.154  15.527 -0.4386  0.5749  0.1655
  692TMC3    C810294   2.567   4.584  15.688 -0.2790 -0.6166 -0.0141
  692TMC3    O110295   2.386   4.105  15.450  0.1637  0.2016  0.3299
  692TMC3    O210296   2.598   4.699  15.691 -0.2837 -0.1172  0.2482
  693MPD2     C10297   1.572   2.045  10.576 -0.6427  0.0539 -0.0606
  693MPD2    C110298   1.526   1.922  10.546 -0.1429 -0.3596 -0.2589
  693MPD2    C210299   1.619   1.822  10.542 -0.0942  0.0016 -0.1510
  693MPD2    C310300   1.757   1.843  10.556  0.5917 -0.0837  0.0028
  693MPD2    C410301   1.804   1.971  10.569 -0.0670  0.2043 -0.1051
  693MPD2    C510302   1.707   2.066  10.571  0.3473 -0.2253  0.3633
  693MPD2     H10303   1.581   1.721  10.546  0.1976 -0.1049 -0.1287
  693MPD2    H110304   1.907   2.003  10.577 -0.9419  2.4188  2.1847
  693MPD2    H210305   1.503   2.127  10.555 -1.4373 -0.5661  0.1287
  693MPD2    H310306   1.733   2.171  10.585  1.5576 -0.3211 -1.1804
  693MPD2     N10307   1.853   1.738  10.570 -0.1789  0.1792 -0.2883
  693MPD2    H510308   1.937   1.755  10.626 -1.2362 -0.3697  1.4610
  693MPD2    N110309   1.387   1.896  10.543  0.0983  0.3549 -0.0000
  693MPD2    H710310   1.318   1.966  10.565 -1.4086 -1.3271  0.6036
  694TMC3    C110311   1.218   1.735  10.528  0.1799  0.1939 -0.6108
  694TMC3    C210312   1.162   1.643  10.444 -0.6626  0.1168  0.2467
  694TMC3    C310313   1.053   1.572  10.488  0.4069  0.4688  0.0215
  694TMC3    C410314   1.166   1.751  10.657 -0.7145  0.2991  0.1155
  694TMC3    C510315   1.071   1.670  10.701  0.4625  0.0434 -0.3797
  694TMC3    C610316   1.014   1.577  10.618  0.1994  0.1270  0.2998
  694TMC3     C10317   1.353   1.779  10.491  0.4271 -0.1434 -0.4420
  694TMC3     O10318   1.402   1.715  10.397 -0.0103  0.5329 -0.1416
  694TMC3     H10319   1.213   1.636  10.348 -2.1688  0.6065 -0.5818
  694TMC3    H110320   1.216   1.816  10.728  0.3024  0.7156 -0.9809
  694TMC3    H210321   0.931   1.521  10.659  0.7069  1.6620  3.4147
  694TMC3    C710322   1.048   1.670  10.845  0.2391  0.2940 -0.1575
  694TMC3    C810323   1.000   1.463  10.409  0.5864  1.4754  0.6672
  694TMC3    O110324   1.109   1.742  10.924  0.1096  0.1531 -0.2386
  694TMC3    O210325   0.958   1.361  10.464  0.3589  0.0247 -0.7255
  695MPD2     C10326   3.208   4.349  13.173 -0.3211  0.1238 -1.2409
  695MPD2    C110327   3.184   4.311  13.310 -0.2758 -0.0425  0.6044
  695MPD2    C210328   3.050   4.284  13.346 -0.3898  0.4691  0.3242
  695MPD2    C310329   2.947   4.298  13.255  0.2135  0.1409  0.2970
  695MPD2    C410330   2.971   4.350  13.131  0.1316 -0.1614  0.3251
  695MPD2    C510331   3.098   4.375  13.092  0.7930 -0.1993 -0.7706
  695MPD2     H10332   3.023   4.236  13.440  0.1652 -1.5990 -0.5764
  695MPD2    H110333   2.899   4.360  13.050  0.4115 -0.1155  0.0821
  695MPD2    H210334   3.306   4.371  13.134 -0.4350 -1.2962 -2.3500
  695MPD2    H310335   3.115   4.416  12.993  0.0490  0.7943 -0.4813
  695MPD2     N10336   2.822   4.244  13.291 -0.2548 -0.0836  0.1465
  695MPD2    H510337   2.805   4.213  13.387  2.7221 -0.5156  0.5421
  695MPD2    N110338   3.286   4.285  13.403 -0.2852  0.5375  0.2364
  695MPD2    H710339   3.256   4.268  13.498  1.5417 -2.0853  0.3453
  696TMC3    C110340   2.577   4.243  13.306 -0.0489 -0.3660  0.6689
  696TMC3    C210341   2.595   4.136  13.398 -0.1077  0.0131  0.7014
  696TMC3    C310342   2.538   4.141  13.520  0.1879  0.3182 -0.2924
  696TMC3    C410343   2.488   4.340  13.340  0.0181 -0.0025 -0.1359
  696TMC3    C510344   2.418   4.341  13.458  0.6415  0.0244 -0.7306
  696TMC3    C610345   2.451   4.247  13.556 -0.5102 -0.3846 -0.1711
  696TMC3     C10346   2.697   4.283  13.233  0.1926  0.2940 -0.3346
  696TMC3     O10347   2.684   4.347  13.132 -0.2938 -0.1683  0.2709
  696TMC3     H10348   2.659   4.052  13.373  1.2891  1.8294 -1.7680
  696TMC3    H110349   2.474   4.425  13.274 -1.7228 -0.8157 -0.8002
  696TMC3    H210350   2.385   4.235  13.641  1.3704  0.6844  1.4255
  696TMC3    C710351   2.339   4.460  13.486 -0.1417  0.3509 -0.4141
  696TMC3    C810352   2.608   4.080  13.636 -0.6588 -0.1143 -0.8197
  696TMC3    O110353   2.312   4.524  13.386 -0.1540  0.3137 -0.3761
  696TMC3    O210354   2.691   3.998  13.601 -0.3034 -0.3134  0.6485
  697MPD2     C10355   2.482   1.219  15.125 -0.1094  0.4087  0.6804
  697MPD2    C110356   2.369   1.191  15.050 -0.2904  1.3017  0.4162
  697MPD2    C210357   2.310   1.285  14.971 -1.1157 -0.1776  1.1068
  697MPD2    C310358   2.366   1.410  14.957 -0.1433  0.3365 -1.4745
  697MPD2    C410359   2.482   1.436  15.030 -0.3035 -0.0718 -0.0847
  697MPD2    C510360   2.534   1.343  15.116 -0.5078 -0.0411  0.9677
  697MPD2     H10361   2.228   1.261  14.905 -0.9878  0.6079  0.6585
  697MPD2    H110362   2.540   1.527  15.022  1.8999 -1.6950 -2.4795
  697MPD2    H210363   2.522   1.135  15.181 -0.0994 -0.0695 -0.0401
  697MPD2    H310364   2.617   1.376  15.177 -0.9327 -0.1440  1.6013
  697MPD2     N10365   2.320   1.494  14.858  0.0211 -0.3494 -0.1009
  697MPD2    H510366   2.240   1.466  14.802 -0.5258 -0.7244  0.8745
  697MPD2    N110367   2.303   1.066  15.043  0.5688  0.2704 -0.1014
  697MPD2    H710368   2.209   1.060  15.004  0.0538 -0.6365  1.2787
  698TMC3    C110369   2.308   1.700  14.719 -0.4470  0.3207  0.6031
  698TMC3    C210370   2.380   1.811  14.676 -0.0506  0.1229  0.0986
  698TMC3    C310371   2.352   1.865  14.551 -0.0441  0.5258  0.7616
  698TMC3    C410372   2.200   1.651  14.638  0.0210 -0.4835 -0.0812
  698TMC3    C510373   2.179   1.713  14.515 -0.2489  0.3938 -0.2599
  698TMC3    C610374   2.252   1.822  14.469  0.4122 -0.2959  0.5428
  698TMC3     C10375   2.364   1.620  14.830  0.3059 -0.5721 -0.2296
  698TMC3     O10376   2.448   1.682  14.897 -0.2972  0.0497 -0.4462
  698TMC3     H10377   2.462   1.850  14.736  0.6001  1.3991 -1.6279
  698TMC3    H110378   2.131   1.577  14.674 -0.0448 -0.1215  0.5348
  698TMC3    H210379   2.219   1.856  14.371  1.0815 -2.1261 -0.3029
  698TMC3    C710380   2.115   1.635  14.414  0.7971  0.6532 -0.1399
  698TMC3    C810381   2.426   1.970  14.482  0.3893 -0.3905  0.7867
  698TMC3    O110382   2.139   1.659  14.300 -0.1193  0.0238  0.3423
  698TMC3    O210383   2.402   1.968  14.361 -0.3516  0.4220  1.0856
  699TMC3    C110384   2.330   4.458  12.827  0.1407  0.7511 -0.6021
  699TMC3    C210385   2.374   4.342  12.871  0.0707  0.3991  1.0215
  699TMC3    C310386   2.336   4.296  12.996  0.3217 -0.4291  0.7323
  699TMC3    C410387   2.242   4.528  12.898  0.5096 -0.3365  0.1461
  699TMC3    C510388   2.214   4.488  13.026  0.1637  0.5668 -0.6121
  699TMC3    C610389   2.266   4.375  13.081  0.0535  0.2137 -0.4417
  699TMC3     C10390   2.337   4.490  12.693 -0.2523  0.3585 -0.7088
  699TMC3     O10391   2.351   4.411  12.601 -0.3994 -0.0385 -0.2269
  699TMC3     H10392   2.421   4.264  12.812 -0.2581 -0.1307  1.4640
  699TMC3    H110393   2.188   4.612  12.855  1.5458  0.0630 -0.3621
  699TMC3    H210394   2.231   4.334  13.175 -1.1406  1.5153 -0.3142
  699TMC3    C710395   2.087   4.527  13.092  0.3853 -0.0720  0.9458
  699TMC3    C810396   2.375   4.159  13.036 -0.2511  0.0667 -0.1295
  699TMC3    O110397   1.998   4.568  13.019 -0.1618 -0.5679  0.4027
  699TMC3    O210398   2.316   4.114  13.134 -0.5605 -0.0909 -0.1443
  700TMC3    C110399   1.469   1.629  17.003  0.0655  0.0334  1.0066
  700TMC3    C210400   1.463   1.499  17.020  0.4261  0.3250 -0.0606
  700TMC3    C310401   1.541   1.443  17.120 -0.1562 -0.5395 -0.5575
  700TMC3    C410402   1.536   1.710  17.094  0.3492  0.1974  0.0770
  700TMC3    C510403   1.624   1.656  17.185  0.3122 -0.3682 -0.7292
  700TMC3    C610404   1.624   1.516  17.208 -0.3501 -0.5192  0.1890
  700TMC3     C10405   1.485   1.671  16.861 -0.0300  0.1241  0.1029
  700TMC3     O10406   1.446   1.603  16.767  0.0046  0.3004 -0.2062
  700TMC3     H10407   1.429   1.441  16.935 -0.4112 -1.2212  1.3308
  700TMC3    H110408   1.522   1.818  17.097 -1.0407 -0.0412  2.0377
  700TMC3    H210409   1.680   1.466  17.287  0.5007 -0.4960 -0.3896
  700TMC3    C710410   1.725   1.752  17.237 -0.0638  0.7842  0.1684
  700TMC3    C810411   1.584   1.303  17.100 -0.1646  0.1968  0.3656
  700TMC3    O110412   1.694   1.872  17.231 -0.4785  0.3904  0.3035
  700TMC3    O210413   1.705   1.274  17.117 -0.8495  0.0455 -0.1144
  701TMC3    C110414   1.424   1.164  15.156 -0.6535 -0.6025  0.4097
  701TMC3    C210415   1.421   1.171  15.015  0.3199  0.0287 -0.1783
  701TMC3    C310416   1.519   1.237  14.946 -0.1533 -0.3490 -0.2120
  701TMC3    C410417   1.518   1.240  15.226  0.3840  0.1944  0.2692
  701TMC3    C510418   1.608   1.312  15.151  0.3109  0.4313  0.0316
  701TMC3    C610419   1.613   1.312  15.015 -0.0316  0.0769  0.7290
  701TMC3     C10420   1.311   1.102  15.224 -0.1737 -0.2165 -0.7990
  701TMC3     O10421   1.236   1.043  15.153 -0.0113  0.0011  0.4209
  701TMC3     H10422   1.331   1.130  14.970 -0.1002  2.6860 -1.7402
  701TMC3    H110423   1.525   1.236  15.334  0.8531 -2.4221  0.1551
  701TMC3    H210424   1.689   1.367  14.961 -1.2003  2.3210  1.4007
  701TMC3    C710425   1.724   1.384  15.224 -0.1459  0.0302  0.1887
  701TMC3    C810426   1.556   1.197  14.809  0.4835  0.6587 -0.0043
  701TMC3    O110427   1.796   1.456  15.150  1.1268  0.3152 -0.3479
  701TMC3    O210428   1.661   1.240  14.768 -0.1999 -0.7419 -0.5614
  702MPD2     C10429   0.456   1.929  10.180  0.1486  0.2651 -0.3715
  702MPD2    C110430   0.510   2.020  10.269  0.1870 -0.7940  0.3567
  702MPD2    C210431   0.647   2.025  10.274  0.2391  0.1373  0.0607
  702MPD2    C310432   0.727   1.949  10.191  0.3349  0.1936  0.2817
  702MPD2    C410433   0.672   1.848  10.114  0.7304 -0.1022  1.0837
  702MPD2    C510434   0.533   1.844  10.103 -0.7274  0.6060 -0.7884
  702MPD2     H10435   0.689   2.093  10.348 -0.0941  0.0371  0.3439
  702MPD2    H110436   0.735   1.789  10.048  0.8064  0.6759  0.4619
  702MPD2    H210437   0.350   1.929  10.156 -0.1013  2.8805  0.7735
  702MPD2    H310438   0.496   1.776  10.027  1.5665 -0.0848 -1.2821
  702MPD2     N10439   0.867   1.965  10.190 -0.1315  0.5161 -0.1024
  702MPD2    H510440   0.925   1.884  10.169 -0.6957 -0.0428  0.4756
  702MPD2    N110441   0.427   2.094  10.359 -0.4099 -0.0432 -0.0348
  702MPD2    H710442   0.478   2.156  10.421 -1.3265  0.5124  0.1520
  703TMC3    C110443   0.882   2.208  10.237  0.1771  0.5523  0.3847
  703TMC3    C210444   0.784   2.259  10.153  0.2040 -0.5613 -0.3075
  703TMC3    C310445   0.740   2.386  10.185 -0.7787 -0.2277 -0.0503
  703TMC3    C410446   0.945   2.287  10.336  0.1327  0.0854 -0.5772
  703TMC3    C510447   0.899   2.418  10.346  0.5459 -0.0914  0.2588
  703TMC3    C610448   0.795   2.461  10.279  0.6632 -0.4245 -0.4329
  703TMC3     C10449   0.940   2.075  10.219  0.4716  0.2895 -0.6606
  703TMC3     O10450   1.057   2.077  10.244  0.7374 -0.4497 -0.2209
  703TMC3     H10451   0.752   2.191  10.074  0.2330 -0.0406 -0.7613
  703TMC3    H110452   1.020   2.250  10.404  2.1253  2.1210 -1.6776
  703TMC3    H210453   0.760   2.561  10.297  0.1962 -0.9477  1.6141
  703TMC3    C710454   0.979   2.507  10.417  0.1897  0.7574  0.0391
  703TMC3    C810455   0.601   2.405  10.145 -0.6081 -0.2521 -0.5831
  703TMC3    O110456   1.075   2.450  10.471  0.0526  0.1447 -0.1171
  703TMC3    O210457   0.561   2.359  10.038  0.0471  0.0361 -0.4230
  704TMC3    C110458   3.092   0.800  12.201  0.3733 -0.1186 -0.3863
  704TMC3    C210459   3.219   0.795  12.137  0.5291 -0.2440 -0.1496
  704TMC3    C310460   3.325   0.768  12.213 -1.1391 -0.5652  0.1430
  704TMC3    C410461   3.074   0.762  12.325 -0.0012  0.3389  0.7108
  704TMC3    C510462   3.191   0.729  12.398 -0.3986 -0.0464 -0.2731
  704TMC3    C610463   3.314   0.729  12.340 -0.0369 -0.9852  0.9733
  704TMC3     C10464   2.996   0.894  12.143 -0.4410 -0.3250  0.1926
  704TMC3     O10465   2.926   0.951  12.227 -0.2552 -0.2181 -0.4629
  704TMC3     H10466   3.247   0.823  12.036  2.2318  1.0847  0.6944
  704TMC3    H110467   2.978   0.752  12.375 -1.4433 -1.0569 -2.3611
  704TMC3    H210468   3.402   0.701  12.396  1.5353 -0.5778 -1.3031
  704TMC3    C710469   3.183   0.631  12.505  0.7836  0.4415  0.7480
  704TMC3    C810470   3.459   0.790  12.149  0.6211 -0.5023 -0.5306
  704TMC3    O110471   3.284   0.590  12.559  0.0397  0.0786 -0.3501
  704TMC3    O210472   3.473   0.842  12.040 -0.1284 -0.3383  0.2605
  705MPD2     C10473   2.382   4.051  15.971 -0.0520  0.0764  0.1295
  705MPD2    C110474   2.460   4.084  16.080 -0.0651  0.2762  0.2050
  705MPD2    C210475   2.414   4.046  16.202  0.0986  0.4750 -0.3494
  705MPD2    C310476   2.306   3.968  16.219  0.3017 -0.1373 -0.0382
  705MPD2    C410477   2.233   3.926  16.109 -0.0503  0.2953  0.4479
  705MPD2    C510478   2.278   3.967  15.990  0.6147 -0.6567 -0.4813
  705MPD2     H10479   2.476   4.060  16.289 -0.7277 -0.9650  0.4760
  705MPD2    H110480   2.142   3.867  16.115 -0.3107  0.7480  1.0219
  705MPD2    H210481   2.400   4.084  15.869  0.8312 -1.2324 -0.1310
  705MPD2    H310482   2.220   3.928  15.907 -0.9548  2.3701 -0.8108
  705MPD2     N10483   2.266   3.910  16.346  0.1127  0.2381  0.2384
  705MPD2    H510484   2.173   3.868  16.341  0.2196  0.2920 -2.1875
  705MPD2    N110485   2.574   4.166  16.075  0.6185  0.2364  0.1332
  705MPD2    H710486   2.636   4.168  16.155  0.6647  1.1910  0.0650
  706TMC3    C110487   2.977   4.268  16.063 -0.4073 -0.4070 -0.1975
  706TMC3    C210488   3.006   4.396  16.024  0.1582  0.2752  0.2931
  706TMC3    C310489   2.908   4.468  15.960 -0.1343  0.2045 -0.0476
  706TMC3    C410490   2.854   4.213  16.050 -0.1686  0.5558  0.1604
  706TMC3    C510491   2.757   4.282  15.981 -0.2462  0.0352 -0.4288
  706TMC3    C610492   2.785   4.409  15.933 -0.3391  0.4512 -0.2312
  706TMC3     C10493   3.091   4.180  16.086 -0.4925 -0.1780  0.7116
  706TMC3     O10494   3.188   4.223  16.147 -0.3298  0.2097 -0.1413
  706TMC3     H10495   3.108   4.429  16.040 -0.1400  1.1118  0.4947
  706TMC3    H110496   2.834   4.107  16.059 -0.2125  0.7630  2.7442
  706TMC3    H210497   2.712   4.465  15.876 -0.0350  1.3369  0.2400
  706TMC3    C710498   2.621   4.229  15.960  0.2493 -0.6663  0.0188
  706TMC3    C810499   2.938   4.600  15.913  0.4005 -0.1120  0.3603
  706TMC3    O110500   2.566   4.252  15.850 -0.3997 -0.3431  0.2990
  706TMC3    O210501   2.836   4.666  15.890  0.4986 -0.2624  0.2783
  707TMC3    C110502   4.241   1.616   1.183 -0.4032  0.1355  0.5158
  707TMC3    C210503   4.349   1.543   1.207  0.4723  0.6093 -0.2635
  707TMC3    C310504   4.337   1.413   1.238  0.5697  0.3461 -0.7003
  707TMC3    C410505   4.118   1.558   1.179 -0.4044 -0.5190  0.6402
  707TMC3    C510506   4.108   1.424   1.193 -0.9621 -0.2157 -0.0502
  707TMC3    C610507   4.215   1.350   1.230 -0.3862 -0.0983  0.4844
  707TMC3     C10508   4.261   1.755   1.142  0.3170  0.9373  0.3988
  707TMC3     O10509   4.372   1.800   1.165  0.1255 -0.1779  0.0542
  707TMC3     H10510   4.446   1.589   1.222  1.5945 -0.9457 -2.6596
  707TMC3    H110511   4.027   1.617   1.183  0.5492  1.0932 -1.5589
  707TMC3    H210512   4.198   1.250   1.267 -0.7345 -0.5648 -0.9531
  707TMC3    C710513   3.973   1.372   1.212 -0.5525  1.1178  0.3994
  707TMC3    C810514   4.443   1.337   1.294 -0.1143 -0.2353  0.1812
  707TMC3    O110515   3.883   1.420   1.141 -0.2144  0.2215  0.1194
  707TMC3    O210516   4.412   1.273   1.396  0.8065  0.4498 -0.4403
  708MPD2     C10517   1.310   1.793  13.362  0.0628  0.4203  0.4764
  708MPD2    C110518   1.329   1.869  13.477 -0.4769  0.1726 -0.1847
  708MPD2    C210519   1.391   1.814  13.589  0.0077 -0.3204 -0.6386
  708MPD2    C310520   1.440   1.687  13.586 -0.2258  0.9535 -0.2949
  708MPD2    C410521   1.402   1.609  13.481  0.1102 -0.8225  0.2805
  708MPD2    C510522   1.340   1.661  13.371  0.1464  0.4345  0.8116
  708MPD2     H10523   1.409   1.871  13.680  0.9595 -0.4247 -0.7587
  708MPD2    H110524   1.425   1.503  13.486  0.7671 -0.6698  0.5477
  708MPD2    H210525   1.297   1.842  13.266  1.7466  1.3321  0.7074
  708MPD2    H310526   1.329   1.606  13.279  1.9839 -1.4554  1.7274
  708MPD2     N10527   1.526   1.627  13.678  0.7379 -0.4583 -0.5148
  708MPD2    H510528   1.548   1.530  13.658 -1.2316 -0.4756 -2.4963
  708MPD2    N110529   1.289   2.009  13.469  0.6883  0.2844 -0.4740
  708MPD2    H710530   1.253   2.038  13.379  1.7920  1.3334 -0.5767
  709TMC3    C110531   1.160   2.182  13.572 -0.3156  1.2102  0.4237
  709TMC3    C210532   1.065   2.136  13.487  0.4054  0.4579  0.1237
  709TMC3    C310533   0.938   2.143  13.522  0.1414 -0.2778  0.3056
  709TMC3    C410534   1.128   2.233  13.696 -0.3445 -0.1976  0.5576
  709TMC3    C510535   1.001   2.227  13.741 -0.3570  0.5163  0.4005
  709TMC3    C610536   0.906   2.182  13.653 -0.5495  0.4968  0.3854
  709TMC3     C10537   1.273   2.093  13.581  0.2735  0.1561 -0.6110
  709TMC3     O10538   1.315   2.077  13.698 -0.0276  0.0697  0.3094
  709TMC3     H10539   1.092   2.140  13.382 -2.2383  0.4580 -0.5494
  709TMC3    H110540   1.205   2.278  13.758 -0.1781 -0.3016  0.4249
  709TMC3    H210541   0.805   2.182  13.691 -0.9479 -0.5405 -0.6526
  709TMC3    C710542   0.993   2.175  13.878  0.3822 -0.6610 -0.2165
  709TMC3    C810543   0.826   2.124  13.430 -0.7971 -0.0100 -0.2607
  709TMC3    O110544   0.877   2.157  13.919 -0.6681 -0.1874  0.2087
  709TMC3    O210545   0.711   2.112  13.479 -0.1280 -0.5419 -0.7710
  710TMC3    C110546   1.739   3.505   0.095 -0.0361  1.2094  0.1293
  710TMC3    C210547   1.714   3.475  17.705  0.1265 -0.0519  0.2950
  710TMC3    C310548   1.782   3.372  17.648  0.4649  0.3719 -0.4616
  710TMC3    C410549   1.823   3.428   0.172  0.9278  0.2113  0.0059
  710TMC3    C510550   1.902   3.342   0.103 -0.1030  0.3677 -0.0998
  710TMC3    C610551   1.876   3.301  17.713 -0.4653 -0.4680 -0.5070
  710TMC3     C10552   1.732   3.646   0.128  0.3250  0.6559 -0.3248
  710TMC3     O10553   1.704   3.725   0.038 -0.8676 -0.1261 -0.4992
  710TMC3     H10554   1.662   3.550  17.646  0.9187 -0.7049 -1.2258
  710TMC3    H110555   1.850   3.467   0.269  0.6681  2.4904 -0.8249
  710TMC3    H210556   1.940   3.223  17.672 -1.7177 -1.6090 -0.2550
  710TMC3    C710557   2.026   3.296   0.175 -0.3461  0.3957 -0.4429
  710TMC3    C810558   1.816   3.400  17.517  0.0858  0.4761  0.1087
  710TMC3    O110559   2.031   3.312   0.300 -0.3312 -0.5561 -0.4673
  710TMC3    O210560   1.811   3.513  17.480 -0.0228  0.1390 -0.6030
  711TMC3    C110561   1.915   0.212  14.857 -0.1373  0.4145  0.5465
  711TMC3    C210562   1.942   0.326  14.926  0.1098  0.0720 -0.0274
  711TMC3    C310563   2.049   0.326  15.008 -0.8345 -0.3870  0.0791
  711TMC3    C410564   1.997   0.104  14.864 -0.0506  0.0251 -0.1978
  711TMC3    C510565   2.106   0.114  14.944 -0.4889  0.1549 -0.2256
  711TMC3    C610566   2.140   0.218  15.021 -0.9984  0.4783 -0.5135
  711TMC3     C10567   1.828   0.210  14.742 -0.1309 -0.3193 -0.0892
  711TMC3     O10568   1.854   0.137  14.647  0.1756 -0.6479  0.1087
  711TMC3     H10569   1.881   0.415  14.920  0.8625  0.3299 -3.9877
  711TMC3    H110570   1.967   0.013  14.812 -0.1288  0.1837 -0.4304
  711TMC3    H210571   2.224   0.211  15.088 -0.2910 -0.1171 -1.4528
  711TMC3    C710572   2.190   0.003  14.949  0.1442 -0.1115  0.1672
  711TMC3    C810573   2.042   0.414  15.124 -0.4735  0.0242 -0.7038
  711TMC3    O110574   2.288   0.003  15.024 -0.0393 -0.0229 -0.3263
  711TMC3    O210575   1.939   0.476  15.130 -0.2219  0.3852  0.2919
  712MPD2     C10576   3.478   0.837  13.736 -0.3113 -0.1577  0.9458
  712MPD2    C110577   3.389   0.931  13.788 -0.1877  0.2554 -1.0431
  712MPD2    C210578   3.413   1.065  13.764  0.2192 -0.2281 -0.5188
  712MPD2    C310579   3.531   1.100  13.706 -0.6288 -0.4087 -0.0729
  712MPD2    C410580   3.625   1.005  13.658  0.0039 -0.2486 -0.1876
  712MPD2    C510581   3.586   0.874  13.661  0.0035 -0.5259 -0.1073
  712MPD2     H10582   3.346   1.137  13.810 -1.2201 -1.6474 -0.4146
  712MPD2    H110583   3.717   1.038  13.611  0.1587 -0.2676  0.0992
  712MPD2    H210584   3.462   0.730  13.741 -2.1754 -0.0457 -2.3514
  712MPD2    H310585   3.648   0.799  13.613 -0.4288 -0.6645 -0.4487
  712MPD2     N10586   3.582   1.232  13.697 -0.1696 -1.2580 -0.4350
  712MPD2    H510587   3.674   1.248  13.658 -0.4919 -2.0481 -1.5265
  712MPD2    N110588   3.273   0.906  13.862  0.3316  0.0162  0.2642
  712MPD2    H710589   3.201   0.977  13.870 -1.2373 -1.7549  1.8365
  713TMC3    C110590   3.603   1.472  13.753 -0.6200  0.0816  0.5698
  713TMC3    C210591   3.738   1.469  13.780 -0.0500  0.0868  0.0851
  713TMC3    C310592   3.795   1.571  13.845  0.4982 -1.0414 -1.0227
  713TMC3    C410593   3.529   1.580  13.785 -0.2317  0.4329 -0.0970
  713TMC3    C510594   3.597   1.685  13.849  0.1917 -0.6388  0.5896
  713TMC3    C610595   3.730   1.685  13.886 -0.0728 -0.6296 -0.8157
  713TMC3     C10596   3.518   1.345  13.739 -1.1362 -0.4861  0.2816
  713TMC3     O10597   3.406   1.353  13.787  0.3735 -0.1431  0.1160
  713TMC3     H10598   3.797   1.382  13.755 -3.1779 -1.0539 -3.3151
  713TMC3    H110599   3.425   1.583  13.755 -0.3580 -3.8556 -0.1925
  713TMC3    H210600   3.776   1.774  13.927 -1.8294  0.1633 -0.5653
  713TMC3    C710601   3.554   1.818  13.819 -0.2425 -0.2855  0.1089
  713TMC3    C810602   3.942   1.567  13.857  0.2797 -0.4306 -0.2158
  713TMC3    O110603   3.630   1.906  13.860  0.4346  0.5389 -0.5624
  713TMC3    O210604   4.000   1.674  13.867 -0.5343 -0.5568 -0.0171
  714MPD2     C10605   0.687   4.370   1.583  0.5119  0.8540  0.6728
  714MPD2    C110606   0.740   4.331   1.467  0.5187  0.5309 -0.2942
  714MPD2    C210607   0.688   4.366   1.342  0.1031 -0.5268 -0.0799
  714MPD2    C310608   0.587   4.457   1.346  0.5874  0.2316  0.0613
  714MPD2    C410609   0.532   4.503   1.459  0.0826  0.1114  0.2094
  714MPD2    C510610   0.588   4.457   1.583  0.5563  0.0150 -0.3313
  714MPD2     H10611   0.731   4.323   1.252  0.7814  1.5772 -0.7653
  714MPD2    H110612   0.456   4.580   1.465  1.2166  1.2303  0.3845
  714MPD2    H210613   0.736   4.344   1.676  3.7504  2.4103 -0.6173
  714MPD2    H310614   0.564   4.522   1.666  0.3103 -0.1209 -0.2968
  714MPD2     N10615   0.525   4.491   1.224 -0.7350 -0.1975 -0.2626
  714MPD2    H510616   0.576   4.456   1.144 -0.5311  0.0752 -0.2487
  714MPD2    N110617   0.846   4.235   1.467  0.3032 -0.0217 -0.4221
  714MPD2    H710618   0.871   4.205   1.561  0.7728  1.7205  0.0069
  715TMC3    C110619   0.997   4.082   1.410 -0.2244  0.3829 -0.0260
  715TMC3    C210620   1.032   3.979   1.319 -0.0774  0.4287 -0.8755
  715TMC3    C310621   1.163   3.925   1.326  0.1435  0.1059 -0.6248
  715TMC3    C410622   1.082   4.130   1.506 -0.3117  0.0098  0.0691
  715TMC3    C510623   1.209   4.082   1.501 -0.1585 -0.2664  0.4913
  715TMC3    C610624   1.252   3.975   1.422  0.8668 -0.0142 -0.2417
  715TMC3     C10625   0.879   4.154   1.366 -0.1798 -0.1398  0.1500
  715TMC3     O10626   0.839   4.132   1.252  0.7904 -0.1477 -0.3629
  715TMC3     H10627   0.957   3.931   1.256  0.1044  0.0927 -0.8322
  715TMC3    H110628   1.059   4.205   1.580 -2.6477 -1.0485  0.4123
  715TMC3    H210629   1.352   3.937   1.438 -0.0796 -1.4842  2.1871
  715TMC3    C710630   1.302   4.105   1.610  0.1111 -0.3900  0.5485
  715TMC3    C810631   1.175   3.789   1.273 -0.1153 -0.3084 -0.0839
  715TMC3    O110632   1.421   4.095   1.593 -0.1775  0.1296  0.0423
  715TMC3    O210633   1.110   3.765   1.173  0.1054  0.4860 -0.1009
  716MPD2     C10634   0.580   2.086   9.829 -0.1548 -0.6055 -0.1192
  716MPD2    C110635   0.483   2.040   9.744  0.0856  0.5944 -0.7959
  716MPD2    C210636   0.510   1.917   9.683  0.2834 -0.0244 -0.0471
  716MPD2    C310637   0.628   1.848   9.700 -0.4046 -0.2344  0.4715
  716MPD2    C410638   0.728   1.909   9.769  0.2495 -0.2755 -0.1195
  716MPD2    C510639   0.696   2.022   9.840  1.0918  0.1124 -0.1933
  716MPD2     H10640   0.437   1.871   9.617 -1.6465 -1.1353  2.8534
  716MPD2    H110641   0.829   1.870   9.775  0.0440 -1.0735 -1.7775
  716MPD2    H210642   0.574   2.183   9.876 -3.7436 -1.9999  2.3314
  716MPD2    H310643   0.778   2.069   9.894  0.7186 -0.6448  1.0276
  716MPD2     N10644   0.650   1.732   9.627  0.4623  0.1432  0.3058
  716MPD2    H510645   0.574   1.693   9.572 -0.6701  0.3828  1.7151
  716MPD2    N110646   0.362   2.116   9.731  0.1638  0.1051  0.6947
  716MPD2    H710647   0.365   2.207   9.777  3.2302 -0.2518  1.2025
  717TMC3    C110648   0.766   1.539   9.518  0.4132 -0.4637  1.0128
  717TMC3    C210649   0.681   1.559   9.413 -0.6129 -0.1849  0.9310
  717TMC3    C310650   0.673   1.460   9.313  0.3019  0.0624 -0.2500
  717TMC3    C410651   0.836   1.421   9.536 -0.3808  0.0271 -0.5604
  717TMC3    C510652   0.811   1.324   9.443 -0.4293  0.0007 -0.1492
  717TMC3    C610653   0.728   1.336   9.339 -0.2157 -0.4314  0.2635
  717TMC3     C10654   0.764   1.646   9.625  0.2642  0.1615  0.0171
  717TMC3     O10655   0.853   1.644   9.708  0.9700 -0.3304 -0.1831
  717TMC3     H10656   0.643   1.660   9.400  0.9210  0.5818  2.3350
  717TMC3    H110657   0.900   1.410   9.622 -0.8852 -0.1595 -0.2136
  717TMC3    H210658   0.697   1.247   9.286 -0.7252  0.6106 -1.2111
  717TMC3    C710659   0.879   1.195   9.472 -0.5437  0.3338 -0.1705
  717TMC3    C810660   0.567   1.463   9.219 -0.3791 -0.8793  0.0856
  717TMC3    O110661   0.915   1.175   9.589  0.1489 -0.2542 -0.0877
  717TMC3    O210662   0.502   1.564   9.202 -0.2810 -0.4697 -0.4704
  718MPD2     C10663   0.309   0.888  12.804  0.5519  0.2264  0.3820
  718MPD2    C110664   0.233   0.959  12.718  0.5976 -0.5211 -0.5382
  718MPD2    C210665   0.097   0.954  12.733 -0.2077 -0.5969  0.7111
  718MPD2    C310666   0.039   0.898  12.841  0.7751  0.2265  0.3734
  718MPD2    C410667   0.112   0.826  12.933 -0.3310  0.0196  0.5439
  718MPD2    C510668   0.246   0.816  12.906  0.0475 -0.3594 -0.3451
  718MPD2     H10669   0.038   1.002  12.656 -0.8721  1.7454  2.7042
  718MPD2    H110670   0.062   0.754  12.997 -1.3706  0.2936  0.0564
  718MPD2    H210671   0.417   0.888  12.804  0.5562  1.7101  1.4620
  718MPD2    H310672   0.298   0.756  12.980  0.3306  0.6908  0.3130
  718MPD2     N10673   4.630   0.888  12.831 -0.2625 -0.7352 -0.7464
  718MPD2    H510674   4.604   0.942  12.750  0.9616  0.6687 -0.2079
  718MPD2    N110675   0.296   1.025  12.603  0.6245 -0.3732  0.0591
  718MPD2    H710676   0.397   1.029  12.603  0.6728 -1.4268 -0.8544
  719TMC3    C110677   0.309   1.146  12.408 -0.4041  0.5766 -0.3449
  719TMC3    C210678   0.303   1.042  12.316  0.6092  0.2246 -0.7166
  719TMC3    C310679   0.272   1.069  12.180  0.4474 -0.1940 -0.3918
  719TMC3    C410680   0.294   1.279  12.371  0.0535 -0.3358 -0.2254
  719TMC3    C510681   0.262   1.303  12.234 -0.6116  0.9445  0.4570
  719TMC3    C610682   0.244   1.199  12.148 -0.0405 -0.0573  0.1007
  719TMC3     C10683   0.228   1.104  12.513  0.1944  0.7492 -0.0161
  719TMC3     O10684   0.111   1.109  12.486  0.7582 -0.5692  0.0245
  719TMC3     H10685   0.307   0.941  12.354  2.1606  0.5945  0.0758
  719TMC3    H110686   0.303   1.356  12.447 -1.4456  0.9253 -1.3168
  719TMC3    H210687   0.210   1.221  12.048 -2.2127  0.1256  0.8897
  719TMC3    C710688   0.285   1.432  12.175  0.0105 -0.0018  0.0773
  719TMC3    C810689   0.170   0.985  12.141  0.5174  0.3175 -0.2508
  719TMC3    O110690   0.313   1.434  12.054 -0.6784 -0.5465 -0.5041
  719TMC3    O210691   0.167   0.958  12.021  0.1102  0.3011 -0.5785
  720MPD2     C10692   3.550   3.239  13.879 -0.3978 -0.3729  0.0178
  720MPD2    C110693   3.620   3.265  13.765 -0.3083 -0.3775  0.2183
  720MPD2    C210694   3.759   3.261  13.763 -0.3757 -0.5646  0.1362
  720MPD2    C310695   3.828   3.228  13.878  0.6131 -0.6500  1.1469
  720MPD2    C410696   3.758   3.207  13.994 -0.3255  0.6593  0.3771
  720MPD2    C510697   3.621   3.205  13.989  0.5615  0.1977  0.0111
  720MPD2     H10698   3.818   3.271  13.672 -1.2361  1.3035 -0.2139
  720MPD2    H110699   3.808   3.184  14.087  0.7629  1.1077 -0.1067
  720MPD2    H210700   3.443   3.227  13.885 -0.5412  0.8806 -0.0845
  720MPD2    H310701   3.567   3.173  14.077  1.5558  2.3384  1.4055
  720MPD2     N10702   3.970   3.226  13.867 -0.0932  0.2457 -0.3261
  720MPD2    H510703   4.011   3.261  13.781  0.0369  0.4462 -0.1826
  720MPD2    N110704   3.548   3.285  13.643 -0.1766  0.1348  0.5227
  720MPD2    H710705   3.579   3.261  13.549 -2.0681  0.0915 -0.0921
  721TMC3    C110706   4.196   3.246  13.954  0.2208 -0.3016 -0.0829
  721TMC3    C210707   4.260   3.309  14.058  0.0340 -0.2239  0.9617
  721TMC3    C310708   4.396   3.336  14.038  0.1003  0.7878 -0.0290
  721TMC3    C410709   4.260   3.207  13.836 -0.8021 -0.5016  0.9539
  721TMC3    C510710   4.386   3.241  13.820 -0.1843 -0.1797  0.6278
  721TMC3    C610711   4.458   3.308  13.912  0.0344  0.8318  0.1342
  721TMC3     C10712   4.058   3.218  13.976  0.6473  0.0662 -0.6071
  721TMC3     O10713   4.032   3.169  14.084 -0.6646 -0.2165  0.5620
  721TMC3     H10714   4.203   3.343  14.144 -0.2533  2.1696 -0.1392
  721TMC3    H110715   4.199   3.166  13.757 -0.9236 -1.7076  1.6697
  721TMC3    H210716   4.564   3.319  13.891  0.6120 -1.2979  1.8654
  721TMC3    C710717   4.461   3.194  13.706 -0.3322  0.3916  0.3787
  721TMC3    C810718   4.483   3.348  14.148 -0.3983 -0.1624  1.0183
  721TMC3    O110719   4.538   3.273  13.655 -0.0014 -0.2697  0.0611
  721TMC3    O210720   4.603   3.378  14.134  0.2377 -0.3250 -0.4098
  722MPD2     C10721   2.550   1.415  13.222 -0.0189 -0.2110 -0.2362
  722MPD2    C110722   2.497   1.545  13.205 -0.9460  0.4091 -0.4546
  722MPD2    C210723   2.359   1.571  13.194  0.2240  0.2919 -0.0479
  722MPD2    C310724   2.274   1.463  13.205 -0.0090 -0.2430  0.1227
  722MPD2    C410725   2.324   1.336  13.216 -0.2017  0.8052  0.1022
  722MPD2    C510726   2.459   1.313  13.220 -0.1662  0.2580  0.3753
  722MPD2     H10727   2.321   1.671  13.183  0.7988  0.5246  0.0585
  722MPD2    H110728   2.261   1.249  13.221 -0.1200  0.6588 -1.4365
  722MPD2    H210729   2.658   1.406  13.227 -0.0090 -2.3391 -4.2343
  722MPD2    H310730   2.470   1.206  13.235  1.0114  0.1725 -1.1230
  722MPD2     N10731   2.139   1.491  13.193 -0.5631 -0.5589 -0.3939
  722MPD2    H510732   2.109   1.588  13.186  0.5424 -0.0815  1.5648
  722MPD2    N110733   2.585   1.654  13.209 -0.4225  0.9112  0.3973
  722MPD2    H710734   2.538   1.736  13.171 -0.2839  1.3475  1.1495
  723TMC3    C110735   1.901   1.453  13.215 -0.1575 -0.0053 -0.3801
  723TMC3    C210736   1.807   1.359  13.190 -0.3501  0.0126 -0.5657
  723TMC3    C310737   1.679   1.399  13.172  0.2808  0.2952 -0.7439
  723TMC3    C410738   1.867   1.588  13.217 -0.0585  0.4808  0.3874
  723TMC3    C510739   1.734   1.620  13.209 -0.6497  0.6034  0.6491
  723TMC3    C610740   1.641   1.525  13.194  0.2176 -0.3450  0.1143
  723TMC3     C10741   2.037   1.397  13.206  0.0405 -0.4308  0.1195
  723TMC3     O10742   2.049   1.277  13.224  0.7351 -0.4488  0.2097
  723TMC3     H10743   1.828   1.252  13.188 -1.8798 -0.3164  0.6374
  723TMC3    H110744   1.948   1.659  13.213  0.8660 -0.2959  4.4652
  723TMC3    H210745   1.536   1.549  13.183  0.6026  1.0410 -0.6012
  723TMC3    C710746   1.701   1.746  13.143  0.1406 -0.0998  0.3848
  723TMC3    C810747   1.579   1.296  13.134  0.1949 -1.1345  0.1355
  723TMC3    O110748   1.784   1.832  13.159  0.4451  0.2827  0.0965
  723TMC3    O210749   1.467   1.310  13.182 -0.2265 -0.0200 -0.7381
  724TMC3    C110750   2.346   4.398  10.132 -0.1422  0.5875 -0.1730
  724TMC3    C210751   2.396   4.390  10.003 -0.0291  0.3838 -0.0772
  724TMC3    C310752   2.518   4.461   9.992 -0.2541 -0.2377  0.9689
  724TMC3    C410753   2.436   4.430  10.242  0.4707 -0.4905  0.0133
  724TMC3    C510754   2.563   4.466  10.223  0.0126 -0.4820 -0.2361
  724TMC3    C610755   2.609   4.485  10.093 -0.1071  0.2272 -1.0184
  724TMC3     C10756   2.239   4.312  10.158 -0.1332 -0.1190  0.0082
  724TMC3     O10757   2.175   4.336  10.260 -0.2452 -0.1425 -0.0129
  724TMC3     H10758   2.323   4.376   9.924 -0.7993  1.7371  0.3947
  724TMC3    H110759   2.391   4.422  10.341 -0.3789  2.7832 -0.1001
  724TMC3    H210760   2.706   4.528  10.071  0.3286 -0.0133  0.4310
  724TMC3    C710761   2.637   4.534  10.321  0.0833 -0.0181  0.5168
  724TMC3    C810762   2.542   4.509   9.861 -0.8762  0.1562 -0.4215
  724TMC3    O110763   2.736   4.592  10.279  0.0298  0.2457 -0.3113
  724TMC3    O210764   2.481   4.452   9.773  0.3140  0.0854 -0.2707
  725TMC3    C110765   4.237   3.235  12.951 -0.4839  0.3048  0.0946
  725TMC3    C210766   4.105   3.265  12.916  1.2131 -0.0003  0.3801
  725TMC3    C310767   4.019   3.164  12.882  0.5934  0.4309 -0.3289
  725TMC3    C410768   4.271   3.098  12.971 -0.0718  0.5535 -0.7170
  725TMC3    C510769   4.180   3.000  12.934 -0.3104  0.0723 -0.4236
  725TMC3    C610770   4.056   3.030  12.892  0.2331 -0.2250  0.1229
  725TMC3     C10771   4.340   3.336  12.938  0.1748 -0.0891  0.1417
  725TMC3     O10772   4.298   3.449  12.926  0.4416 -0.1467  0.6874
  725TMC3     H10773   4.082   3.371  12.911  0.3233 -0.2569 -0.9546
  725TMC3    H110774   4.372   3.065  12.992  0.5841  1.6323 -2.1378
  725TMC3    H210775   3.993   2.951  12.854  0.4290  0.2161 -1.1196
  725TMC3    C710776   4.238   2.876  12.895 -0.0631  0.1794 -1.1852
  725TMC3    C810777   3.927   3.180  12.777  0.1030 -0.6163 -0.6476
  725TMC3    O110778   4.352   2.879  12.857 -1.1853  0.2299  0.4898
  725TMC3    O210779   3.834   3.102  12.765  0.0333 -0.1412  0.4974
  726MPD2     C10780   1.687   4.531  10.413  0.0579 -0.1245 -0.2426
  726MPD2    C110781   1.622   4.600  10.308 -0.5395 -0.8649  0.8847
  726MPD2    C210782   1.501   4.559  10.265  0.2230 -0.3539 -0.3662
  726MPD2    C310783   1.442   4.453  10.322 -0.3115 -0.0315 -0.3396
  726MPD2    C410784   1.499   4.375  10.417 -0.8434 -0.1623 -0.0354
  726MPD2    C510785   1.626   4.418  10.465  0.3316  0.5273 -0.0833
  726MPD2     H10786   1.450   4.609  10.184  3.7026  0.3482 -2.1108
  726MPD2    H110787   1.441   4.295  10.461 -0.0001 -0.1617  1.0635
  726MPD2    H210788   1.779   4.565  10.459 -0.3106 -0.7225  0.9391
  726MPD2    H310789   1.666   4.365  10.551 -1.2391 -2.2656 -1.0857
  726MPD2     N10790   1.319   4.405  10.271 -0.1929 -0.1780 -0.5548
  726MPD2    H510791   1.272   4.331  10.322  1.5564  0.0400  1.3792
  726MPD2    N110792   1.683   4.715  10.242 -0.5557  0.3101 -0.0759
  726MPD2    H710793   1.612   0.036  10.196 -0.2661 -0.1737 -1.0989
  727TMC3    C110794   1.849   0.114  10.146  0.8328  0.5928  0.2249
  727TMC3    C210795   1.950   0.202  10.172  0.1377  0.8023  0.6082
  727TMC3    C310796   1.976   0.300  10.081 -0.1218  0.1355 -0.1063
  727TMC3    C410797   1.773   0.124  10.027  0.4998  0.7637  0.5913
  727TMC3    C510798   1.804   0.225   9.935  0.5241  0.1513  0.2641
  727TMC3    C610799   1.907   0.317   9.957 -0.8540  0.5125 -0.5960
  727TMC3     C10800   1.816   0.017  10.244  0.1057 -0.5317  0.3410
  727TMC3     O10801   1.910   4.718  10.317  0.0834  0.1206 -0.4002
  727TMC3     H10802   1.997   0.191  10.269  0.0633 -0.8289  0.4586
  727TMC3    H110803   1.684   0.065  10.009 -0.0918  0.7023  3.7372
  727TMC3    H210804   1.930   0.386   9.877  1.4625  0.4615  0.0063
  727TMC3    C710805   1.723   0.243   9.815 -0.3612  0.0808  0.1587
  727TMC3    C810806   2.067   0.401  10.122  0.8895  0.5119  0.2542
  727TMC3    O110807   1.719   0.352   9.761 -0.2468  0.5788  0.3647
  727TMC3    O210808   2.123   0.387  10.233  0.3520  0.2262 -0.3992
  728TMC3    C110809   1.831   3.649  14.677 -0.4158 -0.7499 -0.1444
  728TMC3    C210810   1.935   3.728  14.650  0.1826  0.1255 -0.3283
  728TMC3    C310811   1.926   3.823  14.557 -0.6758 -0.1804 -0.3101
  728TMC3    C410812   1.711   3.663  14.605  0.2998 -0.5966  0.5342
  728TMC3    C510813   1.702   3.758  14.509  0.3896  0.7237 -1.0990
  728TMC3    C610814   1.806   3.843  14.489 -0.3773 -0.1851  0.0901
  728TMC3     C10815   1.846   3.551  14.772  0.8481 -0.0604 -0.0709
  728TMC3     O10816   1.957   3.525  14.807  0.1863  0.0366  0.4134
  728TMC3     H10817   2.032   3.706  14.693  1.5101  1.0100 -2.7942
  728TMC3    H110818   1.630   3.593  14.618 -0.0474 -0.3837 -0.4497
  728TMC3    H210819   1.807   3.911  14.405  1.0447  1.5056  1.4653
  728TMC3    C710820   1.566   3.790  14.446  0.3195  0.7653 -0.4221
  728TMC3    C810821   2.045   3.909  14.542  0.2181 -0.0941  0.0275
  728TMC3    O110822   1.481   3.707  14.464  0.0543  0.0358 -0.2570
  728TMC3    O210823   2.140   3.881  14.615  0.4144 -0.0346  0.1890
  729MPD2     C10824   3.366   4.551  16.585  0.7916  0.6390  0.7458
  729MPD2    C110825   3.481   4.625  16.605 -0.6973 -0.6351  0.0218
  729MPD2    C210826   3.506   4.685  16.732  0.5205  0.4389  0.5529
  729MPD2    C310827   3.404   4.681  16.825  0.1163 -0.3798 -0.0593
  729MPD2    C410828   3.281   4.628  16.794  0.7714  0.5617  0.1943
  729MPD2    C510829   3.263   4.564  16.677 -0.6027 -0.6815  0.1785
  729MPD2     H10830   3.592   0.012  16.753  0.1977  1.2641 -0.5852
  729MPD2    H110831   3.206   4.629  16.872 -0.7266 -0.0381 -1.2418
  729MPD2    H210832   3.354   4.511  16.485  1.7309 -1.7060  1.5614
  729MPD2    H310833   3.170   4.522  16.641  0.8478 -0.9927 -3.3016
  729MPD2     N10834   3.432   0.009  16.947 -0.0133  0.1319 -0.1024
  729MPD2    H510835   3.528   0.024  16.979 -0.6800  0.9212  1.5562
  729MPD2    N110836   3.567   4.655  16.502 -0.1371 -0.6345  0.0385
  729MPD2    H710837   3.572   4.578  16.436  1.0900  0.3621 -1.0145
  730TMC3    C110838   3.381   0.115  17.146 -0.4351 -0.2565  0.1590
  730TMC3    C210839   3.499   0.054  17.194  0.5395 -0.4720 -0.3405
  730TMC3    C310840   3.586   0.134  17.269  0.4933 -0.2276 -0.4096
  730TMC3    C410841   3.348   0.244  17.177  0.5106  0.4118  0.2430
  730TMC3    C510842   3.440   0.319  17.245 -0.5434  0.4034  0.4764
  730TMC3    C610843   3.562   0.272  17.289 -0.6110  0.8333 -0.0505
  730TMC3     C10844   3.328   0.063  17.025 -0.0343 -0.2686 -0.0171
  730TMC3     O10845   3.208   0.071  17.003 -0.2907  0.5992 -0.7268
  730TMC3     H10846   3.524   4.688  17.164 -1.9191 -0.6270 -1.9772
  730TMC3    H110847   3.278   0.295  17.111  0.7324 -1.3866 -1.4056
  730TMC3    H210848   3.634   0.338  17.335  2.2514 -1.1736 -1.5572
  730TMC3    C710849   3.439   0.459  17.228 -0.4018 -0.1695 -0.2587
  730TMC3    C810850   3.714   0.074  17.291 -0.3478 -0.2432  0.2568
  730TMC3    O110851   3.536   0.532  17.233 -0.0327  0.0542 -0.0334
  730TMC3    O210852   3.726   4.698  17.243  0.1209  0.3092 -0.1439
  731MPD2     C10853   3.266   3.140  12.387 -0.6006  0.2307 -0.4094
  731MPD2    C110854   3.326   3.013  12.388  0.2356 -0.6863  0.2710
  731MPD2    C210855   3.295   2.923  12.487 -0.3842 -0.0960 -0.3653
  731MPD2    C310856   3.218   2.961  12.596 -0.0145  0.0492  0.3052
  731MPD2    C410857   3.152   3.082  12.583  0.1976 -0.7317 -0.0024
  731MPD2    C510858   3.184   3.176  12.486 -0.1052 -0.3551  0.7085
  731MPD2     H10859   3.344   2.827  12.498  1.0734  0.4536 -2.0962
  731MPD2    H110860   3.082   3.119  12.657  0.1019  1.2845 -1.0930
  731MPD2    H210861   3.292   3.222  12.322  0.6464 -0.4657 -0.7840
  731MPD2    H310862   3.142   3.276  12.483 -1.4599 -0.9670 -0.9344
  731MPD2     N10863   3.196   2.870  12.701 -0.4512  0.3271 -0.1107
  731MPD2    H510864   3.240   2.779  12.693  0.0307  0.3952  1.5973
  731MPD2    N110865   3.413   2.975  12.285  0.3697  0.8999 -0.0465
  731MPD2    H710866   3.430   3.036  12.207  2.4382 -0.3927 -0.6117
  732TMC3    C110867   3.535   2.832  12.132  0.3145  0.0341  0.1615
  732TMC3    C210868   3.531   2.703  12.093 -0.1356  0.1635  0.3962
  732TMC3    C310869   3.625   2.654  12.000 -0.0936 -0.0266  0.4446
  732TMC3    C410870   3.636   2.911  12.089 -0.2394 -0.0582 -0.0695
  732TMC3    C510871   3.742   2.854  12.028 -0.3650 -0.2574  0.5755
  732TMC3    C610872   3.734   2.731  11.974  0.0058  0.3097  0.4598
  732TMC3     C10873   3.474   2.852  12.268 -0.0699 -0.7997 -0.4233
  732TMC3     O10874   3.481   2.756  12.340  0.1110 -0.0509 -0.1374
  732TMC3     H10875   3.454   2.634  12.127  0.9782 -1.6084 -0.6849
  732TMC3    H110876   3.649   3.006  12.139 -0.8507 -0.4407  0.8391
  732TMC3    H210877   3.810   2.705  11.901 -0.9043  0.1668 -0.4300
  732TMC3    C710878   3.872   2.920  12.031  0.3209  0.3084  0.5609
  732TMC3    C810879   3.603   2.521  11.930  0.2823  0.0579  0.3735
  732TMC3    O110880   3.870   3.046  12.032  0.5620  0.3254  0.0348
  732TMC3    O210881   3.697   2.455  11.890 -0.2272  0.1504 -0.4571
  733TMC3    C110882   4.180   0.798  12.855 -0.3599  0.0496 -0.2552
  733TMC3    C210883   4.294   0.821  12.935 -0.0944 -1.1559 -0.7204
  733TMC3    C310884   4.413   0.818  12.865  0.2516  0.1210 -0.1116
  733TMC3    C410885   4.175   0.773  12.719  0.3381 -0.3239 -0.0978
  733TMC3    C510886   4.301   0.763  12.657 -0.2681  0.7555 -0.2746
  733TMC3    C610887   4.416   0.780  12.730 -0.2139  0.3357  0.3058
  733TMC3     C10888   4.051   0.782  12.919 -0.5422  0.4831  0.4682
  733TMC3     O10889   3.954   0.751  12.850 -0.1349 -0.2956 -0.1662
  733TMC3     H10890   4.295   0.838  13.042  2.1298 -1.3263 -0.7137
  733TMC3    H110891   4.089   0.762  12.654  0.3065 -0.9610  0.0493
  733TMC3    H210892   4.508   0.761  12.676 -1.8224 -2.4996 -1.4265
  733TMC3    C710893   4.315   0.761  12.514 -0.7225 -0.1669  1.0014
  733TMC3    C810894   4.540   0.833  12.925  0.6082 -0.5257  1.0661
  733TMC3    O110895   4.238   0.686  12.454  0.4552 -0.6478  0.2520
  733TMC3    O210896   4.554   0.795  13.042  0.3527 -0.2271  0.1253
  734MPD2     C10897   1.481   3.455  12.255  0.2796  0.1287  0.2925
  734MPD2    C110898   1.401   3.411  12.156  0.7308  0.5478 -0.2841
  734MPD2    C210899   1.426   3.450  12.023 -0.2886 -0.0345 -0.2590
  734MPD2    C310900   1.542   3.518  11.988 -0.3676 -0.3255 -0.5570
  734MPD2    C410901   1.616   3.567  12.089  0.8683 -0.6378 -0.1792
  734MPD2    C510902   1.587   3.540  12.217 -0.4984  0.1817  0.0566
  734MPD2     H10903   1.364   3.421  11.938  1.0087 -0.6422 -0.9851
  734MPD2    H110904   1.709   3.618  12.069  1.3206 -1.3508  0.1417
  734MPD2    H210905   1.475   3.427  12.360  0.2447 -2.6759 -0.4504
  734MPD2    H310906   1.664   3.554  12.292 -1.3237  0.1908  0.9007
  734MPD2     N10907   1.564   3.535  11.845 -0.2562 -0.1108  0.0395
  734MPD2    H510908   1.499   3.478  11.792 -0.5915 -0.6934  1.0886
  734MPD2    N110909   1.294   3.330  12.199 -0.5643  0.2332  0.0129
  734MPD2    H710910   1.302   3.296  12.295  2.3109  0.2989 -0.2096
  735TMC3    C110911   1.122   3.157  12.166 -0.0519  0.1293 -0.6495
  735TMC3    C210912   1.047   3.104  12.065 -0.7312  0.3954  0.4969
  735TMC3    C310913   1.044   2.969  12.043  0.0199 -0.2772  0.7997
  735TMC3    C410914   1.188   3.075  12.248  0.6383  0.0563  0.3024
  735TMC3    C510915   1.191   2.943  12.226 -0.6574  0.4258 -0.0909
  735TMC3    C610916   1.119   2.886  12.119 -0.1700 -0.0772  0.2241
  735TMC3     C10917   1.199   3.267  12.112 -0.1968 -0.3017  0.0382
  735TMC3     O10918   1.194   3.277  11.990 -0.1854 -0.1618  0.2456
  735TMC3     H10919   0.976   3.166  12.011 -0.7919 -1.0313 -1.0482
  735TMC3    H110920   1.248   3.117  12.328  0.1631  0.5641  0.3890
  735TMC3    H210921   1.134   2.783  12.091 -1.3731  0.4543 -2.3401
  735TMC3    C710922   1.317   2.877  12.269 -0.1531  0.3137 -0.1148
  735TMC3    C810923   1.054   2.933  11.903  0.5193 -1.0259  0.4759
  735TMC3    O110924   1.409   2.948  12.302 -0.5725  0.4318  0.1229
  735TMC3    O210925   1.045   2.816  11.864 -0.2946 -0.6307 -0.2815
  736MPD2     C10926   1.398   2.526  12.311  0.0111  0.0156 -0.2082
  736MPD2    C110927   1.422   2.654  12.281  0.2719  0.9232  0.5783
  736MPD2    C210928   1.552   2.696  12.261 -0.1920 -0.0999  0.2366
  736MPD2    C310929   1.657   2.605  12.265  0.0625  0.4781  0.0030
  736MPD2    C410930   1.632   2.476  12.297  0.2611 -0.1632 -0.2603
  736MPD2    C510931   1.504   2.437  12.322  0.6277  0.4265 -0.3481
  736MPD2     H10932   1.566   2.800  12.234 -0.9974  0.1660  0.8415
  736MPD2    H110933   1.709   2.399  12.301  0.0128 -0.2168  3.7285
  736MPD2    H210934   1.297   2.495  12.338  0.2840  0.0086  0.8052
  736MPD2    H310935   1.481   2.335  12.351 -0.0464  1.3150  2.1832
  736MPD2     N10936   1.791   2.643  12.243 -0.0592  0.1244 -0.2089
  736MPD2    H510937   1.863   2.572  12.254 -1.3887 -1.6025 -2.7021
  736MPD2    N110938   1.313   2.738  12.260  0.0109 -0.3276 -0.2275
  736MPD2    H710939   1.229   2.685  12.240 -1.3807  1.9378 -0.3299
  737TMC3    C110940   1.970   2.762  12.149 -0.0481  0.1645  0.3226
  737TMC3    C210941   2.035   2.879  12.145  0.0930  0.0934  0.1321
  737TMC3    C310942   2.153   2.884  12.082 -0.5327 -0.0270  0.4634
  737TMC3    C410943   2.012   2.645  12.089 -0.0252 -0.4048  0.0006
  737TMC3    C510944   2.130   2.657  12.020  0.3386 -0.0526  0.2860
  737TMC3    C610945   2.200   2.777  12.020  0.1419  0.2382 -0.5983
  737TMC3     C10946   1.835   2.766  12.205  0.8303  0.0414 -0.3016
  737TMC3     O10947   1.772   2.871  12.190 -0.0173  0.7038 -0.4136
  737TMC3     H10948   2.002   2.964  12.204 -3.0725 -1.1391  0.1027
  737TMC3    H110949   1.948   2.558  12.075 -1.5605  0.8257 -0.6226
  737TMC3    H210950   2.299   2.764  11.979 -0.9495  0.0248 -3.1768
  737TMC3    C710951   2.180   2.540  11.952  0.4648  0.1539 -0.3671
  737TMC3    C810952   2.222   3.008  12.066  0.7050  0.0657  0.1711
  737TMC3    O110953   2.131   2.435  11.995 -0.3447  0.3672  0.1066
  737TMC3    O210954   2.222   3.091  12.157 -0.4623  0.6077  0.1301
  738MPD2     C10955   2.593   2.191  14.385 -0.0063  0.2428  0.5305
  738MPD2    C110956   2.603   2.143  14.515  0.4273 -0.0301 -0.3884
  738MPD2    C210957   2.694   2.208  14.595 -0.2613  0.2535  0.0199
  738MPD2    C310958   2.758   2.329  14.559 -0.2486  0.4183  0.1293
  738MPD2    C410959   2.735   2.374  14.435  0.0276 -0.4182 -0.6763
  738MPD2    C510960   2.655   2.304  14.346  0.4331  0.9739  0.5926
  738MPD2     H10961   2.706   2.181  14.699  0.1238 -0.9168 -0.3275
  738MPD2    H110962   2.791   2.456  14.393 -0.2096 -0.1004 -0.3704
  738MPD2    H210963   2.517   2.154  14.317 -0.7122  0.7893  1.0172
  738MPD2    H310964   2.633   2.337  14.245 -0.5589  1.7271  1.0520
  738MPD2     N10965   2.866   2.390  14.631  0.1708  0.3180 -0.3759
  738MPD2    H510966   2.912   2.466  14.582  2.3839 -1.3914 -0.9423
  738MPD2    N110967   2.514   2.043  14.559 -0.2957 -0.4233 -0.8688
  738MPD2    H710968   2.525   2.014  14.656 -2.0227  1.0307 -0.2582
  739TMC3    C110969   3.079   2.342  14.663  0.3616  0.0444  0.4435
  739TMC3    C210970   3.087   2.330  14.530 -0.6934 -0.3362  0.1109
  739TMC3    C310971   3.194   2.377  14.466  0.8794 -0.2199 -0.2392
  739TMC3    C410972   3.179   2.394  14.739 -0.7159 -0.7095 -0.3963
  739TMC3    C510973   3.288   2.448  14.673  0.8163  0.4010  0.9350
  739TMC3    C610974   3.298   2.432  14.536 -0.3803  0.0154 -0.3110
  739TMC3     C10975   2.948   2.329  14.719 -0.2041  0.3517 -0.6643
  739TMC3     O10976   2.929   2.253  14.812  0.0696  0.4217 -0.4128
  739TMC3     H10977   3.011   2.283  14.469 -1.8648 -0.8533  1.9636
  739TMC3    H110978   3.171   2.400  14.847 -2.5244  0.9853 -0.6003
  739TMC3    H210979   3.388   2.464  14.485  1.3671 -4.5988 -0.1154
  739TMC3    C710980   3.405   2.442  14.754 -0.5659  0.1135  0.2275
  739TMC3    C810981   3.184   2.381  14.317 -0.6139 -0.2370 -0.1826
  739TMC3    O110982   3.392   2.395  14.866  0.6882 -1.2591  0.5096
  739TMC3    O210983   3.096   2.316  14.260 -0.2532 -0.4150  0.1663
  740TMC3    C110984   3.402   3.769  13.796 -0.1296  0.1557 -0.4198
  740TMC3    C210985   3.463   3.766  13.916  0.1463 -0.1121 -0.2180
  740TMC3    C310986   3.599   3.737  13.924  0.5212 -0.2819 -0.1509
  740TMC3    C410987   3.472   3.734  13.682  0.7005 -0.1969  0.3993
  740TMC3    C510988   3.607   3.689  13.696  0.6071 -0.8124 -0.2358
  740TMC3    C610989   3.675   3.696  13.815 -0.0017 -0.0840  0.3716
  740TMC3     C10990   3.261   3.780  13.790  0.3857 -0.3106 -0.0535
  740TMC3     O10991   3.221   3.845  13.695  0.8745 -0.1923  0.7234
  740TMC3     H10992   3.420   3.814  14.004  0.1492 -3.7531  1.7710
  740TMC3    H110993   3.418   3.733  13.588  1.3682 -1.1280  0.0194
  740TMC3    H210994   3.760   3.632  13.833  0.7625  1.1701  1.1760
  740TMC3    C710995   3.675   3.610  13.587 -0.0222  0.2961 -0.0164
  740TMC3    C810996   3.672   3.740  14.054 -0.4350  0.0383  0.4203
  740TMC3    O110997   3.775   3.543  13.614 -0.0541  0.2672  0.2651
  740TMC3    O210998   3.797   3.721  14.039 -0.3013  0.2857 -0.2214
  741TMC3    C110999   3.008   2.871  14.105  0.1343  0.1138 -0.3226
  741TMC3    C211000   2.965   2.767  14.031  0.0643  0.5402  0.8862
  741TMC3    C311001   2.948   2.644  14.086 -0.2389 -0.0417  0.2230
  741TMC3    C411002   3.010   2.855  14.245 -0.1231  0.8703 -0.2630
  741TMC3    C511003   2.999   2.729  14.297 -0.1735 -0.3948 -0.4718
  741TMC3    C611004   2.955   2.627  14.218 -0.9960 -0.5533  0.5113
  741TMC3     C11005   3.028   3.005  14.052  0.2300  0.4421 -0.4890
  741TMC3     O11006   3.126   3.063  14.103  0.2452  0.0213  0.3049
  741TMC3     H11007   2.990   2.784  13.927  0.7785 -1.6774  0.6972
  741TMC3    H111008   3.026   2.937  14.315  0.7916 -1.2051  1.9791
  741TMC3    H211009   2.925   2.534  14.265 -0.7640 -2.3678 -3.0002
  741TMC3    C711010   2.999   2.703  14.438 -0.3943  0.6800 -0.2455
  741TMC3    C811011   2.878   2.547  13.998 -0.0327 -0.0299  0.8879
  741TMC3    O111012   2.954   2.594  14.479  0.3837 -0.3665 -0.4251
  741TMC3    O211013   2.830   2.584  13.891  0.1847  0.0499 -0.4837
  742TMC3    C111014   3.304   1.262  14.969  0.3442 -0.4153 -0.1379
  742TMC3    C211015   3.201   1.275  14.879 -0.6267  0.5796 -0.0261
  742TMC3    C311016   3.165   1.162  14.803 -0.2049  0.1646 -0.1634
  742TMC3    C411017   3.357   1.141  15.008  0.0674  0.4400  0.5969
  742TMC3    C511018   3.297   1.031  14.943  0.2719  0.5504 -0.4696
  742TMC3    C611019   3.207   1.036  14.835 -0.3131  0.2980 -0.0976
  742TMC3     C11020   3.335   1.377  15.055  0.2244 -0.3741  0.5226
  742TMC3     O11021   3.251   1.469  15.061  0.6121  0.6721  0.1763
  742TMC3     H11022   3.176   1.374  14.842  0.4172  0.3254 -1.4011
  742TMC3    H111023   3.408   1.129  15.103  1.4698  1.1465 -0.0683
  742TMC3    H211024   3.160   0.951  14.787  0.3777  0.3547 -0.8703
  742TMC3    C711025   3.330   0.901  14.987 -0.3136  0.3033  0.4886
  742TMC3    C811026   3.068   1.166  14.692  0.1465  0.2726 -0.7554
  742TMC3    O111027   3.425   0.879  15.057  0.2195 -0.5702 -0.2313
  742TMC3    O211028   3.077   1.068  14.617  0.1716  0.4818 -0.3532
  743MPD2     C11029   0.786   1.362   1.472  0.1179  1.1048 -0.1204
  743MPD2    C111030   0.839   1.409   1.356 -0.1140 -0.1388 -0.4442
  743MPD2    C211031   0.973   1.454   1.355 -0.7945 -0.3472 -0.0054
  743MPD2    C311032   1.052   1.444   1.466  0.2367 -0.7634  0.5633
  743MPD2    C411033   0.994   1.409   1.588 -0.1965 -0.6768  0.9872
  743MPD2    C511034   0.863   1.370   1.590  0.3217 -0.0359  0.4921
  743MPD2     H11035   1.020   1.474   1.260  1.7999 -0.9175  1.1745
  743MPD2    H111036   1.045   1.417   1.683  1.0628 -1.4685  0.3902
  743MPD2    H211037   0.685   1.322   1.480  1.3035 -2.1137 -1.3938
  743MPD2    H311038   0.825   1.336   1.686 -0.8645  4.3453  1.6008
  743MPD2     N11039   1.194   1.469   1.453 -0.3749 -0.1130 -0.0976
  743MPD2    H511040   1.232   1.487   1.361  1.2015 -3.7050 -0.1594
  743MPD2    N111041   0.757   1.409   1.242 -0.4141  0.1925  0.4472
  743MPD2    H711042   0.663   1.370   1.245  0.0266 -0.9386 -0.4557
  744TMC3    C111043   0.672   1.475   1.038  0.8286 -0.3673 -0.5283
  744TMC3    C211044   0.552   1.461   1.102 -0.1294  0.1011  0.0881
  744TMC3    C311045   0.450   1.457   1.014 -0.0725 -0.1344 -0.2560
  744TMC3    C411046   0.698   1.474   0.905 -0.6145  0.5772 -0.1109
  744TMC3    C511047   0.588   1.465   0.824  0.1950  0.3214  0.5301
  744TMC3    C611048   0.466   1.462   0.878 -0.0691  0.0992  0.5292
  744TMC3     C11049   0.788   1.458   1.121 -0.2823 -0.0790 -0.2841
  744TMC3     O11050   0.888   1.510   1.074  0.3581  0.0874  0.8413
  744TMC3     H11051   0.543   1.479   1.209 -0.5473  0.4208 -0.0024
  744TMC3    H111052   0.796   1.468   0.860  0.3022  0.1567  1.9260
  744TMC3    H211053   0.376   1.473   0.817  0.6403 -2.2691 -0.9376
  744TMC3    C711054   0.613   1.490   0.686  0.5872 -0.4377  0.0448
  744TMC3    C811055   0.312   1.437   1.059  0.7892  0.0986  0.2426
  744TMC3    O111056   0.729   1.528   0.665  0.6208 -0.4549  0.6433
  744TMC3    O211057   0.221   1.490   0.996  0.6720 -0.2067 -0.3932
  745TMC3    C111058   3.121   0.742  13.921  0.1091  0.4287  0.1721
  745TMC3    C211059   3.081   0.757  14.052 -0.1728 -0.3065 -0.3218
  745TMC3    C311060   2.948   0.791  14.078 -0.0625 -0.1141 -0.2074
  745TMC3    C411061   3.039   0.774  13.819  0.3474 -0.0797 -0.8688
  745TMC3    C511062   2.904   0.806  13.846 -0.2613 -0.1487 -0.0682
  745TMC3    C611063   2.855   0.808  13.975  0.4780  0.0007 -0.5478
  745TMC3     C11064   3.258   0.772  13.897 -0.6392  0.4155 -0.0170
  745TMC3     O11065   3.341   0.711  13.966 -0.1367  0.3414 -0.2347
  745TMC3     H11066   3.144   0.739  14.137 -0.7751  1.5615  0.5312
  745TMC3    H111067   3.075   0.757  13.718  0.4920  0.2214 -0.8680
  745TMC3    H211068   2.757   0.852  13.994 -0.1023 -1.7605  0.5121
  745TMC3    C711069   2.808   0.828  13.739 -0.3425 -0.3845 -0.2159
  745TMC3    C811070   2.947   0.908  14.165 -0.3915  0.6409  0.0766
  745TMC3    O111071   2.687   0.831  13.767  0.0772  0.6295  0.9113
  745TMC3    O211072   2.841   0.959  14.190 -0.0922  0.0924  0.3920
  746TMC3    C111073   0.243   2.311  10.658  0.3443  0.0891  1.1241
  746TMC3    C211074   0.302   2.264  10.542  0.2873 -0.4082  0.0523
  746TMC3    C311075   0.233   2.157  10.483  0.5210 -0.0132 -0.3165
  746TMC3    C411076   0.131   2.253  10.705 -0.8739 -0.5910 -0.3982
  746TMC3    C511077   0.066   2.152  10.635  0.2679 -0.6255  0.7961
  746TMC3    C611078   0.113   2.109  10.515  0.1180  0.6011  0.2370
  746TMC3     C11079   0.280   2.437  10.713  0.0893 -0.4589  0.1530
  746TMC3     O11080   0.200   2.483  10.796  0.0787  0.1831 -0.0332
  746TMC3     H11081   0.385   2.318  10.497 -0.3416  0.1464 -0.4315
  746TMC3    H111082   0.090   2.292  10.797  0.3132  0.3778 -0.2719
  746TMC3    H211083   0.065   2.028  10.461  1.3256  0.3209 -0.4064
  746TMC3    C711084   4.689   2.100  10.688 -0.7111 -0.3732  0.0807
  746TMC3    C811085   0.288   2.091  10.365  0.4463  0.2000 -0.3139
  746TMC3    O111086   4.593   2.088  10.614  0.2221 -0.7506  1.2601
  746TMC3    O211087   0.209   2.025  10.301  0.0071  0.1000  0.1450
  747TMC3    C111088   2.568   2.623  11.026 -0.6845 -1.0370  0.3019
  747TMC3    C211089   2.505   2.564  11.126  0.5879 -0.0416  0.7161
  747TMC3    C311090   2.577   2.492  11.210  1.0001 -0.1513 -0.0154
  747TMC3    C411091   2.703   2.602  11.002 -0.3271  0.0199  1.0506
  747TMC3    C511092   2.764   2.509  11.085 -0.1464 -0.3034 -0.3839
  747TMC3    C611093   2.707   2.449  11.189 -1.1903 -0.5083  0.1364
  747TMC3     C11094   2.486   2.644  10.911 -0.1992 -0.4833  0.0225
  747TMC3     O11095   2.382   2.705  10.926  0.6633 -0.0818  0.3597
  747TMC3     H11096   2.398   2.569  11.145  0.2061 -0.1579 -1.4427
  747TMC3    H111097   2.759   2.646  10.920  0.9039 -1.3619  1.1470
  747TMC3    H211098   2.760   2.392  11.263  2.3471 -0.2196 -2.1943
  747TMC3    C711099   2.899   2.531  11.101 -0.0756 -0.2095 -0.7259
  747TMC3    C811100   2.506   2.415  11.310 -0.1259  0.6340 -0.6291
  747TMC3    O111101   2.934   2.648  11.101 -0.6276 -0.2161  0.2253
  747TMC3    O211102   2.544   2.302  11.326  0.1265 -0.8226  0.1169
  748MPD2     C11103   0.139   3.110   0.343 -0.1065  0.6508  0.1025
  748MPD2    C111104   0.128   3.247   0.352  0.1600  0.1005 -0.2009
  748MPD2    C211105   0.234   3.320   0.405  0.2927 -0.0266 -0.4016
  748MPD2    C311106   0.347   3.251   0.447  0.4695  0.3988 -0.2635
  748MPD2    C411107   0.361   3.112   0.438 -0.6119  0.5549  0.4127
  748MPD2    C511108   0.250   3.048   0.383 -0.4510  0.4027  1.1053
  748MPD2     H11109   0.229   3.428   0.409 -2.0362 -0.1407 -0.4276
  748MPD2    H111110   0.455   3.061   0.456 -0.1820  1.8790  1.9004
  748MPD2    H211111   0.070   3.048   0.289 -1.1126  2.8267 -1.1037
  748MPD2    H311112   0.257   2.940   0.374 -1.0637  0.3809  0.8470
  748MPD2     N11113   0.441   3.330   0.514  0.4303  0.1087  0.2065
  748MPD2    H511114   0.419   3.429   0.518 -0.8219 -0.1755  0.4614
  748MPD2    N111115   0.018   3.303   0.283  0.7098  0.8610 -0.3499
  748MPD2    H711116   4.683   3.234   0.256  2.1156 -0.3003 -1.0036
  749TMC3    C111117   0.660   3.389   0.593 -0.4616 -0.3988 -0.1771
  749TMC3    C211118   0.727   3.348   0.703  0.5464  0.7543  0.3498
  749TMC3    C311119   0.785   3.445   0.782  0.0768 -0.2283 -0.0973
  749TMC3    C411120   0.665   3.519   0.546 -0.4305 -0.2992 -0.5137
  749TMC3    C511121   0.731   3.611   0.627 -0.5294  0.2073 -0.0175
  749TMC3    C611122   0.789   3.574   0.745  0.9125 -0.4076  0.8403
  749TMC3     C11123   0.569   3.285   0.549 -0.4360  0.2005  0.6447
  749TMC3     O11124   0.623   3.176   0.534 -0.6122  0.0150  0.4440
  749TMC3     H11125   0.718   3.247   0.739 -1.1446  1.0853  0.8797
  749TMC3    H111126   0.613   3.543   0.454  0.1520  2.0183 -0.2410
  749TMC3    H211127   0.812   3.656   0.812  0.0459  1.0828 -0.6772
  749TMC3    C711128   0.749   3.742   0.583 -0.0678  0.0156  0.0413
  749TMC3    C811129   0.851   3.403   0.903 -0.2843 -0.8535  0.4281
  749TMC3    O111130   0.797   3.823   0.666  0.4043 -1.3936  0.3057
  749TMC3    O211131   0.875   3.491   0.985  0.0853 -0.1517 -0.2177
  750MPD2     C11132   0.455   4.459  10.803  0.6558 -0.5670 -0.0391
  750MPD2    C111133   0.389   4.390  10.902 -0.2921 -0.2440  0.0709
  750MPD2    C211134   0.416   4.253  10.915  0.2585 -0.5487 -0.5002
  750MPD2    C311135   0.506   4.188  10.828  0.2485 -0.3506 -0.4798
  750MPD2    C411136   0.556   4.267  10.728  0.0639  0.6597 -0.5162
  750MPD2    C511137   0.536   4.397  10.718 -0.3608  0.0132 -0.2968
  750MPD2     H11138   0.357   4.197  10.987  1.1044 -1.1433 -0.2650
  750MPD2    H111139   0.618   4.218  10.654 -0.9990 -2.8171  0.9008
  750MPD2    H211140   0.440   4.565  10.783  0.1006 -0.5978  0.2001
  750MPD2    H311141   0.578   4.452  10.634  0.4549 -0.1779 -0.0144
  750MPD2     N11142   0.541   4.053  10.841 -0.0157 -0.4041 -0.0179
  750MPD2    H511143   0.595   4.018  10.763 -0.8392  0.5086 -0.9969
  750MPD2    N111144   0.303   4.462  10.985 -0.0020 -0.5616 -0.0101
  750MPD2    H711145   0.286   4.557  10.954  0.6605 -0.3800  0.1746
  751TMC3    C111146   0.532   3.837  10.926 -0.0085 -0.4736 -0.5680
  751TMC3    C211147   0.461   3.739  10.997 -0.0740 -0.2414  0.3043
  751TMC3    C311148   0.507   3.605  10.987  0.2930  0.2154 -0.3891
  751TMC3    C411149   0.646   3.796  10.854  0.0938 -0.2217 -0.9149
  751TMC3    C511150   0.687   3.668  10.853 -0.3319 -0.2183 -0.0987
  751TMC3    C611151   0.618   3.571  10.918 -0.4068  0.1531  0.2688
  751TMC3     C11152   0.491   3.973  10.936  0.2972  0.3421 -0.4476
  751TMC3     O11153   0.418   3.999  11.032 -0.2673 -0.2106 -0.4761
  751TMC3     H11154   0.366   3.771  11.040  0.9306  1.6802  1.1283
  751TMC3    H111155   0.710   3.869  10.807  2.6645 -1.5593  0.5411
  751TMC3    H211156   0.633   3.468  10.889  1.9197  1.0679 -1.7743
  751TMC3    C711157   0.809   3.628  10.776 -0.0532  0.0123 -0.1970
  751TMC3    C811158   0.416   3.501  11.024 -0.1755 -0.0611  0.3481
  751TMC3    O111159   0.849   3.706  10.691 -0.3402  0.1147 -0.8246
  751TMC3    O211160   0.459   3.392  11.000 -0.5904  0.1272  0.5763
  752TMC3    C111161   4.315   4.103  16.899  0.6318 -0.1402  0.6193
  752TMC3    C211162   4.408   4.020  16.963  0.6374 -0.9018  0.0947
  752TMC3    C311163   4.367   3.954  17.069  0.3595  1.0013 -0.2797
  752TMC3    C411164   4.189   4.117  16.949  0.3233  0.2389 -0.9379
  752TMC3    C511165   4.151   4.040  17.054  0.1454  0.0358  0.1948
  752TMC3    C611166   4.245   3.970  17.125 -0.2873  0.4899 -0.4210
  752TMC3     C11167   4.365   4.207  16.809 -0.3625 -0.1385  0.6922
  752TMC3     O11168   4.478   4.241  16.830  0.1172 -0.3239  0.0827
  752TMC3     H11169   4.508   4.013  16.920  0.6853 -2.3269  0.4653
  752TMC3    H111170   4.125   4.196  16.912 -0.0843 -0.3028 -1.3840
  752TMC3    H211171   4.222   3.918  17.218 -0.9493 -2.1249 -2.0409
  752TMC3    C711172   4.018   4.056  17.113  0.2681 -0.1992  0.4587
  752TMC3    C811173   4.451   3.858  17.137  0.0809  0.2317 -0.2547
  752TMC3    O111174   4.014   4.011  17.227  0.1810 -0.6242 -0.0067
  752TMC3    O211175   4.439   3.847  17.257 -0.4552  0.1099 -0.0529
  753TMC3    C111176   1.154   0.690  13.098 -0.5410 -0.0390 -0.1354
  753TMC3    C211177   1.279   0.730  13.124 -0.5402 -0.2229 -0.1324
  753TMC3    C311178   1.382   0.643  13.092  0.3607 -0.5131 -0.4134
  753TMC3    C411179   1.132   0.564  13.052 -0.8690 -0.0294  0.5484
  753TMC3    C511180   1.236   0.483  13.024 -0.0661  0.6018  0.4591
  753TMC3    C611181   1.369   0.516  13.045 -0.1686 -0.6075  0.3103
  753TMC3     C11182   1.082   0.797  13.035 -0.1349  0.1569  0.5335
  753TMC3     O11183   1.021   0.771  12.933 -0.5378 -0.3912  0.5701
  753TMC3     H11184   1.286   0.835  13.152 -0.2647  0.0171 -1.0722
  753TMC3    H111185   1.030   0.530  13.041 -1.2448  0.9362  1.0254
  753TMC3    H211186   1.451   0.446  13.034  0.7651  0.7737 -1.5063
  753TMC3    C711187   1.216   0.370  12.943  0.0133  0.5536  0.6468
  753TMC3    C811188   1.519   0.692  13.079  0.4152 -0.4138 -0.2134
  753TMC3    O111189   1.303   0.345  12.861  0.0045 -0.3576  0.4274
  753TMC3    O211190   1.583   0.640  12.992 -0.3668 -0.7284  0.4174
  754MPD2     C11191   0.510   4.482  12.738  0.0192  0.3420 -0.1216
  754MPD2    C111192   0.521   4.348  12.730  0.0140  0.4154 -0.1032
  754MPD2    C211193   0.403   4.273  12.730  0.7293  0.3635 -0.0944
  754MPD2    C311194   0.281   4.336  12.740 -0.7010 -0.6982 -0.0812
  754MPD2    C411195   0.268   4.467  12.728 -0.1686  0.3277 -0.4368
  754MPD2    C511196   0.383   4.541  12.734 -0.6842  0.3790  0.0516
  754MPD2     H11197   0.409   4.166  12.713 -0.9817  0.3229 -0.4374
  754MPD2    H111198   0.176   4.524  12.734  0.5057  1.0617  2.6166
  754MPD2    H211199   0.596   4.548  12.739  2.4070 -2.7636  2.3069
  754MPD2    H311200   0.372   4.649  12.722  2.6937  0.8133  0.7870
  754MPD2     N11201   0.163   4.262  12.744 -0.0190  0.0161  0.2994
  754MPD2    H511202   0.072   4.307  12.746  0.0103 -0.0353  2.7395
  754MPD2    N111203   0.648   4.307  12.708 -0.2608 -0.4960 -0.5012
  754MPD2    H711204   0.711   4.384  12.690  0.7442 -1.2611 -0.2854
  755MPD2     C11205   4.244   4.700  12.975  0.1181 -0.3667  0.0964
  755MPD2    C111206   4.203   4.589  13.040 -0.2177 -0.2562  0.3354
  755MPD2    C211207   4.290   4.482  13.053  0.6173 -0.1627 -0.1222
  755MPD2    C311208   4.406   4.478  12.984 -0.1665 -0.3068 -0.7356
  755MPD2    C411209   4.443   4.596  12.916 -0.1013  0.0075  0.3237
  755MPD2    C511210   4.359   4.705  12.903  0.0227 -0.8977 -0.2593
  755MPD2     H11211   4.259   4.405  13.124  0.3513 -2.5598 -2.8372
  755MPD2    H111212   4.540   4.612  12.872 -0.3552 -1.7123 -0.8309
  755MPD2    H211213   4.183   0.053  12.959 -0.0823 -0.8229 -1.6352
  755MPD2    H311214   4.392   0.056  12.846  0.2990 -0.6820  0.2351
  755MPD2     N11215   4.491   4.363  12.965 -0.3894  0.1548 -0.9321
  755MPD2    H511216   4.556   4.373  12.888  2.6666 -0.3881  1.5186
  755MPD2    N111217   4.072   4.593  13.103 -0.6626 -0.5842 -0.5415
  755MPD2    H711218   4.059   4.513  13.165  3.7659 -1.6758 -1.0171
  756MPD2     C11219   0.129   4.381   9.166 -0.2010  0.6987 -0.4432
  756MPD2    C111220   0.065   4.293   9.253 -1.0738  1.2018 -0.0972
  756MPD2    C211221   4.670   4.253   9.229  0.4481 -0.2473  0.8441
  756MPD2    C311222   4.608   4.303   9.111 -0.0962 -0.1759 -0.2032
  756MPD2    C411223   4.669   4.396   9.030 -0.0541 -0.6382  0.8220
  756MPD2    C511224   0.058   4.439   9.062 -0.4308 -0.2587 -0.5316
  756MPD2     H11225   4.622   4.188   9.302 -1.8053  0.1894 -0.2191
  756MPD2    H111226   4.632   4.439   8.938  0.8470  0.2195  0.8660
  756MPD2    H211227   0.230   4.417   9.182 -0.9055  2.1659  0.6698
  756MPD2    H311228   0.114   4.507   8.998  3.6717 -2.4596  0.7009
  756MPD2     N11229   4.464   4.268   9.101 -0.3830  0.5477 -0.3668
  756MPD2    H511230   4.428   4.204   9.172 -0.3212  1.8378  0.8446
  756MPD2    N111231   0.131   4.239   9.363 -0.1437 -0.0317  0.5424
  756MPD2    H711232   0.079   4.181   9.427 -0.9224  0.3421  0.2490
  757MPD2     C11233   4.163   3.664   9.576  0.0237 -0.4877  0.0119
  757MPD2    C111234   4.274   3.745   9.564  0.0237 -0.8685 -0.3991
  757MPD2    C211235   4.262   3.860   9.487  0.0071 -0.0131 -0.0205
  757MPD2    C311236   4.146   3.882   9.413  0.4418  0.5819 -0.0469
  757MPD2    C411237   4.038   3.791   9.424  0.4002  0.0418 -0.0857
  757MPD2    C511238   4.050   3.684   9.512  0.0849  0.4085  0.1677
  757MPD2     H11239   4.346   3.924   9.464  0.1295 -0.5475 -1.0191
  757MPD2    H111240   3.939   3.810   9.385  0.2524  0.5327  0.5224
  757MPD2    H211241   4.173   3.580   9.643 -0.5684 -0.8407 -0.3449
  757MPD2    H311242   3.963   3.624   9.534  2.0630 -2.0818  1.1510
  757MPD2     N11243   4.144   3.987   9.316  0.0334  0.7388 -0.3861
  757MPD2    H511244   4.225   4.049   9.314 -0.5604  1.6781  3.2729
  757MPD2    N111245   4.392   3.698   9.630  0.5357 -0.2930 -0.0530
  757MPD2    H711246   4.384   3.611   9.681 -0.0533 -0.0970  0.1913
  758MPD2     C11247   0.796   3.872  15.513 -0.0193 -0.8037  0.5506
  758MPD2    C111248   0.882   3.848  15.618 -0.0180  0.2617  0.6881
  758MPD2    C211249   0.830   3.869  15.746 -0.2119  0.4253  0.5085
  758MPD2    C311250   0.699   3.900  15.772  0.2216 -0.4023  0.6653
  758MPD2    C411251   0.613   3.918  15.668 -0.2183 -0.5313 -0.8090
  758MPD2    C511252   0.670   3.910  15.539 -0.0793 -0.0643  0.1032
  758MPD2     H11253   0.901   3.850  15.826  0.4594 -0.2327 -0.2314
  758MPD2    H111254   0.507   3.932  15.682 -0.0215  0.4214 -0.2577
  758MPD2    H211255   0.824   3.870  15.408 -1.6932 -2.1364  0.1109
  758MPD2    H311256   0.605   3.930  15.454  0.3862  0.6699 -0.0769
  758MPD2     N11257   0.631   3.908  15.896 -0.5274 -0.5393  0.7437
  758MPD2    H511258   0.531   3.929  15.893 -0.6251 -1.1849 -0.4309
  758MPD2    N111259   1.007   3.799  15.577 -0.5085 -0.2283 -0.1770
  758MPD2    H711260   1.029   3.800  15.478 -0.6819 -0.2537 -0.2163
  759MPD2     C11261   3.619   2.762  10.155 -0.1428  0.2098  0.6370
  759MPD2    C111262   3.565   2.649  10.104  0.5813 -0.5112  0.3010
  759MPD2    C211263   3.645   2.577  10.026 -0.4551  0.7034  0.6268
  759MPD2    C311264   3.779   2.602  10.001  0.2175 -0.0472 -0.1354
  759MPD2    C411265   3.835   2.715  10.062  0.4437 -0.2312  0.6879
  759MPD2    C511266   3.753   2.792  10.141 -0.1777  0.3163 -0.3318
  759MPD2     H11267   3.585   2.492   9.997  0.5766  1.1163 -2.6991
  759MPD2    H111268   3.939   2.745  10.054  0.0131  1.1669  0.3586
  759MPD2    H211269   3.556   2.829  10.211  0.1706  0.5350  0.5965
  759MPD2    H311270   3.794   2.873  10.201  0.4505 -0.0260 -0.2950
  759MPD2     N11271   3.853   2.514   9.915  0.0632 -0.9142  0.3334
  759MPD2    H511272   3.799   2.449   9.858 -0.4564 -1.7615  1.7771
  759MPD2    N111273   3.440   2.591  10.136 -0.2044  0.1001 -0.2576
  759MPD2    H711274   3.422   2.496  10.105  0.9621 -0.0854 -0.3530
  760MPD2     C11275   3.520   4.261  11.693 -0.7442  0.1160  0.9150
  760MPD2    C111276   3.654   4.287  11.686 -0.0906 -0.3063  0.1311
  760MPD2    C211277   3.741   4.221  11.771 -0.5302 -0.3927  0.3356
  760MPD2    C311278   3.688   4.129  11.866  0.6507 -0.8346 -0.2010
  760MPD2    C411279   3.551   4.116  11.874  0.5782 -0.5869  0.0347
  760MPD2    C511280   3.469   4.178  11.787  0.6047 -0.2566  0.1805
  760MPD2     H11281   3.844   4.254  11.767 -0.7880  0.5792  1.5627
  760MPD2    H111282   3.499   4.055  11.947 -1.5912 -0.6983 -1.6110
  760MPD2    H211283   3.456   4.301  11.615  0.4729 -1.2610 -0.7836
  760MPD2    H311284   3.366   4.145  11.775  0.5591  0.0148 -0.1648
  760MPD2     N11285   3.769   4.056  11.960 -0.0285  0.7857  0.1757
  760MPD2    H511286   3.723   4.013  12.039  1.6996 -2.2972 -0.5019
  760MPD2    N111287   3.708   4.386  11.605  0.8407  0.0687 -0.2688
  760MPD2    H711288   3.799   4.421  11.633  0.7876 -1.3118  1.6869
  761MPD2     C11289   4.694   3.309  11.094  0.2708  0.1065 -0.3247
  761MPD2    C111290   0.052   3.266  11.006 -0.8081  0.1908 -0.1221
  761MPD2    C211291   0.164   3.339  10.989 -0.5973  0.2157 -0.1811
  761MPD2    C311292   0.179   3.455  11.059  0.0201  0.8871 -0.0077
  761MPD2    C411293   0.074   3.508  11.127  0.2677 -0.0502  0.0335
  761MPD2    C511294   4.698   3.436  11.144  0.2181 -0.0647 -0.4193
  761MPD2     H11295   0.254   3.308  10.937  1.3817  3.0503  1.5311
  761MPD2    H111296   0.068   3.607  11.172 -2.3594  1.3710 -3.3638
  761MPD2    H211297   4.597   3.260  11.095 -0.0265  0.6993 -1.6048
  761MPD2    H311298   4.609   3.463  11.200  1.5945  1.9711  0.8056
  761MPD2     N11299   0.294   3.540  11.054 -0.1820  0.6271  0.6330
  761MPD2    H511300   0.287   3.634  11.093 -2.3281  0.5219  0.4823
  761MPD2    N111301   0.024   3.146  10.930  0.4168 -0.8261  0.6113
  761MPD2    H711302   4.677   3.087  10.939 -1.4654  1.5614 -0.8100
  762MPD2     C11303   0.117   2.456  10.308 -0.1213 -0.3400  0.5161
  762MPD2    C111304   0.187   2.562  10.359 -0.0227 -0.8817  0.4322
  762MPD2    C211305   0.317   2.575  10.320  0.4400 -0.3826  0.7792
  762MPD2    C311306   0.377   2.485  10.239 -0.9073  0.1355 -0.5463
  762MPD2    C411307   0.307   2.387  10.176 -0.1259 -0.2621 -0.0949
  762MPD2    C511308   0.181   2.368  10.220  0.4636 -0.5394  0.4862
  762MPD2     H11309   0.379   2.656  10.357 -1.9931  1.4674  0.7767
  762MPD2    H111310   0.353   2.313  10.111  1.3646  0.9324 -0.4017
  762MPD2    H211311   0.016   2.429  10.338  1.0114 -2.3402  2.5305
  762MPD2    H311312   0.130   2.278  10.187 -0.6899 -1.5526  4.9241
  762MPD2     N11313   0.526   2.487  10.230  0.0103 -0.3292 -0.6686
  762MPD2    H511314   0.577   2.545  10.297 -0.1071 -1.7561  0.6516
  762MPD2    N111315   0.122   2.647  10.450 -0.3341  0.5542 -0.9303
  762MPD2    H711316   0.028   2.627  10.484  0.2609 -0.9001 -0.1447
  763MPD2     C11317   1.897   3.631  15.757  0.4597 -0.4666  0.7337
  763MPD2    C111318   1.983   3.738  15.734  0.9496  0.2922  0.6548
  763MPD2    C211319   1.977   3.853  15.812  0.5672 -1.5669 -0.3612
  763MPD2    C311320   1.880   3.858  15.913  0.5802  0.4113 -0.0489
  763MPD2    C411321   1.793   3.758  15.929  0.4179  0.1788 -0.3541
  763MPD2    C511322   1.795   3.651  15.843 -0.0012 -0.6456 -0.3374
  763MPD2     H11323   2.034   3.942  15.786  0.4866 -1.9356 -1.7923
  763MPD2    H111324   1.728   3.758  16.016  0.8203 -0.5245 -0.0564
  763MPD2    H211325   1.888   3.536  15.706 -4.8174  0.2706  0.3245
  763MPD2    H311326   1.743   3.566  15.887 -0.0154 -0.2301  0.4531
  763MPD2     N11327   1.889   3.972  15.999 -0.0924  0.2807  0.4464
  763MPD2    H511328   1.971   4.030  15.992 -0.3870  0.6436  0.0033
  763MPD2    N111329   2.075   3.730  15.630  0.1356 -0.2470  0.2811
  763MPD2    H711330   2.129   3.813  15.606 -0.5763  0.3896  0.8627
  764MPD2     C11331   0.268   0.088  17.262  0.2955  0.0933  0.1940
  764MPD2    C111332   0.270   0.224  17.277  0.7840 -0.7911 -0.1941
  764MPD2    C211333   0.371   0.282  17.347 -0.0762  0.5093  0.0278
  764MPD2    C311334   0.476   0.206  17.397 -0.0920 -0.4361 -1.4237
  764MPD2    C411335   0.467   0.065  17.390 -0.2806  0.5012  0.0525
  764MPD2    C511336   0.370   0.013  17.321  0.7016  0.3713 -0.2804
  764MPD2     H11337   0.365   0.389  17.362  0.9748  0.2475  2.2808
  764MPD2    H111338   0.533   4.731  17.443 -0.0473  0.8382  0.2027
  764MPD2    H211339   0.202   0.021  17.209  1.4355 -1.0165  0.1770
  764MPD2    H311340   0.362   4.641  17.307  0.3726  0.3811 -0.1691
  764MPD2     N11341   0.575   0.275  17.462  0.4615 -0.5672  0.2373
  764MPD2    H511342   0.554   0.371  17.488  1.3146 -0.9857  2.4671
  764MPD2    N111343   0.163   0.309  17.228  0.5922 -0.2864 -0.0149
  764MPD2    H711344   0.175   0.409  17.230 -2.3587  0.0973 -1.4536
  765MPD2     C11345   0.500   3.409  14.872 -0.6825  0.1808  0.6572
  765MPD2    C111346   0.516   3.427  15.014 -0.1097  0.1442  0.4298
  765MPD2    C211347   0.632   3.381  15.071  0.2773  0.4987 -0.1170
  765MPD2    C311348   0.726   3.319  14.995 -0.3468 -0.5434  0.3577
  765MPD2    C411349   0.701   3.297  14.863 -0.5051 -0.1136 -0.0987
  765MPD2    C511350   0.597   3.341  14.800  0.4660 -0.4608 -0.1125
  765MPD2     H11351   0.650   3.384  15.178  0.6604  1.5835 -0.2193
  765MPD2    H111352   0.761   3.236  14.797 -0.4139  0.6227 -0.6934
  765MPD2    H211353   0.407   3.428  14.820 -0.2609  2.5486  0.7596
  765MPD2    H311354   0.566   3.310  14.701  1.6406  1.3352 -1.0408
  765MPD2     N11355   0.835   3.256  15.056  0.0659  0.3740  0.0375
  765MPD2    H511356   0.831   3.258  15.157  3.1501  1.3395  0.1455
  765MPD2    N111357   0.418   3.498  15.087  0.8025 -0.1489  0.3147
  765MPD2    H711358   0.346   3.540  15.028 -1.0804 -2.8853  0.6886
  766MPD2     C11359   4.600   3.557  14.868  0.0191 -0.1915 -0.5515
  766MPD2    C111360   4.733   3.585  14.877  0.9878 -0.1946 -0.0257
  766MPD2    C211361   0.076   3.568  14.766  0.2519  0.6222  0.4202
  766MPD2    C311362   0.031   3.542  14.641 -0.8692 -0.0794  0.2787
  766MPD2    C411363   4.629   3.536  14.636  0.1970 -0.2581 -0.6946
  766MPD2    C511364   4.548   3.529  14.748  0.1564 -0.1798  0.1203
  766MPD2     H11365   0.180   3.598  14.779  0.8508 -0.7799 -1.1499
  766MPD2    H111366   4.585   3.524  14.538 -0.9240 -1.6009 -0.0200
  766MPD2    H211367   4.530   3.568  14.950  1.4230 -0.2096  0.6524
  766MPD2    H311368   4.441   3.518  14.729 -0.0912  1.6068  0.4965
  766MPD2     N11369   0.103   3.553  14.514  0.1052  0.3951 -0.2705
  766MPD2    H511370   0.051   3.553  14.428 -1.7315 -0.9867  0.8432
  766MPD2    N111371   0.062   3.630  14.994 -0.5719 -0.0465 -0.2419
  766MPD2    H711372   0.160   3.658  14.991 -1.1528  1.9450 -0.0660
  767MPD2     C11373   4.432   3.802  14.617  0.2042  0.7264  0.2753
  767MPD2    C111374   4.548   3.840  14.561 -0.4578 -0.2665 -0.2203
  767MPD2    C211375   4.568   3.826  14.422 -0.0613 -0.6030 -0.9476
  767MPD2    C311376   4.466   3.774  14.343  0.5756  0.3055  0.1756
  767MPD2    C411377   4.352   3.729  14.404 -1.0925 -0.0654 -0.0332
  767MPD2    C511378   4.339   3.754  14.534 -0.5323  0.3276  0.1257
  767MPD2     H11379   4.662   3.864  14.384 -0.2981  1.5797  0.6908
  767MPD2    H111380   4.269   3.685  14.350 -2.2938  1.6990  0.3735
  767MPD2    H211381   4.418   3.806  14.725 -0.8834  1.4599  0.0990
  767MPD2    H311382   4.243   3.726  14.574 -0.6579  0.7734  0.1370
  767MPD2     N11383   4.489   3.771  14.206 -0.5723 -0.0945 -0.3904
  767MPD2    H511384   4.581   3.787  14.166  0.1133 -0.6243  0.9949
  767MPD2    N111385   4.649   3.889  14.656 -0.1929  0.3108 -0.4898
  767MPD2    H711386   4.626   3.882  14.754 -1.3715 -0.2594 -0.8115
  768MPD2     C11387   4.301   1.958  10.408 -0.1637  0.1660  0.6583
  768MPD2    C111388   4.296   1.900  10.533 -0.5269  0.1566 -0.0120
  768MPD2    C211389   4.407   1.831  10.589 -0.2191 -0.6251  0.2380
  768MPD2    C311390   4.514   1.800  10.511 -0.7581 -0.4511 -0.3385
  768MPD2    C411391   4.516   1.855  10.383  0.2453 -0.6500  0.2593
  768MPD2    C511392   4.413   1.933  10.331 -0.4528  0.0924 -0.0313
  768MPD2     H11393   4.394   1.799  10.692 -0.1324 -2.2084 -0.2528
  768MPD2    H111394   4.593   1.825  10.313  0.2637  1.5181 -0.6607
  768MPD2    H211395   4.215   2.015  10.376 -2.9321 -3.9019  0.9174
  768MPD2    H311396   4.413   1.969  10.229  2.3307 -0.4887 -0.2199
  768MPD2     N11397   4.634   1.735  10.560  0.3682 -0.2098 -0.2196
  768MPD2    H511398   4.718   1.730  10.502  1.1710  3.1171  0.6548
  768MPD2    N111399   4.200   1.939  10.625  0.2906  0.0497 -0.4120
  768MPD2    H711400   4.205   1.895  10.716 -3.9324  1.2371  0.3962
  769MPD2     C11401   1.460   0.916  14.376  0.5934 -0.2782  0.5034
  769MPD2    C111402   1.372   0.889  14.481 -0.4248 -0.7393  0.8648
  769MPD2    C211403   1.368   0.953  14.602  0.0510 -0.0636 -0.9172
  769MPD2    C311404   1.467   1.047  14.630  0.0360  0.3179  0.1358
  769MPD2    C411405   1.557   1.076  14.527  0.0027 -0.2336  0.7748
  769MPD2    C511406   1.555   1.019  14.403 -0.2046  0.0309 -0.6649
  769MPD2     H11407   1.288   0.934  14.672  1.0166  0.7687  0.3953
  769MPD2    H111408   1.627   1.155  14.550 -0.1686  0.1121  0.1215
  769MPD2    H211409   1.476   0.867  14.281  1.0333  0.4002  0.2364
  769MPD2    H311410   1.628   1.043  14.326  0.3320  2.6225  0.6660
  769MPD2     N11411   1.467   1.109  14.763  0.9499  0.0746 -0.2596
  769MPD2    H511412   1.386   1.087  14.821  0.8635  2.2260  0.4319
  769MPD2    N111413   1.279   0.794  14.444  0.2731 -0.5912  0.4541
  769MPD2    H711414   1.290   0.761  14.348  2.0098 -0.3255  0.5631
  770MPD2     C11415   1.364   4.654  14.818  0.1252 -0.5193  0.2830
  770MPD2    C111416   1.264   4.595  14.736  0.3497 -0.3010  0.1377
  770MPD2    C211417   1.177   4.680  14.671 -0.2482  0.4942 -0.0472
  770MPD2    C311418   1.184   0.084  14.686  0.4220  0.1596  0.0399
  770MPD2    C411419   1.284   0.138  14.764  0.0941  0.5845  1.0439
  770MPD2    C511420   1.373   0.050  14.832  0.4535 -0.1887 -0.7011
  770MPD2     H11421   1.092   4.647  14.613  0.8409 -1.4940 -0.5306
  770MPD2    H111422   1.306   0.244  14.771  0.2146  0.7399 -1.5181
  770MPD2    H211423   1.439   4.601  14.875 -0.5074 -2.3615 -0.5714
  770MPD2    H311424   1.458   0.093  14.884 -0.3269  1.3918 -0.7120
  770MPD2     N11425   1.112   0.172  14.607  0.2972  0.8113  0.5919
  770MPD2    H511426   1.069   0.136  14.523  0.1519 -0.2709  1.1269
  770MPD2    N111427   1.271   4.451  14.717  0.4386 -0.0699 -0.2748
  770MPD2    H711428   1.327   4.401  14.786  0.7146  0.8623  0.1764
  771MPD2     C11429   2.322   2.804  13.228 -0.7490  0.6180  0.1122
  771MPD2    C111430   2.223   2.902  13.220  0.0210  0.2885 -0.0778
  771MPD2    C211431   2.098   2.861  13.189 -0.7469 -0.5899  0.8812
  771MPD2    C311432   2.067   2.727  13.164 -0.2253  0.7597  0.1525
  771MPD2    C411433   2.172   2.638  13.161  0.3483  0.3091  0.9702
  771MPD2    C511434   2.298   2.676  13.205 -0.1185 -0.0072 -0.6845
  771MPD2     H11435   2.021   2.937  13.175  0.3485 -0.1003 -2.5824
  771MPD2    H111436   2.143   2.537  13.133  1.2907  0.5137 -0.7108
  771MPD2    H211437   2.424   2.823  13.261 -0.7483  0.7027  0.0637
  771MPD2    H311438   2.377   2.607  13.232 -1.7597 -1.4496  0.4859
  771MPD2     N11439   1.935   2.700  13.127 -0.1459  0.4465 -0.6315
  771MPD2    H511440   1.879   2.780  13.099  1.6266  1.4894 -1.1908
  771MPD2    N111441   2.247   3.036  13.248  0.4329  0.3097 -0.1877
  771MPD2    H711442   2.162   3.092  13.247 -0.2831 -0.7276  2.2562
  772MPD2     C11443   1.908   3.509  13.670  0.4542 -0.4512  0.6547
  772MPD2    C111444   1.921   3.403  13.579  0.2642 -0.1734 -0.5789
  772MPD2    C211445   1.828   3.301  13.588 -1.0220 -0.1076 -0.1637
  772MPD2    C311446   1.716   3.305  13.670 -0.0602  0.0801 -0.0407
  772MPD2    C411447   1.705   3.410  13.755 -0.5218  0.7914 -0.5668
  772MPD2    C511448   1.796   3.508  13.750  0.5349 -0.4097  0.0153
  772MPD2     H11449   1.842   3.219  13.519  0.4180 -0.8059  0.9629
  772MPD2    H111450   1.627   3.416  13.830  1.1048 -1.4131  1.3092
  772MPD2    H211451   1.983   3.586  13.682 -1.7339  1.8244 -0.2164
  772MPD2    H311452   1.797   3.585  13.826  1.6700  0.6774 -1.0830
  772MPD2     N11453   1.614   3.207  13.672  0.3252  0.0511  0.1659
  772MPD2    H511454   1.533   3.212  13.733  1.1679 -0.8720  1.3415
  772MPD2    N111455   2.032   3.387  13.493 -0.7826 -0.3326 -0.2594
  772MPD2    H711456   2.045   3.300  13.442 -0.9078 -0.4115 -0.1556
  773MPD2     C11457   1.114   4.350  17.699 -0.3813  0.5425  0.1051
  773MPD2    C111458   1.095   4.237  17.622 -0.2407  0.3455 -0.8810
  773MPD2    C211459   1.120   4.119  17.674 -0.2685  0.1140 -1.0340
  773MPD2    C311460   1.176   4.104   0.060 -0.2536  0.4798 -0.2882
  773MPD2    C411461   1.189   4.218   0.146 -0.9267  0.0124 -0.4620
  773MPD2    C511462   1.152   4.342   0.095  0.1115  0.3853  0.0505
  773MPD2     H11463   1.112   4.041  17.599  3.6984  0.3564 -1.7165
  773MPD2    H111464   1.228   4.224   0.248 -1.6794  1.7576 -0.2757
  773MPD2    H211465   1.108   4.449  17.655  3.3410 -0.5760 -2.8690
  773MPD2    H311466   1.172   4.439   0.139  0.7254  0.6433 -0.7962
  773MPD2     N11467   1.222   3.977   0.091 -0.0535 -0.1677 -0.0230
  773MPD2    H511468   1.194   3.907   0.023 -1.6355  1.3924 -0.9651
  773MPD2    N111469   1.053   4.236  17.488  0.8364 -0.0483  0.6415
  773MPD2    H711470   1.058   4.144  17.445 -2.8399  0.2651 -0.4976
  774MPD2     C11471   0.719   3.214  12.870 -0.1648 -0.0452  0.2237
  774MPD2    C111472   0.612   3.256  12.937 -0.6614  0.0285  0.1080
  774MPD2    C211473   0.575   3.391  12.933 -0.1305 -0.2432  0.0903
  774MPD2    C311474   0.658   3.484  12.878 -0.1808  0.5581  0.0666
  774MPD2    C411475   0.773   3.439  12.815 -0.4262 -0.0536  0.7407
  774MPD2    C511476   0.804   3.306  12.818 -0.1821  0.0848 -0.2940
  774MPD2     H11477   0.484   3.424  12.980  0.0875 -1.4188  1.3515
  774MPD2    H111478   0.851   3.499  12.770 -0.0567 -0.3172  1.0389
  774MPD2    H211479   0.757   3.113  12.876  1.9793  0.6908 -1.2058
  774MPD2    H311480   0.891   3.272  12.763 -1.9677  0.7739 -3.5661
  774MPD2     N11481   0.619   3.620  12.873  0.2305  0.4388  0.5306
  774MPD2    H511482   0.533   3.650  12.916  0.1695 -2.1975  2.2553
  774MPD2    N111483   0.544   3.163  13.011 -0.1579 -0.2119  0.3048
  774MPD2    H711484   0.578   3.069  12.998  0.3992 -0.1155  1.0313
  775MPD2     C11485   1.401   0.742  14.969  0.1419 -0.1504  0.5351
  775MPD2    C111486   1.469   0.788  15.078 -0.3806 -0.2913  0.7462
  775MPD2    C211487   1.598   0.835  15.069 -0.4472  0.4836 -0.0985
  775MPD2    C311488   1.666   0.830  14.948 -0.3179 -0.4185 -0.2409
  775MPD2    C411489   1.597   0.784  14.842  0.0629 -0.6177 -0.2088
  775MPD2    C511490   1.465   0.754  14.851 -0.9326 -0.3216  0.4369
  775MPD2     H11491   1.647   0.865  15.161  3.1985  1.0347 -2.2182
  775MPD2    H111492   1.650   0.751  14.753 -0.1929 -0.5991 -0.3674
  775MPD2    H211493   1.296   0.715  14.957  0.0884  0.6165 -0.6995
  775MPD2    H311494   1.414   0.729  14.759 -2.8853  0.6880  1.2609
  775MPD2     N11495   1.810   0.846  14.938 -0.6115 -0.4195  0.0664
  775MPD2    H511496   1.844   0.827  14.844  0.3633  2.3078 -0.1299
  775MPD2    N111497   1.405   0.769  15.200 -0.9091 -0.0082 -0.1263
  775MPD2    H711498   1.312   0.727  15.206 -0.3595 -0.8575  2.6139
  776MPD2     C11499   0.522   0.193  11.452  0.1134 -0.2704  0.5794
  776MPD2    C111500   0.451   0.212  11.333 -0.9232 -0.1060 -0.4691
  776MPD2    C211501   0.506   0.296  11.237  0.5144  0.3663 -0.4486
  776MPD2    C311502   0.619   0.371  11.259  0.2550  0.6763  0.2590
  776MPD2    C411503   0.682   0.345  11.384  0.2715 -0.4161 -0.3151
  776MPD2    C511504   0.642   0.248  11.475 -0.1243 -0.0437 -0.3826
  776MPD2     H11505   0.453   0.308  11.143 -1.9562 -2.5075  0.5629
  776MPD2    H111506   0.770   0.404  11.407 -0.8734  1.7366 -1.4258
  776MPD2    H211507   0.482   0.118  11.519 -0.1759  1.1447  1.9657
  776MPD2    H311508   0.692   0.231  11.569  0.3564  1.3488 -0.3744
  776MPD2     N11509   0.669   0.467  11.170  0.2520  0.0817  0.4069
  776MPD2    H511510   0.746   0.526  11.203  0.6044 -0.2385  0.1625
  776MPD2    N111511   0.336   0.133  11.315  0.4960  0.4834 -0.0034
  776MPD2    H711512   0.322   0.067  11.391 -2.1726  0.5986 -0.3886
  777MPD2     C11513   1.077   2.552   0.412 -0.5468  0.1405 -0.6936
  777MPD2    C111514   1.074   2.442   0.495  0.4768  0.4829 -0.2762
  777MPD2    C211515   1.042   2.321   0.441 -0.0874 -0.2228  0.0657
  777MPD2    C311516   1.024   2.304   0.304 -0.1468 -0.3479 -0.7539
  777MPD2    C411517   1.043   2.417   0.222 -1.0169 -0.0581  0.1387
  777MPD2    C511518   1.067   2.529   0.278 -0.5688  0.4061 -1.2827
  777MPD2     H11519   1.029   2.242   0.514  0.8394  0.6035  1.1272
  777MPD2    H111520   1.035   2.423   0.114 -0.5602  0.3220  0.1266
  777MPD2    H211521   1.091   2.651   0.454 -2.2433  0.2152 -0.3055
  777MPD2    H311522   1.075   2.616   0.214 -0.5707 -0.2450 -2.1654
  777MPD2     N11523   0.999   2.173   0.255  0.3937 -0.0029  0.4930
  777MPD2    H511524   1.006   2.094   0.319  0.0740  0.2791  0.8813
  777MPD2    N111525   1.080   2.469   0.635  0.6472 -0.2193 -0.3456
  777MPD2    H711526   1.086   2.568   0.655 -1.5950  0.2760 -2.1964
  778MPD2     C11527   2.205   2.694  14.776  0.0391  0.0637  0.1281
  778MPD2    C111528   2.127   2.659  14.670  0.3180 -0.6728 -0.5342
  778MPD2    C211529   2.145   2.731  14.554 -0.3394  0.1224 -0.8104
  778MPD2    C311530   2.231   2.839  14.543  0.3019 -0.3949 -0.1577
  778MPD2    C411531   2.305   2.874  14.655 -0.2946 -0.1071  0.9479
  778MPD2    C511532   2.299   2.793  14.771  0.0408  0.0692 -0.6985
  778MPD2     H11533   2.085   2.700  14.469 -1.4742  3.4737 -1.2552
  778MPD2    H111534   2.366   2.964  14.661  0.5087 -0.6795  1.4200
  778MPD2    H211535   2.200   2.634  14.867 -1.8344 -0.2609 -0.1781
  778MPD2    H311536   2.350   2.809  14.866  1.0484  1.3366 -1.4626
  778MPD2     N11537   2.240   2.912  14.424 -0.3366  0.3870 -0.3683
  778MPD2    H511538   2.178   2.887  14.347  0.8325 -2.1687 -0.4892
  778MPD2    N111539   2.046   2.541  14.665  1.1405 -0.1301 -0.1043
  778MPD2    H711540   1.998   2.519  14.578 -2.5824  1.1115  1.6570
  779MPD2     C11541   1.782   1.726  13.505 -0.1611 -0.5498  0.4375
  779MPD2    C111542   1.889   1.709  13.590  0.4846  0.8171  1.2080
  779MPD2    C211543   1.947   1.822  13.648 -0.1474  0.9523  0.1547
  779MPD2    C311544   1.879   1.946  13.640 -0.2576 -1.0319  0.4416
  779MPD2    C411545   1.769   1.953  13.551  0.5879 -0.5670  0.0006
  779MPD2    C511546   1.729   1.846  13.479 -0.3897 -0.2243 -0.3815
  779MPD2     H11547   2.040   1.806  13.702  0.2385  0.0006 -0.8089
  779MPD2    H111548   1.726   2.050  13.529  1.9905 -0.2326 -1.2689
  779MPD2    H211549   1.732   1.642  13.459 -0.2875  0.0949 -0.6141
  779MPD2    H311550   1.643   1.859  13.414  0.1750  0.4489 -0.9859
  779MPD2     N11551   1.920   2.072  13.693 -0.0625  0.0176  0.1833
  779MPD2    H511552   1.857   2.151  13.697  0.2822  0.3946 -1.7380
  779MPD2    N111553   1.949   1.581  13.618  0.1492  0.0352  0.3142
  779MPD2    H711554   2.031   1.570  13.675 -1.5586  1.8188  3.1104
  780MPD2     C11555   2.051   1.395   0.778  0.3162  0.1324  0.2481
  780MPD2    C111556   1.916   1.396   0.738 -0.5903 -0.0449  0.1275
  780MPD2    C211557   1.898   1.446   0.607  0.4901  0.3441  0.1163
  780MPD2    C311558   1.990   1.525   0.545 -0.7930  0.3043 -0.4869
  780MPD2    C411559   2.120   1.528   0.597 -0.2796 -0.3195 -0.4229
  780MPD2    C511560   2.153   1.467   0.714  0.2893 -0.0106  0.0687
  780MPD2     H11561   1.803   1.438   0.555  1.3852  1.8155 -1.7128
  780MPD2    H111562   2.202   1.580   0.547  0.4428 -0.8156  0.2637
  780MPD2    H211563   2.075   1.336   0.865 -0.4024 -1.2006 -0.4563
  780MPD2    H311564   2.256   1.471   0.750  0.3810 -1.3241 -0.0627
  780MPD2     N11565   1.955   1.579   0.417 -1.1299  0.3846  0.2850
  780MPD2    H511566   1.868   1.550   0.372 -1.6551  1.3245  0.7071
  780MPD2    N111567   1.814   1.346   0.828  0.1529 -0.3865  0.1812
  780MPD2    H711568   1.845   1.304   0.915  0.9736  0.3673  0.2582
  781MPD2     C11569   2.975   3.251  11.441  0.1355  0.0933  0.2869
  781MPD2    C111570   3.076   3.258  11.531 -0.1647  0.1694  0.2745
  781MPD2    C211571   3.204   3.212  11.488  0.3389  0.1328 -0.7104
  781MPD2    C311572   3.218   3.166  11.357  0.1467 -0.3073  0.3482
  781MPD2    C411573   3.109   3.160  11.272 -0.0479  0.4380 -0.1191
  781MPD2    C511574   2.992   3.213  11.312  1.5826  0.3724 -0.7310
  781MPD2     H11575   3.286   3.213  11.560  1.0051 -0.5756 -1.4568
  781MPD2    H111576   3.118   3.111  11.176  2.0837  1.9367 -0.6851
  781MPD2    H211577   2.874   3.289  11.450  0.3426  0.6049  0.4552
  781MPD2    H311578   2.906   3.205  11.246 -0.5461  0.9067  1.9882
  781MPD2     N11579   3.328   3.099  11.301  0.4839 -0.8881  0.1107
  781MPD2    H511580   3.312   3.051  11.213  2.4918 -2.4117  0.5953
  781MPD2    N111581   3.052   3.304  11.667 -0.5101 -0.0056  0.1692
  781MPD2    H711582   3.132   3.302  11.729 -0.4286 -1.6666 -0.0039
  782MPD2     C11583   1.109   3.753   9.729  0.4365  0.0609  0.0388
  782MPD2    C111584   1.104   3.735   9.862  0.6678  0.0507 -0.3485
  782MPD2    C211585   1.054   3.836   9.943  0.5370 -0.0132  0.0706
  782MPD2    C311586   0.997   3.946   9.893  0.3930  0.3201  0.1057
  782MPD2    C411587   0.993   3.960   9.756  0.2923  0.0670 -0.3760
  782MPD2    C511588   1.060   3.864   9.680 -0.3159 -0.8388 -0.2980
  782MPD2     H11589   1.058   3.822  10.050  1.8886 -0.5486 -0.0562
  782MPD2    H111590   0.973   4.052   9.704  1.4849 -0.8236 -2.3939
  782MPD2    H211591   1.152   3.679   9.663 -0.3763 -2.2484  2.0552
  782MPD2    H311592   1.075   3.881   9.574 -0.4287  1.5256  0.0732
  782MPD2     N11593   0.957   4.045   9.986  0.2981  0.1629 -0.7062
  782MPD2    H511594   0.956   4.019  10.084 -0.7324  0.8653 -0.5286
  782MPD2    N111595   1.163   3.623   9.914  0.2935 -0.1355 -0.7757
  782MPD2    H711596   1.218   3.561   9.855  1.3155  1.3391 -1.3614
  783MPD2     C11597   1.002   3.321  10.834 -0.8085  0.3377  0.5062
  783MPD2    C111598   0.970   3.438  10.765  0.3251  0.7026  0.8400
  783MPD2    C211599   1.036   3.461  10.645 -0.3062 -0.0868  0.1228
  783MPD2    C311600   1.145   3.384  10.606 -0.1287 -0.8534 -0.0073
  783MPD2    C411601   1.183   3.280  10.688 -0.2219 -0.3328 -0.3520
  783MPD2    C511602   1.112   3.243  10.796  0.5343 -0.2223 -0.9174
  783MPD2     H11603   1.012   3.550  10.587  2.5520  0.3368 -0.4057
  783MPD2    H111604   1.275   3.226  10.670  0.7811  1.0635  0.6282
  783MPD2    H211605   0.941   3.295  10.919  0.8558 -0.0202  1.5853
  783MPD2    H311606   1.142   3.163  10.862 -0.6672  0.0283 -0.0597
  783MPD2     N11607   1.208   3.426  10.492  0.2705  0.3435  0.8787
  783MPD2    H511608   1.167   3.507  10.447  1.3533 -0.4713 -1.5864
  783MPD2    N111609   0.860   3.501  10.814 -0.4405 -0.3946 -0.1046
  783MPD2    H711610   0.812   3.457  10.892  1.4011 -1.9520  0.1367
  784MPD2     C11611   3.318   3.989   0.415  0.5183 -0.8309  0.4752
  784MPD2    C111612   3.316   4.064   0.535 -0.2965 -0.4579  0.3087
  784MPD2    C211613   3.212   4.147   0.558 -0.7968  0.4104  0.2277
  784MPD2    C311614   3.105   4.149   0.464  0.0529  0.1302  0.9553
  784MPD2    C411615   3.110   4.079   0.346 -0.8200 -0.0860 -0.0170
  784MPD2    C511616   3.224   4.001   0.322 -0.1578  0.1813 -0.1165
  784MPD2     H11617   3.208   4.207   0.648 -0.0134 -2.1451  1.9639
  784MPD2    H111618   3.043   4.091   0.262 -1.8515 -1.2285  0.6440
  784MPD2    H211619   3.402   3.927   0.388  0.4085 -0.3765 -0.9238
  784MPD2    H311620   3.240   3.951   0.227 -0.9704  0.6718 -0.5147
  784MPD2     N11621   2.992   4.238   0.497 -0.4797  0.0132 -0.0216
  784MPD2    H511622   2.994   4.293   0.582 -2.8223 -0.2868  0.2277
  784MPD2    N111623   3.419   4.055   0.628 -0.0668  0.0360 -0.5778
  784MPD2    H711624   3.396   4.094   0.719  1.3292 -2.8010  0.9650
  785MPD2     C11625   3.106   2.831  10.779  0.6070  0.6243 -0.3020
  785MPD2    C111626   3.071   2.923  10.687  0.3468 -0.1928 -0.1317
  785MPD2    C211627   2.979   2.901  10.589 -0.0244 -0.4146 -0.4628
  785MPD2    C311628   2.944   2.768  10.565  0.0404 -0.7865  0.2241
  785MPD2    C411629   2.974   2.667  10.661 -0.4639 -0.2352 -0.1311
  785MPD2    C511630   3.062   2.699  10.762 -0.3954 -0.0534  0.1691
  785MPD2     H11631   2.957   2.971  10.510  2.0285  0.5558 -0.1590
  785MPD2    H111632   2.939   2.564  10.660 -1.9365  0.2638  0.1631
  785MPD2    H211633   3.169   2.850  10.865 -0.3503  0.3261  0.4664
  785MPD2    H311634   3.094   2.626  10.836  1.3230  1.5291  0.9995
  785MPD2     N11635   2.857   2.745  10.459  0.4331  0.2111 -0.2076
  785MPD2    H511636   2.825   2.832  10.417  1.4621 -0.2389 -1.9255
  785MPD2    N111637   3.129   3.050  10.706  0.3031 -0.6987  0.1713
  785MPD2    H711638   3.203   3.059  10.775  2.0628 -1.8589 -1.5570
  786MPD2     C11639   2.585   1.239  14.547  0.6077  0.1316  0.1586
  786MPD2    C111640   2.681   1.159  14.490  0.2785 -0.8244  0.4474
  786MPD2    C211641   2.810   1.172  14.537  0.5427 -0.2052  0.2762
  786MPD2    C311642   2.832   1.245  14.653 -0.4548 -0.0958  0.6809
  786MPD2    C411643   2.733   1.321  14.716 -0.8696 -0.0530  0.6138
  786MPD2    C511644   2.611   1.311  14.658 -0.2730  0.0634 -1.3064
  786MPD2     H11645   2.885   1.110  14.492 -0.1489 -0.7488 -0.1220
  786MPD2    H111646   2.739   1.391  14.799  0.3721  1.1489 -0.5088
  786MPD2    H211647   2.483   1.239  14.508  0.0430 -1.9526  1.6311
  786MPD2    H311648   2.531   1.364  14.708  0.6906 -0.9311  1.2716
  786MPD2     N11649   2.961   1.249  14.722 -1.2819  0.2005 -0.3360
  786MPD2    H511650   2.961   1.300  14.810 -0.6867 -0.9136  0.3112
  786MPD2    N111651   2.661   1.077  14.377  0.1353 -0.0125 -0.1625
  786MPD2    H711652   2.737   1.022  14.339  0.0779  0.3863 -0.8589
  787MPD2     C11653   2.563   0.553  14.679 -0.0185 -0.2705  0.0815
  787MPD2    C111654   2.636   0.522  14.563 -1.0942  0.2240 -0.1104
  787MPD2    C211655   2.757   0.457  14.576 -1.2663 -0.1529  0.0189
  787MPD2    C311656   2.797   0.415  14.696  0.4951  0.3138  0.2559
  787MPD2    C411657   2.725   0.439  14.809  0.3783 -0.5948 -0.7586
  787MPD2    C511658   2.607   0.513  14.802 -0.0145 -0.3177  0.2215
  787MPD2     H11659   2.820   0.414  14.499 -0.7818 -0.4376  0.5720
  787MPD2    H111660   2.767   0.411  14.905 -2.0534 -0.9668  0.1935
  787MPD2    H211661   2.470   0.608  14.669 -0.4246 -1.0866 -0.5852
  787MPD2    H311662   2.553   0.539  14.892  1.2213  0.2016  0.8172
  787MPD2     N11663   2.917   0.348  14.703  0.3497 -0.1678 -0.0913
  787MPD2    H511664   2.976   0.340  14.621  1.7632  1.5723  0.7564
  787MPD2    N111665   2.594   0.579  14.445  0.3320 -0.0559 -0.5871
  787MPD2    H711666   2.516   0.643  14.455 -1.2106 -1.9452 -0.6195
  788MPD2     C11667   0.209   4.350   0.449 -0.0739  0.2029 -0.6911
  788MPD2    C111668   0.098   4.270   0.416 -0.0729 -0.0048 -0.3107
  788MPD2    C211669   0.009   4.320   0.321 -0.2614  0.8806  0.6178
  788MPD2    C311670   0.034   4.441   0.251  0.3690 -0.0313  0.5663
  788MPD2    C411671   0.145   4.513   0.279 -0.7917  0.0505 -0.6320
  788MPD2    C511672   0.237   4.465   0.374 -0.2400 -0.2631 -0.6305
  788MPD2     H11673   4.668   4.251   0.284  1.0095  0.3593 -0.9965
  788MPD2    H111674   0.176   4.599   0.221  1.4767 -0.1067  0.3416
  788MPD2    H211675   0.286   4.314   0.517  0.4107 -0.0333 -1.3676
  788MPD2    H311676   0.331   4.518   0.381 -0.0296 -0.7777  0.4548
  788MPD2     N11677   4.685   4.496   0.150 -0.0327 -0.3420  0.0572
  788MPD2    H511678   4.710   4.585   0.108  0.9115  0.5656  2.5013
  788MPD2    N111679   0.095   4.137   0.462  0.2614 -0.5078 -0.2714
  788MPD2    H711680   0.174   4.097   0.512  0.9443  0.5250 -0.5085
  789MPD2     C11681   0.343   3.614  16.266  0.3564  0.1255  0.3178
  789MPD2    C111682   0.259   3.657  16.167 -0.8354 -0.2145  0.4495
  789MPD2    C211683   0.141   3.724  16.206  0.2762 -0.1220  0.0460
  789MPD2    C311684   0.120   3.761  16.337 -0.1377  0.3240 -0.7352
  789MPD2    C411685   0.202   3.710  16.434 -0.1629  0.0807  0.3687
  789MPD2    C511686   0.311   3.631  16.400  0.6322  0.0542  0.2752
  789MPD2     H11687   0.067   3.738  16.129  0.0659  1.6357  0.5568
  789MPD2    H111688   0.191   3.733  16.539  0.0766  0.6178  0.2782
  789MPD2    H211689   0.439   3.568  16.242  1.3676  0.9670  2.7110
  789MPD2    H311690   0.387   3.602  16.471 -0.5258 -1.0445  1.0799
  789MPD2     N11691   0.016   3.841  16.383  0.6724 -0.0969 -0.2013
  789MPD2    H511692   4.734   3.855  16.482  0.5621  1.4780 -0.4426
  789MPD2    N111693   0.290   3.648  16.032  0.8319 -0.0330 -0.1436
  789MPD2    H711694   0.219   3.667  15.962 -0.3887 -0.3057  1.0265
  790MPD2     C11695   0.721   0.910  13.299  0.3776 -0.1709  0.3922
  790MPD2    C111696   0.779   0.786  13.300 -0.5771  0.1761  0.2455
  790MPD2    C211697   0.783   0.713  13.182 -0.1217  0.4726 -0.5425
  790MPD2    C311698   0.719   0.764  13.066  0.2625 -0.0853 -0.5141
  790MPD2    C411699   0.657   0.887  13.070 -0.4701  0.1986 -0.0806
  790MPD2    C511700   0.653   0.951  13.188  0.5414 -0.0490  0.2271
  790MPD2     H11701   0.844   0.624  13.169  2.3353  2.3617 -2.0525
  790MPD2    H111702   0.598   0.929  12.990  0.8679  1.9368 -0.1429
  790MPD2    H211703   0.715   0.976  13.385  1.2421  1.2967 -0.6950
  790MPD2    H311704   0.616   1.052  13.179  1.1605  0.1997  0.5299
  790MPD2     N11705   0.714   0.681  12.948 -0.2608 -0.0923 -0.4194
  790MPD2    H511706   0.739   0.583  12.954  0.1369 -0.0553 -1.4457
  790MPD2    N111707   0.846   0.746  13.421  0.4389 -1.0889 -0.1930
  790MPD2    H711708   0.802   0.762  13.511 -0.7668  0.8131 -1.1456
  791MPD2     C11709   0.156   0.598  12.440  0.1431  0.5795  1.5368
  791MPD2    C111710   0.214   0.491  12.499 -0.2568  0.0186  0.4821
  791MPD2    C211711   0.155   0.368  12.490 -0.2593 -0.0415 -0.5142
  791MPD2    C311712   0.031   0.358  12.436 -0.1435  0.6086  0.1472
  791MPD2    C411713   4.702   0.468  12.376  0.4899 -0.0538 -0.1151
  791MPD2    C511714   0.031   0.585  12.382 -0.5644 -0.4411 -0.1483
  791MPD2     H11715   0.207   0.286  12.538  0.2769 -0.3024 -1.5377
  791MPD2    H111716   4.607   0.466  12.324 -0.7896 -1.3761  2.2677
  791MPD2    H211717   0.209   0.693  12.438  1.0621  0.0537  1.1271
  791MPD2    H311718   0.003   0.680  12.339  1.9290  0.0109 -0.7795
  791MPD2     N11719   4.702   0.231  12.443  0.0005 -0.0384 -0.1979
  791MPD2    H511720   0.015   0.161  12.499 -0.4429  0.8978  1.3279
  791MPD2    N111721   0.347   0.510  12.546 -0.9042 -0.0461 -0.7601
  791MPD2    H711722   0.395   0.598  12.531 -0.0950 -0.4024 -0.2006
  792MPD2     C11723   0.317   0.246  10.415  0.4924  0.8089  0.1586
  792MPD2    C111724   0.359   0.163  10.519  0.8760 -0.0636 -0.5322
  792MPD2    C211725   0.274   0.082  10.583 -0.5262 -0.0237 -0.8064
  792MPD2    C311726   0.143   0.074  10.531  0.1801  0.1374 -0.9605
  792MPD2    C411727   0.098   0.162  10.431 -0.1854 -0.3996 -0.1413
  792MPD2    C511728   0.188   0.251  10.380 -0.4809 -0.5074 -0.7374
  792MPD2     H11729   0.309   0.020  10.665  1.3088 -1.6954 -2.8534
  792MPD2    H111730   4.730   0.164  10.394 -0.4613  1.1847  0.7238
  792MPD2    H211731   0.387   0.314  10.368  0.5306  0.6279 -0.0465
  792MPD2    H311732   0.154   0.320  10.303  2.7041  0.5366 -1.2170
  792MPD2     N11733   0.053   4.711  10.577  0.2925 -0.8129 -0.0043
  792MPD2    H511734   4.700   4.704  10.525  0.7654  3.1812 -1.3735
  792MPD2    N111735   0.502   0.173  10.551 -0.1655 -0.1975  0.2050
  792MPD2    H711736   0.557   0.242  10.500  0.2621 -0.1980  0.6595
  793MPD2     C11737   4.589   4.101  10.023  0.9154  0.6966 -0.8200
  793MPD2    C111738   4.683   4.197  10.042 -0.5302 -0.0155 -0.3391
  793MPD2    C211739   4.677   4.266  10.160  0.9195 -0.1136 -0.6100
  793MPD2    C311740   4.598   4.233  10.266  0.4276  0.4353  0.0286
  793MPD2    C411741   4.512   4.137  10.249 -0.4795  0.0071  0.5391
  793MPD2    C511742   4.508   4.074  10.131  0.3586  0.0533 -0.1469
  793MPD2     H11743   0.018   4.343  10.171  0.8243 -0.1857  0.5585
  793MPD2    H111744   4.441   4.106  10.325 -0.7341  2.2616  1.2102
  793MPD2    H211745   4.577   4.043   9.932  0.2024 -2.0819  1.0645
  793MPD2    H311746   4.432   3.998  10.135 -0.4560  0.8270 -0.8635
  793MPD2     N11747   4.618   4.304  10.388 -0.1164 -0.1639  0.5584
  793MPD2    H511748   4.691   4.374  10.388 -0.1756 -0.1046  1.3503
  793MPD2    N111749   0.045   4.221   9.940 -0.2947 -0.2590  0.1114
  793MPD2    H711750   0.112   4.293   9.966  1.1530 -0.8864 -1.7922
  794MPD2     C11751   0.536   4.667  16.981 -0.4898  0.1035  0.1168
  794MPD2    C111752   0.578   4.561  16.910 -0.1190  0.5332 -0.3081
  794MPD2    C211753   0.510   4.527  16.798 -0.1276 -0.9858 -0.2445
  794MPD2    C311754   0.407   4.607  16.749  0.7032  0.4545 -0.2110
  794MPD2    C411755   0.373   4.730  16.818  0.2971 -0.3056 -0.0260
  794MPD2    C511756   0.442   0.021  16.939  0.4527  0.3358 -0.6890
  794MPD2     H11757   0.540   4.437  16.745  0.9516 -0.1591 -1.0501
  794MPD2    H111758   0.312   0.073  16.774  1.1934  1.0105  1.0757
  794MPD2    H211759   0.595   4.702  17.065 -0.8441  0.7226  0.1112
  794MPD2    H311760   0.433   0.112  16.998  3.0513 -0.2995  0.7153
  794MPD2     N11761   0.340   4.577  16.628  0.2412 -0.4712 -0.1832
  794MPD2    H511762   0.265   4.640  16.600 -0.7214 -0.7958  1.7227
  794MPD2    N111763   0.683   4.483  16.957  0.4856 -0.7233  0.2705
  794MPD2    H711764   0.702   4.396  16.909  0.1628  2.1522 -5.0510
  795MPD2     C11765   3.267   2.124  13.506 -0.7564 -0.4764 -0.2651
  795MPD2    C111766   3.228   1.993  13.486 -0.6160 -0.4722  0.0776
  795MPD2    C211767   3.299   1.898  13.556 -0.3798  0.0542 -0.4835
  795MPD2    C311768   3.404   1.927  13.640 -0.2711  0.3642 -0.1725
  795MPD2    C411769   3.441   2.057  13.656 -1.1514  0.6826  0.5259
  795MPD2    C511770   3.376   2.155  13.583  0.3382 -0.2932  0.1930
  795MPD2     H11771   3.264   1.797  13.542 -0.8122 -0.0453  1.3860
  795MPD2    H111772   3.519   2.092  13.723 -0.7347 -1.2718  1.0461
  795MPD2    H211773   3.206   2.205  13.469 -1.7400 -2.1587 -2.2941
  795MPD2    H311774   3.391   2.262  13.590 -3.9469  0.2593  0.8122
  795MPD2     N11775   3.454   1.821  13.722  0.3885  0.1835 -0.3305
  795MPD2    H511776   3.400   1.735  13.714  0.9692  0.0391 -2.8280
  795MPD2    N111777   3.115   1.954  13.417 -0.0376 -0.0816  0.0937
  795MPD2    H711778   3.095   1.855  13.407 -2.2568  0.7699 -3.8221
  796MPD2     C11779   2.595   3.682  15.690 -0.8792  0.1490 -0.1134
  796MPD2    C111780   2.645   3.770  15.778 -0.1890 -0.5103 -0.2167
  796MPD2    C211781   2.637   3.907  15.751  1.1344 -0.8069 -0.1653
  796MPD2    C311782   2.558   3.950  15.635 -0.2200 -0.9374 -0.0589
  796MPD2    C411783   2.509   3.854  15.550 -0.6285 -0.1902  0.9628
  796MPD2    C511784   2.544   3.720  15.567  0.6775  0.3126  0.1768
  796MPD2     H11785   2.685   3.975  15.820  2.9960 -3.7089  1.4076
  796MPD2    H111786   2.445   3.878  15.467  0.6069  0.6496  0.2558
  796MPD2    H211787   2.605   3.578  15.719  0.9704  0.8826  1.8781
  796MPD2    H311788   2.503   3.637  15.510  3.3578  0.0833 -1.4732
  796MPD2     N11789   2.538   4.089  15.622  0.0487  0.6324  0.2048
  796MPD2    H511790   2.595   4.139  15.690  0.9892 -2.7908  1.9509
  796MPD2    N111791   2.728   3.717  15.878  0.2290 -0.6481 -0.3820
  796MPD2    H711792   2.737   3.616  15.870 -0.3423 -0.6661 -0.8348
  797MPD2     C11793   3.412   2.874  17.149  0.3374 -0.1146  0.4334
  797MPD2    C111794   3.439   2.994  17.089 -0.6753 -0.3334 -0.0145
  797MPD2    C211795   3.361   3.106  17.108  0.4121  0.2166 -0.1221
  797MPD2    C311796   3.240   3.095  17.176  0.5046  0.8677  0.2876
  797MPD2    C411797   3.211   2.974  17.231  0.4193 -0.1163 -0.0754
  797MPD2    C511798   3.291   2.865  17.216  0.7479  0.1504  0.3162
  797MPD2     H11799   3.396   3.201  17.070  0.1254  0.0781 -0.7316
  797MPD2    H111800   3.117   2.971  17.285  0.4073 -0.0718 -0.0937
  797MPD2    H211801   3.469   2.783  17.130 -0.2320 -0.5713  0.9202
  797MPD2    H311802   3.258   2.769  17.256 -0.5970  0.7942  0.7604
  797MPD2     N11803   3.145   3.202  17.190 -0.1341 -0.0031 -0.5942
  797MPD2    H511804   3.067   3.191  17.253 -0.7491 -0.6302 -1.4626
  797MPD2    N111805   3.561   3.018  17.020  0.0829 -0.7485  0.6978
  797MPD2    H711806   3.571   3.091  16.950  3.1881 -0.9225  0.9658
  798MPD2     C11807   3.557   3.581  17.433  0.4475 -0.1263  0.5440
  798MPD2    C111808   3.482   3.546  17.317  0.3158  0.6245 -0.1891
  798MPD2    C211809   3.546   3.482  17.214  0.1949 -0.5557  0.2210
  798MPD2    C311810   3.681   3.450  17.223  0.4509  0.8306  0.5985
  798MPD2    C411811   3.749   3.491  17.336 -0.2529  0.1500 -1.1166
  798MPD2    C511812   3.693   3.550  17.440 -0.0916 -0.0983  0.7593
  798MPD2     H11813   3.490   3.459  17.124 -0.3691  4.3600 -0.6993
  798MPD2    H111814   3.856   3.478  17.351 -0.4264  1.1914  0.9583
  798MPD2    H211815   3.504   3.635  17.510  0.1905  0.4205 -0.0101
  798MPD2    H311816   3.744   3.568  17.533  0.3936  0.1693  0.4425
  798MPD2     N11817   3.734   3.379  17.115  0.0490  0.4544  0.2708
  798MPD2    H511818   3.665   3.352  17.046  0.4426 -0.8597  0.4016
  798MPD2    N111819   3.350   3.584  17.291  0.3864  0.5593 -0.1889
  798MPD2    H711820   3.312   3.578  17.197  0.3766 -3.2691  0.0788
  799MPD2     C11821   2.801   4.436  14.925  1.0708  0.7124  0.2641
  799MPD2    C111822   2.766   4.358  14.820  0.1504 -0.0492 -0.4492
  799MPD2    C211823   2.707   4.415  14.704 -0.0163  0.2852  0.0135
  799MPD2    C311824   2.675   4.545  14.707 -0.0436  0.6978 -0.2689
  799MPD2    C411825   2.715   4.618  14.816  0.0979  0.4119 -0.0834
  799MPD2    C511826   2.780   4.566  14.922 -0.1586  0.3134 -0.3108
  799MPD2     H11827   2.685   4.353  14.617  1.5298 -0.2985  0.0296
  799MPD2    H111828   2.695   4.725  14.815  2.7249  0.8966  0.0896
  799MPD2    H211829   2.844   4.391  15.015 -1.5506 -0.8546  0.7241
  799MPD2    H311830   2.817   4.636  14.997 -0.2404  0.0484 -0.0209
  799MPD2     N11831   2.599   4.611  14.612  0.1176  0.1253  0.1866
  799MPD2    H511832   2.571   4.706  14.637  0.4315  0.5645 -1.1165
  799MPD2    N111833   2.791   4.219  14.811 -0.5106  0.1565 -0.2499
  799MPD2    H711834   2.780   4.172  14.723  0.3996  1.3280 -0.9988
  800MPD2     C11835   3.159   1.353  14.297  0.3122 -0.3444 -0.1958
  800MPD2    C111836   3.261   1.264  14.264 -0.4717 -0.0887  0.2652
  800MPD2    C211837   3.230   1.138  14.228 -0.0027  0.3445 -0.4772
  800MPD2    C311838   3.097   1.098  14.217  0.4169  0.7158 -1.1776
  800MPD2    C411839   2.999   1.187  14.238 -0.4357 -0.0532 -0.5214
  800MPD2    C511840   3.031   1.316  14.273 -0.2203 -0.4649  0.1751
  800MPD2     H11841   3.303   1.060  14.210 -0.1339 -0.7285  3.7801
  800MPD2    H111842   2.895   1.174  14.210  0.4483 -0.7602 -3.4890
  800MPD2    H211843   3.187   1.446  14.345 -2.3752  0.8066 -0.8366
  800MPD2    H311844   2.945   1.373  14.305 -0.8244 -1.3444  0.1364
  800MPD2     N11845   3.070   0.968  14.167 -0.5604  0.0085  0.1948
  800MPD2    H511846   3.149   0.916  14.129  0.6650  1.3299  0.9470
  800MPD2    N111847   3.390   1.310  14.277  0.1582  0.4983 -0.2469
  800MPD2    H711848   3.401   1.404  14.315 -0.5701  0.3839  0.2679
  801MPD2     C11849   3.558   1.963  14.149 -0.1978 -0.1536  0.2114
  801MPD2    C111850   3.482   1.856  14.185 -0.2457 -0.1728  0.4463
  801MPD2    C211851   3.347   1.873  14.210  0.7362  0.2653  0.1982
  801MPD2    C311852   3.286   2.001  14.190 -0.7576 -0.0054 -0.6498
  801MPD2    C411853   3.362   2.107  14.145  0.1588 -0.7194 -0.1558
  801MPD2    C511854   3.500   2.086  14.119  0.4899 -0.6033 -0.0707
  801MPD2     H11855   3.293   1.784  14.241 -0.4167  0.2318 -1.8755
  801MPD2    H111856   3.328   2.210  14.141 -3.1380 -1.7700  0.6380
  801MPD2    H211857   3.666   1.962  14.138 -0.0710  0.1028  1.4305
  801MPD2    H311858   3.570   2.166  14.096 -0.4671 -0.5104 -2.6394
  801MPD2     N11859   3.155   2.020  14.231  0.1447  0.0923  0.4912
  801MPD2    H511860   3.124   2.116  14.245  1.1767  0.9565 -2.9610
  801MPD2    N111861   3.537   1.728  14.204  0.8578  0.2020  0.1513
  801MPD2    H711862   3.465   1.659  14.222 -0.6093  1.9769  1.2433
  802MPD2     C11863   3.122   2.309   0.311 -0.2182 -0.2563  0.3961
  802MPD2    C111864   3.000   2.262   0.273 -0.0528  0.4225 -0.4330
  802MPD2    C211865   2.984   2.129   0.238 -0.0498 -0.8119 -0.8436
  802MPD2    C311866   3.085   2.044   0.223  0.7857  0.4128  0.9753
  802MPD2    C411867   3.214   2.093   0.255  0.2168 -0.0424  0.0203
  802MPD2    C511868   3.229   2.215   0.307  0.3936 -0.2749  0.2084
  802MPD2     H11869   2.887   2.088   0.211  0.3246 -1.0633 -1.7984
  802MPD2    H111870   3.294   2.022   0.239 -0.2339 -0.3640 -0.8487
  802MPD2    H211871   3.145   2.415   0.306  1.0021 -0.4239  2.2734
  802MPD2    H311872   3.327   2.251   0.335  1.0678 -1.4166 -0.6715
  802MPD2     N11873   3.058   1.920   0.169  0.0655 -0.1534  0.2503
  802MPD2    H511874   2.962   1.901   0.142 -0.5955  2.9152  0.3871
  802MPD2    N111875   2.881   2.343   0.265  0.3085  0.5388 -0.2386
  802MPD2    H711876   2.792   2.305   0.234  0.6563 -0.7016  0.2741
  803MPD2     C11877   3.437   0.080  11.721 -0.6710  0.0723 -0.2571
  803MPD2    C111878   3.530   0.115  11.816 -0.1805  0.1386 -0.2128
  803MPD2    C211879   3.505   0.086  11.950 -0.2974  0.2056  0.0425
  803MPD2    C311880   3.387   0.034  11.996  0.7127 -0.6167  0.7225
  803MPD2    C411881   3.286   0.004  11.900  0.2614 -0.2381 -0.0151
  803MPD2    C511882   3.313   0.035  11.768 -0.5441  0.0459  0.1106
  803MPD2     H11883   3.582   0.116  12.020  2.0706 -1.3738 -1.8700
  803MPD2    H111884   3.196   4.684  11.926  1.1681 -2.8804 -2.3898
  803MPD2    H211885   3.441   0.104  11.615 -1.5613 -2.3069 -0.8126
  803MPD2    H311886   3.244   4.728  11.696  0.2027 -1.2815  0.1621
  803MPD2     N11887   3.361   4.731  12.136 -0.3395 -0.2841 -0.6013
  803MPD2    H511888   3.271   4.688  12.153  0.7319 -3.1671 -2.1822
  803MPD2    N111889   3.646   0.189  11.779 -0.5179  0.0255 -0.0627
  803MPD2    H711890   3.697   0.228  11.857 -0.7234  0.3473 -0.0902
  804MPD2     C11891   3.092   1.698  16.783 -0.4008  0.1324 -0.2355
  804MPD2    C111892   3.099   1.649  16.914  0.2571 -0.1591  0.7453
  804MPD2    C211893   3.179   1.718  17.012 -0.5521 -0.1450 -0.1224
  804MPD2    C311894   3.235   1.838  16.979  0.0128  0.4636  0.0485
  804MPD2    C411895   3.204   1.891  16.854 -0.9904 -0.0675 -0.2591
  804MPD2    C511896   3.147   1.821  16.755 -0.4160  0.6982 -1.0975
  804MPD2     H11897   3.193   1.679  17.112 -2.1175  1.5750  0.7524
  804MPD2    H111898   3.237   1.987  16.818  1.4835 -0.6387  0.4223
  804MPD2    H211899   3.041   1.648  16.702  0.5404  3.0851 -2.6531
  804MPD2    H311900   3.130   1.862  16.656 -0.2379  0.9636 -1.0174
  804MPD2     N11901   3.315   1.912  17.077  0.3927 -0.0404  0.1540
  804MPD2    H511902   3.336   1.861  17.162  3.7407 -0.5714 -0.9835
  804MPD2    N111903   3.045   1.519  16.935  0.4644  0.0145 -0.1036
  804MPD2    H711904   3.022   1.481  16.844  0.6279 -0.3115 -0.0102
  805MPD2     C11905   2.081   0.583  15.357 -0.2391  0.4054  0.0823
  805MPD2    C111906   2.175   0.496  15.311 -0.2781  0.3182 -0.0237
  805MPD2    C211907   2.291   0.484  15.379 -0.2330 -0.0744  0.8509
  805MPD2    C311908   2.316   0.566  15.495 -0.6018 -0.2353 -0.1636
  805MPD2    C411909   2.211   0.652  15.541  0.5569 -0.1900 -0.4204
  805MPD2    C511910   2.099   0.667  15.465  0.3100  0.3864 -0.1013
  805MPD2     H11911   2.364   0.407  15.356 -0.8822 -0.0243 -1.3348
  805MPD2    H111912   2.211   0.710  15.633  0.1650 -1.0247  0.1044
  805MPD2    H211913   1.988   0.593  15.302 -0.4570 -0.2784  0.3225
  805MPD2    H311914   2.026   0.747  15.474  2.2554  2.2374 -0.9385
  805MPD2     N11915   2.443   0.572  15.556 -0.3566 -0.6435  0.2818
  805MPD2    H511916   2.450   0.635  15.636 -0.6282  0.4804 -0.5657
  805MPD2    N111917   2.154   0.416  15.198 -0.1785 -0.4325  0.1497
  805MPD2    H711918   2.226   0.347  15.182 -2.4461 -2.1062 -2.9954
  806MPD2     C11919   2.940   3.715   0.121  0.3310  0.4181  0.7236
  806MPD2    C111920   2.864   3.829   0.154 -0.5661  0.4979  0.0940
  806MPD2    C211921   2.855   3.933   0.057 -0.5304 -0.4224 -0.1852
  806MPD2    C311922   2.929   3.925  17.681  0.2552  0.5671  0.0926
  806MPD2    C411923   3.007   3.812  17.656  0.0232 -0.5674  0.3008
  806MPD2    C511924   3.016   3.707   0.006 -0.1059  0.4238  0.0558
  806MPD2     H11925   2.798   4.025   0.067  0.1942  0.0902 -0.8558
  806MPD2    H111926   3.066   3.796  17.566  0.6559  2.6719  0.1282
  806MPD2    H211927   2.955   3.633   0.190  0.2007 -0.2518 -0.0425
  806MPD2    H311928   3.067   3.612  17.733  1.4233  1.1852  0.6854
  806MPD2     N11929   2.933   4.040  17.596  0.2826  0.0658 -0.0864
  806MPD2    H511930   2.887   4.123  17.632  1.3901  0.0205  1.4627
  806MPD2    N111931   2.813   3.842   0.281 -0.5842  0.1443  0.8266
  806MPD2    H711932   2.838   3.766   0.344  0.8730  0.1542  0.2503
  807MPD2     C11933   2.202   3.791   0.813 -0.3808  0.2966  0.0367
  807MPD2    C111934   2.307   3.847   0.881 -0.2439 -0.4666 -0.0996
  807MPD2    C211935   2.287   3.861   1.021 -0.5810  0.8612  0.2068
  807MPD2    C311936   2.183   3.807   1.090  0.5451 -0.7643  0.2888
  807MPD2    C411937   2.094   3.726   1.025 -0.1527 -0.0784 -0.3725
  807MPD2    C511938   2.100   3.730   0.884 -0.4875  0.3491 -0.2956
  807MPD2     H11939   2.358   3.923   1.074 -0.5381  0.3422  0.7533
  807MPD2    H111940   2.005   3.679   1.064 -0.8551  1.0294 -0.6324
  807MPD2    H211941   2.193   3.796   0.705  0.2600  2.2401  0.0722
  807MPD2    H311942   2.020   3.677   0.836 -0.6850  0.0941  0.3136
  807MPD2     N11943   2.164   3.834   1.231 -0.3765  0.5994  0.0492
  807MPD2    H511944   2.242   3.881   1.276  0.2377  2.1974 -2.6674
  807MPD2    N111945   2.421   3.902   0.823 -0.8167 -0.0188  0.1959
  807MPD2    H711946   2.474   3.962   0.885  0.1228 -2.9278  2.2277
  808MPD2     C11947   2.815   1.064   9.939 -0.7037  0.1550  0.4066
  808MPD2    C111948   2.941   1.016   9.911 -0.3872  0.2290 -0.2690
  808MPD2    C211949   3.051   1.098   9.923  0.8443 -0.3164  0.1476
  808MPD2    C311950   3.036   1.225   9.957 -0.5869 -0.6122  0.1725
  808MPD2    C411951   2.910   1.273   9.987 -0.0580  0.3707  0.6917
  808MPD2    C511952   2.802   1.193   9.986  0.3501 -0.0505 -0.2973
  808MPD2     H11953   3.149   1.059   9.898  1.0573  0.4883 -0.2520
  808MPD2    H111954   2.898   1.379  10.007  1.4010  0.6372  0.1414
  808MPD2    H211955   2.724   1.008   9.918 -0.7232 -0.1466  1.2975
  808MPD2    H311956   2.707   1.233  10.017 -0.0546 -1.1755 -0.0983
  808MPD2     N11957   3.146   1.318   9.961  0.2599 -0.0448  0.6448
  808MPD2    H511958   3.125   1.412   9.995  1.0328 -0.9751  3.7094
  808MPD2    N111959   2.970   0.884   9.860  0.4098  0.4383  0.4796
  808MPD2    H711960   3.062   0.854   9.832  0.6927 -0.5979  2.5288
  809MPD2     C11961   4.157   1.239   9.967  0.3460 -0.3410  0.1959
  809MPD2    C111962   4.128   1.357  10.030 -0.7433 -0.4598 -0.0325
  809MPD2    C211963   4.000   1.412  10.010 -0.1177 -0.0764 -0.4519
  809MPD2    C311964   3.898   1.337   9.950 -0.2250  0.3749  0.0259
  809MPD2    C411965   3.929   1.221   9.881  0.1172  0.2853  0.0427
  809MPD2    C511966   4.058   1.175   9.896 -0.1501  0.6074  0.7664
  809MPD2     H11967   3.972   1.507  10.054 -0.3821 -0.9349  1.2424
  809MPD2    H111968   3.860   1.164   9.821  1.5886 -0.1428 -1.2254
  809MPD2    H211969   4.254   1.192   9.979 -0.3835 -1.6069  1.0952
  809MPD2    H311970   4.087   1.077   9.860  3.2366  1.5963  0.7938
  809MPD2     N11971   3.761   1.376   9.939  0.0023 -0.3528  0.4023
  809MPD2    H511972   3.700   1.314   9.885  0.8809 -0.9633  0.1097
  809MPD2    N111973   4.214   1.428  10.121  0.2936 -0.0822 -0.2018
  809MPD2    H711974   4.173   1.505  10.173  1.7585 -0.2498  1.2021
  810MPD2     C11975   2.940   0.537  10.102 -0.3799  0.6171 -0.2945
  810MPD2    C111976   2.836   0.492  10.178  0.3270  0.6361 -0.4282
  810MPD2    C211977   2.782   0.551  10.282  0.4240 -0.1525 -0.3132
  810MPD2    C311978   2.839   0.674  10.318 -0.4486 -0.3796 -0.4775
  810MPD2    C411979   2.954   0.722  10.253  0.2113 -0.4950 -0.4474
  810MPD2    C511980   3.002   0.650  10.145 -0.4033 -0.0463  0.4750
  810MPD2     H11981   2.696   0.508  10.332  0.9281  1.6770  2.1158
  810MPD2    H111982   2.996   0.819  10.279 -0.6699 -0.4738  0.9289
  810MPD2    H211983   2.974   0.483  10.014  0.0002  0.0540  0.2010
  810MPD2    H311984   3.083   0.697  10.090 -0.8282 -0.4046 -0.4572
  810MPD2     N11985   2.787   0.745  10.432  0.0974 -0.3291  0.1617
  810MPD2    H511986   2.808   0.844  10.427 -0.4557 -0.1128  2.0434
  810MPD2    N111987   2.769   0.379  10.132  0.5108  0.2609 -0.3619
  810MPD2    H711988   2.785   0.355  10.035 -1.4173  0.2644 -0.6727
  811MPD2     C11989   2.088   0.294   9.651  0.3567  0.2720 -0.1765
  811MPD2    C111990   2.168   0.368   9.737  0.5498 -0.0386 -0.4569
  811MPD2    C211991   2.176   0.504   9.730  0.2591 -0.2624  0.2056
  811MPD2    C311992   2.109   0.570   9.634  0.1733 -1.0668  0.3276
  811MPD2    C411993   2.027   0.497   9.551  0.1186 -0.3871 -0.8402
  811MPD2    C511994   2.013   0.361   9.558 -0.0829 -0.6151  0.2821
  811MPD2     H11995   2.234   0.561   9.802 -1.5967 -0.4872  1.8838
  811MPD2    H111996   1.955   0.541   9.483 -1.5283 -2.3110 -0.3286
  811MPD2    H211997   2.090   0.185   9.655 -0.5975  0.2236 -0.9425
  811MPD2    H311998   1.953   0.304   9.487 -0.4391  1.1645 -0.8524
  811MPD2     N11999   2.127   0.710   9.634 -0.0757 -0.0382  0.1345
  811MPD2    H512000   2.194   0.748   9.700 -1.1341  3.8645 -1.0733
  811MPD2    N112001   2.252   0.290   9.822  0.0526  0.3786  0.0883
  811MPD2    H712002   2.241   0.189   9.822 -0.5481  0.4397  0.2345
  812MPD2     C12003   1.472   0.262  11.743  0.3683  0.0778 -0.1387
  812MPD2    C112004   1.468   0.354  11.845 -0.5359  0.6607 -0.3317
  812MPD2    C212005   1.525   0.333  11.973 -0.0028  0.6371  0.4364
  812MPD2    C312006   1.599   0.215  11.998 -0.2182 -0.6680 -0.9412
  812MPD2    C412007   1.604   0.125  11.884  0.3861  0.7216 -0.3852
  812MPD2    C512008   1.541   0.143  11.763 -1.1387 -0.0728  0.2163
  812MPD2     H12009   1.526   0.407  12.052  0.9606  0.6992  0.3584
  812MPD2    H112010   1.651   0.028  11.897 -0.6294  0.4451  1.1960
  812MPD2    H212011   1.420   0.281  11.650  0.0468 -0.9264 -0.1655
  812MPD2    H312012   1.545   0.066  11.686  0.8122  2.2458 -1.9987
  812MPD2     N12013   1.656   0.192  12.122 -0.1102  0.1643 -0.0767
  812MPD2    H512014   1.626   0.247  12.202 -1.4638  1.7804 -1.6967
  812MPD2    N112015   1.395   0.470  11.811  0.4698 -0.2745 -0.2704
  812MPD2    H712016   1.352   0.468  11.720 -1.8033 -2.3689  0.8706
  813MPD2     C12017   0.467   1.834  12.627 -0.0231  0.5456  0.4139
  813MPD2    C112018   0.499   1.966  12.613  0.1139  0.7362 -0.5613
  813MPD2    C212019   0.437   2.067  12.692  0.0484  0.2568 -0.3122
  813MPD2    C312020   0.356   2.026  12.792 -0.2582  0.4683 -0.3503
  813MPD2    C412021   0.329   1.893  12.810 -0.2716  0.2166  0.2153
  813MPD2    C512022   0.380   1.801  12.726 -0.0537 -0.6635  0.0537
  813MPD2     H12023   0.462   2.171  12.676 -1.4791  0.8395  1.1244
  813MPD2    H112024   0.250   1.865  12.879 -0.9002  2.3965  0.3869
  813MPD2    H212025   0.509   1.754  12.568  1.1088  3.4034 -2.6540
  813MPD2    H312026   0.355   1.697  12.743  0.9667 -1.1043 -1.0558
  813MPD2     N12027   0.308   2.121  12.884  0.4973  0.0284 -0.0704
  813MPD2    H512028   0.333   2.218  12.864 -1.0893  0.3715 -0.3821
  813MPD2    N112029   0.596   1.992  12.520  0.7223  0.3866  0.1816
  813MPD2    H712030   0.648   1.913  12.484  0.9406  1.0413 -0.9373
  814MPD2     C12031   0.846   3.430  12.068  0.1223  0.6157  0.9956
  814MPD2    C112032   0.921   3.449  11.953 -0.3048  0.1932  0.4231
  814MPD2    C212033   1.021   3.542  11.948 -0.0858 -0.1350 -0.1725
  814MPD2    C312034   1.050   3.610  12.060  0.7179  0.0390 -0.6386
  814MPD2    C412035   0.979   3.588  12.181 -0.7104 -0.3053 -0.2912
  814MPD2    C512036   0.869   3.502  12.179 -0.1110 -0.3808 -0.1087
  814MPD2     H12037   1.083   3.545  11.859 -1.8193  0.1270 -1.3677
  814MPD2    H112038   0.999   3.646  12.271 -0.6919 -1.3476  0.3831
  814MPD2    H212039   0.766   3.359  12.080 -0.2765  0.9444  0.2791
  814MPD2    H312040   0.795   3.497  12.258 -0.4787 -1.0233 -0.4919
  814MPD2     N12041   1.162   3.694  12.063  1.1067 -0.0830  0.7346
  814MPD2    H512042   1.209   3.707  12.152 -0.9586  0.9681  1.6685
  814MPD2    N112043   0.895   3.379  11.831  0.0416  0.0552  0.1479
  814MPD2    H712044   0.943   3.414  11.749  1.4002  0.1036  0.9668
  815MPD2     C12045   1.270   1.976  11.297 -0.0921 -0.1405 -0.1611
  815MPD2    C112046   1.232   1.850  11.344  0.3576 -0.1652  0.2470
  815MPD2    C212047   1.116   1.845  11.423 -0.0712  0.4162 -0.9020
  815MPD2    C312048   1.046   1.955  11.459  0.2018 -0.5512 -0.0882
  815MPD2    C412049   1.094   2.074  11.414 -0.1825  0.2908 -0.1825
  815MPD2    C512050   1.212   2.085  11.344 -0.2691  0.0449  0.2493
  815MPD2     H12051   1.085   1.748  11.459 -2.0655  0.2335 -3.1374
  815MPD2    H112052   1.057   2.171  11.446  1.4517  0.3913  1.3499
  815MPD2    H212053   1.352   1.989  11.227 -0.8719  0.7635 -0.8992
  815MPD2    H312054   1.251   2.183  11.320  0.8541 -0.8269 -1.4568
  815MPD2     N12055   0.933   1.937  11.547  0.0585  0.2997 -0.6661
  815MPD2    H512056   0.907   1.841  11.568 -0.9857  0.1978 -2.4058
  815MPD2    N112057   1.291   1.735  11.286 -0.3601 -0.4295  0.5159
  815MPD2    H712058   1.343   1.752  11.201 -0.4793  2.8706  1.1022
  816MPD2     C12059   1.392   1.018  17.005  0.8835 -0.5032 -0.3928
  816MPD2    C112060   1.504   1.097  17.015 -0.7495 -0.4741  0.2667
  816MPD2    C212061   1.624   1.047  16.963  0.2210 -0.4489 -0.6490
  816MPD2    C312062   1.625   0.920  16.902 -0.3801 -0.0990  0.5775
  816MPD2    C412063   1.511   0.841  16.905  0.4020 -0.2787  0.0049
  816MPD2    C512064   1.393   0.889  16.961  0.0706  0.2772  0.0692
  816MPD2     H12065   1.713   1.109  16.961  0.1161 -0.2166  1.9405
  816MPD2    H112066   1.504   0.744  16.858 -1.2596 -1.0368  1.8465
  816MPD2    H212067   1.296   1.050  17.045  0.7292 -0.3544 -0.8800
  816MPD2    H312068   1.296   0.841  16.955 -0.2551  1.0854 -1.0871
  816MPD2     N12069   1.739   0.856  16.862  0.2261 -0.0982 -0.3536
  816MPD2    H512070   1.729   0.757  16.843 -1.7764 -0.0387  0.4950
  816MPD2    N112071   1.479   1.230  17.049  0.1456 -0.0603 -0.4866
  816MPD2    H712072   1.382   1.259  17.058 -0.4148 -1.4840 -2.0094
  817MPD2     C12073   0.719   2.608   9.856  0.3795  0.0047  0.1990
  817MPD2    C112074   0.685   2.554   9.734 -0.3573  0.2177  0.5909
  817MPD2    C212075   0.579   2.606   9.668 -0.2488 -0.1684  0.5810
  817MPD2    C312076   0.497   2.709   9.714  0.2531 -0.5744 -0.9346
  817MPD2    C412077   0.540   2.762   9.837 -0.2603  0.0902 -0.9275
  817MPD2    C512078   0.646   2.712   9.912  0.0135 -0.3340  0.0685
  817MPD2     H12079   0.546   2.566   9.572 -1.6833  1.9928  0.1812
  817MPD2    H112080   0.491   2.844   9.889  1.1101  1.3325 -1.6137
  817MPD2    H212081   0.800   2.565   9.913  0.7559 -0.9918 -1.0890
  817MPD2    H312082   0.668   2.743  10.013 -0.3799 -3.1270  1.0020
  817MPD2     N12083   0.388   2.734   9.632  0.6603 -0.5155  0.2950
  817MPD2    H512084   0.369   2.683   9.547  0.8556  0.6073 -0.4284
  817MPD2    N112085   0.739   2.430   9.680 -0.2034 -0.1860  0.1499
  817MPD2    H712086   0.713   2.410   9.584 -0.3247  3.6502 -0.6118
  818MPD2     C12087   4.554   2.755  10.351 -0.2473  0.1670 -0.0431
  818MPD2    C112088   4.453   2.708  10.430  0.1616 -0.0758 -0.7811
  818MPD2    C212089   4.406   2.585  10.388  1.2131 -0.3023 -0.0741
  818MPD2    C312090   4.444   2.519  10.275  0.5031  0.0378 -0.1153
  818MPD2    C412091   4.549   2.560  10.207  0.0762  0.5275  0.3150
  818MPD2    C512092   4.605   2.677  10.252 -0.7062 -0.2628  0.2631
  818MPD2     H12093   4.317   2.554  10.442 -0.3211 -1.3978 -3.2666
  818MPD2    H112094   4.595   2.504  10.127  0.8652  1.4466  0.1275
  818MPD2    H212095   4.610   2.843  10.377  1.1931 -0.8710  0.3651
  818MPD2    H312096   4.701   2.701  10.207 -1.1837  2.5398  0.7750
  818MPD2     N12097   4.362   2.412  10.229 -0.1546  0.7768 -0.0144
  818MPD2    H512098   4.386   2.375  10.138 -0.0979 -1.6014  0.9620
  818MPD2    N112099   4.395   2.778  10.540 -0.5305  0.1491  0.7988
  818MPD2    H712100   4.305   2.745  10.575 -2.3330  3.1494 -0.9583
  819MPD2     C12101   3.044   4.533  15.456 -0.8341  0.2018 -0.0358
  819MPD2    C112102   3.002   4.403  15.480  0.5565  0.0446  0.0311
  819MPD2    C212103   3.078   4.331  15.567 -0.9345  0.5501 -0.4148
  819MPD2    C312104   3.184   4.384  15.640 -0.2031 -0.4303  0.0135
  819MPD2    C412105   3.214   4.520  15.618 -0.4112 -0.4764  0.0698
  819MPD2    C512106   3.149   4.585  15.520  0.1320 -0.3200 -0.2133
  819MPD2     H12107   3.060   4.227  15.589  1.2484 -0.0220 -1.3567
  819MPD2    H112108   3.290   4.573  15.672 -1.2826 -2.2523  3.0362
  819MPD2    H212109   2.990   4.597  15.388 -0.4109 -0.3297 -0.8861
  819MPD2    H312110   3.177   4.686  15.493 -1.6718 -0.7780 -3.8530
  819MPD2     N12111   3.245   4.297  15.732  0.2284  0.2038  0.0564
  819MPD2    H512112   3.205   4.203  15.738 -2.5951  1.3430 -0.9672
  819MPD2    N112113   2.892   4.363  15.395  0.0708  1.1119 -0.4119
  819MPD2    H712114   2.854   4.427  15.326  2.0716  1.3831 -1.2585
  820MPD2     C12115   2.216   4.482  14.690 -0.3403  0.6491 -1.1319
  820MPD2    C112116   2.234   4.537  14.813  0.2866 -0.3852  0.1257
  820MPD2    C212117   2.316   4.465  14.900 -0.2392 -0.8974  1.1206
  820MPD2    C312118   2.378   4.341  14.863 -0.6014 -0.4652  0.4850
  820MPD2    C412119   2.363   4.293  14.738 -0.2121 -0.5548 -0.3764
  820MPD2    C512120   2.282   4.369  14.658  0.2691  0.4076 -0.1870
  820MPD2     H12121   2.345   4.500  14.998 -2.1053  2.4250  0.4807
  820MPD2    H112122   2.402   4.196  14.710 -1.6764 -1.3265  0.2804
  820MPD2    H212123   2.151   4.533  14.619  0.5673 -0.4833 -2.7706
  820MPD2    H312124   2.256   4.330  14.561 -0.3764  0.3495  0.0081
  820MPD2     N12125   2.464   4.273  14.951 -0.2924  0.3312 -0.2587
  820MPD2    H512126   2.505   4.184  14.924 -1.3669 -0.0189 -0.7071
  820MPD2    N112127   2.170   4.655  14.839 -0.2547  0.0716 -0.4612
  820MPD2    H712128   2.096   4.675  14.772  0.3888  0.5749 -1.0240
  821MPD2     C12129   2.683   0.839  13.455 -0.8704  0.2481 -0.4446
  821MPD2    C112130   2.817   0.869  13.489  0.0003  0.7872  0.0579
  821MPD2    C212131   2.911   0.897  13.394 -0.3567 -0.0163 -1.1197
  821MPD2    C312132   2.868   0.892  13.262 -0.4962  0.2387  0.5002
  821MPD2    C412133   2.740   0.859  13.235 -0.6594  0.1368  0.0104
  821MPD2    C512134   2.640   0.843  13.326  0.3672 -0.3192 -0.1164
  821MPD2     H12135   3.012   0.908  13.432 -0.3747  1.7003 -1.5702
  821MPD2    H112136   2.713   0.856  13.130 -2.1209  2.0506  0.3188
  821MPD2    H212137   2.605   0.822  13.528 -0.8958 -0.2348 -0.5799
  821MPD2    H312138   2.534   0.838  13.304  0.1295  2.1745  0.4593
  821MPD2     N12139   2.959   0.916  13.156 -0.1169  0.3127 -0.4854
  821MPD2    H512140   2.926   0.910  13.060  0.4733  1.3588 -0.7568
  821MPD2    N112141   2.869   0.854  13.620 -0.6215  0.0182  0.2301
  821MPD2    H712142   2.965   0.880  13.637 -0.5791  1.1849 -1.8822
  822MPD2     C12143   4.041   1.267  15.554  0.5754  0.8034 -0.3252
  822MPD2    C112144   4.015   1.235  15.686  0.3828  0.1059  0.2577
  822MPD2    C212145   3.991   1.337  15.777 -0.1116  0.6939 -0.3246
  822MPD2    C312146   3.984   1.469  15.742 -0.1666  0.2893 -0.7992
  822MPD2    C412147   3.991   1.495  15.607 -0.3408 -0.1708 -0.4059
  822MPD2    C512148   4.023   1.397  15.516  0.3646 -0.5669 -0.8206
  822MPD2     H12149   3.986   1.308  15.881  2.8982  0.4332 -0.2473
  822MPD2    H112150   3.983   1.596  15.569  1.1088  1.0102  2.3862
  822MPD2    H212151   4.051   1.200  15.469 -2.4361  0.3130 -0.2911
  822MPD2    H312152   4.015   1.422  15.411 -0.6322 -3.3891 -1.4228
  822MPD2     N12153   3.967   1.564  15.837 -0.0402 -0.6298 -0.2476
  822MPD2    H512154   3.952   1.532  15.932  0.1531 -2.7596 -0.9455
  822MPD2    N112155   4.038   1.103  15.742  0.7787 -0.3563 -0.1498
  822MPD2    H712156   4.022   1.098  15.842 -0.8500 -2.1015 -0.4897
  823MPD2     C12157   3.553   1.818  16.518 -0.4228  0.4250  0.4501
  823MPD2    C112158   3.621   1.724  16.444  0.4938 -0.2170 -0.1174
  823MPD2    C212159   3.628   1.588  16.478 -1.0400 -0.5944  0.4002
  823MPD2    C312160   3.571   1.543  16.596  0.5850  0.1112 -0.1273
  823MPD2    C412161   3.507   1.635  16.676 -0.2223  0.2550 -0.1169
  823MPD2    C512162   3.496   1.767  16.633  0.4518  0.4451  0.0612
  823MPD2     H12163   3.681   1.517  16.416  0.9541 -0.8961  2.4705
  823MPD2    H112164   3.477   1.598  16.773  0.8559 -1.6682 -0.5294
  823MPD2    H212165   3.557   1.924  16.494 -0.0489  0.7450  1.9656
  823MPD2    H312166   3.448   1.835  16.703  2.5795  2.1779 -0.1669
  823MPD2     N12167   3.564   1.407  16.638  0.0854 -0.1163 -0.1802
  823MPD2    H512168   3.506   1.387  16.718 -0.6999 -0.6678 -0.8903
  823MPD2    N112169   3.694   1.785  16.342 -0.0412  0.3802 -0.2349
  823MPD2    H712170   3.702   1.886  16.343 -1.1052  0.4700 -1.4977
  824MPD2     C12171   4.550   0.353  15.931  0.1188  0.0185 -0.2323
  824MPD2    C112172   4.499   0.414  15.820 -0.1836 -0.4735  0.0258
  824MPD2    C212173   4.530   0.343  15.702 -1.2935 -0.3082  0.3764
  824MPD2    C312174   4.610   0.228  15.693 -0.6536 -0.1414 -0.6609
  824MPD2    C412175   4.655   0.179  15.808 -0.2116 -0.2837  0.3300
  824MPD2    C512176   4.620   0.233  15.927  0.8790  0.0091 -0.4684
  824MPD2     H12177   4.498   0.385  15.607 -0.0922  1.1679  0.6277
  824MPD2    H112178   4.723   0.094  15.806 -0.8864 -0.8381  1.1157
  824MPD2    H212179   4.553   0.400  16.029  2.5091 -1.6448  0.4823
  824MPD2    H312180   4.663   0.187  16.016 -0.1079 -0.2356 -0.1237
  824MPD2     N12181   4.639   0.167  15.566  0.3221 -0.0002 -0.7272
  824MPD2    H512182   4.606   0.220  15.486 -1.6751 -0.8190 -0.4739
  824MPD2    N112183   4.423   0.535  15.836 -0.0240  0.8412  0.1580
  824MPD2    H712184   4.408   0.562  15.933  1.1676 -0.8719  0.8236
  825MPD2     C12185   0.274   0.349  14.837 -0.1992 -0.1972 -0.4465
  825MPD2    C112186   0.247   0.384  14.971  0.2290 -0.1623  0.6268
  825MPD2    C212187   0.276   0.512  15.014 -0.3190  0.4061 -0.1561
  825MPD2    C312188   0.316   0.606  14.915 -0.0467 -0.8098 -0.2640
  825MPD2    C412189   0.328   0.572  14.785  0.5669 -0.4123 -0.0210
  825MPD2    C512190   0.310   0.447  14.750 -0.2525 -0.0649 -0.2571
  825MPD2     H12191   0.255   0.550  15.113  0.9243  1.2365 -0.2108
  825MPD2    H112192   0.373   0.641  14.714  0.4341  0.7623  1.0372
  825MPD2    H212193   0.270   0.249  14.796  1.1736 -0.7862  0.8575
  825MPD2    H312194   0.322   0.418  14.647 -0.8303 -2.0579  0.2543
  825MPD2     N12195   0.340   0.739  14.944 -0.4551  0.1995 -0.1247
  825MPD2    H512196   0.368   0.796  14.864 -2.4364 -1.3983 -1.9616
  825MPD2    N112197   0.207   0.279  15.063  0.7573 -0.4526  0.4320
  825MPD2    H712198   0.203   0.183  15.030  1.3267  0.1789 -1.5027
  826MPD2     C12199   4.252   4.678  13.378  0.0098  0.3345  0.3854
  826MPD2    C112200   4.323   0.059  13.349  0.3126  1.2634  0.5475
  826MPD2    C212201   4.269   0.178  13.401  0.7113  0.3100  0.7465
  826MPD2    C312202   4.136   0.179  13.450  0.3534 -0.0811 -0.5471
  826MPD2    C412203   4.066   0.063  13.470 -0.2202  0.0058  0.6954
  826MPD2    C512204   4.129   4.683  13.435  0.2090  0.4527  0.5189
  826MPD2     H12205   4.334   0.264  13.400  2.3064 -0.8882  1.2596
  826MPD2    H112206   3.964   0.056  13.506 -1.4055 -1.4205 -2.8883
  826MPD2    H212207   4.294   4.584  13.346  1.5971  1.1747 -0.0016
  826MPD2    H312208   4.082   4.585  13.437  0.7552  0.1595 -1.5515
  826MPD2     N12209   4.076   0.292  13.504  0.1106  0.1910  0.1968
  826MPD2    H512210   3.996   0.288  13.566 -1.9315 -0.9731 -2.5127
  826MPD2    N112211   4.443   0.040  13.282  0.0434 -0.3433  0.0438
  826MPD2    H712212   4.484   4.682  13.280  0.5532 -0.1442  1.1609
  827MPD2     C12213   0.240   1.104   9.748  0.0395 -0.2892 -0.1805
  827MPD2    C112214   0.280   0.970   9.752  0.8863 -0.0958  0.3440
  827MPD2    C212215   0.222   0.882   9.657 -0.1931  0.2218  0.5018
  827MPD2    C312216   0.131   0.920   9.560  0.3016 -0.3609  0.2359
  827MPD2    C412217   0.090   1.055   9.563 -0.2005  0.1402  0.2654
  827MPD2    C512218   0.142   1.134   9.657  0.2337  0.0345  0.0263
  827MPD2     H12219   0.252   0.778   9.662 -1.4478 -0.2502 -2.0139
  827MPD2    H112220   0.007   1.086   9.501 -0.2225  1.5582  1.0065
  827MPD2    H212221   0.270   1.181   9.817  1.3129  1.3178 -2.5484
  827MPD2    H312222   0.102   1.235   9.646  0.6164  0.1579 -0.2513
  827MPD2     N12223   0.080   0.828   9.468 -0.0187  0.0030  0.6748
  827MPD2    H512224   0.116   0.734   9.480  1.9209  0.7443  0.6650
  827MPD2    N112225   0.372   0.933   9.861 -0.2944 -0.1760  0.2468
  827MPD2    H712226   0.393   1.007   9.927  0.3302 -0.8656  0.8132
  828MPD2     C12227   3.854   1.474  12.036  0.4584  0.0541 -0.6674
  828MPD2    C112228   3.758   1.393  11.978  0.1527 -0.4120 -0.1419
  828MPD2    C212229   3.786   1.333  11.857  0.5668  0.7021  0.2368
  828MPD2    C312230   3.913   1.348  11.795 -0.4446  0.8995 -0.1628
  828MPD2    C412231   4.001   1.439  11.851 -0.2412  0.2687 -0.0005
  828MPD2    C512232   3.973   1.494  11.974 -0.3846 -0.0950  0.3400
  828MPD2     H12233   3.713   1.261  11.822  1.5537 -0.4318  0.4975
  828MPD2    H112234   4.097   1.467  11.809  0.9514 -1.6142  1.4308
  828MPD2    H212235   3.830   1.547  12.113 -1.1967 -1.5630  0.3304
  828MPD2    H312236   4.047   1.563  12.014  1.2471 -0.8087 -1.4448
  828MPD2     N12237   3.951   1.297  11.671 -0.0097 -0.4430 -0.3856
  828MPD2    H512238   4.041   1.319  11.630 -0.5308 -0.2018 -1.4143
  828MPD2    N112239   3.624   1.387  12.020  0.3431 -0.2117  0.3233
  828MPD2    H712240   3.553   1.342  11.964  0.5969 -0.8087  0.4761
  829MPD2     C12241   2.823   1.441  11.472 -0.0361  0.3531 -0.1556
  829MPD2    C112242   2.764   1.480  11.592 -0.2181 -0.5188 -0.0873
  829MPD2    C212243   2.843   1.497  11.711 -0.1714 -0.0894  0.3883
  829MPD2    C312244   2.979   1.475  11.700  0.1523 -0.0833  0.1141
  829MPD2    C412245   3.036   1.446  11.576 -0.5191 -0.0545 -0.0972
  829MPD2    C512246   2.955   1.424  11.467 -0.2843 -0.2275 -0.1377
  829MPD2     H12247   2.802   1.527  11.807 -0.6329  1.0709 -0.1592
  829MPD2    H112248   3.143   1.438  11.560 -0.7423 -2.7520 -0.3531
  829MPD2    H212249   2.764   1.414  11.385 -1.6055  1.6264  0.5104
  829MPD2    H312250   2.991   1.382  11.373  1.3450  1.4087 -0.2447
  829MPD2     N12251   3.053   1.479  11.823  0.2598  0.0440 -0.0570
  829MPD2    H512252   3.003   1.495  11.909 -0.3916  1.5480 -0.7143
  829MPD2    N112253   2.619   1.480  11.593 -0.0427 -0.1386 -0.1654
  829MPD2    H712254   2.573   1.469  11.503  0.5873  0.2014 -0.5257
  830MPD2     C12255   3.643   3.721  15.691  1.3159  0.1201 -0.5230
  830MPD2    C112256   3.530   3.795  15.658 -0.5551 -0.9726 -0.0827
  830MPD2    C212257   3.503   3.798  15.522  0.1961  0.1117 -0.0444
  830MPD2    C312258   3.584   3.739  15.428 -0.0876  0.2760  0.2155
  830MPD2    C412259   3.675   3.648  15.466 -0.0324 -0.3090  0.4702
  830MPD2    C512260   3.706   3.648  15.598 -0.1785 -0.6677  0.0397
  830MPD2     H12261   3.424   3.869  15.500  0.3117 -0.1275 -1.2387
  830MPD2    H112262   3.734   3.584  15.401 -0.7315 -0.5005  0.0171
  830MPD2    H212263   3.687   3.710  15.789  0.2108 -0.0481 -0.0491
  830MPD2    H312264   3.793   3.592  15.632  0.3879  0.3343  0.2590
  830MPD2     N12265   3.568   3.751  15.287 -0.2457  0.1614 -0.1858
  830MPD2    H512266   3.641   3.703  15.235  1.0535  2.6437 -0.6782
  830MPD2    N112267   3.464   3.887  15.750 -0.6741 -0.1726  0.5571
  830MPD2    H712268   3.413   3.968  15.716  0.3580 -0.6005 -1.9873
  831MPD2     C12269   4.181   1.523  16.207 -0.4443  0.3813  0.4206
  831MPD2    C112270   4.180   1.417  16.118  0.2545 -0.4542  0.6409
  831MPD2    C212271   4.072   1.330  16.120  0.3660  0.8942 -0.7031
  831MPD2    C312272   3.963   1.353  16.202  0.4399 -0.3165 -0.0940
  831MPD2    C412273   3.974   1.454  16.299 -0.2776 -0.8257  0.1172
  831MPD2    C512274   4.077   1.543  16.293  0.2353  0.2139  0.2432
  831MPD2     H12275   4.064   1.245  16.053  0.8273  0.3528 -0.0663
  831MPD2    H112276   3.900   1.473  16.377  0.5682  2.1169  0.2278
  831MPD2    H212277   4.262   1.595  16.205  0.3535 -0.5015  1.0747
  831MPD2    H312278   4.080   1.637  16.347  3.4098  0.3975 -0.2591
  831MPD2     N12279   3.842   1.278  16.190 -0.2951  0.2638 -0.7948
  831MPD2    H512280   3.776   1.305  16.262 -0.2422 -2.7549  0.3760
  831MPD2    N112281   4.267   1.402  16.009 -0.1933 -0.1396 -0.0914
  831MPD2    H712282   4.273   1.308  15.969  0.6485 -0.2974  0.3994
  832MPD2     C12283   2.598   2.356  17.167 -0.9257 -0.2900 -0.3675
  832MPD2    C112284   2.590   2.466  17.089  0.7452 -0.2027 -0.5773
  832MPD2    C212285   2.481   2.481  16.992 -0.7755  0.5275 -0.0360
  832MPD2    C312286   2.385   2.383  16.979  0.4104 -0.7457  0.2251
  832MPD2    C412287   2.400   2.269  17.061 -0.1065 -0.1527 -0.2125
  832MPD2    C512288   2.510   2.249  17.141  0.4654  0.2288 -0.5046
  832MPD2     H12289   2.490   2.571  16.932  2.2942 -0.9039 -1.7188
  832MPD2    H112290   2.333   2.185  17.047 -2.0148  0.9639  2.2770
  832MPD2    H212291   2.678   2.349  17.240  0.7208  2.8319 -1.8465
  832MPD2    H312292   2.524   2.158  17.198  0.6197  1.4698  1.4285
  832MPD2     N12293   2.273   2.383  16.895  0.2191  0.3989 -0.1847
  832MPD2    H512294   2.221   2.298  16.911  1.6238 -1.1067 -3.4398
  832MPD2    N112295   2.697   2.552  17.102 -0.1675 -0.9124 -0.2547
  832MPD2    H712296   2.776   2.517  17.155  2.4116 -0.3590 -3.7461
  833MPD2     C12297   4.139   4.105  12.704  0.0428 -0.0122 -0.9191
  833MPD2    C112298   4.201   4.141  12.588  0.5262 -0.6686  0.4249
  833MPD2    C212299   4.312   4.074  12.547  0.2989  0.2395  0.5155
  833MPD2    C312300   4.355   3.960  12.615 -0.3311  0.0997  0.9089
  833MPD2    C412301   4.285   3.921  12.722  0.1914  0.3128  0.0606
  833MPD2    C512302   4.188   3.997  12.773 -0.0933 -0.3085  0.1975
  833MPD2     H12303   4.350   4.095  12.448 -0.9013  0.9042  0.2025
  833MPD2    H112304   4.304   3.834  12.785 -0.5359  0.6833  0.7972
  833MPD2    H212305   4.052   4.159  12.741  0.2227 -0.0720 -0.4022
  833MPD2    H312306   4.140   3.949  12.858  2.9574 -1.8436  1.0690
  833MPD2     N12307   4.462   3.875  12.571 -0.0563 -0.4071  0.1546
  833MPD2    H512308   4.469   3.786  12.618  0.2445 -0.2244  0.4553
  833MPD2    N112309   4.144   4.257  12.521  0.5812  0.1441  0.2160
  833MPD2    H712310   4.053   4.285  12.558 -0.2067  0.2368 -1.7926
  834MPD2     C12311   4.091   3.200  12.233 -0.1721  0.4293 -0.0649
  834MPD2    C112312   4.092   3.301  12.139  0.0126  0.2649 -0.2664
  834MPD2    C212313   4.191   3.400  12.155  0.5934  0.0851  0.4406
  834MPD2    C312314   4.296   3.379  12.236  0.0131 -0.7366 -0.1102
  834MPD2    C412315   4.303   3.264  12.310  0.4530  0.0844 -0.4544
  834MPD2    C512316   4.194   3.182  12.317  0.6671 -1.1903 -0.3312
  834MPD2     H12317   4.181   3.496  12.105  3.3968 -0.8195 -1.8438
  834MPD2    H112318   4.394   3.255  12.369  0.8495  1.8347 -0.8097
  834MPD2    H212319   4.020   3.118  12.232 -0.9836  1.1862 -2.9293
  834MPD2    H312320   4.199   3.100  12.387  2.4022 -1.6138 -0.9466
  834MPD2     N12321   4.403   3.474  12.230 -0.6901  0.3367 -0.2521
  834MPD2    H512322   4.397   3.548  12.161 -2.6361  0.0803 -0.3381
  834MPD2    N112323   3.986   3.310  12.040 -0.2298 -1.0736 -0.3295
  834MPD2    H712324   3.923   3.230  12.041 -0.5444 -0.8241  0.1011
  835MPD2     C12325   4.355   1.120  10.563 -0.1792  0.5222 -0.3947
  835MPD2    C112326   4.249   1.135  10.652 -0.0808 -0.0776  0.2388
  835MPD2    C212327   4.257   1.068  10.769 -0.4870 -0.2684  0.6335
  835MPD2    C312328   4.376   0.990  10.807  0.0931 -0.6644  0.0209
  835MPD2    C412329   4.486   1.006  10.729 -0.2067 -0.1901  0.0888
  835MPD2    C512330   4.470   1.069  10.611  0.2280 -0.2900  0.3902
  835MPD2     H12331   4.169   1.055  10.831  0.2585 -1.1996  1.4907
  835MPD2    H112332   4.586   0.983  10.763 -0.5766  0.4268  1.5952
  835MPD2    H212333   4.352   1.159  10.462  1.5945  0.5458 -0.4513
  835MPD2    H312334   4.564   1.083  10.558 -0.5711  0.8301 -0.6984
  835MPD2     N12335   4.388   0.916  10.927 -0.3038 -0.3563 -0.3284
  835MPD2    H512336   4.470   0.860  10.948 -1.7138 -2.0999  0.5600
  835MPD2    N112337   4.126   1.198  10.611  0.2226 -0.2137 -0.6732
  835MPD2    H712338   4.051   1.216  10.676  0.8718 -1.4347  0.4272
  836MPD2     C12339   3.799   0.808  11.486  0.0774 -0.1273  0.2439
  836MPD2    C112340   3.923   0.820  11.525 -0.6440 -0.0480 -0.4339
  836MPD2    C212341   3.951   0.865  11.656 -0.0534  0.0449  0.3036
  836MPD2    C312342   3.850   0.904  11.742  0.8479  0.4939 -0.3763
  836MPD2    C412343   3.717   0.898  11.700  0.2995  0.6645  0.4308
  836MPD2    C512344   3.695   0.844  11.572  0.6364 -0.3555 -0.6260
  836MPD2     H12345   4.055   0.872  11.687  0.5810 -1.9792 -1.3522
  836MPD2    H112346   3.636   0.939  11.758 -0.6739 -1.4374  0.5489
  836MPD2    H212347   3.796   0.769  11.385 -0.3222  1.1524 -0.2363
  836MPD2    H312348   3.592   0.838  11.540  0.4704 -3.6613  0.6177
  836MPD2     N12349   3.862   0.962  11.869 -0.6598 -0.2467 -0.3664
  836MPD2    H512350   3.778   0.968  11.927  0.3568  2.5416  0.8340
  836MPD2    N112351   4.033   0.782  11.433  0.0159  0.0112 -0.0458
  836MPD2    H712352   4.004   0.752  11.341  2.1095 -3.4932  0.4194
  837MPD2     C12353   2.377   1.303  10.003 -0.6178  0.1922 -0.2426
  837MPD2    C112354   2.244   1.303   9.951  0.1006  0.3047 -0.0788
  837MPD2    C212355   2.152   1.390  10.010 -0.4915 -0.3618  0.1153
  837MPD2    C312356   2.193   1.484  10.101  0.2990 -0.5887 -0.9485
  837MPD2    C412357   2.325   1.486  10.141 -0.0937 -0.8223  0.7639
  837MPD2    C512358   2.412   1.395  10.091 -0.3323 -0.0953  0.5152
  837MPD2     H12359   2.052   1.377   9.970  0.3623 -0.7884 -1.9117
  837MPD2    H112360   2.362   1.553  10.218 -1.5839  1.5671 -0.6085
  837MPD2    H212361   2.449   1.230   9.969  2.0940  1.1561  3.4632
  837MPD2    H312362   2.517   1.394  10.119 -0.2956  1.2698  0.4154
  837MPD2     N12363   2.096   1.574  10.161  0.1083 -0.2911 -0.3625
  837MPD2    H512364   1.997   1.558  10.142 -0.0385 -0.2957  0.3931
  837MPD2    N112365   2.212   1.211   9.845  0.5167 -0.5638 -0.1307
  837MPD2    H712366   2.116   1.208   9.812  0.6360 -1.6781 -0.3642
  838MPD2     C12367   0.971   4.289  11.678 -0.1971 -0.4120 -0.1346
  838MPD2    C112368   0.911   4.166  11.663  0.2444 -0.6471 -0.7599
  838MPD2    C212369   0.820   4.122  11.758 -0.0861 -0.2351  0.4490
  838MPD2    C312370   0.776   4.209  11.854  0.4068 -0.9076  0.8809
  838MPD2    C412371   0.823   4.337  11.859  0.0409  0.5621 -0.0777
  838MPD2    C512372   0.918   4.373  11.773  0.0207  0.0698  0.1034
  838MPD2     H12373   0.802   4.017  11.737  1.5611 -0.6308  1.0318
  838MPD2    H112374   0.798   4.404  11.941 -0.7821 -0.0021  0.1265
  838MPD2    H212375   1.050   4.330  11.617  0.9999 -0.9793  1.0299
  838MPD2    H312376   0.962   4.472  11.775 -0.9476  0.4636  1.6046
  838MPD2     N12377   0.684   4.157  11.944 -0.3266 -0.1861 -0.3522
  838MPD2    H512378   0.672   4.058  11.924  1.9964 -0.3496 -0.8812
  838MPD2    N112379   0.942   4.076  11.550  0.3782  0.1718 -0.2587
  838MPD2    H712380   0.876   3.999  11.545 -1.1758  1.4853  0.0070
  839MPD2     C12381   0.505   3.480  11.560 -0.2823  0.0383 -0.0516
  839MPD2    C112382   0.526   3.468  11.419  0.5375 -0.4937  0.2163
  839MPD2    C212383   0.629   3.533  11.361 -0.5728 -0.1188  0.2929
  839MPD2    C312384   0.706   3.617  11.434 -0.5571 -0.7632  0.1685
  839MPD2    C412385   0.688   3.622  11.568 -0.1676  0.3327 -0.4645
  839MPD2    C512386   0.588   3.557  11.633  0.2611  0.2630  0.1740
  839MPD2     H12387   0.643   3.538  11.253  0.7163 -0.5618  0.4398
  839MPD2    H112388   0.743   3.695  11.625 -1.0882  0.0354  0.7964
  839MPD2    H212389   0.422   3.428  11.608  0.9577 -1.3429  0.6223
  839MPD2    H312390   0.572   3.572  11.739 -0.3834  0.7794  0.0061
  839MPD2     N12391   0.810   3.694  11.383  0.7121 -0.0001 -0.7155
  839MPD2    H512392   0.821   3.778  11.438 -1.4799 -0.3981  0.3552
  839MPD2    N112393   0.450   3.376  11.342  0.2625  0.3356  0.6167
  839MPD2    H712394   0.479   3.364  11.246 -0.9000 -1.5811  0.4969
  840MPD2     C12395   0.947   1.255   9.935 -0.1769  0.0571 -0.0447
  840MPD2    C112396   0.881   1.217  10.051 -0.1768  0.3779  0.1278
  840MPD2    C212397   0.898   1.305  10.165 -0.2337 -0.1085 -0.0490
  840MPD2    C312398   0.981   1.413  10.167  0.0030  0.6739 -0.0561
  840MPD2    C412399   1.039   1.447  10.047 -0.0800 -0.1005 -0.1366
  840MPD2    C512400   1.023   1.372   9.933 -0.4018 -0.1528 -0.6680
  840MPD2     H12401   0.853   1.283  10.261  0.6966  0.3086  0.4837
  840MPD2    H112402   1.087   1.544  10.041  2.5650 -1.3983  0.1488
  840MPD2    H212403   0.937   1.197   9.844 -0.8581  1.6988 -1.0143
  840MPD2    H312404   1.066   1.407   9.840 -0.0956 -1.9895 -1.2043
  840MPD2     N12405   1.007   1.493  10.274 -0.5900 -0.2070  0.4700
  840MPD2    H512406   1.052   1.582  10.254  0.7846 -1.4856 -2.0891
  840MPD2    N112407   0.797   1.103  10.051 -0.0677 -0.2900  0.2012
  840MPD2    H712408   0.800   1.044   9.968 -0.2985  1.4180 -1.0248
  841MPD2     C12409   0.981   0.927  14.714 -0.4901  0.7727  0.0542
  841MPD2    C112410   0.969   0.988  14.591  0.0872  0.2393 -0.3259
  841MPD2    C212411   1.028   1.115  14.581  0.1412 -0.5048 -0.0436
  841MPD2    C312412   1.076   1.183  14.689  0.0758  0.5702  0.0490
  841MPD2    C412413   1.062   1.126  14.814  0.6819 -0.4580  0.4031
  841MPD2    C512414   1.014   1.001  14.827 -0.2622  0.0194  0.7187
  841MPD2     H12415   1.036   1.158  14.482  2.0484  0.4295  0.5105
  841MPD2    H112416   1.081   1.175  14.909  0.1378  0.7951 -0.1339
  841MPD2    H212417   0.955   0.822  14.722 -0.1930  0.8951  2.5306
  841MPD2    H312418   1.004   0.961  14.928  1.4852  0.4280  1.0525
  841MPD2     N12419   1.112   1.315  14.673  0.1062 -0.5205  0.0355
  841MPD2    H512420   1.070   1.362  14.594 -2.0970 -2.3791  0.0978
  841MPD2    N112421   0.911   0.922  14.472  0.3965  0.1174 -0.2763
  841MPD2    H712422   0.922   0.967  14.382 -3.2360  0.1666 -0.7066
  842MPD2     C12423   1.785   2.689  16.365  0.1208  0.5961 -0.3012
  842MPD2    C112424   1.666   2.619  16.357 -0.4952 -0.2638  0.1984
  842MPD2    C212425   1.618   2.559  16.472 -0.1555 -0.7853 -0.1079
  842MPD2    C312426   1.691   2.548  16.588 -0.1225 -0.0121 -0.3644
  842MPD2    C412427   1.810   2.620  16.595  0.3263 -0.2631  0.0054
  842MPD2    C512428   1.854   2.692  16.482 -0.1726 -0.0799 -0.3980
  842MPD2     H12429   1.523   2.506  16.474  0.4395 -1.8264  0.5369
  842MPD2    H112430   1.868   2.619  16.686  1.3159 -0.5567 -0.6287
  842MPD2    H212431   1.820   2.754  16.286  1.3511  2.4618  1.7612
  842MPD2    H312432   1.941   2.756  16.493 -0.8643  1.1903 -2.3330
  842MPD2     N12433   1.642   2.475  16.699 -0.7151 -0.7755  0.6811
  842MPD2    H512434   1.691   2.487  16.787  0.4819 -1.7500  0.1447
  842MPD2    N112435   1.597   2.622  16.236  0.0388  0.7781 -0.1840
  842MPD2    H712436   1.629   2.671  16.153  1.5469 -0.0628 -0.0918
  843MPD2     C12437   3.799   2.928  17.533  0.1468 -0.2604 -0.2915
  843MPD2    C112438   3.930   2.913  17.585 -0.2020 -0.0718  0.0313
  843MPD2    C212439   4.038   2.994  17.535  1.1162  0.4272  0.1714
  843MPD2    C312440   4.005   3.099  17.444 -0.0913  1.2677 -0.3250
  843MPD2    C412441   3.873   3.118  17.402  0.3771  0.2880 -0.0769
  843MPD2    C512442   3.775   3.028  17.446  0.2852 -0.2395 -0.4244
  843MPD2     H12443   4.136   2.990  17.581  0.3021  0.3064  1.9029
  843MPD2    H112444   3.851   3.200  17.336  3.3025 -1.3867 -3.1509
  843MPD2    H212445   3.717   2.862  17.558 -2.0461  1.9146 -1.6274
  843MPD2    H312446   3.674   3.041  17.410  1.3116  1.4866 -2.6773
  843MPD2     N12447   4.098   3.200  17.400 -0.3136 -0.3075 -0.0859
  843MPD2    H512448   4.064   3.277  17.344  1.7688  1.3370  0.8893
  843MPD2    N112449   3.952   2.821  17.689  0.6027 -0.0670  0.1721
  843MPD2    H712450   3.868   2.780  17.730  1.1337  0.1030  1.4231
  844MPD2     C12451   2.077   1.509  16.418 -0.4764 -0.5210  0.8805
  844MPD2    C112452   2.175   1.566  16.343  0.0728  0.6407 -0.0720
  844MPD2    C212453   2.230   1.687  16.391  0.3733 -0.2739  0.3766
  844MPD2    C312454   2.199   1.736  16.523 -0.1114  0.3317 -0.0997
  844MPD2    C412455   2.098   1.675  16.592 -0.8117  0.5496 -0.5302
  844MPD2    C512456   2.035   1.567  16.537 -0.2335 -0.3786  0.5490
  844MPD2     H12457   2.293   1.743  16.323  0.3719  0.6124  1.1125
  844MPD2    H112458   2.060   1.703  16.690 -0.9445  0.8184 -0.6602
  844MPD2    H212459   2.030   1.418  16.382 -1.7099  1.1941 -1.8054
  844MPD2    H312460   1.954   1.514  16.584  0.9677 -0.7775  2.1575
  844MPD2     N12461   2.263   1.849  16.577  0.5906 -0.2079  0.0486
  844MPD2    H512462   2.326   1.901  16.517  0.8057 -0.9209 -0.3446
  844MPD2    N112463   2.205   1.512  16.222 -0.5658 -0.0213  0.1176
  844MPD2    H712464   2.164   1.420  16.205 -0.5236 -0.0044 -0.0728
  845MPD2     C12465   2.620   2.721  16.328 -0.1748  0.5139  0.1550
  845MPD2    C112466   2.634   2.733  16.467  0.0806 -0.0806 -0.2985
  845MPD2    C212467   2.606   2.623  16.551 -0.7226  0.2755  0.4553
  845MPD2    C312468   2.553   2.506  16.487 -0.0005 -0.0872  0.7378
  845MPD2    C412469   2.542   2.504  16.354 -0.2173  0.0433 -0.2422
  845MPD2    C512470   2.582   2.604  16.275 -0.0284 -0.0292  0.7630
  845MPD2     H12471   2.614   2.618  16.659  1.2964 -1.8172  0.2279
  845MPD2    H112472   2.520   2.409  16.306 -2.1678  0.4022 -0.0579
  845MPD2    H212473   2.640   2.805  16.262  0.2571  0.0778 -0.2773
  845MPD2    H312474   2.570   2.591  16.168 -0.2770 -0.6532  0.8664
  845MPD2     N12475   2.527   2.388  16.567 -0.3647 -0.1581  0.9504
  845MPD2    H512476   2.561   2.393  16.663  0.0380 -2.7900  0.9559
  845MPD2    N112477   2.650   2.864  16.521 -0.2240  0.1417 -0.7106
  845MPD2    H712478   2.632   2.938  16.454 -0.3316  0.4708 -0.3190
  846MPD2     C12479   3.686   3.361  13.154 -0.0854 -0.2183  0.7444
  846MPD2    C112480   3.636   3.485  13.133  0.3227 -0.0812  0.6099
  846MPD2    C212481   3.604   3.565  13.234 -1.0758  0.3309 -0.0874
  846MPD2    C312482   3.634   3.529  13.364 -0.7070  0.5899 -0.6929
  846MPD2    C412483   3.689   3.407  13.385  0.4060  0.0087  0.3140
  846MPD2    C512484   3.717   3.317  13.286  0.1464 -0.7442 -0.0555
  846MPD2     H12485   3.577   3.665  13.203 -1.2061  0.3561  0.1102
  846MPD2    H112486   3.716   3.368  13.483 -1.1859  0.6054  0.9840
  846MPD2    H212487   3.708   3.297  13.069 -0.2171  3.1397 -1.8049
  846MPD2    H312488   3.747   3.214  13.304  0.3253 -0.6006  0.4692
  846MPD2     N12489   3.613   3.621  13.466 -0.7375  0.3490 -0.6596
  846MPD2    H512490   3.553   3.701  13.446  0.9062  1.0541 -2.6818
  846MPD2    N112491   3.625   3.539  13.000  0.2379 -0.4371  0.0298
  846MPD2    H712492   3.619   3.640  12.992  0.3790 -0.3931  0.4971
  847MPD2     C12493   3.973   4.582  14.194 -0.4002  0.3416  0.0955
  847MPD2    C112494   4.087   4.661  14.195  0.0966 -0.0553 -0.0561
  847MPD2    C212495   4.210   4.595  14.175 -0.0624  0.5500 -0.1369
  847MPD2    C312496   4.217   4.459  14.153  0.0728 -0.2771 -0.7424
  847MPD2    C412497   4.101   4.387  14.163  1.1639  0.5170 -0.3021
  847MPD2    C512498   3.979   4.445  14.174 -0.3771 -0.3962  0.0350
  847MPD2     H12499   4.306   4.645  14.189  0.0271  0.4408 -0.3603
  847MPD2    H112500   4.102   4.279  14.155 -3.2433  0.3327  1.6024
  847MPD2    H212501   3.875   4.629  14.196 -1.6900 -2.4675  3.3020
  847MPD2    H312502   3.896   4.376  14.178 -0.6567 -0.1325 -1.4789
  847MPD2     N12503   4.348   4.408  14.151 -0.5922 -0.1632  0.1447
  847MPD2    H512504   4.422   4.477  14.159 -0.2023 -0.3044 -2.3392
  847MPD2    N112505   4.095   0.065  14.212 -0.0231 -0.4118  0.2859
  847MPD2    H712506   4.188   0.105  14.204 -0.2200  0.4318  2.3822
  848MPD2     C12507   2.276   2.343  16.074  0.1583  1.1533 -0.1044
  848MPD2    C112508   2.262   2.462  16.143  0.6616 -0.8152 -0.0423
  848MPD2    C212509   2.296   2.587  16.084  0.0035 -0.0340 -0.2272
  848MPD2    C312510   2.345   2.589  15.954 -0.1755  0.7608  0.2215
  848MPD2    C412511   2.357   2.471  15.885 -0.4971 -0.3512  0.2112
  848MPD2    C512512   2.327   2.351  15.947  0.5213 -0.6058  0.3520
  848MPD2     H12513   2.291   2.678  16.142  2.3199 -1.6206  2.4852
  848MPD2    H112514   2.393   2.467  15.783 -0.9284 -0.7741  0.0718
  848MPD2    H212515   2.242   2.246  16.107  2.1906 -0.0457 -1.5045
  848MPD2    H312516   2.330   2.257  15.894 -0.1836 -0.1329 -0.5072
  848MPD2     N12517   2.377   2.703  15.884 -0.2170 -0.1736  0.4322
  848MPD2    H512518   2.386   2.702  15.783 -1.3530  1.9145  0.2960
  848MPD2    N112519   2.209   2.465  16.273  0.1619  0.5531 -0.1961
  848MPD2    H712520   2.218   2.556  16.319 -1.6576  0.6661 -0.0590
  849MPD2     C12521   1.050   1.982  14.114  0.0047 -0.3481 -0.8045
  849MPD2    C112522   1.122   1.995  13.999  0.7372 -1.2025  0.3583
  849MPD2    C212523   1.233   1.915  13.985 -0.7330  0.1660  0.3075
  849MPD2    C312524   1.270   1.819  14.080  0.1949 -0.4491  0.2514
  849MPD2    C412525   1.188   1.803  14.196 -0.4805  0.2534  0.4948
  849MPD2    C512526   1.081   1.892  14.213  0.5648 -0.1214  0.2394
  849MPD2     H12527   1.289   1.920  13.893 -0.3905  1.4649  0.5827
  849MPD2    H112528   1.210   1.736  14.279 -0.1801  1.3209  1.2675
  849MPD2    H212529   0.971   2.054  14.132  0.3477 -0.4609  1.1758
  849MPD2    H312530   1.031   1.897  14.309  1.7753 -0.6102  0.9072
  849MPD2     N12531   1.388   1.742  14.059  0.3023  0.9788  0.0140
  849MPD2    H512532   1.445   1.762  13.977 -2.4134 -0.6120 -2.2595
  849MPD2    N112533   1.102   2.099  13.903 -0.2903  0.1202  0.2221
  849MPD2    H712534   1.168   2.094  13.826 -0.7393  2.2871 -0.3017
  850MPD2     C12535   4.028   0.609  15.273  0.3780 -0.5507 -0.4034
  850MPD2    C112536   4.052   0.554  15.146  0.8046  0.0524  0.5350
  850MPD2    C212537   4.161   0.599  15.079 -0.2442 -0.4380  0.2886
  850MPD2    C312538   4.243   0.698  15.139 -0.3442  0.1362 -0.1948
  850MPD2    C412539   4.207   0.754  15.256  0.2593  0.0222  0.3693
  850MPD2    C512540   4.112   0.702  15.334 -0.1655 -0.0010 -1.0146
  850MPD2     H12541   4.184   0.558  14.981 -3.2609  1.3008 -1.1341
  850MPD2    H112542   4.274   0.819  15.310  1.8687 -1.5085  0.2153
  850MPD2    H212543   3.943   0.583  15.335 -0.5379  0.7926 -1.0896
  850MPD2    H312544   4.080   0.731  15.434  2.7306  0.9483 -0.3539
  850MPD2     N12545   4.364   0.753  15.082 -0.2144 -0.3626  0.3975
  850MPD2    H512546   4.410   0.830  15.130  1.4421  0.0450 -1.8521
  850MPD2    N112547   3.957   0.463  15.090 -0.2945  0.3972  0.6502
  850MPD2    H712548   3.861   0.466  15.124 -1.0158  2.0311 -1.5413
  851MPD2     C12549   4.040   4.434  14.823  0.5211 -0.1253  0.0507
  851MPD2    C112550   3.932   4.470  14.896  0.4999 -0.6285 -0.6360
  851MPD2    C212551   3.843   4.363  14.928  0.5442 -0.3660  0.3663
  851MPD2    C312552   3.866   4.230  14.904 -0.4967  0.3466  0.6808
  851MPD2    C412553   3.981   4.210  14.832 -0.0871  0.0961 -0.6584
  851MPD2    C512554   4.071   4.303  14.806 -0.3878 -0.7462  0.4430
  851MPD2     H12555   3.763   4.384  14.998  0.0572  0.5878 -0.4743
  851MPD2    H112556   4.005   4.109  14.799  1.1880 -0.1861  1.1021
  851MPD2    H212557   4.108   4.514  14.795  1.9089 -0.6405  1.9036
  851MPD2    H312558   4.163   4.277  14.755 -1.6409  0.9106 -2.6465
  851MPD2     N12559   3.767   4.133  14.922 -0.4128 -0.2448 -0.0424
  851MPD2    H512560   3.679   4.169  14.957 -1.1162 -0.1772 -1.8705
  851MPD2    N112561   3.921   4.606  14.937  0.0712 -0.0782 -0.3333
  851MPD2    H712562   3.982   4.678  14.898  1.2010 -0.0854  1.4446
  852MPD2     C12563   3.192   2.492   9.809 -0.1989 -1.2670  0.9979
  852MPD2    C112564   3.173   2.620   9.865  0.0446 -0.9674 -0.3007
  852MPD2    C212565   3.279   2.707   9.863 -0.0682  0.7531  0.3888
  852MPD2    C312566   3.396   2.676   9.794  0.1527 -0.1453  0.0909
  852MPD2    C412567   3.411   2.551   9.740  0.2143 -0.0445  0.8432
  852MPD2    C512568   3.310   2.456   9.756  0.2251 -0.4832 -0.1198
  852MPD2     H12569   3.274   2.795   9.926  3.3418  0.3731  1.1917
  852MPD2    H112570   3.495   2.516   9.681  0.3678  1.3422  0.2507
  852MPD2    H212571   3.109   2.423   9.796 -0.5638 -0.7419  0.5230
  852MPD2    H312572   3.318   2.356   9.716  2.3637 -0.5191  0.3785
  852MPD2     N12573   3.494   2.769   9.783  0.6357 -0.9000 -0.1026
  852MPD2    H512574   3.466   2.857   9.826 -0.9677 -1.8645  0.8449
  852MPD2    N112575   3.070   2.664   9.946  0.3501  1.1148 -0.2524
  852MPD2    H712576   3.066   2.764   9.963 -0.9555  1.0231  0.0077
  853MPD2     C12577   0.149   2.249  12.218 -0.1741  0.3573 -0.3224
  853MPD2    C112578   0.220   2.343  12.145  0.3083  0.0007  0.7208
  853MPD2    C212579   0.239   2.320  12.011 -0.0113  0.7127  0.7939
  853MPD2    C312580   0.173   2.207  11.952  0.5479 -0.4037  0.7316
  853MPD2    C412581   0.086   2.132  12.029 -0.6475  0.1653 -0.2059
  853MPD2    C512582   0.081   2.152  12.158  0.1632 -0.3648  0.4801
  853MPD2     H12583   0.303   2.383  11.950  0.3785  0.3496  0.8244
  853MPD2    H112584   0.038   2.047  11.982  0.3273  0.2482 -1.3511
  853MPD2    H212585   0.136   2.257  12.325 -1.1713 -1.0805 -0.3436
  853MPD2    H312586   0.013   2.094  12.219 -0.4352 -1.2801 -1.0797
  853MPD2     N12587   0.193   2.167  11.817  0.2290 -0.0154  0.2974
  853MPD2    H512588   0.129   2.099  11.778  0.6187 -0.3470  0.2274
  853MPD2    N112589   0.260   2.454  12.216 -0.4009 -0.3655 -0.4443
  853MPD2    H712590   0.253   2.452  12.317  2.5124 -0.3391 -0.2378
  854MPD2     C12591   1.652   2.854  12.517  0.5063 -0.2973 -0.5066
  854MPD2    C112592   1.789   2.890  12.529 -0.1075 -0.1002 -0.0634
  854MPD2    C212593   1.873   2.813  12.607 -0.6668 -1.0135 -0.3843
  854MPD2    C312594   1.830   2.690  12.649 -0.0022  0.2808  0.3665
  854MPD2    C412595   1.704   2.654  12.625  0.6992 -0.5223 -0.2839
  854MPD2    C512596   1.612   2.733  12.564 -0.3955  0.0724 -0.7630
  854MPD2     H12597   1.978   2.840  12.600 -0.9510  0.1021 -0.4717
  854MPD2    H112598   1.655   2.560  12.645 -0.8734  0.6402  1.2520
  854MPD2    H212599   1.581   2.917  12.465  0.1408  0.0950  0.4667
  854MPD2    H312600   1.516   2.690  12.534 -1.5305  1.2861  1.1708
  854MPD2     N12601   1.915   2.596  12.715  0.1110  0.4258 -0.0882
  854MPD2    H512602   1.869   2.507  12.729 -0.8529  0.7354 -1.2470
  854MPD2    N112603   1.835   3.007  12.466 -0.0054 -0.3911  0.4051
  854MPD2    H712604   1.765   3.034  12.397  1.9449  1.0352 -1.0197
  855MPD2     C12605   2.757   2.696  13.226 -0.2793 -0.5437  0.1145
  855MPD2    C112606   2.720   2.558  13.230 -0.3587 -0.1673 -0.2106
  855MPD2    C212607   2.639   2.510  13.130  0.0860 -0.0274  0.6448
  855MPD2    C312608   2.596   2.594  13.030 -0.0480 -0.0437  0.0708
  855MPD2    C412609   2.633   2.728  13.026  0.1353 -0.3643 -0.3219
  855MPD2    C512610   2.710   2.781  13.129 -0.1869 -0.5400 -0.1614
  855MPD2     H12611   2.600   2.408  13.133  1.9330 -0.6960  1.4156
  855MPD2    H112612   2.592   2.787  12.946 -1.2168  1.3019  1.5961
  855MPD2    H212613   2.797   2.747  13.312 -0.5258 -0.7445  0.3498
  855MPD2    H312614   2.731   2.888  13.128 -2.8306  0.0060  2.6582
  855MPD2     N12615   2.500   2.561  12.929  0.4448  0.9035  0.1033
  855MPD2    H512616   2.469   2.641  12.875 -1.5232 -0.8621 -1.3762
  855MPD2    N112617   2.755   2.466  13.333 -0.9425 -0.4176 -0.6965
  855MPD2    H712618   2.717   2.372  13.327 -0.2592 -0.5735 -2.3516
  856MPD2     C12619   4.703   3.710  13.319  0.5853  0.0233  0.3779
  856MPD2    C112620   4.730   3.808  13.411 -0.1102 -0.4731  0.2827
  856MPD2    C212621   4.635   3.892  13.466 -0.5143  0.2895 -0.8450
  856MPD2    C312622   4.507   3.876  13.430  0.0405  0.2883 -0.1786
  856MPD2    C412623   4.474   3.787  13.326  0.2345 -0.4686  0.7189
  856MPD2    C512624   4.576   3.707  13.272 -0.2522  0.1052 -0.0500
  856MPD2     H12625   4.660   3.964  13.543 -2.2963 -2.8738  2.6738
  856MPD2    H112626   4.377   3.767  13.283  0.5002 -0.1811 -0.0080
  856MPD2    H212627   0.037   3.649  13.262  0.7393  0.2441  0.3293
  856MPD2    H312628   4.552   3.635  13.195 -2.2853  0.0198  0.6718
  856MPD2     N12629   4.392   3.941  13.485 -0.5167 -0.2788 -0.2988
  856MPD2    H512630   4.308   3.920  13.432  0.6859 -1.0365 -1.9164
  856MPD2    N112631   0.131   3.833  13.448  0.0889  0.3443 -0.1621
  856MPD2    H712632   0.155   3.919  13.497 -1.3054  0.5397  0.1868
  857MPD2     C12633   1.428   0.929  12.823  0.2137  0.5153  0.1844
  857MPD2    C112634   1.559   0.948  12.797 -0.4086 -0.3542  0.1184
  857MPD2    C212635   1.628   1.042  12.867 -0.2567  0.2017  0.0575
  857MPD2    C312636   1.565   1.113  12.961 -0.0031  0.2591  0.0275
  857MPD2    C412637   1.427   1.098  12.983 -0.3313  0.4123  0.1020
  857MPD2    C512638   1.357   1.010  12.912  0.2052  0.6833 -0.4319
  857MPD2     H12639   1.730   1.073  12.848  0.1346 -0.5382  0.9775
  857MPD2    H112640   1.370   1.166  13.047 -0.3925 -1.5834  2.1737
  857MPD2    H212641   1.370   0.855  12.770  1.5383  0.1989 -0.7993
  857MPD2    H312642   1.250   0.999  12.925  0.3752  2.1753  2.3219
  857MPD2     N12643   1.632   1.211  13.035 -0.3629  0.0270  0.0698
  857MPD2    H512644   1.727   1.228  13.004 -0.6703 -0.2315 -1.0056
  857MPD2    N112645   1.617   0.856  12.710  0.2285 -0.5562 -0.8169
  857MPD2    H712646   1.555   0.787  12.669  2.4989 -2.9561 -0.1961
  858MPD2     C12647   1.715   4.350  16.709 -0.4951 -0.1442  0.1879
  858MPD2    C112648   1.844   4.321  16.679 -0.3790 -0.2273 -0.5237
  858MPD2    C212649   1.945   4.383  16.749  0.3597  0.0612 -0.0823
  858MPD2    C312650   1.914   4.462  16.859  0.7179  0.1581  0.6350
  858MPD2    C412651   1.780   4.495  16.887  0.1503  0.5965 -0.1778
  858MPD2    C512652   1.683   4.442  16.809  0.2380 -0.2005  0.1838
  858MPD2     H12653   2.048   4.377  16.716 -0.3501 -1.7341 -1.9887
  858MPD2    H112654   1.749   4.552  16.974 -1.8432 -0.1231 -0.3934
  858MPD2    H212655   1.633   4.296  16.664 -0.2015  0.5009 -1.1263
  858MPD2    H312656   1.580   4.471  16.826  1.1717  2.1804  1.7612
  858MPD2     N12657   2.014   4.536  16.930 -0.0772  0.1124 -0.2360
  858MPD2    H512658   1.975   4.589  17.008  1.9369 -0.2775  1.0156
  858MPD2    N112659   1.868   4.240  16.566  0.2894 -0.3697  0.2719
  858MPD2    H712660   1.790   4.209  16.509 -0.3339  2.6258 -0.5076
  859MPD2     C12661   0.667   2.554  14.870  0.1428 -0.6073 -0.8186
  859MPD2    C112662   0.769   2.469  14.902 -0.5589  0.0688 -0.7607
  859MPD2    C212663   0.760   2.407  15.032  0.2549  0.5268  0.0708
  859MPD2    C312664   0.656   2.425  15.119 -0.4555  0.1059  0.4855
  859MPD2    C412665   0.566   2.520  15.079  0.4919 -0.0134 -0.2144
  859MPD2    C512666   0.570   2.582  14.954  0.5608  0.3235 -0.4902
  859MPD2     H12667   0.839   2.335  15.052 -0.3065 -0.2338 -0.4252
  859MPD2    H112668   0.484   2.552  15.142  0.5684  0.1117 -0.1790
  859MPD2    H212669   0.657   2.604  14.774 -1.4919  0.9525  0.1653
  859MPD2    H312670   0.487   2.646  14.924 -1.3390 -2.5805 -1.4003
  859MPD2     N12671   0.659   2.360  15.241 -0.7071 -0.0935 -0.4787
  859MPD2    H512672   0.735   2.298  15.267  1.3777  2.8632  0.4460
  859MPD2    N112673   0.876   2.470  14.816 -0.1269  0.5871  0.0408
  859MPD2    H712674   0.883   2.548  14.750 -1.8808  0.9450  0.2660
  860MPD2     C12675   3.471   2.289  11.819  0.5128 -0.8384 -0.7773
  860MPD2    C112676   3.402   2.394  11.871 -0.1920 -0.5001  0.5610
  860MPD2    C212677   3.266   2.386  11.872  0.4599 -0.3273  0.3306
  860MPD2    C312678   3.191   2.278  11.826  0.1331  0.2215  0.1764
  860MPD2    C412679   3.266   2.172  11.783  0.2649  0.4051 -0.1277
  860MPD2    C512680   3.399   2.184  11.775  0.1422  0.7783 -0.3678
  860MPD2     H12681   3.215   2.466  11.926  0.2257  0.7236 -1.4419
  860MPD2    H112682   3.234   2.078  11.739  2.5483 -1.8560  2.9991
  860MPD2    H212683   3.579   2.290  11.814  0.5160 -0.5783 -0.6351
  860MPD2    H312684   3.450   2.096  11.737 -0.4160  0.2952  0.0053
  860MPD2     N12685   3.054   2.283  11.845 -0.2294  0.4777 -0.1750
  860MPD2    H512686   3.014   2.363  11.893 -1.2617  0.5314 -1.1411
  860MPD2    N112687   3.469   2.506  11.915  0.6941  0.1562 -1.0600
  860MPD2    H712688   3.413   2.588  11.938 -0.1927 -0.8594  0.3759
  861MPD2     C12689   1.760   0.506  10.835  0.2159  0.0465 -0.0996
  861MPD2    C112690   1.636   0.447  10.860 -0.0779  0.3095 -0.4542
  861MPD2    C212691   1.537   0.465  10.757  1.2433  0.4881  0.2548
  861MPD2    C312692   1.579   0.539  10.647 -0.3392  0.2284 -0.0500
  861MPD2    C412693   1.705   0.588  10.620  0.0247  0.6053  0.3359
  861MPD2    C512694   1.802   0.561  10.715  0.2273  0.9768 -0.1717
  861MPD2     H12695   1.444   0.411  10.769  0.9373  0.3079 -2.8124
  861MPD2    H112696   1.726   0.644  10.529 -0.6435 -0.1027 -0.2482
  861MPD2    H212697   1.840   0.491  10.907 -0.3176  1.0084  0.6937
  861MPD2    H312698   1.908   0.581  10.700  0.4696  1.2750  1.8622
  861MPD2     N12699   1.488   0.574  10.545  0.4192 -0.5781  0.2174
  861MPD2    H512700   1.509   0.648  10.479  0.3660 -1.3608 -0.6817
  861MPD2    N112701   1.601   0.405  10.989 -0.1001  0.5995  0.2516
  861MPD2    H712702   1.509   0.368  11.011  0.5501 -0.7779  0.5934
  862MPD2     C12703   1.351   0.693   9.800 -0.6106  0.1032 -0.2621
  862MPD2    C112704   1.256   0.623   9.877 -0.5363 -0.3479  0.2131
  862MPD2    C212705   1.176   0.532   9.825 -0.7265 -0.3009 -0.5190
  862MPD2    C312706   1.180   0.503   9.692  0.1602  0.1930 -0.0255
  862MPD2    C412707   1.267   0.575   9.615 -0.1993  0.5267  0.6050
  862MPD2    C512708   1.353   0.674   9.668 -0.9341  1.0193  0.0750
  862MPD2     H12709   1.108   0.489   9.898  1.6306 -3.1513  0.0080
  862MPD2    H112710   1.276   0.560   9.508  1.1622 -0.0687  0.8037
  862MPD2    H212711   1.418   0.773   9.829  0.4177  0.3615 -3.3955
  862MPD2    H312712   1.416   0.723   9.595 -1.0392 -1.1145 -1.4471
  862MPD2     N12713   1.103   0.402   9.626  0.3029  0.5238 -0.6573
  862MPD2    H512714   1.064   0.419   9.534 -1.8984  2.3919  0.6242
  862MPD2    N112715   1.281   0.627  10.018 -0.0838 -0.0715 -0.3048
  862MPD2    H712716   1.231   0.555  10.070  1.2824 -0.5054  0.4162
  863MPD2     C12717   0.694   3.385  16.442  0.0168 -0.8824  0.6966
  863MPD2    C112718   0.698   3.516  16.501  1.2104 -0.1290 -0.0173
  863MPD2    C212719   0.776   3.529  16.615 -0.3489 -0.1721  0.4172
  863MPD2    C312720   0.835   3.421  16.678  0.7831 -1.3693 -0.3501
  863MPD2    C412721   0.824   3.295  16.622 -0.1361 -0.2807  0.2421
  863MPD2    C512722   0.749   3.275  16.508  1.2073 -0.2123 -0.2110
  863MPD2     H12723   0.788   3.628  16.658  1.1766  0.0852 -0.5789
  863MPD2    H112724   0.871   3.208  16.667  1.9531  0.8701  0.2727
  863MPD2    H212725   0.651   3.375  16.343  1.7293 -1.6904  0.0430
  863MPD2    H312726   0.746   3.179  16.458  2.6167  0.4311 -1.5420
  863MPD2     N12727   0.924   3.434  16.781 -0.3987 -0.0246 -0.2287
  863MPD2    H512728   0.949   3.352  16.835  2.8798  0.9757 -0.1688
  863MPD2    N112729   0.655   3.629  16.428  0.6366  0.7850  0.3870
  863MPD2    H712730   0.614   3.603  16.339  0.1745  0.0963  0.7956
  864MPD2     C12731   1.182   0.180  16.626 -0.5682 -0.5336 -0.2910
  864MPD2    C112732   1.288   0.171  16.541  0.3902  0.0269  0.0494
  864MPD2    C212733   1.343   0.294  16.509  0.5787  0.5440 -0.2118
  864MPD2    C312734   1.313   0.418  16.565 -0.2064 -0.1113  0.3842
  864MPD2    C412735   1.221   0.415  16.670  0.4589  0.5393  0.1697
  864MPD2    C512736   1.160   0.297  16.697 -0.5673 -0.4938  1.3249
  864MPD2     H12737   1.416   0.301  16.430 -0.7334 -0.6907 -1.5244
  864MPD2    H112738   1.192   0.499  16.733  3.7353  1.0310  1.0341
  864MPD2    H212739   1.142   0.081  16.649 -1.2943 -0.1140  0.2372
  864MPD2    H312740   1.095   0.286  16.783 -0.4599  1.4413  1.6730
  864MPD2     N12741   1.374   0.537  16.526 -0.1359  1.1542 -0.1679
  864MPD2    H512742   1.453   0.526  16.464  1.9701  1.0195  2.5138
  864MPD2    N112743   1.298   0.053  16.475 -0.2164 -0.1432 -0.4140
  864MPD2    H712744   1.219   4.725  16.487 -0.8270  1.1882  2.5169
  865MPD2     C12745   1.394   1.135  15.875  0.3882 -0.1958 -0.5280
  865MPD2    C112746   1.361   1.003  15.906 -0.3531 -0.5419  0.0087
  865MPD2    C212747   1.366   0.961  16.034 -0.3088 -0.1575 -0.6518
  865MPD2    C312748   1.389   1.047  16.142  0.1859 -0.2817  0.2205
  865MPD2    C412749   1.404   1.182  16.107 -0.9317  0.2657 -0.2720
  865MPD2    C512750   1.413   1.222  15.975  0.7782 -0.0236 -0.5532
  865MPD2     H12751   1.348   0.855  16.053  2.0807 -0.7835 -1.9396
  865MPD2    H112752   1.430   1.259  16.180 -0.9688 -0.3999  0.4470
  865MPD2    H212753   1.384   1.166  15.772 -2.1883  0.6112 -0.0314
  865MPD2    H312754   1.432   1.326  15.950  0.0741  0.5691  1.4279
  865MPD2     N12755   1.403   1.000  16.274 -0.0342 -0.7439 -0.0040
  865MPD2    H512756   1.364   0.908  16.293  0.6092 -1.4225 -1.9789
  865MPD2    N112757   1.337   0.923  15.794  0.1937 -0.2283 -0.6460
  865MPD2    H712758   1.350   0.973  15.707  1.1159 -1.5320 -1.2652
  866MPD2     C12759   2.162   0.743  11.529 -0.0049 -0.4260  0.4582
  866MPD2    C112760   2.220   0.770  11.409 -0.4488  0.3554 -0.2750
  866MPD2    C212761   2.138   0.825  11.311  1.0507  0.6701  0.0341
  866MPD2    C312762   2.004   0.844  11.337  0.2057  0.2268 -0.0041
  866MPD2    C412763   1.954   0.823  11.463  0.3752 -0.8477 -0.1831
  866MPD2    C512764   2.036   0.775  11.563  0.1252  0.0376  0.1626
  866MPD2     H12765   2.180   0.851  11.215 -1.2527 -0.3327 -1.2528
  866MPD2    H112766   1.851   0.850  11.484  1.3464  3.1214 -0.5668
  866MPD2    H212767   2.224   0.693  11.603 -3.5899 -3.4004  1.4106
  866MPD2    H312768   1.989   0.766  11.660 -0.4430 -0.1251 -0.1263
  866MPD2     N12769   1.910   0.884  11.239 -0.1074 -0.2031 -0.3268
  866MPD2    H512770   1.813   0.907  11.259 -0.0546 -0.3317  0.0773
  866MPD2    N112771   2.355   0.741  11.397  0.4047 -0.2609  0.0302
  866MPD2    H712772   2.402   0.708  11.480 -0.8495  0.9049  1.1960
  867MPD2     C12773   4.502   0.203  16.262 -0.8496  0.1212 -0.2420
  867MPD2    C112774   4.583   0.142  16.352  0.2734 -0.5783 -0.6163
  867MPD2    C212775   4.589   0.200  16.477  0.5889  0.3315 -0.4500
  867MPD2    C312776   4.519   0.314  16.514 -0.1312  0.3457  0.4014
  867MPD2    C412777   4.432   0.366  16.420 -0.1176  0.0603  0.2270
  867MPD2    C512778   4.426   0.311  16.298  0.2972  0.0724 -0.2768
  867MPD2     H12779   4.658   0.164  16.552  1.6615  1.5842 -0.8295
  867MPD2    H112780   4.369   0.451  16.443 -1.1034 -0.6097  0.0003
  867MPD2    H212781   4.486   0.161  16.164 -1.5028 -0.8941  0.3012
  867MPD2    H312782   4.355   0.347  16.224  0.8787  0.4289 -0.6613
  867MPD2     N12783   4.535   0.376  16.639 -0.1760  0.0603  0.1277
  867MPD2    H512784   4.493   0.467  16.654  3.1961  1.8592 -1.4074
  867MPD2    N112785   4.651   0.024  16.316  0.9852 -0.0900 -0.1089
  867MPD2    H712786   4.628   4.711  16.229 -2.0889  0.2820  0.5329
  868MPD2     C12787   1.986   4.509  13.447 -0.1570 -0.5535 -0.3712
  868MPD2    C112788   1.978   4.542  13.313 -0.2153  0.5743 -0.0457
  868MPD2    C212789   1.850   4.580  13.265 -0.2683  0.3097 -0.3916
  868MPD2    C312790   1.743   4.590  13.356 -0.0874 -0.2588 -0.0876
  868MPD2    C412791   1.764   4.571  13.492  0.1349 -0.0336 -0.7190
  868MPD2    C512792   1.888   4.528  13.537  0.3520  0.1925 -0.2921
  868MPD2     H12793   1.829   4.603  13.161  1.3791  1.4689 -0.4606
  868MPD2    H112794   1.687   4.578  13.568 -0.3030 -0.0847 -1.1578
  868MPD2    H212795   2.081   4.475  13.485 -0.0232 -1.0203 -1.1021
  868MPD2    H312796   1.911   4.498  13.638 -1.8685  0.3483  0.2645
  868MPD2     N12797   1.622   4.628  13.300 -0.0788 -0.5898 -0.7779
  868MPD2    H512798   1.626   4.662  13.204 -1.0870  0.7866 -0.3322
  868MPD2    N112799   2.086   4.526  13.227 -0.0988 -0.3246  0.2130
  868MPD2    H712800   2.177   4.510  13.269 -0.1701 -2.4947 -0.4222
  869MPD2     C12801   2.600   2.028   0.447 -0.1476  0.3767  0.3791
  869MPD2    C112802   2.566   2.161   0.484 -0.2455 -0.2715  0.0133
  869MPD2    C212803   2.667   2.245   0.542  0.2955 -0.0494  0.0206
  869MPD2    C312804   2.795   2.196   0.562  0.1284 -0.2422 -0.2763
  869MPD2    C412805   2.828   2.073   0.517 -0.4747  0.4904  0.2764
  869MPD2    C512806   2.735   1.989   0.459  0.7718 -0.0025 -0.0204
  869MPD2     H12807   2.643   2.345   0.576  0.0131  0.1877 -0.8611
  869MPD2    H112808   2.928   2.035   0.531 -0.0768  1.2143 -0.6495
  869MPD2    H212809   2.530   1.963   0.396 -1.4383  0.5162  1.9469
  869MPD2    H312810   2.764   1.890   0.425 -1.1174 -0.0452 -1.4885
  869MPD2     N12811   2.898   2.283   0.613  0.5419 -0.3945  0.6262
  869MPD2    H512812   2.986   2.233   0.617  0.6186 -0.3212 -0.0957
  869MPD2    N112813   2.436   2.201   0.456 -0.4989 -0.0559  0.2038
  869MPD2    H712814   2.372   2.135   0.414  0.1401 -0.4429 -0.1577
  870MPD2     C12815   2.718   0.933   1.812 -0.5472  0.1576 -0.0856
  870MPD2    C112816   2.737   0.869   1.691 -0.7160 -0.6292  0.1127
  870MPD2    C212817   2.667   0.916   1.578  0.1427 -0.1142  0.6908
  870MPD2    C312818   2.565   1.003   1.587 -0.5113  0.0417  0.0693
  870MPD2    C412819   2.539   1.056   1.712 -0.0466  1.1969 -0.1059
  870MPD2    C512820   2.615   1.025   1.817  0.4680 -0.2241  0.4792
  870MPD2     H12821   2.690   0.875   1.480 -1.0035 -0.6900  0.6552
  870MPD2    H112822   2.463   1.133   1.718 -1.8732 -0.6516  0.2420
  870MPD2    H212823   2.769   0.905   1.904 -1.3280 -1.6080 -0.1871
  870MPD2    H312824   2.594   1.073   1.913 -1.4598  1.5901 -0.8544
  870MPD2     N12825   2.487   1.021   1.468 -0.2632 -0.2178  0.4144
  870MPD2    H512826   2.515   0.972   1.384 -2.0162 -0.0929 -0.2258
  870MPD2    N112827   2.840   0.774   1.690 -0.2127 -0.0332  0.7281
  870MPD2    H712828   2.880   0.756   1.781 -1.3532 -1.2729  0.9799
  871MPD2     C12829   3.759   0.811  16.161 -0.3152  0.5195  0.8089
  871MPD2    C112830   3.739   0.763  16.292  0.3796  0.4677 -0.1364
  871MPD2    C212831   3.746   0.627  16.314  0.0314 -0.4124  0.9401
  871MPD2    C312832   3.778   0.539  16.211  0.6197 -0.2859 -0.5102
  871MPD2    C412833   3.810   0.586  16.086 -0.2250 -0.0262 -0.4424
  871MPD2    C512834   3.789   0.723  16.062  0.3922 -0.8792 -0.4539
  871MPD2     H12835   3.727   0.580  16.409 -1.3722  1.6052  1.6506
  871MPD2    H112836   3.844   0.529  16.001  0.1411  1.0957 -1.0426
  871MPD2    H212837   3.735   0.913  16.133  1.8454  0.9178  0.3846
  871MPD2    H312838   3.809   0.759  15.961 -1.4355 -1.3508 -0.9929
  871MPD2     N12839   3.780   0.404  16.228  0.0775  0.7296  0.5011
  871MPD2    H512840   3.733   0.375  16.313 -0.2010 -1.9288 -0.5457
  871MPD2    N112841   3.697   0.854  16.392  0.1730 -1.1981  0.4609
  871MPD2    H712842   3.742   0.943  16.373  0.7094 -1.6537 -0.3847
  872MPD2     C12843   4.633   2.792  13.434  0.1138 -0.2210  0.3621
  872MPD2    C112844   4.694   2.913  13.452  0.0689 -0.7902  0.6609
  872MPD2    C212845   4.630   3.000  13.537  0.4401 -0.1679 -0.7367
  872MPD2    C312846   4.510   2.968  13.602 -0.2826 -0.2458  0.2848
  872MPD2    C412847   4.455   2.841  13.586  0.0248  0.0859 -0.6629
  872MPD2    C512848   4.518   2.754  13.496 -0.0148 -0.1819  0.3062
  872MPD2     H12849   4.678   3.094  13.562 -2.7882  0.9305  1.2063
  872MPD2    H112850   4.365   2.801  13.631 -1.3163  1.1242 -2.4036
  872MPD2    H212851   4.679   2.726  13.361 -1.4038 -0.6909 -0.1717
  872MPD2    H312852   4.466   2.659  13.491  0.7551 -0.6259  0.7287
  872MPD2     N12853   4.442   3.058  13.690 -0.2178 -0.1174  0.3696
  872MPD2    H512854   4.366   3.019  13.746 -2.3611  1.1392 -1.6809
  872MPD2    N112855   0.084   2.945  13.393  0.6404 -0.3691  0.5633
  872MPD2    H712856   0.105   3.044  13.384  0.3969 -0.5251 -1.8143
  873MPD2     C12857   2.055   2.688   1.216  0.3491 -0.5274  0.2318
  873MPD2    C112858   1.934   2.746   1.173  0.1571  0.1993  0.0437
  873MPD2    C212859   1.873   2.695   1.063  0.9439  0.7284 -0.7763
  873MPD2    C312860   1.905   2.565   1.015 -0.0633 -0.0480  0.4314
  873MPD2    C412861   2.016   2.508   1.060  0.5272 -0.0177  0.3389
  873MPD2    C512862   2.094   2.561   1.165 -0.0603  0.2786 -0.0691
  873MPD2     H12863   1.782   2.746   1.035  0.1894 -1.3407 -2.1089
  873MPD2    H112864   2.048   2.411   1.024 -0.5026 -0.5170  0.7953
  873MPD2    H212865   2.114   2.732   1.296  0.0859  1.0797 -0.4594
  873MPD2    H312866   2.186   2.521   1.207 -0.5499  3.0122  3.5470
  873MPD2     N12867   1.823   2.489   0.923 -0.6021  0.0962 -0.2023
  873MPD2    H512868   1.868   2.414   0.872  0.3786  1.2279 -1.0095
  873MPD2    N112869   1.895   2.871   1.229  0.0248  0.1489  0.1138
  873MPD2    H712870   1.959   2.914   1.296  0.6390 -1.1903  0.3728
  874MPD2     C12871   1.629   2.895  15.498 -0.4917 -0.3010  0.6728
  874MPD2    C112872   1.666   2.839  15.612 -0.2434  0.0732 -0.8629
  874MPD2    C212873   1.801   2.849  15.653  0.6614  0.1762  0.3893
  874MPD2    C312874   1.890   2.924  15.575  0.7986  0.7864 -0.3128
  874MPD2    C412875   1.847   2.980  15.462 -0.8438 -0.2677  0.1257
  874MPD2    C512876   1.719   2.972  15.430 -0.9392  0.1769  0.1963
  874MPD2     H12877   1.835   2.795  15.741  0.2964 -0.7780 -0.0440
  874MPD2    H112878   1.915   3.030  15.395 -0.7637 -1.7610 -0.8933
  874MPD2    H212879   1.522   2.907  15.481 -0.1977  2.0444  0.5198
  874MPD2    H312880   1.686   3.024  15.341  0.2394 -0.6717 -0.7357
  874MPD2     N12881   2.017   2.937  15.627  0.0775 -0.0831  0.4032
  874MPD2    H512882   2.037   2.890  15.715 -1.5346 -2.4709 -0.5148
  874MPD2    N112883   1.564   2.771  15.686  0.0253 -0.2013  0.3112
  874MPD2    H712884   1.468   2.795  15.666  0.8336  2.7937 -0.0640
  875MPD2     C12885   1.740   1.348  14.231 -1.1744  0.0488  0.5738
  875MPD2    C112886   1.854   1.388  14.167 -0.9134 -1.2093 -0.7685
  875MPD2    C212887   1.943   1.461  14.244  0.1576  0.1327 -0.3218
  875MPD2    C312888   1.916   1.492  14.379 -1.1050  0.4543  0.2406
  875MPD2    C412889   1.804   1.448  14.436 -0.7057 -0.3098 -0.3052
  875MPD2    C512890   1.720   1.360  14.363 -0.5220  0.5505 -0.0213
  875MPD2     H12891   2.041   1.487  14.206 -0.1933 -0.2673 -1.5128
  875MPD2    H112892   1.801   1.458  14.544  0.1436  0.3763 -0.3396
  875MPD2    H212893   1.668   1.295  14.170  0.5069  0.7473 -2.0033
  875MPD2    H312894   1.624   1.340  14.409 -0.3656  0.5828  0.3224
  875MPD2     N12895   2.008   1.560  14.458 -0.3282  0.2040  0.5170
  875MPD2    H512896   1.990   1.585  14.554 -0.6875 -0.4146  0.6092
  875MPD2    N112897   1.887   1.350  14.033 -0.6558  0.5608 -0.2002
  875MPD2    H712898   1.985   1.372  14.020 -0.1445 -2.1401 -0.8717
  876MPD2     C12899   0.985   2.496  15.587 -0.2434  0.1562  0.1518
  876MPD2    C112900   1.122   2.480  15.584  0.2370 -0.1955  0.2075
  876MPD2    C212901   1.174   2.403  15.685 -0.2396  0.1008 -0.0500
  876MPD2    C312902   1.094   2.363  15.790 -0.5499 -0.3504 -0.1441
  876MPD2    C412903   0.956   2.392  15.800  0.5385 -0.5531  0.4445
  876MPD2    C512904   0.907   2.451  15.688  0.0830 -0.1008  0.6578
  876MPD2     H12905   1.276   2.367  15.671 -0.4088 -0.1238 -0.7354
  876MPD2    H112906   0.891   2.364  15.881 -1.3011  1.2512 -0.4283
  876MPD2    H212907   0.941   2.555  15.507  1.2434 -0.1937 -0.9254
  876MPD2    H312908   0.802   2.477  15.674  0.0606 -0.2071  0.6342
  876MPD2     N12909   1.168   2.298  15.891  0.3758  0.3461  0.1581
  876MPD2    H512910   1.267   2.279  15.878  0.7460  2.0384  0.4492
  876MPD2    N112911   1.203   2.540  15.480 -0.5046 -0.1898  0.0083
  876MPD2    H712912   1.150   2.585  15.406  1.5032 -1.0584 -1.9709
  877MPD2     C12913   1.238   2.941  14.829 -0.2911  0.3749  0.6500
  877MPD2    C112914   1.357   2.874  14.851 -0.3177  0.4014 -0.6897
  877MPD2    C212915   1.443   2.856  14.745  1.0109  1.0698  0.6510
  877MPD2    C312916   1.400   2.891  14.614  0.5497 -0.0550  0.4689
  877MPD2    C412917   1.281   2.951  14.591 -0.3959  0.2110 -0.3232
  877MPD2    C512918   1.199   2.972  14.701 -0.4251  0.1550 -0.3312
  877MPD2     H12919   1.537   2.802  14.752 -0.9447 -2.2888  0.8922
  877MPD2    H112920   1.252   2.974  14.489  1.0627 -3.4618 -1.5314
  877MPD2    H212921   1.163   2.963  14.904 -0.7060 -0.4225  0.4709
  877MPD2    H312922   1.104   3.019  14.680 -0.5521 -0.5230 -1.2628
  877MPD2     N12923   1.478   2.870  14.495  0.0830  0.0745 -0.0924
  877MPD2    H512924   1.413   2.858  14.418  0.8580  1.6267 -1.0037
  877MPD2    N112925   1.396   2.821  14.974 -0.0634 -0.1091  0.6252
  877MPD2    H712926   1.483   2.768  14.980 -1.2013 -2.0977 -0.3133
  878MPD2     C12927   0.648   1.997  12.964 -0.5085  0.5532 -0.1683
  878MPD2    C112928   0.775   2.043  12.950 -0.4051  0.6983 -0.2865
  878MPD2    C212929   0.849   2.075  13.063 -0.1709 -0.2190 -0.5962
  878MPD2    C312930   0.790   2.068  13.187 -0.3331  0.4230 -0.4042
  878MPD2    C412931   0.659   2.033  13.198 -0.0941  0.0148  0.2358
  878MPD2    C512932   0.590   2.000  13.090  0.3633 -0.4533 -0.0962
  878MPD2     H12933   0.951   2.111  13.055  0.3333 -1.5928 -0.2245
  878MPD2    H112934   0.609   2.041  13.294 -0.8939  0.7400 -0.2445
  878MPD2    H212935   0.584   1.969  12.880 -1.2376  0.5663  0.3824
  878MPD2    H312936   0.488   1.967  13.109 -0.6037  1.8947 -1.1339
  878MPD2     N12937   0.862   2.116  13.304 -0.2048 -0.5378  0.3786
  878MPD2    H512938   0.959   2.142  13.289  0.2219 -2.0416  0.6254
  878MPD2    N112939   0.817   2.068  12.819 -0.0021  0.0619 -0.4851
  878MPD2    H712940   0.766   2.044  12.735 -2.2937  2.5442  0.2174
  879MPD2     C12941   2.067   3.321  16.647 -0.6528  0.0172 -0.0494
  879MPD2    C112942   1.940   3.311  16.699  0.5620 -0.5711  0.2083
  879MPD2    C212943   1.849   3.243  16.627  0.3987 -0.1383  0.1754
  879MPD2    C312944   1.887   3.192  16.505 -0.4294  0.4590 -0.3782
  879MPD2    C412945   2.013   3.205  16.453  0.6697 -0.1665  0.1957
  879MPD2    C512946   2.104   3.280  16.526 -0.3913  0.1790 -0.1058
  879MPD2     H12947   1.745   3.235  16.658  0.7683 -1.6003  1.0222
  879MPD2    H112948   2.035   3.179  16.349  0.6202  2.3806 -0.4399
  879MPD2    H212949   2.141   3.369  16.710 -0.6747  1.2012 -0.9196
  879MPD2    H312950   2.197   3.318  16.484 -0.7912 -1.0399 -2.0545
  879MPD2     N12951   1.787   3.123  16.428  0.4071 -0.1654 -0.0574
  879MPD2    H512952   1.812   3.110  16.330 -1.3080 -0.3729 -0.4680
  879MPD2    N112953   1.920   3.365  16.828  0.4625  0.5548  0.0621
  879MPD2    H712954   1.990   3.425  16.870 -0.2066  1.8639 -0.7111
  880MPD2     C12955   2.809   0.411   0.010  0.5347 -0.3522 -0.1479
  880MPD2    C112956   2.704   0.402   0.097 -0.5655  0.0411  0.2703
  880MPD2    C212957   2.684   0.284   0.168  0.7050 -0.6232  0.3080
  880MPD2    C312958   2.769   0.182   0.160 -0.1717  0.5362  0.4387
  880MPD2    C412959   2.878   0.194   0.075  0.3448  0.1324  0.1385
  880MPD2    C512960   2.892   0.304  17.733 -0.7961  0.3437  0.6934
  880MPD2     H12961   2.598   0.270   0.233  0.1167  3.2340  0.3301
  880MPD2    H112962   2.954   0.118   0.060  1.8189  1.5935  0.0989
  880MPD2    H212963   2.834   0.486  17.674  1.3861 -0.1148  0.3940
  880MPD2    H312964   2.970   0.303  17.657 -1.3117 -1.1401  0.1747
  880MPD2     N12965   2.747   0.072   0.247 -0.0136  0.7235  0.4562
  880MPD2    H512966   2.668   0.078   0.311  0.7246  1.1375  1.3303
  880MPD2    N112967   2.625   0.516   0.113  0.1624 -0.0874 -0.0478
  880MPD2    H712968   2.652   0.582   0.041  0.1952  0.7339  0.7331
  881MPD2     C12969   2.469   1.365  17.382  0.4542  0.1516  0.1954
  881MPD2    C112970   2.541   1.245  17.366 -0.5453  0.2845  0.4653
  881MPD2    C212971   2.534   1.148  17.462  0.0318 -0.2098  0.1017
  881MPD2    C312972   2.462   1.169  17.583  0.2580  0.3454 -0.4762
  881MPD2    C412973   2.390   1.284  17.598 -0.6779 -0.0322 -0.2117
  881MPD2    C512974   2.391   1.382  17.499  0.0384 -0.5328 -0.1855
  881MPD2     H12975   2.599   1.061  17.467  0.0439 -0.2812 -1.3694
  881MPD2    H112976   2.340   1.309  17.691  0.8696  3.4608 -0.2861
  881MPD2    H212977   2.477   1.454  17.320 -0.7503 -0.3175 -0.6369
  881MPD2    H312978   2.337   1.472  17.526  0.3075 -0.1294 -0.9987
  881MPD2     N12979   2.452   1.077  17.693  0.5089  0.6937  0.1897
  881MPD2    H512980   2.396   1.099   0.037  1.2495  0.8200  0.6641
  881MPD2    N112981   2.642   1.244  17.264 -0.5440 -0.2383 -0.1587
  881MPD2    H712982   2.642   1.329  17.209 -0.1537 -1.2480 -1.7161
  882MPD2     C12983   1.435   2.544  13.715  0.1111  0.2944  0.3888
  882MPD2    C112984   1.405   2.601  13.835 -0.5672 -0.2989  0.9425
  882MPD2    C212985   1.275   2.630  13.858  0.0789 -0.6904 -0.2385
  882MPD2    C312986   1.175   2.617  13.767  0.6500 -0.5362 -0.4199
  882MPD2    C412987   1.208   2.573  13.636 -0.6279  1.0637  0.1502
  882MPD2    C512988   1.335   2.530  13.620  0.2427 -0.0814 -0.4037
  882MPD2     H12989   1.248   2.670  13.955 -3.4416  0.0891 -1.5253
  882MPD2    H112990   1.129   2.548  13.567 -1.0714 -3.5313  2.3040
  882MPD2    H212991   1.535   2.508  13.694  0.9419  1.5634  2.1364
  882MPD2    H312992   1.366   2.483  13.528 -1.5651 -0.9301 -0.5783
  882MPD2     N12993   1.048   2.661  13.804  0.2551  0.1944  0.0053
  882MPD2    H512994   1.040   2.696  13.898  1.6030 -0.6610  0.4383
  882MPD2    N112995   1.512   2.639  13.928 -0.0374 -0.2647  0.3976
  882MPD2    H712996   1.607   2.605  13.917 -0.0393 -1.2270  3.3474
  883MPD2     C12997   3.422   3.253  15.868 -0.3795  0.7081  0.2997
  883MPD2    C112998   3.494   3.212  15.759  0.4262 -0.0960 -0.0864
  883MPD2    C212999   3.622   3.264  15.757  0.2958  0.4070  0.2957
  883MPD2    C313000   3.671   3.352  15.855  0.2684  0.0718  0.0312
  883MPD2    C413001   3.598   3.379  15.964  0.7803 -0.3432 -0.8226
  883MPD2    C513002   3.468   3.331  15.971 -0.2935 -0.0097 -0.8840
  883MPD2     H13003   3.682   3.253  15.668 -0.4437 -1.3168  0.0175
  883MPD2    H113004   3.630   3.448  16.041 -2.3985 -0.7358  0.8868
  883MPD2    H213005   3.318   3.224  15.876 -0.0762 -0.9279 -1.6896
  883MPD2    H313006   3.403   3.355  16.055  1.3759  0.2989  0.3243
  883MPD2     N13007   3.795   3.415  15.827  0.0139  0.2145  0.0064
  883MPD2    H513008   3.829   3.408  15.731 -2.1152  0.6189 -0.7764
  883MPD2    N113009   3.454   3.126  15.656 -0.7297  0.0936 -0.0787
  883MPD2    H713010   3.525   3.106  15.587  0.3165 -1.7587  1.5212
  884MPD2     C13011   0.763   3.740  14.685  0.3656 -0.6997  0.3848
  884MPD2    C113012   0.772   3.872  14.717 -0.5195 -0.7179 -0.1686
  884MPD2    C213013   0.666   3.935  14.773  0.0286  0.4419  0.5643
  884MPD2    C313014   0.554   3.864  14.822  0.1831 -0.1130 -0.5677
  884MPD2    C413015   0.549   3.728  14.798 -0.4879 -0.4496 -0.8046
  884MPD2    C513016   0.646   3.669  14.719 -0.1554  0.3407  0.2489
  884MPD2     H13017   0.678   4.040  14.800 -2.2271  0.6731  0.7007
  884MPD2    H113018   0.463   3.670  14.829 -0.7521  0.6132  0.4850
  884MPD2    H213019   0.846   3.687  14.639  0.6998  1.0270 -0.9492
  884MPD2    H313020   0.638   3.565  14.689 -0.4004  0.0564  1.3321
  884MPD2     N13021   0.456   3.935  14.904  0.4511 -0.1524 -0.1956
  884MPD2    H513022   0.467   4.036  14.896  2.8357 -0.4760 -0.9312
  884MPD2    N113023   0.880   3.961  14.688 -0.3516  0.3699 -0.4561
  884MPD2    H713024   0.876   4.051  14.736 -1.7389  0.2341 -0.3137
  885MPD2     C13025   3.643   4.061   0.069 -0.0508 -0.3370  0.4369
  885MPD2    C113026   3.665   3.930   0.032 -0.0020  0.2002  0.4242
  885MPD2    C213027   3.650   3.883  17.646  0.0762  0.1262  0.1726
  885MPD2    C313028   3.603   3.970  17.549 -0.2674  0.7340  0.1599
  885MPD2    C413029   3.588   4.108  17.584 -0.3254  0.0524  1.2035
  885MPD2    C513030   3.600   4.147  17.713  0.0812 -0.1951  0.2283
  885MPD2     H13031   3.680   3.780  17.627 -1.0635 -0.3030  0.6693
  885MPD2    H113032   3.553   4.171  17.503  0.9190  0.4652  0.9872
  885MPD2    H213033   3.667   4.104   0.165  1.7131  2.0068 -1.0605
  885MPD2    H313034   3.599   4.249   0.009 -0.7200  0.0821 -0.6431
  885MPD2     N13035   3.596   3.918  17.414 -0.8557  0.2991 -0.4924
  885MPD2    H513036   3.636   3.830  17.384 -0.8087  0.9226 -2.2585
  885MPD2    N113037   3.704   3.844   0.139  0.6332  0.6763 -0.0208
  885MPD2    H713038   3.722   3.890   0.227 -1.5893  1.2301  0.1392
  886MPD2     C13039   4.724   2.591  14.813 -0.3592  0.2358 -0.7899
  886MPD2    C113040   0.074   2.666  14.892  1.3228 -0.1963  0.0213
  886MPD2    C213041   0.134   2.774  14.829  0.3456  0.6558  0.6067
  886MPD2    C313042   0.112   2.810  14.696 -0.2968  0.5034 -0.1700
  886MPD2    C413043   0.008   2.748  14.627  0.3385  0.5205  0.1227
  886MPD2    C513044   4.690   2.634  14.688  0.3757  0.1270  0.2849
  886MPD2     H13045   0.207   2.831  14.883  2.3182 -0.8645 -0.4392
  886MPD2    H113046   4.701   2.781  14.532  0.1018 -2.0878 -0.7032
  886MPD2    H213047   4.687   2.505  14.867 -0.5209  1.1682  0.5825
  886MPD2    H313048   4.605   2.587  14.640 -0.6869  1.9107  0.4310
  886MPD2     N13049   0.181   2.917  14.633 -0.2549  0.2339  0.8860
  886MPD2    H513050   0.143   2.953  14.546 -0.6343 -1.0113  0.5309
  886MPD2    N113051   0.114   2.609  15.016 -0.0175 -0.1653  0.1498
  886MPD2    H713052   0.050   2.539  15.052 -1.8912  1.5995  0.2207
  887MPD2     C13053   0.623   2.716  15.657  0.1981 -0.4354 -0.5749
  887MPD2    C113054   0.574   2.758  15.535  0.1161  0.2490  0.1749
  887MPD2    C213055   0.664   2.807  15.445  0.8672  0.6949  0.7711
  887MPD2    C313056   0.794   2.838  15.476 -0.3711  0.3294 -0.7297
  887MPD2    C413057   0.840   2.793  15.596 -0.4859 -0.0947  0.1233
  887MPD2    C513058   0.751   2.728  15.685  0.1869  0.3558  0.2261
  887MPD2     H13059   0.626   2.841  15.350  1.6477  0.1668  0.2649
  887MPD2    H113060   0.941   2.795  15.634 -1.0935  0.9835  1.6935
  887MPD2    H213061   0.558   2.658  15.721  0.8778  0.8313  1.2631
  887MPD2    H313062   0.789   2.684  15.776  2.1519 -0.3537 -0.9302
  887MPD2     N13063   0.877   2.914  15.389 -0.0821  0.5381  0.0176
  887MPD2    H513064   0.831   2.962  15.312  0.7186 -1.5183 -1.7404
  887MPD2    N113065   0.439   2.738  15.491 -0.3612  0.4687 -0.0448
  887MPD2    H713066   0.420   2.753  15.393 -2.5621 -0.9000  0.1485
  888MPD2     C13067   2.463   2.593  14.275  0.1777 -0.1967 -0.5772
  888MPD2    C113068   2.482   2.631  14.405 -1.4687  0.1879 -0.1212
  888MPD2    C213069   2.561   2.745  14.425 -0.9412 -0.4864 -0.3362
  888MPD2    C313070   2.601   2.828  14.314 -0.6673  0.3740 -0.2387
  888MPD2    C413071   2.562   2.789  14.185  0.5232  0.3842  0.0354
  888MPD2    C513072   2.498   2.673  14.168 -0.4571  0.7719 -0.0375
  888MPD2     H13073   2.582   2.779  14.526  0.7166 -0.5725 -0.6573
  888MPD2    H113074   2.578   2.851  14.097 -1.4620  0.2985 -0.3949
  888MPD2    H213075   2.435   2.492  14.249 -1.0355 -0.3478  1.2679
  888MPD2    H313076   2.473   2.642  14.067  1.4778 -0.0960 -0.2573
  888MPD2     N13077   2.655   2.954  14.355  0.1074 -0.1202  1.0167
  888MPD2    H513078   2.665   2.968  14.455 -1.4118 -3.2898  1.6141
  888MPD2    N113079   2.447   2.544  14.518 -0.0555  0.0360  0.1479
  888MPD2    H713080   2.493   2.575  14.604 -1.9863  2.0208  0.4509
  889MPD2     C13081   1.403   1.841  12.956 -0.0976  0.9050 -0.3713
  889MPD2    C113082   1.525   1.863  13.015  0.3858 -0.2539 -0.3672
  889MPD2    C213083   1.561   1.992  13.042  0.3806 -0.4574 -0.1999
  889MPD2    C313084   1.491   2.099  12.983 -0.0820  0.1232 -0.0733
  889MPD2    C413085   1.380   2.069  12.907  0.3072 -0.1477  0.0152
  889MPD2    C513086   1.326   1.942  12.906  0.1734  0.2321  0.5904
  889MPD2     H13087   1.643   2.006  13.112  1.1189  0.5577 -1.2688
  889MPD2    H113088   1.334   2.140  12.838  0.0558 -0.0569  0.2759
  889MPD2    H213089   1.367   1.739  12.946 -0.6466  0.9297  1.3312
  889MPD2    H313090   1.234   1.915  12.855 -0.5015  0.8294  1.4963
  889MPD2     N13091   1.536   2.234  13.003 -0.4577 -0.2781 -0.6133
  889MPD2    H513092   1.622   2.245  13.056 -0.7482  0.0975 -0.2160
  889MPD2    N113093   1.576   1.748  13.080 -0.1975  0.1968 -0.2237
  889MPD2    H713094   1.531   1.658  13.064  0.4250 -0.1435 -0.0604
  890MPD2     C13095   1.205   4.073  14.220  0.4325 -0.3907 -0.0117
  890MPD2    C113096   1.312   4.160  14.252 -0.2289  0.0878 -0.1820
  890MPD2    C213097   1.426   4.099  14.305 -0.1500 -1.2260  0.1992
  890MPD2    C313098   1.425   3.969  14.345 -0.4873 -0.6664  0.2491
  890MPD2    C413099   1.312   3.885  14.328 -0.0818 -0.4451 -0.5071
  890MPD2    C513100   1.205   3.940  14.254 -0.0769 -0.5307 -0.2998
  890MPD2     H13101   1.514   4.159  14.327 -0.5979 -0.0882 -1.1511
  890MPD2    H113102   1.309   3.780  14.357  0.5246 -0.0897  0.8465
  890MPD2    H213103   1.112   4.119  14.188  1.3125  0.6462 -1.0933
  890MPD2    H313104   1.113   3.885  14.242  0.1919 -0.4704 -2.5216
  890MPD2     N13105   1.549   3.919  14.406 -0.0492 -0.0906  0.8936
  890MPD2    H513106   1.626   3.986  14.410 -0.6999  0.4994  3.8716
  890MPD2    N113107   1.294   4.300  14.222 -0.2898  0.0820  0.0998
  890MPD2    H713108   1.214   4.325  14.165 -0.4093 -1.9478 -0.6438
  891MPD2     C13109   4.584   3.016  16.283 -0.0973  0.1506 -0.1518
  891MPD2    C113110   4.495   3.036  16.389  0.0923 -0.3641  0.0340
  891MPD2    C213111   4.475   2.938  16.481  0.1255 -0.3285 -0.0730
  891MPD2    C313112   4.551   2.823  16.486  0.2627 -0.7066 -0.6916
  891MPD2    C413113   4.645   2.807  16.389  0.7325  0.5518 -0.0548
  891MPD2    C513114   4.657   2.898  16.284 -0.1988  0.4680 -0.0884
  891MPD2     H13115   4.390   2.939  16.548  0.7669  0.0317  0.7318
  891MPD2    H113116   4.725   2.735  16.394 -0.8765 -1.2637 -0.3198
  891MPD2    H213117   4.612   3.088  16.207  0.7386  0.1812  0.1815
  891MPD2    H313118   4.726   2.874  16.204  1.6607 -0.8058  1.8817
  891MPD2     N13119   4.538   2.729  16.589  0.5568  0.0549  0.1758
  891MPD2    H513120   4.489   2.773  16.667 -1.9598  2.4479 -2.7474
  891MPD2    N113121   4.413   3.155  16.370  0.8396 -0.2890  0.2110
  891MPD2    H713122   4.442   3.210  16.290  0.3568  0.0131  0.2472
  892MPD2     C13123   0.780   3.513  13.881 -0.1486 -0.0179 -0.2982
  892MPD2    C113124   0.689   3.452  13.968 -0.4490 -0.4778  0.3357
  892MPD2    C213125   0.691   3.314  13.986 -0.4523 -0.0577  0.4104
  892MPD2    C313126   0.763   3.235  13.889  0.0221 -0.1011 -0.1661
  892MPD2    C413127   0.839   3.302  13.798  0.1648 -0.6583  0.5120
  892MPD2    C513128   0.851   3.438  13.800 -0.5058 -0.5816 -0.1554
  892MPD2     H13129   0.626   3.268  14.060 -1.6545  0.4220 -0.3458
  892MPD2    H113130   0.897   3.248  13.724  2.0107  2.5667 -0.3966
  892MPD2    H213131   0.790   3.621  13.876  1.2291 -0.0783  0.9695
  892MPD2    H313132   0.911   3.488  13.725  0.2135 -0.3344  0.5753
  892MPD2     N13133   0.767   3.097  13.885 -0.0713 -0.2754 -0.9854
  892MPD2    H513134   0.823   3.054  13.812  1.1806  2.1331 -1.4703
  892MPD2    N113135   0.612   3.536  14.049  0.3687 -0.0565  0.4916
  892MPD2    H713136   0.613   3.635  14.024 -0.4405 -0.2724 -0.4161
  893MPD2     C13137   1.647   1.154   1.468 -0.0017  0.1965  0.0301
  893MPD2    C113138   1.594   1.229   1.364  0.6653 -0.2319  0.0892
  893MPD2    C213139   1.465   1.198   1.321  0.2712  0.0317 -0.5022
  893MPD2    C313140   1.402   1.086   1.367  0.1752 -0.0355  0.2183
  893MPD2    C413141   1.466   1.005   1.460  0.4721  0.3189  0.0474
  893MPD2    C513142   1.587   1.040   1.515  0.5410  0.3572  0.9441
  893MPD2     H13143   1.427   1.255   1.238 -0.4794 -1.3246 -1.0922
  893MPD2    H113144   1.421   0.909   1.484  1.9796  0.1114  2.0745
  893MPD2    H213145   1.742   1.180   1.515 -0.8101  1.1439  1.1459
  893MPD2    H313146   1.635   0.986   1.595  0.3763  0.0868  0.8603
  893MPD2     N13147   1.279   1.036   1.320 -0.9391  0.1570 -0.5422
  893MPD2    H513148   1.257   0.942   1.351  1.1375  0.1455  0.9254
  893MPD2    N113149   1.672   1.335   1.316 -0.0511  0.8175  1.0107
  893MPD2    H713150   1.767   1.350   1.349  0.7572  1.6783 -1.6307
  894MPD2     C13151   0.425   3.907   0.731  0.2317 -0.3326  0.4811
  894MPD2    C113152   0.315   3.941   0.807  0.2018 -0.3526 -0.6241
  894MPD2    C213153   0.286   4.077   0.829 -0.3720 -0.2506 -1.1193
  894MPD2    C313154   0.361   4.173   0.764  0.9598  0.1786  0.1144
  894MPD2    C413155   0.454   4.132   0.672  0.0148 -0.3070  0.1003
  894MPD2    C513156   0.488   3.999   0.649  0.4946  0.2190  0.9528
  894MPD2     H13157   0.203   4.107   0.891  0.8313  2.3366 -0.7589
  894MPD2    H113158   0.503   4.202   0.606  1.9953 -1.4724  0.3228
  894MPD2    H213159   0.443   3.803   0.705  0.1072  0.7139 -3.7634
  894MPD2    H313160   0.561   3.972   0.574 -0.6095  0.8128 -0.3338
  894MPD2     N13161   0.346   4.308   0.800  0.4440 -0.1065  0.4858
  894MPD2    H513162   0.284   4.317   0.880 -1.0933 -1.6832 -0.5160
  894MPD2    N113163   0.237   3.845   0.868 -0.4459 -0.4782  0.0607
  894MPD2    H713164   0.270   3.749   0.873 -2.1238 -1.0169  0.7417
  895MPD2     C13165   4.320   2.516  13.691 -0.5497 -0.9282 -0.0157
  895MPD2    C113166   4.224   2.433  13.634  1.1189  0.1150  0.1668
  895MPD2    C213167   4.257   2.310  13.586  0.6552 -0.2409 -0.0501
  895MPD2    C313168   4.391   2.275  13.579  0.1358  0.0984 -0.8274
  895MPD2    C413169   4.486   2.359  13.639 -0.2290 -0.2249  0.0705
  895MPD2    C513170   4.453   2.479  13.693  0.0204  0.9223 -0.0390
  895MPD2     H13171   4.188   2.239  13.542  1.6418 -1.9214  1.1266
  895MPD2    H113172   4.593   2.339  13.637 -0.4972 -1.6541 -0.4352
  895MPD2    H213173   4.296   2.613  13.733 -1.4970 -0.2812 -2.0854
  895MPD2    H313174   4.527   2.542  13.740  0.8315  0.7890 -1.1355
  895MPD2     N13175   4.427   2.148  13.532  0.1786 -0.1049 -0.4063
  895MPD2    H513176   4.351   2.092  13.494 -0.2349  1.3178 -1.6632
  895MPD2    N113177   4.086   2.463  13.622 -0.4014 -0.2987  0.2600
  895MPD2    H713178   4.028   2.407  13.562  0.3144 -0.3277 -0.4135
  896MPD2     C13179   1.824   0.023   1.873 -0.0300  0.0018 -0.6025
  896MPD2    C113180   1.823   4.717   1.738  0.5341  1.0795  0.6855
  896MPD2    C213181   1.702   4.665   1.702  0.3142 -0.0078  0.2337
  896MPD2    C313182   1.587   4.669   1.781 -0.4022  0.0261  0.1864
  896MPD2    C413183   1.596   4.721   1.910 -0.1118 -0.5696 -0.2407
  896MPD2    C513184   1.717   0.024   1.956  0.1926 -0.1125 -0.3201
  896MPD2     H13185   1.701   4.618   1.604  2.7165  0.6520 -0.1238
  896MPD2    H113186   1.516   0.004   1.981  1.3738  0.0268  1.2866
  896MPD2    H213187   1.912   0.057   1.928 -1.6401  0.1199  1.8966
  896MPD2    H313188   1.723   0.068   2.055  0.2376 -1.3751  0.2432
  896MPD2     N13189   1.465   4.627   1.721  0.0652 -0.1318  0.4405
  896MPD2    H513190   1.477   4.571   1.637 -1.2807 -0.4376  0.4565
  896MPD2    N113191   1.940   0.004   1.665 -0.1016 -0.2581  0.4084
  896MPD2    H713192   2.012   0.059   1.710 -0.5776  3.1568 -2.9892
  897MPD2     C13193   2.692   1.553  10.332 -0.4795 -0.0221  0.1259
  897MPD2    C113194   2.630   1.675  10.363 -0.0996 -0.3158 -0.9182
  897MPD2    C213195   2.518   1.677  10.452  1.0663  0.1602  0.3379
  897MPD2    C313196   2.463   1.560  10.486  0.0030  0.4814 -0.3794
  897MPD2    C413197   2.515   1.441  10.444 -0.2014  0.0743 -0.4190
  897MPD2    C513198   2.629   1.438  10.372 -0.0673 -0.6670 -0.0444
  897MPD2     H13199   2.467   1.770  10.474  1.1626  0.4552 -0.6793
  897MPD2    H113200   2.472   1.343  10.464 -1.9167  1.1311  1.0601
  897MPD2    H213201   2.781   1.542  10.271 -0.4492  1.1059 -0.0311
  897MPD2    H313202   2.673   1.341  10.356 -2.7273 -2.3365  2.6698
  897MPD2     N13203   2.343   1.566  10.569  0.0100 -0.9981 -0.0334
  897MPD2    H513204   2.301   1.655  10.592  0.3839 -0.9371  0.4196
  897MPD2    N113205   2.692   1.787  10.298 -0.3210  0.1660 -0.1900
  897MPD2    H713206   2.765   1.766  10.231  2.6878  0.6123  2.9183
  898MPD2     C13207   0.363   2.587  17.110 -0.5930 -0.3501  1.0388
  898MPD2    C113208   0.337   2.603  17.247 -0.3051  0.5163  0.0269
  898MPD2    C213209   0.371   2.726  17.308  0.5254 -0.4870  0.3082
  898MPD2    C313210   0.420   2.824  17.237 -0.0084  0.0049 -0.0185
  898MPD2    C413211   0.463   2.800  17.108  0.7251  0.3935  0.3032
  898MPD2    C513212   0.429   2.686  17.051  0.8845 -0.3398 -0.2178
  898MPD2     H13213   0.354   2.745  17.413  0.1071  0.9735 -0.0256
  898MPD2    H113214   0.522   2.871  17.052  0.6741 -0.8244 -1.3082
  898MPD2    H213215   0.355   2.491  17.059 -0.8831  1.2946 -2.0033
  898MPD2    H313216   0.461   2.672  16.948  3.6111 -2.1312  0.8579
  898MPD2     N13217   0.448   2.954  17.302 -0.6005 -0.0329  0.1721
  898MPD2    H513218   0.426   2.961  17.400  0.5026 -1.3945  0.5241
  898MPD2    N113219   0.282   2.501  17.322  0.0422  0.3435 -0.2870
  898MPD2    H713220   0.274   2.509  17.423 -0.4538  2.6913 -0.5269
  899MPD2     C13221   1.171   2.964  17.124 -0.2364  0.2451  0.0621
  899MPD2    C113222   1.174   3.080  17.192  0.5947 -0.9903  0.0015
  899MPD2    C213223   1.153   3.078  17.331 -0.3277 -0.4546  0.4143
  899MPD2    C313224   1.122   2.953  17.384 -0.8945 -0.0322  0.0248
  899MPD2    C413225   1.119   2.838  17.311  0.6227 -0.5856  0.4032
  899MPD2    C513226   1.133   2.846  17.177  0.1998  0.4344 -0.2536
  899MPD2     H13227   1.164   3.161  17.399  1.3453 -1.7706  1.7354
  899MPD2    H113228   1.095   2.745  17.361 -0.9955  0.7974  2.1636
  899MPD2    H213229   1.195   2.957  17.018  0.7251  2.2772  0.1257
  899MPD2    H313230   1.129   2.758  17.114 -2.7795 -0.7695  1.5944
  899MPD2     N13231   1.089   2.938  17.521 -0.6351  0.5190 -0.5485
  899MPD2    H513232   1.088   2.841  17.549 -0.3827  0.2223 -1.5452
  899MPD2    N113233   1.197   3.200  17.123  0.0896 -0.3469 -0.2489
  899MPD2    H713234   1.220   3.190  17.024  0.0374  0.7264 -0.3675
  900MPD2     C13235   0.576   0.076  12.309 -0.8927 -0.5545  0.5518
  900MPD2    C113236   0.471   4.723  12.294 -0.0892 -0.3233 -0.5896
  900MPD2    C213237   0.360   0.047  12.240 -0.6956 -0.2556  0.2854
  900MPD2    C313238   0.345   0.180  12.208 -0.0425 -0.0382 -0.3589
  900MPD2    C413239   0.451   0.265  12.241  0.6649 -0.3679  0.1045
  900MPD2    C513240   0.564   0.211  12.289 -0.5434  0.0018  0.0068
  900MPD2     H13241   0.277   4.716  12.217 -0.7827 -0.6999  1.8759
  900MPD2    H113242   0.445   0.372  12.227 -0.2530 -0.2545  1.2683
  900MPD2    H213243   0.671   0.039  12.347 -0.2041  0.9481  0.3128
  900MPD2    H313244   0.651   0.275  12.303 -0.7980  0.1545  0.8591
  900MPD2     N13245   0.222   0.225  12.163  0.3618 -0.0693 -0.8375
  900MPD2    H513246   0.149   0.155  12.163 -0.8462  1.1856 -0.7790
  900MPD2    N113247   0.485   4.589  12.334  0.3314  0.8304  0.2131
  900MPD2    H713248   0.570   4.561  12.382 -0.9113  1.0121  2.4959
  901MPD2     C13249   0.250   3.564  12.635  0.5596 -0.2261 -0.5657
  901MPD2    C113250   0.376   3.569  12.580  0.1505 -0.4429  0.4599
  901MPD2    C213251   0.411   3.691  12.525  0.0516  0.1465 -0.0186
  901MPD2    C313252   0.322   3.794  12.508  0.4609 -1.0599  0.1309
  901MPD2    C413253   0.194   3.786  12.552 -0.7799  0.2770  0.8049
  901MPD2    C513254   0.166   3.672  12.626 -0.0118  0.3223  0.2049
  901MPD2     H13255   0.511   3.703  12.484 -1.2344  2.4749 -2.4657
  901MPD2    H113256   0.134   3.874  12.573  1.0217  1.7407 -0.2154
  901MPD2    H213257   0.209   3.481  12.691  2.3625 -1.4921 -1.1398
  901MPD2    H313258   0.066   3.668  12.666  0.3006 -0.2817  0.9013
  901MPD2     N13259   0.382   3.909  12.457  0.0754  0.0636  0.7088
  901MPD2    H513260   0.478   3.911  12.423  0.8385 -1.0899  2.8088
  901MPD2    N113261   0.447   3.449  12.566  0.2967  0.3006 -0.3479
  901MPD2    H713262   0.401   3.365  12.600 -1.6163  1.4192 -0.1501
  902MPD2     C13263   4.104   2.539  12.916  0.2948  0.4217 -0.2964
  902MPD2    C113264   4.184   2.641  12.868  0.4319  0.7143  0.1364
  902MPD2    C213265   4.289   2.601  12.784 -0.0168 -0.1461 -0.5515
  902MPD2    C313266   4.301   2.464  12.751 -0.6928 -0.3339  0.4303
  902MPD2    C413267   4.228   2.368  12.811 -0.6441  0.0673  0.5271
  902MPD2    C513268   4.122   2.405  12.889  0.0894  0.3879 -0.4354
  902MPD2     H13269   4.370   2.669  12.761 -1.1831  1.1036 -0.9922
  902MPD2    H113270   4.249   2.264  12.791 -0.1471  0.3405 -0.3680
  902MPD2    H213271   4.032   2.563  12.992  1.0024  1.0337  0.1852
  902MPD2    H313272   4.059   2.329  12.934  1.4637 -1.4620 -1.6238
  902MPD2     N13273   4.375   2.425  12.638 -0.1808  0.7675  0.2647
  902MPD2    H513274   4.360   2.328  12.611  4.1868  0.2353 -0.2321
  902MPD2    N113275   4.150   2.774  12.910  0.1637  0.3276  0.0805
  902MPD2    H713276   4.063   2.791  12.959 -0.9402 -1.5234 -1.2492
  903MPD2     C13277   4.379   2.892  12.079 -0.5875  0.0900  0.1622
  903MPD2    C113278   4.328   2.774  12.097  0.1431  0.3561 -0.0840
  903MPD2    C213279   4.198   2.752  12.085  0.1987  1.3407  0.3026
  903MPD2    C313280   4.113   2.855  12.050  0.1588 -0.6371 -0.1674
  903MPD2    C413281   4.162   2.978  12.030 -0.9753  0.5209 -0.4238
  903MPD2    C513282   4.298   2.993  12.040  0.2158 -0.2869 -0.3391
  903MPD2     H13283   4.153   2.656  12.104  1.8680  0.3168 -0.8946
  903MPD2    H113284   4.097   3.062  12.009  1.1607  2.1708 -0.3983
  903MPD2    H213285   4.486   2.894  12.091 -0.7450 -2.8445  2.1877
  903MPD2    H313286   4.338   3.094  12.034  1.9045 -0.9778 -0.6791
  903MPD2     N13287   3.971   2.832  12.046 -0.2605 -0.4411  0.4304
  903MPD2    H513288   3.945   2.736  12.067 -0.2398 -0.5100  0.1417
  903MPD2    N113289   4.423   2.674  12.131 -0.0449  0.3389  0.0954
  903MPD2    H713290   4.517   2.704  12.154  0.2161  0.4017 -1.0179
  904MPD2     C13291   4.250   1.628  14.053  0.3181  0.2896  0.0461
  904MPD2    C113292   4.264   1.757  14.082 -0.5084 -0.6873 -0.0101
  904MPD2    C213293   4.390   1.802  14.121 -0.5266 -0.4176 -0.2042
  904MPD2    C313294   4.500   1.727  14.119  0.1555 -0.7481 -0.9511
  904MPD2    C413295   4.484   1.593  14.078  0.1105 -0.1114  0.2023
  904MPD2    C513296   4.360   1.543  14.046  0.6154  0.1315 -0.0805
  904MPD2     H13297   4.407   1.908  14.135  1.4187 -0.2993 -3.4923
  904MPD2    H113298   4.567   1.524  14.069  0.4031  0.9798 -5.4916
  904MPD2    H213299   4.153   1.591  14.023  0.2288  2.0869 -1.9084
  904MPD2    H313300   4.352   1.435  14.039  2.7656 -0.0538  0.4728
  904MPD2     N13301   4.621   1.790  14.144 -0.4338  0.6388  0.3497
  904MPD2    H513302   4.623   1.889  14.165 -2.4277  1.3199 -2.6432
  904MPD2    N113303   4.142   1.837  14.078  0.4849 -0.3005 -0.5520
  904MPD2    H713304   4.061   1.808  14.023 -1.2205 -0.0574  1.8432
  905MPD2     C13305   3.767   1.781  13.547 -0.2044  0.1703 -0.0769
  905MPD2    C113306   3.860   1.877  13.586 -0.7222  0.5153 -0.8348
  905MPD2    C213307   3.978   1.885  13.513  0.3891  0.1660 -0.9217
  905MPD2    C313308   4.004   1.801  13.410 -0.2015  0.2105 -0.3218
  905MPD2    C413309   3.913   1.713  13.367 -0.5506  0.2052  0.3129
  905MPD2    C513310   3.795   1.708  13.433 -0.3364 -0.2670  0.2635
  905MPD2     H13311   4.062   1.934  13.561 -0.6822  0.3255  0.7693
  905MPD2    H113312   3.919   1.646  13.282  0.8965 -1.5975  1.8756
  905MPD2    H213313   3.674   1.775  13.603  0.1006 -0.2058  0.3855
  905MPD2    H313314   3.718   1.634  13.411  0.1536 -0.4248 -0.9160
  905MPD2     N13315   4.132   1.801  13.343 -0.1900  0.0661 -0.1672
  905MPD2    H513316   4.146   1.732  13.269  0.3245 -0.6346  0.5820
  905MPD2    N113317   3.850   1.958  13.702 -0.3389 -0.1424 -0.4765
  905MPD2    H713318   3.771   1.944  13.764 -0.0034 -1.7259 -0.4090
  906MPD2     C13319   0.939   1.644  11.131 -0.0883  0.0689  0.6460
  906MPD2    C113320   0.898   1.573  11.020 -0.3724 -0.7369  0.3256
  906MPD2    C213321   0.801   1.475  11.041  0.0070 -0.2872 -0.2589
  906MPD2    C313322   0.736   1.450  11.157 -0.1598 -0.4631  0.0484
  906MPD2    C413323   0.773   1.522  11.263 -0.1007 -0.3707  0.3546
  906MPD2    C513324   0.877   1.616  11.250 -0.4264  0.0628 -0.0501
  906MPD2     H13325   0.776   1.418  10.952 -2.4943  1.5425 -0.7150
  906MPD2    H113326   0.734   1.505  11.363  0.0497  1.8391  0.7902
  906MPD2    H213327   1.006   1.728  11.120 -1.2346  0.8907 -0.0741
  906MPD2    H313328   0.911   1.666  11.340 -0.4802 -0.0659  0.0423
  906MPD2     N13329   0.632   1.351  11.172  0.0721  0.6941  0.1056
  906MPD2    H513330   0.598   1.335  11.267  2.0899 -0.3328  0.6534
  906MPD2    N113331   0.941   1.589  10.882  0.6141 -0.2588  0.2004
  906MPD2    H713332   0.901   1.527  10.812 -1.4160 -0.9378  1.9570
  907MPD2     C13333   0.365   1.262  15.619  0.7643 -0.1104 -0.9029
  907MPD2    C113334   0.417   1.141  15.560  0.8377  0.0481 -0.2152
  907MPD2    C213335   0.457   1.037  15.648  0.0627  0.3517  0.1544
  907MPD2    C313336   0.456   1.046  15.787 -0.2728  0.4936 -0.9142
  907MPD2    C413337   0.414   1.168  15.839 -0.4076  0.0747 -0.3531
  907MPD2    C513338   0.372   1.271  15.757 -0.5597 -0.6603  0.2052
  907MPD2     H13339   0.493   0.943  15.608 -1.9596 -0.5733  0.4992
  907MPD2    H113340   0.413   1.180  15.947 -0.6149  0.1679 -0.3666
  907MPD2    H213341   0.330   1.345  15.559 -0.9747  0.5682  1.0513
  907MPD2    H313342   0.328   1.357  15.805  0.9218 -0.7723  1.7743
  907MPD2     N13343   0.498   0.935  15.861  0.1640 -0.0836 -0.0133
  907MPD2    H513344   0.531   0.859  15.802  1.1575 -0.2223  0.7162
  907MPD2    N113345   0.437   1.120  15.424 -0.4196  0.0590 -0.0422
  907MPD2    H713346   0.475   1.031  15.393 -0.0520 -0.7852  2.8263
  908MPD2     C13347   2.655   1.723   9.494 -0.3102 -0.5098  0.0672
  908MPD2    C113348   2.757   1.690   9.589  0.6975 -0.0772 -0.2169
  908MPD2    C213349   2.785   1.777   9.691 -0.0990 -0.0913  0.0677
  908MPD2    C313350   2.710   1.887   9.709  0.4468 -0.7010 -0.3236
  908MPD2    C413351   2.603   1.911   9.618  0.6902 -0.0092 -0.0038
  908MPD2    C513352   2.573   1.831   9.513  0.5420 -0.4587 -0.0370
  908MPD2     H13353   2.871   1.759   9.754 -0.0325 -2.8479 -0.8053
  908MPD2    H113354   2.546   2.002   9.633  0.7128 -0.0632  0.4285
  908MPD2    H213355   2.643   1.668   9.402  0.3779  0.0119 -0.3460
  908MPD2    H313356   2.504   1.858   9.434 -1.4635  1.9415  2.5461
  908MPD2     N13357   2.739   1.963   9.827  0.5984  0.1765  0.5035
  908MPD2    H513358   2.819   1.924   9.875  0.2544 -1.4042 -0.1920
  908MPD2    N113359   2.829   1.568   9.565 -0.2293  0.2498  0.0269
  908MPD2    H713360   2.795   1.507   9.491  0.6925  0.0456 -0.2319
  909MPD2     C13361   3.039   4.408  11.752 -0.1323 -0.1168 -0.6124
  909MPD2    C113362   3.024   4.481  11.638  0.0657 -0.3065  0.1522
  909MPD2    C213363   2.969   4.608  11.647 -0.1173  0.1025  0.0741
  909MPD2    C313364   2.930   4.663  11.763 -0.1637 -0.1834  0.3415
  909MPD2    C413365   2.944   4.589  11.878 -0.2025 -0.4282 -0.0212
  909MPD2    C513366   3.003   4.464  11.872 -0.0678  0.0533  0.2168
  909MPD2     H13367   2.959   4.660  11.552 -0.9595  0.6748  0.4706
  909MPD2    H113368   2.903   4.622  11.973  0.0586 -1.4579  0.4469
  909MPD2    H213369   3.085   4.310  11.755 -0.1958 -0.1187  0.1687
  909MPD2    H313370   3.007   4.403  11.962 -0.2144 -2.3474 -1.4102
  909MPD2     N13371   2.865   0.052  11.758  0.2104 -0.1449 -0.1040
  909MPD2    H513372   2.836   0.068  11.662  1.9921 -1.6444 -0.8949
  909MPD2    N113373   3.067   4.439  11.508  0.4917 -0.2284 -0.3132
  909MPD2    H713374   3.063   4.512  11.438 -2.3007  0.7471  0.8678
  910MPD2     C13375   4.561   1.438  16.265 -0.1001 -0.0902 -0.3565
  910MPD2    C113376   4.639   1.387  16.168  0.1788  0.1181 -0.2608
  910MPD2    C213377   4.678   1.471  16.065  0.1683  0.5390  0.4243
  910MPD2    C313378   4.640   1.604  16.050 -0.6852  0.1322  0.1871
  910MPD2    C413379   4.572   1.658  16.159  0.6111  0.2440  0.3392
  910MPD2    C513380   4.533   1.574  16.261 -0.3421  0.9107 -0.2525
  910MPD2     H13381   0.020   1.439  15.995 -1.3217  0.1185 -1.0063
  910MPD2    H113382   4.542   1.762  16.165 -2.7250 -0.6610 -0.2953
  910MPD2    H213383   4.526   1.376  16.346  2.1693  1.7872  2.0548
  910MPD2    H313384   4.484   1.625  16.343 -0.3741  0.8929 -0.2606
  910MPD2     N13385   4.675   1.688  15.940 -0.3818 -0.4617  0.3338
  910MPD2    H513386   4.639   1.782  15.952  2.3379  0.5263  0.6672
  910MPD2    N113387   4.690   1.252  16.170  0.0200  1.3122 -0.3809
  910MPD2    H713388   0.011   1.224  16.090 -0.8757 -0.1522 -0.4995
  911MPD2     C13389   2.841   2.335  16.289  0.4799 -0.0503 -0.1145
  911MPD2    C113390   2.909   2.413  16.194 -0.0029  0.2987 -0.1317
  911MPD2    C213391   2.870   2.407  16.061  0.0159  0.2691 -0.4961
  911MPD2    C313392   2.755   2.343  16.025 -0.1724 -0.8655 -0.7050
  911MPD2    C413393   2.691   2.261  16.120  0.1518 -0.3224  0.0144
  911MPD2    C513394   2.735   2.255  16.247  0.2412  0.5484  0.3292
  911MPD2     H13395   2.918   2.465  15.983 -0.5505 -0.1656 -1.1651
  911MPD2    H113396   2.599   2.208  16.099  0.3668 -0.7590  0.1788
  911MPD2    H213397   2.881   2.329  16.390  0.2150  0.4738  0.0250
  911MPD2    H313398   2.697   2.191  16.326  1.5069  1.3260  1.5708
  911MPD2     N13399   2.690   2.352  15.899  0.3182  0.2517  1.1578
  911MPD2    H513400   2.617   2.285  15.877 -0.6466  1.1679  1.5398
  911MPD2    N113401   3.027   2.486  16.221  0.2972  0.2212  0.6313
  911MPD2    H713402   3.083   2.517  16.143  2.1579 -1.2568  1.4027
  912MPD2     C13403   2.511   1.797  15.324 -0.6993  0.2819 -0.2496
  912MPD2    C113404   2.518   1.861  15.445 -0.6496  0.3605 -0.0844
  912MPD2    C213405   2.496   1.781  15.558 -0.1374 -0.1945  0.6504
  912MPD2    C313406   2.452   1.646  15.537  0.4419 -0.6807  0.1289
  912MPD2    C413407   2.428   1.595  15.415 -0.5744 -0.0210 -0.1506
  912MPD2    C513408   2.460   1.668  15.308  0.7745  0.1378  0.4000
  912MPD2     H13409   2.504   1.812  15.661  2.4599  0.9657  0.0933
  912MPD2    H113410   2.399   1.491  15.406 -1.8064  0.1587  1.7527
  912MPD2    H213411   2.545   1.839  15.230  0.4655  0.3761  0.2083
  912MPD2    H313412   2.440   1.634  15.207  0.2019 -2.9615  1.5815
  912MPD2     N13413   2.446   1.573  15.657  0.7845 -0.0355 -0.2166
  912MPD2    H513414   2.473   1.625  15.740 -0.1169  0.7244 -0.3885
  912MPD2    N113415   2.541   1.995  15.451 -0.0599 -0.4698  0.1090
  912MPD2    H713416   2.570   2.041  15.365 -2.2666  2.7454  1.0654
  913MPD2     C13417   1.846   3.645  10.625 -0.2178  0.0580 -0.1256
  913MPD2    C113418   1.948   3.728  10.654  0.0328 -0.0096  0.1236
  913MPD2    C213419   2.045   3.750  10.555  0.2803  1.5987 -0.8271
  913MPD2    C313420   2.037   3.688  10.431 -0.4808 -0.3235 -0.2633
  913MPD2    C413421   1.936   3.598  10.414 -0.2185 -0.4587  0.6194
  913MPD2    C513422   1.845   3.570  10.512  0.2495  0.1196  0.9199
  913MPD2     H13423   2.131   3.816  10.569  1.1809  0.1657  0.3978
  913MPD2    H113424   1.931   3.533  10.328  0.4528 -1.2824  1.2049
  913MPD2    H213425   1.766   3.640  10.699  1.0755  4.3085  1.5879
  913MPD2    H313426   1.765   3.504  10.483  0.5907  0.6883 -1.3412
  913MPD2     N13427   2.145   3.697  10.338  0.4572 -0.1000  0.1803
  913MPD2    H513428   2.123   3.661  10.246 -0.5852 -0.8760  0.7282
  913MPD2    N113429   1.938   3.793  10.782  0.4476 -0.7190 -0.5451
  913MPD2    H713430   1.865   3.765  10.847 -3.2129  2.5610 -3.2712
  914MPD2     C13431   0.348   3.473  11.861  0.0413  0.3359  0.3541
  914MPD2    C113432   0.410   3.540  11.967  0.2233 -0.0206  0.1213
  914MPD2    C213433   0.454   3.474  12.077 -0.3768 -0.1519 -0.8265
  914MPD2    C313434   0.459   3.339  12.077  1.0894  0.2704  0.3841
  914MPD2    C413435   0.407   3.267  11.967 -0.0719  0.0455  0.1771
  914MPD2    C513436   0.343   3.333  11.867 -0.1506 -0.5279 -0.4187
  914MPD2     H13437   0.506   3.527  12.157  0.1092 -1.4282 -0.3034
  914MPD2    H113438   0.387   3.161  11.971  2.3480 -0.4863 -2.1953
  914MPD2    H213439   0.304   3.534  11.783  2.2295 -0.2119 -1.3070
  914MPD2    H313440   0.298   3.274  11.788 -1.1722  0.2220 -0.4020
  914MPD2     N13441   0.508   3.271  12.191 -0.1112 -0.3445 -0.7116
  914MPD2    H513442   0.529   3.333  12.268 -0.3805 -1.4384  0.2343
  914MPD2    N113443   0.411   3.681  11.960 -0.2123 -0.9927  0.1007
  914MPD2    H713444   0.349   3.729  11.896  2.3244  2.9185  0.5803
  915MPD2     C13445   3.260   3.694  16.100 -0.3968 -0.8175  0.6830
  915MPD2    C113446   3.183   3.706  15.984 -0.0765  0.0888 -0.1137
  915MPD2    C213447   3.118   3.821  15.958  0.4566  0.1971 -0.0960
  915MPD2    C313448   3.134   3.935  16.047 -0.7213 -0.0594 -0.2134
  915MPD2    C413449   3.210   3.919  16.157  0.8194  0.1694  0.9425
  915MPD2    C513450   3.278   3.805  16.183 -0.1442 -0.5762  0.8955
  915MPD2     H13451   3.052   3.818  15.872 -0.7798 -0.8596  0.8991
  915MPD2    H113452   3.227   4.001  16.226  0.5331  0.8620  0.1803
  915MPD2    H213453   3.307   3.605  16.139 -0.9044 -2.2508 -1.9725
  915MPD2    H313454   3.334   3.808  16.276  0.3618  1.6775  0.5145
  915MPD2     N13455   3.069   4.062  16.022 -0.4077 -0.1971  0.7927
  915MPD2    H513456   2.989   4.066  15.959  0.9670 -0.2161 -0.9563
  915MPD2    N113457   3.185   3.598  15.897 -0.1405  0.5995  0.0252
  915MPD2    H713458   3.253   3.527  15.922 -0.8155 -0.3793 -0.9196
  916MPD2     C13459   1.804   2.335  16.066 -0.6031 -0.1423  0.3480
  916MPD2    C113460   1.750   2.229  16.004  0.5946  0.5004 -1.0915
  916MPD2    C213461   1.818   2.178  15.894 -0.3293  0.0441 -0.1465
  916MPD2    C313462   1.939   2.234  15.853  0.1263 -0.1902  0.3831
  916MPD2    C413463   1.987   2.348  15.921  0.0925  1.1859 -0.5639
  916MPD2    C513464   1.921   2.395  16.026 -0.6318 -0.0016  0.0090
  916MPD2     H13465   1.778   2.085  15.856  0.5582  0.0013 -0.9772
  916MPD2    H113466   2.080   2.397  15.894  0.1049 -0.4188 -3.4321
  916MPD2    H213467   1.756   2.384  16.150  2.3016  1.2649  1.1578
  916MPD2    H313468   1.953   2.466  16.100 -2.2333  1.4042 -0.6420
  916MPD2     N13469   2.001   2.172  15.743  0.0276 -0.3567 -0.2732
  916MPD2    H513470   1.956   2.088  15.709 -1.9920  0.1635  1.0521
  916MPD2    N113471   1.620   2.186  16.057 -0.7152  0.2225  0.4701
  916MPD2    H713472   1.570   2.245  16.123  0.8855  1.0977  0.9116
  917MPD2     C13473   1.242   4.225  10.844 -0.0429 -0.1595  0.1685
  917MPD2    C113474   1.325   4.263  10.944 -0.2257 -0.6514  0.5651
  917MPD2    C213475   1.411   4.374  10.920 -0.5998  0.3538  0.4148
  917MPD2    C313476   1.399   4.446  10.801  0.0722  0.0780 -0.4477
  917MPD2    C413477   1.311   4.408  10.705 -0.2742 -0.3107  0.3640
  917MPD2    C513478   1.236   4.297  10.729 -0.3563 -0.4401 -0.0197
  917MPD2     H13479   1.476   4.406  11.001 -2.0143  0.2362  1.5991
  917MPD2    H113480   1.301   4.463  10.612 -2.6920  0.6275  1.2028
  917MPD2    H213481   1.174   4.141  10.859 -2.2021  1.8380  1.5339
  917MPD2    H313482   1.162   4.257  10.661 -2.2092 -0.5159  2.0344
  917MPD2     N13483   1.485   4.553  10.767  0.2039 -0.1234  0.7740
  917MPD2    H513484   1.465   4.594  10.677 -0.1400 -0.3527  0.7472
  917MPD2    N113485   1.320   4.189  11.066  1.1733 -0.3478  0.0189
  917MPD2    H713486   1.261   4.107  11.064  0.9012 -0.1869  1.2426
  918MPD2     C13487   1.629   4.489  11.983  0.1911 -0.6460 -0.0878
  918MPD2    C113488   1.706   4.472  11.867  0.1274 -0.5103 -0.2708
  918MPD2    C213489   1.650   4.409  11.757 -0.3190  0.0021  0.2024
  918MPD2    C313490   1.520   4.365  11.770 -1.1520  0.2809  0.1772
  918MPD2    C413491   1.443   4.383  11.885  0.2966  0.9509 -0.3784
  918MPD2    C513492   1.493   4.449  11.992 -0.6307 -0.3151 -0.0413
  918MPD2     H13493   1.704   4.400  11.664 -0.6383 -0.9374  0.1048
  918MPD2    H113494   1.341   4.349  11.896  0.3650  1.0283  0.4975
  918MPD2    H213495   1.685   4.511  12.073  0.1786 -2.1112  0.2708
  918MPD2    H313496   1.429   4.453  12.079 -1.8451  1.0060 -0.9892
  918MPD2     N13497   1.471   4.287  11.659 -0.1742 -0.7044  0.1546
  918MPD2    H513498   1.523   4.283  11.572 -0.8439 -0.7895 -0.2419
  918MPD2    N113499   1.840   4.516  11.882  0.5616  0.2873 -0.5660
  918MPD2    H713500   1.865   4.563  11.968  1.9576  1.2343 -1.4917
  919MPD2     C13501   2.412   3.229  11.985 -0.8836  0.0010  0.0942
  919MPD2    C113502   2.351   3.140  11.897  0.4533  1.0120  0.7661
  919MPD2    C213503   2.366   3.162  11.763  0.2105  0.3772  0.4171
  919MPD2    C313504   2.458   3.252  11.719 -0.0677 -0.0103  0.4306
  919MPD2    C413505   2.510   3.342  11.806  0.1430  0.0900  0.7848
  919MPD2    C513506   2.479   3.338  11.940 -0.3897  0.5787  0.2390
  919MPD2     H13507   2.315   3.097  11.694 -0.3534  0.7278  0.5093
  919MPD2    H113508   2.581   3.419  11.779  0.6075 -0.7051 -0.2843
  919MPD2    H213509   2.408   3.230  12.093  0.4621  1.0582  0.1385
  919MPD2    H313510   2.534   3.390  12.018  2.0540  0.5781 -1.4647
  919MPD2     N13511   2.485   3.271  11.583  1.0048 -0.6830 -0.4231
  919MPD2    H513512   2.528   3.362  11.566  2.0373 -1.1313 -0.1714
  919MPD2    N113513   2.264   3.032  11.935  0.2085  0.9347 -0.2623
  919MPD2    H713514   2.236   2.959  11.871  0.1800 -0.5122  1.3872
  920MPD2     C13515   2.112   2.927  10.698  0.5899 -0.0462 -0.0906
  920MPD2    C113516   2.056   2.951  10.818  0.3459  0.9817  0.8238
  920MPD2    C213517   2.130   3.022  10.918  0.3906  0.4098  0.2810
  920MPD2    C313518   2.259   3.067  10.902  0.1702  0.5236 -0.0350
  920MPD2    C413519   2.314   3.040  10.779 -0.2712  0.5446 -0.0314
  920MPD2    C513520   2.245   2.966  10.687  0.7564 -0.1806 -0.3431
  920MPD2     H13521   2.084   3.036  11.015  1.8728  0.3824  0.9869
  920MPD2    H113522   2.412   3.073  10.747  0.5624 -0.7602  1.1385
  920MPD2    H213523   2.061   2.882  10.614  2.2875 -0.5968 -0.8374
  920MPD2    H313524   2.306   2.945  10.599  0.0595 -1.1562 -0.5896
  920MPD2     N13525   2.327   3.128  11.006 -0.0910 -0.0086 -0.2459
  920MPD2    H513526   2.290   3.122  11.101  0.1502  1.9269 -0.0370
  920MPD2    N113527   1.937   2.895  10.855  0.5156 -0.5352  0.2378
  920MPD2    H713528   1.918   2.879  10.953 -1.1790 -1.9968 -0.3301
  921MPD2     C13529   3.520   3.390  16.352  0.0964 -0.6721 -0.3033
  921MPD2    C113530   3.613   3.296  16.379 -0.4147 -0.2852  0.2817
  921MPD2    C213531   3.574   3.164  16.390 -0.6555  0.4056 -0.3065
  921MPD2    C313532   3.437   3.136  16.387 -0.2737  0.3484 -0.0491
  921MPD2    C413533   3.338   3.239  16.384  0.6442  0.1757  0.3167
  921MPD2    C513534   3.385   3.361  16.371 -0.2374  0.1203 -0.6889
  921MPD2     H13535   3.643   3.081  16.375  2.1447  2.2972  2.0873
  921MPD2    H113536   3.232   3.222  16.393  1.0048 -1.2680  1.8147
  921MPD2    H213537   3.543   3.495  16.344 -0.5862 -0.4361  0.8516
  921MPD2    H313538   3.320   3.443  16.343 -0.2093  0.1963 -0.5317
  921MPD2     N13539   3.416   2.989  16.371 -0.3658 -0.0252 -0.0292
  921MPD2    H513540   3.497   2.931  16.348 -0.7603 -0.7520  0.4044
  921MPD2    N113541   3.743   3.336  16.388 -0.2238 -0.2100 -0.1192
  921MPD2    H713542   3.772   3.432  16.373  0.5286 -0.2513  1.0526
  922MPD2     C13543   4.222   0.065  17.360 -0.0028  0.3584  0.4422
  922MPD2    C113544   4.185   0.194  17.342 -0.0831  0.5137 -0.2271
  922MPD2    C213545   4.050   0.223  17.331 -0.2722  0.0726  0.3776
  922MPD2    C313546   3.953   0.126  17.328 -0.6015 -0.1499  0.7551
  922MPD2    C413547   3.993   4.728  17.344 -0.0596 -0.1717 -0.1138
  922MPD2    C513548   4.129   4.699  17.361 -0.1583  0.0840 -0.7165
  922MPD2     H13549   4.020   0.326  17.315 -2.6997 -0.3006  2.4949
  922MPD2    H113550   3.925   4.644  17.338  0.4517 -0.5161 -1.0545
  922MPD2    H213551   4.327   0.039  17.373 -0.2439  0.4345  2.4666
  922MPD2    H313552   4.164   4.598  17.373  0.6126  0.3381 -0.8486
  922MPD2     N13553   3.818   0.162  17.326 -0.2391  0.3674 -0.0312
  922MPD2    H513554   3.795   0.261  17.331  0.9499  0.5894  0.8885
  922MPD2    N113555   4.276   0.300  17.344  0.6457 -0.0673 -0.2667
  922MPD2    H713556   4.236   0.392  17.329 -1.9063 -0.6049  3.3497
  923MPD2     C13557   0.287   1.266   8.842 -0.1447  0.9450 -0.2164
  923MPD2    C113558   0.254   1.365   8.933 -0.2123  0.0976 -0.1732
  923MPD2    C213559   0.343   1.384   9.037 -0.2684 -0.6947  0.3561
  923MPD2    C313560   0.464   1.316   9.051  0.6031 -0.1679  0.4539
  923MPD2    C413561   0.490   1.217   8.962 -0.2838  0.1167 -0.6972
  923MPD2    C513562   0.404   1.198   8.850 -0.1569  0.1151  0.0487
  923MPD2     H13563   0.326   1.457   9.115 -1.2383 -0.4549 -0.0744
  923MPD2    H113564   0.584   1.163   8.969 -1.4321 -1.6029  1.6977
  923MPD2    H213565   0.212   1.260   8.764 -1.0820 -0.1995  0.7831
  923MPD2    H313566   0.424   1.118   8.780  2.7193  2.6287 -2.0471
  923MPD2     N13567   0.567   1.354   9.143  0.7313 -0.4882  0.0012
  923MPD2    H513568   0.649   1.296   9.129 -0.4352 -2.2055  0.3927
  923MPD2    N113569   0.129   1.430   8.940 -0.3120 -0.4695  0.2454
  923MPD2    H713570   0.075   1.400   8.859 -0.3460 -0.6744  0.3454
  924MPD2     C13571   0.983   0.101  16.056  0.6762 -0.1439 -0.5754
  924MPD2    C113572   0.892   0.166  15.982  0.4154 -0.3923 -0.0930
  924MPD2    C213573   0.858   0.303  16.005 -0.3381  0.3215 -0.3227
  924MPD2    C313574   0.919   0.377  16.103 -0.5892 -0.1881 -0.2878
  924MPD2    C413575   1.005   0.307  16.186  0.2735 -0.4610  0.2252
  924MPD2    C513576   1.034   0.173  16.163 -0.2681 -0.8335  0.4432
  924MPD2     H13577   0.772   0.351  15.959 -0.4821 -0.9387 -1.3510
  924MPD2    H113578   1.041   0.352  16.277  0.9240  1.6999 -1.1204
  924MPD2    H213579   1.010   4.731  16.052  1.1810 -0.0387 -0.0900
  924MPD2    H313580   1.108   0.134  16.232  0.4281  1.7238  1.1377
  924MPD2     N13581   0.868   0.502  16.146  0.4794  0.0665  0.2721
  924MPD2    H513582   0.873   0.519  16.246  2.7320 -2.5098  0.5761
  924MPD2    N113583   0.820   0.083  15.888 -0.9569 -0.4218 -0.2062
  924MPD2    H713584   0.845   4.720  15.891 -0.5024 -0.3521 -1.4823
  925MPD2     C13585   4.617   3.282  14.406  0.1358 -0.6787  0.3189
  925MPD2    C113586   4.481   3.276  14.385 -0.1911  0.9971 -0.2418
  925MPD2    C213587   4.398   3.227  14.478 -0.0599 -0.4081 -0.3392
  925MPD2    C313588   4.448   3.167  14.597  0.1439  0.0222 -0.5425
  925MPD2    C413589   4.584   3.173  14.617  0.3149  0.5140  0.1898
  925MPD2    C513590   4.663   3.232  14.522 -0.2863 -0.3634 -0.0616
  925MPD2     H13591   4.294   3.214  14.450 -1.0734  0.8588  2.8629
  925MPD2    H113592   4.624   3.141  14.713  0.5383 -0.3510 -0.1905
  925MPD2    H213593   4.694   3.323  14.342 -0.8281 -2.8403 -2.2220
  925MPD2    H313594   0.034   3.240  14.548 -0.6743  1.6477  0.9070
  925MPD2     N13595   4.371   3.099  14.691 -0.0557 -0.1252 -0.3017
  925MPD2    H513596   4.410   3.038  14.762 -1.4741  0.8058  1.2753
  925MPD2    N113597   4.417   3.315  14.264 -0.2695 -0.6665  0.0849
  925MPD2    H713598   4.317   3.295  14.255 -1.0676  3.0241  0.9435
  926MPD2     C13599   3.134   1.257  13.406  0.0207  0.5833  0.3180
  926MPD2    C113600   3.008   1.303  13.381 -0.3099  0.2480  0.1379
  926MPD2    C213601   2.992   1.390  13.275  0.0985  0.8814 -0.2669
  926MPD2    C313602   3.087   1.423  13.183  0.1331  0.0784  0.9050
  926MPD2    C413603   3.217   1.378  13.214  0.1958  0.2633  0.0561
  926MPD2    C513604   3.236   1.301  13.327  0.0460  0.5540  1.1098
  926MPD2     H13605   2.891   1.425  13.256 -0.2389 -0.1181 -0.2970
  926MPD2    H113606   3.300   1.392  13.146  0.3632 -0.9505  0.0062
  926MPD2    H213607   3.155   1.188  13.487 -1.4420 -1.5124 -1.1207
  926MPD2    H313608   3.339   1.271  13.344 -0.0449  0.1019  0.8473
  926MPD2     N13609   3.048   1.503  13.067  0.2371 -0.8168 -0.5053
  926MPD2    H513610   3.125   1.552  13.021  0.1111 -1.7395 -1.6872
  926MPD2    N113611   2.894   1.293  13.459 -0.5739 -0.0587 -0.1544
  926MPD2    H713612   2.815   1.350  13.431  0.6184 -0.2723 -4.0008
  927MPD2     C13613   1.933   3.176  17.252 -0.2331 -0.8616  0.0173
  927MPD2    C113614   1.925   3.293  17.328 -0.3480  0.7808 -0.6496
  927MPD2    C213615   2.010   3.398  17.284 -0.0871 -0.1050  0.3005
  927MPD2    C313616   2.094   3.389  17.174  0.2968  0.8343 -0.4898
  927MPD2    C413617   2.096   3.272  17.101  0.7161  0.2698 -0.3277
  927MPD2    C513618   2.013   3.168  17.137 -0.7328 -0.4772  0.2832
  927MPD2     H13619   2.020   3.483  17.351 -1.9851  0.9130 -0.7138
  927MPD2    H113620   2.158   3.246  17.016  1.1140 -0.8818  0.2993
  927MPD2    H213621   1.871   3.089  17.274 -1.0810 -0.3461 -0.3143
  927MPD2    H313622   2.013   3.067  17.096  1.1063 -0.2947 -0.1989
  927MPD2     N13623   2.186   3.501  17.151  0.4942 -0.1725 -0.4869
  927MPD2    H513624   2.204   3.570  17.224  2.7726 -2.4323  1.0792
  927MPD2    N113625   1.861   3.293  17.453  0.1616 -0.2405 -0.8940
  927MPD2    H713626   1.855   3.204  17.501 -0.6018  0.4037  0.2154
  928MPD2     C13627   0.432   1.387   0.390  0.3459  0.2355  0.0470
  928MPD2    C113628   0.522   1.465   0.458 -0.9658  1.1529  0.0511
  928MPD2    C213629   0.596   1.564   0.389 -0.0888  0.7292 -0.0879
  928MPD2    C313630   0.605   1.558   0.255  0.6076  0.5681 -0.2482
  928MPD2    C413631   0.521   1.476   0.182 -0.0823  0.1354  0.1097
  928MPD2    C513632   0.441   1.393   0.253  0.7382 -0.7755 -0.5201
  928MPD2     H13633   0.638   1.637   0.457  1.5719 -1.7810  1.5392
  928MPD2    H113634   0.512   1.479   0.074 -0.8681  3.1894  0.2625
  928MPD2    H213635   0.374   1.319   0.451 -2.2450  1.2299 -1.3157
  928MPD2    H313636   0.373   1.333   0.193 -0.5152  1.2365 -1.0993
  928MPD2     N13637   0.697   1.637   0.182 -0.6411 -0.1404 -0.5783
  928MPD2    H513638   0.686   1.643   0.082  0.6015 -1.1896 -0.7705
  928MPD2    N113639   0.513   1.454   0.597 -0.0283  0.1725 -0.7986
  928MPD2    H713640   0.445   1.388   0.634  0.7073 -1.5302 -2.4850
  929MPD2     C13641   4.083   1.584   9.695  0.4122  0.3558 -0.6257
  929MPD2    C113642   4.199   1.633   9.758 -0.2954  0.4598 -0.3216
  929MPD2    C213643   4.191   1.752   9.828  1.0952  0.1279  0.0405
  929MPD2    C313644   4.073   1.822   9.827 -0.8054 -0.0421  0.2178
  929MPD2    C413645   3.957   1.766   9.773  0.2334  0.4898 -0.1674
  929MPD2    C513646   3.971   1.649   9.708 -0.0421 -0.1833  0.1058
  929MPD2     H13647   4.278   1.803   9.869 -0.8537  3.3915  0.0887
  929MPD2    H113648   3.861   1.812   9.793  0.3052  0.7402 -0.3914
  929MPD2    H213649   4.084   1.493   9.636  0.3765 -0.1739  0.1815
  929MPD2    H313650   3.882   1.600   9.670 -0.7712  0.2707  1.2357
  929MPD2     N13651   4.072   1.945   9.888 -0.0153 -0.2321 -0.4283
  929MPD2    H513652   3.993   2.003   9.860  0.4608  2.3920  3.6080
  929MPD2    N113653   4.309   1.546   9.758 -0.2313 -0.1229  0.0386
  929MPD2    H713654   4.292   1.451   9.725 -0.5284 -1.5408  4.2838
  930MPD2     C13655   2.827   4.121  14.109 -0.0446 -0.6948  0.5523
  930MPD2    C113656   2.747   4.231  14.079 -0.9683  0.0872 -0.2019
  930MPD2    C213657   2.668   4.228  13.970  0.5232  0.5268  0.1859
  930MPD2    C313658   2.666   4.121  13.878  0.8151  0.5824  0.2665
  930MPD2    C413659   2.732   4.006  13.915  0.4032 -0.1691 -0.0209
  930MPD2    C513660   2.815   4.010  14.021 -0.0090  0.3009  0.1399
  930MPD2     H13661   2.596   4.306  13.945 -0.2590 -0.1930  0.2120
  930MPD2    H113662   2.725   3.918  13.852 -2.6415 -0.5872  0.9287
  930MPD2    H213663   2.900   4.117  14.188 -2.0953  1.2757  2.5303
  930MPD2    H313664   2.871   3.926  14.059 -1.8075 -0.5167  0.9478
  930MPD2     N13665   2.590   4.143  13.757  0.5305 -0.1643  0.4620
  930MPD2    H513666   2.539   4.230  13.748  0.3253 -0.2629  0.6565
  930MPD2    N113667   2.733   4.342  14.161 -0.3145  0.0067  0.2422
  930MPD2    H713668   2.682   4.414  14.112 -0.5065 -1.0386 -1.0749
  931MPD2     C13669   2.343   3.183   0.043  0.0761  0.1051 -0.3747
  931MPD2    C113670   2.257   3.231   0.133 -0.8161 -1.0645 -0.0170
  931MPD2    C213671   2.312   3.281   0.250 -0.4672  0.2908 -0.3352
  931MPD2    C313672   2.449   3.288   0.273  0.5024 -0.0942 -0.2689
  931MPD2    C413673   2.533   3.223   0.187  0.1195  0.2362  0.4400
  931MPD2    C513674   2.477   3.175   0.067 -0.4369 -0.3674  0.3110
  931MPD2     H13675   2.250   3.354   0.302 -0.0498  0.4916 -0.1154
  931MPD2    H113676   2.641   3.216   0.190  0.0529 -1.1020 -0.4926
  931MPD2    H213677   2.314   3.149  17.682  0.7358 -2.0461  0.1705
  931MPD2    H313678   2.537   3.132  17.726 -0.0858  0.8133 -0.0565
  931MPD2     N13679   2.508   3.341   0.390  0.0324 -0.2936  0.3243
  931MPD2    H513680   2.609   3.347   0.392  0.0321  0.1517 -0.6863
  931MPD2    N113681   2.126   3.250   0.089  0.0956  0.6458  0.0586
  931MPD2    H713682   2.109   3.226  17.729 -1.5525  1.1737  0.2075
  932MPD2     C13683   3.402   2.928  11.697 -0.4798 -0.3945  0.2957
  932MPD2    C113684   3.541   2.917  11.689 -0.0290  0.5247 -0.0971
  932MPD2    C213685   3.592   2.793  11.646 -0.0612 -0.6869  0.6279
  932MPD2    C313686   3.510   2.682  11.620 -0.5809 -0.5202  0.6282
  932MPD2    C413687   3.375   2.701  11.619 -0.0654 -0.7460  0.4452
  932MPD2    C513688   3.328   2.820  11.658 -0.6580  1.3773 -0.1689
  932MPD2     H13689   3.695   2.791  11.613 -0.5593  1.1529 -1.0118
  932MPD2    H113690   3.305   2.620  11.607 -1.6212  0.4470  1.3527
  932MPD2    H213691   3.347   3.015  11.729 -1.3270 -1.0677  0.6769
  932MPD2    H313692   3.220   2.831  11.659 -0.6943  1.5521 -3.8387
  932MPD2     N13693   3.565   2.555  11.583  0.8992  0.2260  0.4499
  932MPD2    H513694   3.492   2.486  11.571  0.6932  0.7813 -1.4758
  932MPD2    N113695   3.630   3.021  11.694 -0.1795 -0.2705 -0.0253
  932MPD2    H713696   3.727   3.003  11.667 -1.6696 -3.5846 -3.0587
  933MPD2     C13697   0.203   1.277   1.377  0.7661 -0.4499 -0.1505
  933MPD2    C113698   0.190   1.325   1.250 -0.1330  0.3820 -0.1133
  933MPD2    C213699   0.064   1.362   1.201 -0.0484  0.5833 -0.1009
  933MPD2    C313700   4.690   1.337   1.284  0.1483 -0.0749  0.9253
  933MPD2    C413701   4.705   1.285   1.405  0.1412  0.1476 -0.4251
  933MPD2    C513702   0.091   1.248   1.451 -0.4019 -0.4812 -0.4863
  933MPD2     H13703   0.042   1.392   1.099  0.8352 -1.9692 -1.0278
  933MPD2    H113704   4.623   1.270   1.474  0.0531  3.2187  0.1197
  933MPD2    H213705   0.297   1.250   1.423  2.3329 -0.2612 -3.2743
  933MPD2    H313706   0.099   1.208   1.551 -0.3803  0.8380  0.0331
  933MPD2     N13707   4.559   1.370   1.236 -0.1250  0.4411 -0.6976
  933MPD2    H513708   4.558   1.426   1.151 -0.6946 -0.6336 -1.3901
  933MPD2    N113709   0.310   1.355   1.173 -0.6590  0.0326 -0.0772
  933MPD2    H713710   0.393   1.311   1.213 -0.3889  1.1769  0.6152
  934MPD2     C13711   1.416   4.342   2.055  0.5460  0.6169 -0.9498
  934MPD2    C113712   1.501   4.309   1.946  0.2099 -0.4794  0.2658
  934MPD2    C213713   1.434   4.257   1.832 -0.7968 -0.3314  0.0920
  934MPD2    C313714   1.297   4.224   1.831  1.8016 -0.0157  0.1374
  934MPD2    C413715   1.224   4.263   1.939 -0.5145 -0.0458 -0.1846
  934MPD2    C513716   1.279   4.322   2.047 -0.3690 -0.8705 -0.0823
  934MPD2     H13717   1.500   4.224   1.752 -0.1529 -0.1791  0.5612
  934MPD2    H113718   1.116   4.263   1.944 -0.4601  0.8023  0.9700
  934MPD2    H213719   1.457   4.391   2.143  0.3387  1.7053 -1.4510
  934MPD2    H313720   1.206   4.362   2.117  0.6970  4.3585 -2.0192
  934MPD2     N13721   1.237   4.150   1.723  0.0192  0.5275 -0.1239
  934MPD2    H513722   1.139   4.125   1.729 -0.1871  0.2307 -4.7342
  934MPD2    N113723   1.644   4.323   1.939 -0.3070 -0.2696 -0.0675
  934MPD2    H713724   1.691   4.292   1.855  0.4454  2.8395 -0.7895
  935MPD2     C13725   1.229   3.290   1.365 -0.3337 -0.5514 -0.2159
  935MPD2    C113726   1.235   3.358   1.247  0.2738 -0.0871 -0.6285
  935MPD2    C213727   1.240   3.501   1.244  0.3358 -0.0662 -0.1085
  935MPD2    C313728   1.234   3.573   1.361  0.1792 -0.4906  0.0730
  935MPD2    C413729   1.239   3.504   1.480  0.4956 -0.2628  0.8035
  935MPD2    C513730   1.229   3.364   1.482 -0.5872 -0.0859  0.1073
  935MPD2     H13731   1.245   3.561   1.154 -0.2096 -1.4405 -1.0423
  935MPD2    H113732   1.231   3.550   1.578 -0.0180 -0.6134  0.9245
  935MPD2    H213733   1.218   3.182   1.374  2.3167 -0.8965 -1.1374
  935MPD2    H313734   1.232   3.317   1.579  1.6796 -0.0563  0.0649
  935MPD2     N13735   1.238   3.711   1.367 -0.0912 -0.4360  0.2648
  935MPD2    H513736   1.265   3.760   1.452  2.0810  2.0078 -1.8299
  935MPD2    N113737   1.223   3.291   1.125  0.1793 -0.5880  0.2243
  935MPD2    H713738   1.209   3.344   1.040  1.3114 -0.2873  0.2215
  936MPD2     C13739   4.467   0.757  12.260 -0.8843 -0.1581  0.3668
  936MPD2    C113740   4.495   0.847  12.362  0.3906  0.3325  0.6498
  936MPD2    C213741   4.609   0.930  12.352  0.0554  0.4404 -0.2060
  936MPD2    C313742   4.691   0.920  12.241 -0.6628  0.3128 -0.0843
  936MPD2    C413743   4.670   0.825  12.147 -0.0963  0.0902  1.2146
  936MPD2    C513744   4.558   0.751  12.157 -0.1225  0.0929 -0.0477
  936MPD2     H13745   4.644   0.992  12.435  0.7971 -0.0241 -0.1687
  936MPD2    H113746   0.014   0.793  12.080  0.7506  2.8905  0.8885
  936MPD2    H213747   4.393   0.677  12.258  0.3675 -1.3369  0.8533
  936MPD2    H313748   4.541   0.675  12.082 -0.2018 -0.1975  0.2627
  936MPD2     N13749   0.076   0.994  12.240 -0.5088 -0.1948 -0.2232
  936MPD2    H513750   0.088   1.052  12.323  0.6291 -0.4152 -0.2422
  936MPD2    N113751   4.420   0.842  12.482  0.4305  0.4200 -0.2606
  936MPD2    H713752   4.448   0.914  12.548 -0.6771 -0.6508  1.3458
  937MPD2     C13753   2.288   2.333  11.759 -0.1224 -0.4927  0.9224
  937MPD2    C113754   2.318   2.466  11.758  0.0818  0.0437  0.5498
  937MPD2    C213755   2.374   2.510  11.636 -0.2335 -0.0751 -0.4599
  937MPD2    C313756   2.394   2.425  11.531  0.3258  0.8906 -1.1880
  937MPD2    C413757   2.351   2.293  11.544 -0.3800 -0.2086  0.4390
  937MPD2    C513758   2.311   2.243  11.656 -0.3426  0.3156  0.1353
  937MPD2     H13759   2.383   2.616  11.617 -1.4792  0.1016 -0.0716
  937MPD2    H113760   2.356   2.226  11.458  1.5684  0.3465  0.1219
  937MPD2    H213761   2.233   2.288  11.840 -1.5485  0.3682  0.4364
  937MPD2    H313762   2.279   2.141  11.670 -0.7843  0.6434  1.5043
  937MPD2     N13763   2.446   2.484  11.408  0.1132  0.5740  0.2732
  937MPD2    H513764   2.459   2.585  11.404 -0.9176  0.6847 -0.3631
  937MPD2    N113765   2.259   2.562  11.844  0.6040  0.0784  0.2239
  937MPD2    H713766   2.281   2.658  11.817  0.3277 -0.2048 -0.9657
  938MPD2     C13767   0.856   4.074   0.209  0.0844 -0.2670 -0.2421
  938MPD2    C113768   0.857   4.097   0.348  0.0501 -0.1591  0.0182
  938MPD2    C213769   0.824   3.989   0.433 -0.3543  0.9224 -0.4869
  938MPD2    C313770   0.782   3.869   0.377 -0.3690  0.6780 -0.2267
  938MPD2    C413771   0.809   3.845   0.245  0.0725  0.3320  0.2690
  938MPD2    C513772   0.854   3.943   0.161 -0.2716 -0.4523  0.6145
  938MPD2     H13773   0.832   4.013   0.538 -2.2359 -1.8941  0.2830
  938MPD2    H113774   0.792   3.753   0.191  3.4123 -0.2108  0.1263
  938MPD2    H213775   0.889   4.147   0.135  0.4957 -0.3160 -0.1077
  938MPD2    H313776   0.886   3.917   0.061 -0.9535  1.3276 -0.0596
  938MPD2     N13777   0.756   3.747   0.445  0.4007 -0.4876 -0.1536
  938MPD2    H513778   0.697   3.683   0.393  0.1671  0.8571 -1.5478
  938MPD2    N113779   0.870   4.224   0.406 -0.9574  0.1325 -0.0805
  938MPD2    H713780   0.866   4.224   0.507  1.0728 -1.5212  0.0053
  939MPD2     C13781   1.492   4.513   1.019  0.2175  0.8027  0.4538
  939MPD2    C113782   1.591   4.614   1.018 -0.5072 -0.0988 -0.1919
  939MPD2    C213783   1.658   4.638   0.898 -0.2049  0.5721  0.7641
  939MPD2    C313784   1.642   4.555   0.791 -0.3390 -0.1053  0.4120
  939MPD2    C413785   1.551   4.451   0.791 -0.6872 -0.1859  0.3079
  939MPD2    C513786   1.470   4.433   0.906  0.4199  0.3831 -0.1807
  939MPD2     H13787   1.728   4.720   0.888 -0.5859  1.0498  2.0038
  939MPD2    H113788   1.540   4.383   0.708  1.6122 -0.6372  0.3807
  939MPD2    H213789   1.428   4.498   1.105 -0.2748 -1.3517 -0.2975
  939MPD2    H313790   1.388   4.363   0.914  2.4188 -1.6283  2.3813
  939MPD2     N13791   1.713   4.584   0.676 -0.7149 -0.1134  0.0627
  939MPD2    H513792   1.764   4.671   0.673  0.4860 -0.8739 -1.8664
  939MPD2    N113793   1.596   4.692   1.129 -0.1337  0.2408 -0.1887
  939MPD2    H713794   1.547   4.666   1.215 -0.1138  1.6320  0.2375
  940MPD2     C13795   0.478   1.393  12.791 -0.1480  0.4638  0.6221
  940MPD2    C113796   0.517   1.292  12.878  0.0725 -0.7392 -0.3828
  940MPD2    C213797   0.585   1.188  12.818  0.6873 -0.0717 -0.0453
  940MPD2    C313798   0.598   1.182  12.673 -0.1130 -0.6212  0.5442
  940MPD2    C413799   0.552   1.282  12.592 -0.3197  0.4627  0.2078
  940MPD2    C513800   0.497   1.388  12.652  0.8945  0.2723 -0.0763
  940MPD2     H13801   0.611   1.105  12.883 -0.5260 -0.9696 -0.6972
  940MPD2    H113802   0.565   1.285  12.485 -0.3399 -0.0133  0.1922
  940MPD2    H213803   0.426   1.483  12.820 -1.7718  0.1323 -1.2257
  940MPD2    H313804   0.479   1.479  12.596  2.0963  0.4359 -0.1845
  940MPD2     N13805   0.661   1.065  12.622 -0.0662  0.0491  0.5254
  940MPD2    H513806   0.693   1.004  12.696  1.6658  1.7772  1.2148
  940MPD2    N113807   0.485   1.296  13.013  0.5314  0.1020  0.1589
  940MPD2    H713808   0.525   1.221  13.069  1.0600  0.9396  0.8961
  941MPD2     C13809   4.195   4.640   9.138 -0.3996 -0.3629 -0.4909
  941MPD2    C113810   4.280   4.564   9.217  0.1225  0.2310  0.0687
  941MPD2    C213811   4.224   4.465   9.302 -0.2887 -0.4456  0.2896
  941MPD2    C313812   4.087   4.436   9.295  1.4103 -0.0570  0.5887
  941MPD2    C413813   4.011   4.506   9.200 -0.5615 -0.1741  0.5199
  941MPD2    C513814   4.059   4.603   9.122  0.4778  0.3220 -0.2468
  941MPD2     H13815   4.295   4.406   9.359  0.3450  1.4965  1.5282
  941MPD2    H113816   3.903   4.494   9.198 -0.7595  1.8079 -1.1853
  941MPD2    H213817   4.231   4.720   9.074 -1.6816  0.8603  0.3429
  941MPD2    H313818   3.994   4.663   9.061 -1.4698 -1.4677  0.0846
  941MPD2     N13819   4.023   4.333   9.380 -0.3147  0.0254  0.2308
  941MPD2    H513820   3.925   4.310   9.364 -0.5588  0.4277  1.1451
  941MPD2    N113821   4.421   4.581   9.235  0.1692  0.2420 -0.3932
  941MPD2    H713822   4.466   4.517   9.300  0.9223  1.4501  0.2804
  942MPD2     C13823   4.175   0.521   9.118 -0.2757 -0.6155 -1.0560
  942MPD2    C113824   4.106   0.591   9.011  0.2210  0.0380  0.1089
  942MPD2    C213825   4.077   0.723   9.029  0.5589 -0.0128 -0.3446
  942MPD2    C313826   4.120   0.795   9.138  0.1824  0.8675  0.1129
  942MPD2    C413827   4.187   0.731   9.241  0.3654  0.2191 -0.1136
  942MPD2    C513828   4.211   0.592   9.227 -0.4802  0.0631  0.3843
  942MPD2     H13829   4.031   0.783   8.951  0.0246  0.3838  0.2806
  942MPD2    H113830   4.213   0.796   9.324 -1.2373  0.6736  0.0338
  942MPD2    H213831   4.197   0.415   9.122  1.8278 -0.1767 -1.0983
  942MPD2    H313832   4.274   0.537   9.296 -0.2828 -0.8495 -0.5397
  942MPD2     N13833   4.099   0.938   9.156 -0.0619 -0.4273  0.1044
  942MPD2    H513834   4.156   0.977   9.231 -0.4990 -0.2005  0.3213
  942MPD2    N113835   4.069   0.522   8.891 -0.7770 -0.0922 -0.4225
  942MPD2    H713836   4.021   0.581   8.823 -0.7566 -1.3170 -1.4951
  943MPD2     C13837   3.280   0.328   9.831 -0.3000 -0.2552 -0.8199
  943MPD2    C113838   3.204   0.234   9.888  0.3149  0.3848  0.1874
  943MPD2    C213839   3.184   0.238  10.023  0.5466 -0.0782 -0.7704
  943MPD2    C313840   3.251   0.330  10.106  0.1216 -0.2703 -0.2128
  943MPD2    C413841   3.329   0.424  10.048 -1.0966 -0.2197 -0.4475
  943MPD2    C513842   3.345   0.419   9.910 -0.5249  0.5127 -0.1845
  943MPD2     H13843   3.132   0.157  10.073 -1.0432  0.6574 -1.2468
  943MPD2    H113844   3.373   0.505  10.105  1.1808 -0.8132 -1.3751
  943MPD2    H213845   3.288   0.331   9.723 -0.0778 -0.4693 -0.8107
  943MPD2    H313846   3.407   0.496   9.865  0.8064 -0.1636  0.5073
  943MPD2     N13847   3.239   0.336  10.246 -0.0837 -0.6882 -1.1881
  943MPD2    H513848   3.300   0.405  10.289 -0.4874  0.0046 -1.7207
  943MPD2    N113849   3.147   0.137   9.806 -0.0714  0.3452  0.2766
  943MPD2    H713850   3.178   0.129   9.710  1.3828 -0.5131  0.8311
  944MPD2     C13851   3.003   4.270  10.861  0.0194  0.6871 -0.0054
  944MPD2    C113852   2.954   4.282  10.989 -0.6224  0.1935 -0.1072
  944MPD2    C213853   2.952   4.408  11.046 -0.5139 -0.0545 -0.1502
  944MPD2    C313854   3.012   4.518  10.991 -0.1949 -0.4518 -0.2605
  944MPD2    C413855   3.062   4.500  10.866 -0.2989  0.5379  0.5878
  944MPD2    C513856   3.061   4.382  10.801  0.4283 -0.4200 -0.5302
  944MPD2     H13857   2.901   4.419  11.141 -0.9292 -0.6909 -0.2942
  944MPD2    H113858   3.113   4.584  10.821 -2.2217  1.4252  0.0808
  944MPD2    H213859   2.998   4.172  10.815 -0.6715  1.2051 -1.0344
  944MPD2    H313860   3.116   4.376  10.708 -1.3861 -2.3540 -1.5004
  944MPD2     N13861   2.999   4.646  11.054 -0.1121  0.0303 -0.6370
  944MPD2    H513862   2.928   4.653  11.126  1.5927 -0.7817  1.1714
  944MPD2    N113863   2.904   4.168  11.052 -0.5769 -0.2749  0.4177
  944MPD2    H713864   2.891   4.091  10.987  0.1507 -0.9553  1.0779
    1TMC1    C113865   1.779   0.307  14.283 -0.1485 -0.3391  0.2503
    1TMC1    C213866   1.702   0.266  14.170 -0.2846  0.6140 -0.5486
    1TMC1    C313867   1.728   0.139  14.121  0.2889 -0.4367 -0.0090
    1TMC1    C413868   1.869   0.227  14.341 -0.0363  0.7356  0.5373
    1TMC1    C513869   1.876   0.097  14.294 -0.4060 -0.1669 -0.1675
    1TMC1    C613870   1.812   0.052  14.184 -0.0473 -0.5467 -0.2909
    1TMC1     C13871   1.801   0.449  14.311  0.5917  0.2159  0.2265
    1TMC1     O13872   1.851   0.496  14.408  0.0174 -0.0194 -0.4453
    1TMC1     H13873   1.623   0.330  14.133  0.1599  2.0040  0.9007
    1TMC1    H113874   1.937   0.255  14.420 -0.5110 -2.3779  2.0587
    1TMC1    H213875   1.832   4.688  14.145 -1.6016 -0.9200 -0.1698
    1TMC1    C713876   2.002   0.030  14.329 -0.3915 -0.0450 -0.4742
    1TMC1    C813877   1.635   0.072  14.028 -0.4735  0.7895 -0.4814
    1TMC1    O113878   2.049   4.685  14.247 -0.4834  0.2103  0.3036
    1TMC1    O213879   1.585   4.694  14.054 -1.0569  0.1706  0.5413
    1TMC1    O313880   1.998   0.016  14.466 -0.7719 -0.0725  0.6615
    1TMC1    H313881   1.918   0.053  14.508 -3.4446 -3.4607 -1.4639
    1TMC1    O513882   1.580   0.170  13.953  0.5967 -0.0180 -0.3150
    1TMC1    H513883   1.649   0.236  13.934  2.3538 -1.7527  0.0012
    2MPD2     C13884   1.764   0.946  14.144  0.0670 -0.0700 -0.1418
    2MPD2    C113885   1.673   0.862  14.074  0.0666 -0.3230  0.9642
    2MPD2    C213886   1.678   0.726  14.091 -0.2943 -0.2597 -0.1167
    2MPD2    C313887   1.759   0.670  14.191 -0.0355 -0.7851 -0.1204
    2MPD2    C413888   1.838   0.757  14.272 -0.0653  0.5111 -0.3194
    2MPD2    C513889   1.845   0.891  14.246 -0.0802 -0.2253  0.1410
    2MPD2     H13890   1.615   0.656  14.037 -0.6421  0.6780 -0.9284
    2MPD2    H113891   1.902   0.716  14.348 -0.8629 -0.1909 -0.0255
    2MPD2    H213892   1.785   1.052  14.135  1.0080 -0.1181  1.4788
    2MPD2    H313893   1.911   0.959  14.298 -1.8186  0.6626  1.1868
    2MPD2     N13894   1.763   0.526  14.199 -0.1805  0.2755  0.5135
    2MPD2    H513895   1.707   0.484  14.126 -1.8786  1.9518  0.8606
    2MPD2    N113896   1.604   0.926  13.973  0.6193 -0.4110  0.1330
    2MPD2    H713897   1.625   1.025  13.967 -0.0794 -0.3303 -1.0173
    3TMC2    C113898   1.483   0.951  13.768 -0.3933  0.3942 -0.1805
    3TMC2    C213899   1.430   0.874  13.662 -0.2599  0.0591 -0.0973
    3TMC2    C313900   1.356   0.944  13.571  0.1356  0.1256 -0.4448
    3TMC2    C413901   1.469   1.084  13.781 -0.3959  0.4963 -0.5880
    3TMC2    C513902   1.387   1.144  13.682  0.4754 -0.2024 -0.0580
    3TMC2    C613903   1.335   1.075  13.577 -0.0406 -0.0903 -0.1683
    3TMC2     C13904   1.510   0.873  13.887 -0.6283 -0.3191  0.1267
    3TMC2     O13905   1.457   0.757  13.883  0.3812  0.3553 -0.5521
    3TMC2     H13906   1.440   0.766  13.658 -0.3965 -0.0135  1.2919
    3TMC2    H113907   1.521   1.142  13.856 -1.7119 -1.1322  1.5474
    3TMC2    H213908   1.267   1.121  13.506 -0.5184 -1.7446 -0.7817
    3TMC2    C713909   1.328   1.273  13.717 -1.1488  0.1706 -1.0550
    3TMC2    C813910   1.315   0.883  13.444 -0.3087 -0.3664 -0.6480
    3TMC2    O113911   1.351   1.301  13.835 -0.4041 -0.7233  0.1079
    3TMC2    O213912   1.376   0.793  13.391  0.2691 -0.0799  0.2970
    3TMC2    O513913   1.189   0.920  13.413  0.1113 -0.0957 -0.1557
    3TMC2    H513914   1.139   0.974  13.477 -2.0153 -0.2431 -1.6685
    4TMC2    C113915   0.509   1.734  13.294 -0.2344 -0.3645 -0.1085
    4TMC2    C213916   0.552   1.687  13.174  0.5591  0.6801 -0.5486
    4TMC2    C313917   0.684   1.684  13.159  0.3619 -0.4632 -0.1033
    4TMC2    C413918   0.592   1.750  13.406 -0.5053  0.4811 -0.2265
    4TMC2    C513919   0.720   1.708  13.384  0.0146 -0.4512  0.1641
    4TMC2    C613920   0.773   1.688  13.258 -0.1168  0.6945  0.0163
    4TMC2     C13921   0.372   1.717  13.329 -0.2341 -0.4360 -0.0631
    4TMC2     O13922   0.340   1.697  13.445 -0.0488 -0.1139  0.3436
    4TMC2     H13923   0.484   1.665  13.093 -0.0570  0.6717 -0.0272
    4TMC2    H113924   0.545   1.771  13.501 -3.4132 -0.2890 -1.4656
    4TMC2    H213925   0.876   1.662  13.238 -0.2850  0.0030  0.0429
    4TMC2    C713926   0.811   1.719  13.498  0.1506  0.4327 -0.0411
    4TMC2    C813927   0.741   1.656  13.025  0.1305  0.0854  0.5823
    4TMC2    O113928   0.766   1.789  13.588  0.2000 -0.0686  0.2859
    4TMC2    O213929   0.846   1.592  13.011  0.4303 -0.6190  0.5504
    4TMC2    O513930   0.644   1.683  12.932 -0.7480  0.0188 -0.1728
    4TMC2    H513931   0.674   1.693  12.840  1.3844  1.1218  0.6434
    5MPD2     C13932   4.643   1.575  13.156  0.0726  0.4256  0.0446
    5MPD2    C113933   4.715   1.622  13.050 -0.0164  0.5193 -0.0896
    5MPD2    C213934   0.108   1.675  13.074  0.0147 -0.2564 -0.0560
    5MPD2    C313935   0.162   1.671  13.201  0.3895  1.1699  0.2741
    5MPD2    C413936   0.087   1.621  13.300 -0.3428 -0.3425 -0.3244
    5MPD2    C513937   4.698   1.567  13.276  0.9704 -0.5340  0.9284
    5MPD2     H13938   0.164   1.714  12.989  1.5109 -2.1941  0.0362
    5MPD2    H113939   0.126   1.616  13.401 -0.3645 -1.2383 -0.3644
    5MPD2    H213940   4.543   1.536  13.136 -0.3201 -0.5074  3.8266
    5MPD2    H313941   4.638   1.522  13.354  1.3923 -1.1258  0.9075
    5MPD2     N13942   0.291   1.722  13.218  0.4472 -0.7740  0.0240
    5MPD2    H513943   0.336   1.761  13.136 -0.8169 -1.3672 -0.9347
    5MPD2    N113944   4.656   1.630  12.922  0.1464  0.2768 -0.1473
    5MPD2    H713945   4.556   1.614  12.916  0.2153 -0.3886  0.3957
    6MPD1     C13946   4.190   3.331  13.299  0.4004  0.0429  0.0998
    6MPD1    C113947   4.301   3.281  13.357  0.0392  0.1601 -0.2706
    6MPD1    C213948   4.333   3.147  13.345  0.2467  0.1926  0.2599
    6MPD1    C313949   4.233   3.063  13.300  0.5398 -0.1432 -0.5642
    6MPD1    C413950   4.112   3.113  13.259  0.2980 -0.5700 -0.1087
    6MPD1    C513951   4.092   3.247  13.258  0.3719 -0.0036 -0.8548
    6MPD1     H13952   4.429   3.107  13.372 -0.3548  0.1438  2.2986
    6MPD1    H113953   4.032   3.053  13.218 -0.4432 -0.0015  0.4855
    6MPD1    H213954   4.180   3.439  13.291 -3.1695 -0.4593 -2.0140
    6MPD1    H313955   3.995   3.270  13.215  2.1565  3.5309 -3.0218
    6MPD1     N13956   4.261   2.920  13.290 -0.0104  0.1753  0.0210
    6MPD1    H513957   4.356   2.886  13.296 -0.1318  0.0374  1.0685
    6MPD1    N113958   4.403   3.374  13.398  0.0687  0.6316 -0.8885
    6MPD1    H613959   4.365   3.455  13.445 -2.4296 -0.9196 -0.2094
    6MPD1    H713960   4.467   3.331  13.466 -1.8752  0.4118  0.8057
    7MPD2     C13961   4.075   2.092  13.112 -0.4682 -0.0519 -0.9473
    7MPD2    C113962   4.195   2.148  13.079 -0.2165  0.0793  0.0330
    7MPD2    C213963   4.267   2.088  12.979 -0.1180 -0.0938 -0.4408
    7MPD2    C313964   4.212   1.980  12.905  0.9608  0.1226  0.3475
    7MPD2    C413965   4.094   1.926  12.939 -0.1691  0.6814  0.4479
    7MPD2    C513966   4.022   1.985  13.043  0.7432 -0.0047 -0.0430
    7MPD2     H13967   4.363   2.132  12.954 -0.1534 -0.5572 -1.4081
    7MPD2    H113968   4.056   1.843  12.880  0.0637  3.5543 -3.7504
    7MPD2    H213969   4.017   2.123  13.199 -1.1436 -0.9415 -1.0757
    7MPD2    H313970   3.928   1.943  13.076  0.1211  0.0330 -1.7616
    7MPD2     N13971   4.288   1.914  12.814 -0.2460  0.8758 -0.2195
    7MPD2    H513972   4.245   1.829  12.778 -0.7771  0.3522  1.6436
    7MPD2    N113973   4.255   2.257  13.146  0.3555 -0.1478  0.6156
    7MPD2    H713974   4.347   2.284  13.112 -0.8361  2.1695 -0.7771
    8TMC3    C113975   4.476   1.891  12.664  0.4608  0.6419 -0.1506
    8TMC3    C213976   4.527   1.781  12.726  0.1341  0.6445 -0.3101
    8TMC3    C313977   4.659   1.749  12.710 -0.6728  0.0894  0.4510
    8TMC3    C413978   4.551   1.970  12.579 -0.2000 -0.5832  0.6156
    8TMC3    C513979   4.686   1.952  12.579 -0.7294 -0.7100  0.5597
    8TMC3    C613980   0.007   1.835  12.636 -0.6712  0.1580 -0.2046
    8TMC3     C13981   4.390   1.976  12.745  0.0546 -0.5024  0.5259
    8TMC3     O13982   4.432   2.091  12.743  0.4475 -0.9004 -0.3282
    8TMC3     H13983   4.468   1.729  12.800  2.1980  0.2249  1.0383
    8TMC3    H113984   4.497   2.053  12.535  1.3343 -0.4859 -1.0680
    8TMC3    H213985   0.115   1.828  12.629 -0.6691  1.4802 -1.2942
    8TMC3    C713986   0.028   2.073  12.605  0.4486  0.0172  0.3477
    8TMC3    C813987   4.725   1.658  12.804 -0.5378  0.0499 -0.3665
    8TMC3    O113988   0.138   2.089  12.561  0.2924  0.6097 -0.2528
    8TMC3    O213989   0.108   1.645  12.792  0.1373 -0.6327 -0.4224
    9TMC3    C113990   4.235   2.701  13.225  0.5310  0.0036 -0.7799
    9TMC3    C213991   4.369   2.714  13.183  0.4289 -0.9430 -0.2047
    9TMC3    C313992   4.445   2.598  13.169  0.4118 -0.9217 -0.9910
    9TMC3    C413993   4.182   2.578  13.256  0.1303 -0.8082 -0.3845
    9TMC3    C513994   4.258   2.470  13.245 -0.3793 -0.1871 -0.1377
    9TMC3    C613995   4.389   2.476  13.208  0.1108  0.1048 -0.8119
    9TMC3     C13996   4.163   2.830  13.251 -0.1554 -0.3476 -0.1218
    9TMC3     O13997   4.040   2.831  13.265  0.3596  0.2965  0.1033
    9TMC3     H13998   4.407   2.796  13.123  0.2230 -0.6880  0.0083
    9TMC3    H113999   4.074   2.563  13.258  0.3083 -2.0485 -0.3020
    9TMC3    H214000   4.458   2.393  13.221  1.6616  1.4492 -0.3981
    9TMC3    C714001   4.192   2.341  13.244 -0.9774 -0.5805  0.3183
    9TMC3    C814002   4.549   2.595  13.066  0.2785  0.5304 -0.0100
    9TMC3    O114003   4.077   2.339  13.293 -0.2045  0.7526  0.0536
    9TMC3    O214004   4.607   2.705  13.052  0.1828 -0.1557  0.6653
   10MPD2     C14005   0.079   2.370  12.709  0.7672  0.3114  0.1695
   10MPD2    C114006   4.717   2.279  12.749 -0.1054  0.1861 -0.1474
   10MPD2    C214007   4.644   2.315  12.858 -0.1374 -0.6202 -0.4498
   10MPD2    C314008   4.665   2.440  12.919  0.5443 -0.3486 -0.2146
   10MPD2    C414009   0.034   2.526  12.882  0.0867 -0.5614  0.3141
   10MPD2    C514010   0.110   2.486  12.769  0.1219 -0.0835 -0.0030
   10MPD2     H14011   4.567   2.247  12.893  0.9230 -1.0372  1.0978
   10MPD2    H114012   0.048   2.622  12.929  1.8403 -2.0208  2.7843
   10MPD2    H214013   0.136   2.356  12.618  0.1437  1.5188 -0.4113
   10MPD2    H314014   0.194   2.546  12.735 -0.5172  0.8709  0.0950
   10MPD2     N14015   4.570   2.473  13.012  0.0217  0.0853 -0.5821
   10MPD2    H514016   4.516   2.401  13.059 -0.9462  0.9932 -0.3087
   10MPD2    N114017   4.693   2.155  12.684  0.3464  0.1375  0.0281
   10MPD2    H714018   4.605   2.108  12.704 -0.3979  1.6108  0.2613
   11MPD2     C14019   1.198   1.534  13.767  0.0986 -0.6359  0.3805
   11MPD2    C114020   1.186   1.457  13.652  0.4789  0.5501  0.4586
   11MPD2    C214021   1.098   1.507  13.557 -0.0063  0.2017  0.1373
   11MPD2    C314022   1.021   1.622  13.579 -0.4772 -0.9196  0.0507
   11MPD2    C414023   1.026   1.686  13.704 -0.1628  0.4854  0.4716
   11MPD2    C514024   1.111   1.641  13.801 -0.3765 -0.5281  0.1680
   11MPD2     H14025   1.091   1.454  13.462 -0.3195 -0.7846  0.7081
   11MPD2    H114026   0.978   1.781  13.723  0.5560  0.9519 -0.0325
   11MPD2    H214027   1.276   1.526  13.842  1.0625  0.4320 -0.5149
   11MPD2    H314028   1.113   1.686  13.900  0.1054  0.1749 -0.1599
   11MPD2     N14029   0.918   1.637  13.492  0.2242  0.3339 -0.4632
   11MPD2    H514030   0.925   1.579  13.409 -0.9728 -2.3948  1.3333
   11MPD2    N114031   1.250   1.333  13.621 -0.7495 -0.4034 -0.7232
   11MPD2    H714032   1.230   1.296  13.528 -0.0979 -0.6719 -0.7526
    1MPD1     C14033   4.172   3.691  16.316  0.8742  0.2519  0.0224
    1MPD1    C114034   4.165   3.632  16.440 -0.0366  1.1448  0.3132
    1MPD1    C214035   4.283   3.592  16.500  0.4662  0.1367  0.0608
    1MPD1    C314036   4.395   3.584  16.421  0.3046  0.5537  0.1954
    1MPD1    C414037   4.397   3.634  16.290 -0.1946 -0.3802  0.1030
    1MPD1    C514038   4.284   3.699  16.241 -0.1098 -0.2663 -0.4092
    1MPD1     H14039   4.279   3.566  16.605  1.9982  0.2602  0.1548
    1MPD1    H114040   4.478   3.620  16.220 -0.7807  0.4757 -0.7503
    1MPD1    H214041   4.084   3.734  16.269  1.1588 -0.1045 -0.8332
    1MPD1    H314042   4.268   3.749  16.146 -1.5286  0.6665  0.3080
    1MPD1     N14043   4.516   3.516  16.456  0.0089 -0.2777 -0.1777
    1MPD1    H514044   4.591   3.513  16.387 -1.1922  0.9912 -1.5451
    1MPD1    N114045   4.044   3.647  16.507 -0.0752 -0.2477  0.7659
    1MPD1    H614046   4.024   3.572  16.573  0.6524 -1.9604 -0.9542
    1MPD1    H714047   3.960   3.660  16.451  1.4449 -0.3569 -1.5216
    2MPD1     C14048   0.139   2.554  16.847  0.1972  0.1979  0.6717
    2MPD1    C114049   0.160   2.570  16.716  0.1671  0.4065  0.5538
    2MPD1    C214050   0.149   2.697  16.667 -0.1439  0.6361 -0.1280
    2MPD1    C314051   0.095   2.799  16.744  0.2085 -0.3564  0.1819
    2MPD1    C414052   0.069   2.781  16.879 -0.9513  0.7781 -0.3113
    2MPD1    C514053   0.097   2.659  16.924  0.0828  0.4290 -0.6252
    2MPD1     H14054   0.164   2.712  16.561  2.4983 -0.7107  0.0464
    2MPD1    H114055   0.037   2.865  16.940  0.0945  1.2472 -0.4237
    2MPD1    H214056   0.163   2.460  16.896 -0.1481 -0.6028 -0.6862
    2MPD1    H314057   0.090   2.649  17.032  2.8463  0.5212 -0.4332
    2MPD1     N14058   0.071   2.920  16.671  0.0917  0.4738 -0.1471
    2MPD1    H514059   0.088   2.920  16.572 -1.1829 -3.5135 -0.3661
    2MPD1    N114060   0.212   2.468  16.637 -0.2297  0.0388 -0.0790
    2MPD1    H614061   0.161   2.390  16.678  2.7501 -1.7845  0.1907
    2MPD1    H714062   0.188   2.472  16.538 -0.3104 -1.1005 -0.1025
    3TMC3    C114063   0.023   3.151  16.637  0.2809 -0.4978  0.3933
    3TMC3    C214064   0.111   3.146  16.524  0.2750 -0.1726 -0.3540
    3TMC3    C314065   0.094   3.261  16.442  0.0711  0.0726  0.5075
    3TMC3    C414066   4.658   3.244  16.647 -0.3117 -0.4915 -0.0088
    3TMC3    C514067   4.653   3.353  16.564 -0.0059 -1.0695  0.2204
    3TMC3    C614068   0.009   3.368  16.465 -0.7797  0.3821  0.4236
    3TMC3     C14069   0.018   3.038  16.726  0.2312 -0.2276 -0.1628
    3TMC3     O14070   4.704   3.049  16.837 -0.0174 -0.3622  0.0225
    3TMC3     H14071   0.180   3.065  16.506  2.0178  1.1370  0.4695
    3TMC3    H114072   4.585   3.240  16.727 -2.2816  3.2394 -1.6236
    3TMC3    H214073   0.012   3.447  16.391 -0.3793 -0.1169 -0.0896
    3TMC3    C714074   4.539   3.439  16.569  1.1763  0.1374  0.7499
    3TMC3    C814075   0.204   3.288  16.353  0.3256  0.3095 -0.5053
    3TMC3    O114076   4.457   3.431  16.662  0.2848 -0.0191  0.3069
    3TMC3    O214077   0.177   3.372  16.266  0.2158 -0.3108  0.8898
    4MPD1     C14078   0.637   3.179  16.106 -0.4803 -0.7514 -0.4901
    4MPD1    C114079   0.630   3.087  16.215  0.4650 -0.0559  0.4650
    4MPD1    C214080   0.513   3.094  16.296  0.0607 -0.0966  1.0783
    4MPD1    C314081   0.417   3.190  16.272  0.3965  0.4105  0.2646
    4MPD1    C414082   0.429   3.272  16.158  0.2928  0.2512 -0.2378
    4MPD1    C514083   0.535   3.264  16.071 -0.3027  0.2450 -0.1614
    4MPD1     H14084   0.496   3.022  16.375 -3.2051  0.8768  1.2431
    4MPD1    H114085   0.354   3.344  16.129 -0.4055  0.0960  1.2225
    4MPD1    H214086   0.728   3.179  16.046 -0.2305  0.1709 -0.1098
    4MPD1    H314087   0.533   3.329  15.984 -0.8898 -0.8289 -0.9587
    4MPD1     N14088   0.306   3.203  16.365  0.0984  0.1281  0.7482
    4MPD1    H514089   0.301   3.134  16.439 -1.1344 -0.9790 -0.3561
    4MPD1    N114090   0.728   2.985  16.221  0.9548  0.6861 -0.2238
    4MPD1    H614091   0.822   3.011  16.193  2.2789 -2.0980  1.6166
    4MPD1    H714092   0.737   2.937  16.310  0.2266 -2.6831 -1.9815
    1TCq1    O114093   4.600   2.468  11.850 -0.4422 -0.4176  0.3868
    1TCq1    C114094   4.700   2.552  11.857 -0.0327 -0.2719 -0.2995
    1TCq1    O214095   4.730   2.617  11.956  0.2271  0.1322  0.9743
    1TCq1    C214096   0.039   2.542  11.731 -0.0706 -0.2728  0.2235
    1TCq1    C314097   4.713   2.550  11.608 -0.0277 -0.0838 -0.0759
    1TCq1    C414098   0.052   2.551  11.492  0.7845  0.3579 -0.1753
    1TCq1    C514099   0.187   2.560  11.504  0.2258  0.7828  0.1876
    1TCq1    C614100   0.248   2.549  11.626 -0.7991  0.0176 -0.1271
    1TCq1    C714101   0.173   2.551  11.746  0.3155 -0.2081  0.5154
    1TCq1    C814102   0.389   2.575  11.625 -0.4857 -0.7692  0.7974
    1TCq1    O414103   0.450   2.541  11.520 -0.7358 -0.2227  0.4115
    1TCq1    C914104   4.721   2.580  11.367 -0.0708  0.2537  0.0645
    1TCq1    O514105   0.055   2.611  11.266  0.1827 -0.4627  0.4164
    1TCq1    O614106   4.597   2.612  11.371  0.1592  0.2453  0.2542
    1TCq1    H114107   4.596   2.413  11.769 -0.1775  1.2836 -0.7907
    1TCq1    H214108   4.606   2.563  11.611  0.3373  3.2048 -2.1143
    1TCq1    H314109   0.241   2.576  11.411 -0.6876 -1.3878 -0.7209
    1TCq1    H414110   0.222   2.547  11.843 -2.0795 -0.3158  1.7252
    2MPD1     C14111   0.772   2.885  11.769  0.0088  1.3862  0.1931
    2MPD1    C114112   0.681   2.879  11.873  0.0331 -0.4712 -0.6532
    2MPD1    C214113   0.580   2.782  11.858 -0.3477 -0.1886 -0.2717
    2MPD1    C314114   0.553   2.717  11.733 -0.1033  0.5514 -1.5182
    2MPD1    C414115   0.642   2.733  11.636  0.1736  0.0869  0.3334
    2MPD1    C514116   0.755   2.815  11.657 -0.7845 -0.7124  0.1062
    2MPD1     H14117   0.516   2.760  11.943 -2.1930 -0.8608 -1.8277
    2MPD1    H114118   0.633   2.689  11.537 -1.9062  1.0881  0.0755
    2MPD1    H214119   0.853   2.957  11.779  0.2839  1.1135 -0.0567
    2MPD1    H314120   0.825   2.813  11.575 -1.0087 -1.4477 -0.0677
    2MPD1     N14121   0.434   2.644  11.736  0.4936 -0.1730 -0.1908
    2MPD1    H514122   0.376   2.641  11.820 -0.4943  0.8128 -0.8330
    2MPD1    N114123   0.708   2.941  11.994  0.2549 -0.3959 -0.1993
    2MPD1    H614124   0.731   3.037  11.971 -0.4334 -0.2722 -0.3693
    2MPD1    H714125   0.628   2.938  12.057  0.5481  1.5474  0.2566
    1TMC1    C114126   3.183   2.230  17.547 -0.0700  0.4657 -0.5863
    1TMC1    C214127   3.165   2.319  17.442 -0.0341  0.7696 -0.2398
    1TMC1    C314128   3.033   2.342  17.414  1.0883 -0.2984  0.3276
    1TMC1    C414129   3.081   2.161  17.614 -0.3459 -0.0909  0.5687
    1TMC1    C514130   2.953   2.180  17.566  0.1579  0.1901  0.1909
    1TMC1    C614131   2.929   2.274  17.471 -0.7578 -0.7089  0.7375
    1TMC1     C14132   3.314   2.218  17.597 -0.0572  0.4890  0.3501
    1TMC1     O14133   3.328   2.103  17.642 -0.5780  0.5423 -0.5740
    1TMC1     H14134   3.253   2.357  17.391 -0.2389  2.4250  0.6516
    1TMC1    H114135   3.105   2.112  17.708 -0.6688 -2.4274 -0.5722
    1TMC1    H214136   2.832   2.319  17.450 -0.7677 -1.1893 -0.2571
    1TMC1    C714137   2.840   2.139  17.650 -0.1065 -0.0379  0.1898
    1TMC1    C814138   2.992   2.458  17.340  0.4115  0.0324  0.1071
    1TMC1    O114139   2.835   2.031  17.704 -0.2719 -0.4444  0.2473
    1TMC1    O214140   2.895   2.450  17.269 -0.8426  0.4595  0.2240
    1TMC1    O314141   2.809   2.243  17.723 -0.0866  0.3097 -0.3735
    1TMC1    H314142   2.843   2.328  17.686 -0.4276  0.9478  0.7767
    1TMC1    O514143   3.108   2.519  17.308  0.1775 -0.5685 -0.0576
    1TMC1    H514144   3.168   2.530  17.385 -0.2109 -0.9635  0.3014
    2MPD1     C14145   3.788   2.351  17.688 -0.8380 -0.2708  0.6417
    2MPD1    C114146   3.729   2.450  17.613  0.1567  0.0931 -0.1035
    2MPD1    C214147   3.600   2.431  17.576 -0.1973 -0.1423 -0.7215
    2MPD1    C314148   3.533   2.316  17.606 -0.2162  0.4064 -0.1884
    2MPD1    C414149   3.585   2.226  17.692 -0.5228  0.0657  0.0278
    2MPD1    C514150   3.712   2.245  17.730  0.6168 -0.2439 -0.0258
    2MPD1     H14151   3.541   2.507  17.525 -0.6112 -0.2490 -0.3987
    2MPD1    H114152   3.535   2.142  17.738 -1.6431  0.5902 -0.2360
    2MPD1    H214153   3.891   2.361  17.719 -0.5692  0.6084 -0.5410
    2MPD1    H314154   3.765   2.173   0.054 -2.6620 -2.2124  0.4925
    2MPD1     N14155   3.400   2.316  17.563  0.5111 -0.0364 -0.2120
    2MPD1    H514156   3.364   2.393  17.507  2.0973  1.8265  1.3370
    2MPD1    N114157   3.785   2.573  17.589  0.0062  0.2520  0.7253
    2MPD1    H614158   3.740   2.606  17.504 -0.0418 -0.4070  0.4938
    2MPD1    H714159   3.885   2.567  17.570  0.0088  2.0272  0.2377
    1MPD1     C14160   1.421   3.000  11.005  0.5372 -0.7284  0.2658
    1MPD1    C114161   1.556   3.030  11.024 -0.4152 -0.1253  0.6256
    1MPD1    C214162   1.621   2.981  11.135 -0.0838  0.7215 -0.0260
    1MPD1    C314163   1.556   2.898  11.223 -0.0277  0.1108  0.5708
    1MPD1    C414164   1.432   2.856  11.192 -0.3070 -0.3424 -0.0150
    1MPD1    C514165   1.356   2.914  11.090 -0.0663 -0.6827  0.4877
    1MPD1     H14166   1.725   3.007  11.154  0.4484 -1.6878  0.3432
    1MPD1    H114167   1.369   2.794  11.255 -0.9151  1.7720  1.4389
    1MPD1    H214168   1.362   3.027  10.918  1.8521  1.7944  0.1622
    1MPD1    H314169   1.253   2.882  11.074 -0.2853 -0.3958  1.3224
    1MPD1     N14170   1.625   2.856  11.341  0.2945  0.2243  0.4092
    1MPD1    H514171   1.723   2.879  11.356  0.0327  0.3787  1.8502
    1MPD1    N114172   1.628   3.104  10.934 -0.2013  0.6039 -0.3654
    1MPD1    H614173   1.721   3.115  10.974  0.3060  1.4835 -1.7616
    1MPD1    H714174   1.585   3.197  10.933 -0.9299  0.2722 -0.2249
    2MPD1     C14175   0.923   2.945  11.026 -0.7704 -0.2079  0.5803
    2MPD1    C114176   0.980   2.870  11.132 -0.7623 -0.1440 -0.6449
    2MPD1    C214177   1.018   2.743  11.089  0.0378  0.2394  0.1552
    2MPD1    C314178   1.026   2.708  10.954 -0.1430 -0.0664  0.6008
    2MPD1    C414179   0.976   2.796  10.857 -0.1319  0.0784 -0.5104
    2MPD1    C514180   0.926   2.916  10.895 -0.4014  0.4138  0.0988
    2MPD1     H14181   1.050   2.682  11.173 -2.0977 -0.6970  0.3108
    2MPD1    H114182   0.996   2.786  10.751 -0.3349 -0.9567 -0.4517
    2MPD1    H214183   0.888   3.046  11.045  3.1446  0.4184  4.4525
    2MPD1    H314184   0.900   2.985  10.815  0.2777  0.4294 -0.1129
    2MPD1     N14185   1.072   2.581  10.911 -0.9501  0.6083  0.1310
    2MPD1    H514186   1.062   2.563  10.811  1.3951 -1.1182  0.2183
    2MPD1    N114187   0.973   2.910  11.264  0.0574  0.3062  0.0534
    2MPD1    H614188   1.038   2.859  11.323 -1.4654  0.6147  2.0019
    2MPD1    H714189   0.989   3.010  11.269 -1.5287  0.6048 -0.8973
    3MPD1     C14190   0.660   1.910  10.574 -0.9031  0.1907 -0.1639
    3MPD1    C114191   0.635   2.023  10.650  0.5795 -0.3297  0.0062
    3MPD1    C214192   0.745   2.090  10.689 -0.4220  0.0030 -0.5205
    3MPD1    C314193   0.865   2.062  10.632 -0.2829 -0.2585  0.2095
    3MPD1    C414194   0.888   1.949  10.561 -0.1289 -0.2828 -0.6301
    3MPD1    C514195   0.783   1.867  10.537 -0.5960  0.5362 -0.4055
    3MPD1     H14196   0.727   2.175  10.754  2.6688 -0.7219  1.2666
    3MPD1    H114197   0.990   1.921  10.540 -0.1528 -1.3796  0.7663
    3MPD1    H214198   0.579   1.849  10.537 -0.8518 -0.6765  1.1678
    3MPD1    H314199   0.800   1.781  10.472  0.5389 -1.7612  2.9239
    3MPD1     N14200   0.971   2.151  10.674 -0.3966 -0.7138 -0.4133
    3MPD1    H514201   0.946   2.239  10.718  1.2825 -0.1059 -0.6731
    3MPD1    N114202   0.508   2.074  10.680 -0.3702  0.6684  0.1016
    3MPD1    H614203   0.439   1.999  10.685  0.0939  0.2240 -0.1775
    3MPD1    H714204   0.506   2.117  10.773  1.5403 -0.5795  0.7310
    4MPD2     C14205   2.075   2.322  11.315 -0.3367  0.3772 -0.0356
    4MPD2    C114206   2.027   2.332  11.437 -0.0363 -0.7644 -0.3644
    4MPD2    C214207   2.002   2.218  11.516 -0.8266  0.2219  0.2712
    4MPD2    C314208   2.043   2.094  11.482  0.1527  0.1490 -0.0191
    4MPD2    C414209   2.088   2.085  11.346 -0.4032 -0.3831  0.8185
    4MPD2    C514210   2.102   2.194  11.267 -0.3288 -0.0696 -0.6150
    4MPD2     H14211   1.959   2.230  11.615 -0.0301  1.5113  0.4623
    4MPD2    H114212   2.098   1.992  11.291  1.2311  0.5191 -0.4120
    4MPD2    H214213   2.106   2.406  11.254 -1.1883 -0.3723 -1.5069
    4MPD2    H314214   2.119   2.185  11.160  2.5943  1.7364 -0.3133
    4MPD2     N14215   2.009   1.981  11.564 -0.1637 -0.1902  0.1494
    4MPD2    H514216   1.936   2.009  11.629 -0.7213 -0.0088 -0.5652
    4MPD2    N114217   1.989   2.457  11.497 -0.6372  0.3795 -0.1758
    4MPD2    H714218   1.931   2.447  11.580 -0.4509 -2.7688 -0.4201
    5TMC3    C114219   1.916   2.664  11.521 -0.3979 -0.0256  0.2469
    5TMC3    C214220   1.810   2.707  11.458 -0.0047  0.2116  1.0797
    5TMC3    C314221   1.692   2.728  11.525  0.1214  0.5250  0.1077
    5TMC3    C414222   1.913   2.631  11.654 -0.0147 -0.9911  0.2533
    5TMC3    C514223   1.789   2.642  11.713  0.0869 -0.0085 -0.6065
    5TMC3    C614224   1.676   2.690  11.653 -0.0361  0.4408  1.1763
    5TMC3     C14225   1.999   2.584  11.440 -0.0736 -0.4056  0.4953
    5TMC3     O14226   2.017   2.611  11.324 -0.1811  0.5183  0.3022
    5TMC3     H14227   1.822   2.717  11.350  3.9325  0.3035  1.5110
    5TMC3    H114228   1.993   2.591  11.715  0.4825  0.1203  0.3333
    5TMC3    H214229   1.576   2.700  11.695 -0.2450 -0.4827  0.8963
    5TMC3    C714230   1.770   2.518  11.782  0.2281  0.3057  0.2606
    5TMC3    C814231   1.578   2.770  11.443  0.9450  0.4306 -0.1350
    5TMC3    O114232   1.851   2.433  11.743 -0.4683 -0.4820 -0.0658
    5TMC3    O214233   1.466   2.743  11.482 -0.3831  0.3850  0.0912
    6TMC3    C114234   1.187   2.377  10.923 -0.0980  0.1126 -1.0142
    6TMC3    C214235   1.134   2.322  10.810  0.3626  1.6427  0.2705
    6TMC3    C314236   1.188   2.212  10.742  0.1466 -0.3745  0.6614
    6TMC3    C414237   1.295   2.318  10.982 -0.2486  0.1433  0.2599
    6TMC3    C514238   1.344   2.203  10.923  0.7235 -0.6056  0.7059
    6TMC3    C614239   1.299   2.151  10.810  0.2456 -0.7567 -0.1670
    6TMC3     C14240   1.141   2.494  10.988 -0.1786  0.1955 -0.0328
    6TMC3     O14241   1.193   2.516  11.098 -0.2784  0.1273  0.2415
    6TMC3     H14242   1.045   2.377  10.781 -1.1391  0.2871  2.3106
    6TMC3    H114243   1.339   2.359  11.072 -0.8027 -1.4434  1.2685
    6TMC3    H214244   1.323   2.049  10.782  4.4235  0.6958 -1.8583
    6TMC3    C714245   1.449   2.132  11.000 -0.3451  0.3408 -0.4113
    6TMC3    C814246   1.107   2.136  10.648  0.0303 -0.0627 -0.2901
    6TMC3    O114247   1.501   2.169  11.103 -0.0962  0.3728 -0.3829
    6TMC3    O214248   1.176   2.061  10.577  0.0426 -0.6017  0.6680
    7MPD2     C14249   1.480   2.158  12.006 -0.4026  0.1031  0.2707
    7MPD2    C114250   1.591   2.146  11.925  0.0671 -0.0138  0.1195
    7MPD2    C214251   1.652   2.262  11.874  1.2886  0.1614 -0.6690
    7MPD2    C314252   1.595   2.387  11.906 -0.3375 -0.2844 -0.2082
    7MPD2    C414253   1.483   2.400  11.977 -1.0924 -0.4560  0.5352
    7MPD2    C514254   1.434   2.289  12.040  0.2020 -0.0775 -0.1644
    7MPD2     H14255   1.742   2.258  11.813  2.0329  3.3647  0.2160
    7MPD2    H114256   1.435   2.494  12.003  0.5610  0.2145  1.1732
    7MPD2    H214257   1.442   2.064  12.044  0.1785  0.1385  0.9467
    7MPD2    H314258   1.344   2.304  12.098 -1.5015 -0.4003 -2.6884
    7MPD2     N14259   1.649   2.507  11.853 -0.2054 -0.4402 -0.1440
    7MPD2    H514260   1.610   2.598  11.877  0.5324 -0.0085 -0.5731
    7MPD2    N114261   1.635   2.017  11.877  0.5917 -1.0322  0.4786
    7MPD2    H714262   1.579   1.933  11.883 -0.2950 -0.5501 -0.9302
    8TMC3    C114263   1.759   1.864  11.746  0.1374  1.0587 -0.8576
    8TMC3    C214264   1.668   1.856  11.647 -0.0558 -0.3848  0.3747
    8TMC3    C314265   1.706   1.809  11.518 -0.6060 -1.2127  0.2503
    8TMC3    C414266   1.886   1.827  11.719  0.4399 -0.1809 -0.0371
    8TMC3    C514267   1.921   1.776  11.595  0.5542  0.3763  0.9046
    8TMC3    C614268   1.828   1.759  11.496 -0.4847 -0.0444 -1.0630
    8TMC3     C14269   1.754   1.992  11.813 -0.7762  0.1998  0.1976
    8TMC3     O14270   1.854   2.060  11.787 -0.3715 -0.0759  0.1956
    8TMC3     H14271   1.566   1.890  11.656  0.3372  1.1701 -1.0819
    8TMC3    H114272   1.967   1.860  11.782  0.2939 -0.0213  0.0690
    8TMC3    H214273   1.863   1.729  11.398  0.2164 -3.4055  0.2178
    8TMC3    C714274   2.030   1.846  11.537 -0.8561  1.1273  0.3302
    8TMC3    C814275   1.617   1.827  11.409 -0.0421  0.0095 -0.9663
    8TMC3    O114276   2.099   1.791  11.457  0.0184 -0.4240  0.7073
    8TMC3    O214277   1.514   1.895  11.436  0.0216  0.5011 -0.5080
    9MPD2     C14278   1.662   1.666  11.080 -0.1638 -0.0526 -0.5841
    9MPD2    C114279   1.630   1.766  11.169  0.2108 -0.5077  1.0406
    9MPD2    C214280   1.591   1.890  11.119  0.6511  1.0588  0.0271
    9MPD2    C314281   1.576   1.910  10.983 -0.7793  0.1450  0.7014
    9MPD2    C414282   1.629   1.816  10.897 -0.0010 -0.4577 -0.6935
    9MPD2    C514283   1.666   1.694  10.947 -0.0434  0.0649 -0.1097
    9MPD2     H14284   1.545   1.955  11.192  1.3202 -0.5139  1.8633
    9MPD2    H114285   1.601   1.823  10.793  0.8396  0.0507 -0.8841
    9MPD2    H214286   1.677   1.565  11.117 -0.4559 -0.1415 -0.7088
    9MPD2    H314287   1.668   1.611  10.878 -3.0183  0.2024 -0.3516
    9MPD2     N14288   1.490   2.015  10.933 -0.2397  0.1325 -0.0924
    9MPD2    H514289   1.455   1.999  10.839  2.2105  1.2435 -1.2206
    9MPD2    N114290   1.640   1.740  11.306  0.0904  0.8246  0.2705
    9MPD2    H714291   1.695   1.659  11.333 -2.4724  0.2698  3.8706
    1MPD1     C14292   1.258   2.042  15.689 -0.3875  0.5006 -0.0159
    1MPD1    C114293   1.337   1.937  15.726  0.1018 -0.2178  0.1617
    1MPD1    C214294   1.276   1.823  15.771 -0.0631 -0.2938  0.4341
    1MPD1    C314295   1.139   1.819  15.807  0.3911 -0.3354 -0.7691
    1MPD1    C414296   1.063   1.931  15.779  0.0237 -0.2186 -0.0261
    1MPD1    C514297   1.121   2.027  15.706 -0.1469  0.7513  0.2086
    1MPD1     H14298   1.336   1.736  15.796  2.7977  1.7581  0.8365
    1MPD1    H114299   0.958   1.931  15.805  0.6202  2.5513  2.4060
    1MPD1    H214300   1.293   2.132  15.639 -0.9940  0.9296  0.3332
    1MPD1    H314301   1.052   2.103  15.671  0.4943  1.1672 -0.1579
    1MPD1     N14302   1.068   1.712  15.864 -0.7318  0.2604  0.1477
    1MPD1    H514303   0.967   1.713  15.870 -0.7229 -1.6764  0.5120
    1MPD1    N114304   1.471   1.929  15.683 -0.0372  0.0792  0.4880
    1MPD1    H614305   1.515   2.021  15.686  1.8114 -0.7304 -1.9108
    1MPD1    H714306   1.524   1.879  15.754  1.3637  0.3016 -0.3969
    2TMC2    C114307   0.954   1.312  16.067 -0.2540  1.1247  0.0324
    2TMC2    C214308   0.829   1.310  16.005  0.7266  0.7690  0.2312
    2TMC2    C314309   0.807   1.404  15.905  0.5550 -0.4433  0.8189
    2TMC2    C414310   1.048   1.398  16.028 -0.3830  0.7897 -0.5191
    2TMC2    C514311   1.021   1.502  15.944  0.3924 -0.0593  0.6372
    2TMC2    C614312   0.897   1.510  15.888  0.1470  0.0962  0.3522
    2TMC2     C14313   0.979   1.225  16.178 -0.2420 -0.5231 -0.1869
    2TMC2     O14314   0.913   1.124  16.180  0.3040  0.1992  0.0545
    2TMC2     H14315   0.752   1.241  16.037  1.4720 -0.9681 -1.7412
    2TMC2    H114316   1.139   1.399  16.087 -1.8399  1.5423  1.7134
    2TMC2    H214317   0.895   1.574  15.801 -0.7946  3.8950  3.1619
    2TMC2    C714318   1.129   1.604  15.913 -0.2698  0.3703 -0.6197
    2TMC2    C814319   0.683   1.402  15.828  0.1230  0.6588 -0.5644
    2TMC2    O114320   1.243   1.574  15.927  0.5183 -0.2987  0.6153
    2TMC2    O214321   0.678   1.446  15.713  0.3848  0.1932 -0.2700
    2TMC2    O514322   0.580   1.390  15.920 -0.6337  0.3219  0.0190
    2TMC2    H514323   0.611   1.381  16.013  1.0006  1.2069 -0.4541
    3MPD1     C14324   1.146   1.073  16.625 -0.6142 -0.0555 -0.2629
    3MPD1    C114325   1.187   1.201  16.600 -0.2633  0.6991  0.2565
    3MPD1    C214326   1.171   1.258  16.477  0.2407  0.1262  0.1486
    3MPD1    C314327   1.111   1.186  16.376 -0.4125  0.3238  0.1818
    3MPD1    C414328   1.064   1.058  16.402 -0.1976 -0.0328 -0.1259
    3MPD1    C514329   1.074   1.010  16.530  0.2363 -0.4751  0.3924
    3MPD1     H14330   1.216   1.357  16.466 -2.0574  1.1301 -0.2306
    3MPD1    H114331   1.035   0.988  16.324 -0.5068 -1.4980  1.3038
    3MPD1    H214332   1.170   1.020  16.717  1.2408  0.5269 -0.4067
    3MPD1    H314333   1.036   0.913  16.559  0.2717 -0.9407 -1.1280
    3MPD1     N14334   1.087   1.259  16.253  0.3222  0.5701  0.1754
    3MPD1    H514335   1.137   1.345  16.233  0.7405  0.8324  2.4008
    3MPD1    N114336   1.251   1.276  16.701 -0.0018  0.4476  0.2392
    3MPD1    H614337   1.348   1.282  16.672  0.6602 -0.5420  2.2262
    3MPD1    H714338   1.247   1.231  16.792  0.6992  1.0873  0.5922
    1TMC1    C114339   4.040   0.357  12.790 -1.1181 -0.7841  0.6688
    1TMC1    C214340   3.996   0.403  12.911 -0.0565  0.5687 -0.0012
    1TMC1    C314341   3.865   0.369  12.948  0.1238  0.3002 -0.1963
    1TMC1    C414342   3.954   0.287  12.709  0.3113 -0.4073 -0.1850
    1TMC1    C514343   3.824   0.263  12.748  0.2337 -0.0853  0.2638
    1TMC1    C614344   3.775   0.304  12.868 -0.0611 -0.3257 -0.0264
    1TMC1     C14345   4.182   0.363  12.744 -1.2819 -0.1134  0.6993
    1TMC1     O14346   4.215   0.328  12.629 -0.4397 -0.3896  0.1503
    1TMC1     H14347   4.056   0.468  12.973  1.6343 -1.4495  0.5106
    1TMC1    H114348   3.998   0.239  12.622 -1.6582 -1.8804 -0.3806
    1TMC1    H214349   3.672   0.275  12.889 -0.3417  0.2020 -0.6583
    1TMC1    C714350   3.744   0.162  12.678  0.1414 -0.0401 -0.1738
    1TMC1    C814351   3.826   0.411  13.078  0.0050 -0.2544  0.2558
    1TMC1    O114352   3.664   0.092  12.732 -0.2731  0.4379 -0.2597
    1TMC1    O214353   3.705   0.409  13.104  0.0918  0.6766 -0.7093
    1TMC1    O314354   3.723   0.218  12.557  0.1182 -0.6771 -0.5395
    1TMC1    H314355   3.783   0.288  12.524 -1.5528 -0.2238 -2.5945
    1TMC1    O514356   3.932   0.393  13.164 -0.0178 -0.2505 -0.1549
    1TMC1    H514357   4.007   0.346  13.123  0.2258 -1.1109  1.2834
    2MPD2     C14358   4.465   0.454  12.727 -0.0777 -0.2259 -0.1813
    2MPD2    C114359   4.396   0.438  12.844  0.7602  0.2260 -0.0477
    2MPD2    C214360   4.467   0.472  12.960  0.4587 -0.1413  0.6278
    2MPD2    C314361   4.607   0.481  12.963 -0.1146 -0.0198  0.0604
    2MPD2    C414362   4.678   0.488  12.842  0.0419 -0.0893 -0.2926
    2MPD2    C514363   4.602   0.481  12.726 -0.0474  0.0127  0.0493
    2MPD2     H14364   4.420   0.457  13.057  0.4657 -1.7189  0.3836
    2MPD2    H114365   0.051   0.498  12.832 -0.1872  4.2689  1.3659
    2MPD2    H214366   4.416   0.438  12.632 -3.6731 -2.7456  2.0882
    2MPD2    H314367   4.645   0.491  12.627  2.5298 -0.6943  1.1104
    2MPD2     N14368   4.671   0.469  13.096  0.3714  0.3489  0.1905
    2MPD2    H514369   4.612   0.456  13.177  1.8327  1.5448  1.4434
    2MPD2    N114370   4.258   0.405  12.849  0.0132 -0.1520 -0.4862
    2MPD2    H714371   4.217   0.425  12.940 -1.2541  2.6824 -1.6808
    3TCq1    O114372   4.718   0.076  13.526  0.0150 -0.1226  0.1339
    3TCq1    C114373   4.669   0.201  13.516 -0.2346  0.4297  0.1110
    3TCq1    O214374   4.549   0.226  13.485 -0.5484  0.1265  0.2410
    3TCq1    C214375   0.037   0.265  13.436  0.4679 -0.2708  0.5128
    3TCq1    C314376   0.167   0.239  13.468 -0.0233  0.4487  0.0069
    3TCq1    C414377   0.266   0.296  13.391  0.3301 -0.0796  0.4696
    3TCq1    C514378   0.233   0.376  13.286 -0.0218 -0.1209 -0.2152
    3TCq1    C614379   0.098   0.394  13.251  0.4934  0.1341 -0.0029
    3TCq1    C714380   4.734   0.340  13.330  0.5558  0.4180  0.6532
    3TCq1    C814381   0.070   0.460  13.125  0.5990 -0.5040 -0.1017
    3TCq1    O414382   0.156   0.449  13.040  0.4798  0.0385  0.1382
    3TCq1    C914383   0.407   0.284  13.429  0.0065  0.1852 -0.0822
    3TCq1    O514384   0.493   0.327  13.341 -0.3150  0.2372 -0.1327
    3TCq1    O614385   0.440   0.217  13.528  0.0814 -0.2539  0.4157
    3TCq1    H114386   0.050   0.085  13.598 -0.0698  1.0333  0.0807
    3TCq1    H214387   0.199   0.187  13.558 -1.4166  1.1485  0.8981
    3TCq1    H314388   0.315   0.426  13.235 -0.9155  0.4027 -1.1484
    3TCq1    H414389   4.629   0.362  13.317  0.4597 -1.3231 -1.5330
    1MPD2     C14390   4.263   1.650  14.807  0.5973  0.4383 -0.1014
    1MPD2    C114391   4.137   1.608  14.765 -1.1753  0.1499 -0.1895
    1MPD2    C214392   4.137   1.484  14.702  0.8034  0.3064 -0.6668
    1MPD2    C314393   4.252   1.406  14.692 -0.3056 -0.2901  0.4420
    1MPD2    C414394   4.367   1.441  14.763  0.6834 -0.3318 -0.2503
    1MPD2    C514395   4.370   1.567  14.810 -0.1918  0.5152 -0.1181
    1MPD2     H14396   4.046   1.441  14.661  1.4623 -0.4821 -1.2811
    1MPD2    H114397   4.455   1.378  14.773 -0.3849 -1.4435  1.9288
    1MPD2    H214398   4.282   1.737  14.869  0.2128  1.3467 -1.2649
    1MPD2    H314399   4.452   1.599  14.873  1.5588 -1.8470 -1.1904
    1MPD2     N14400   4.238   1.280  14.626  0.2914  0.0827 -0.1604
    1MPD2    H514401   4.146   1.257  14.588 -1.9792  3.2094  3.4104
    1MPD2    N114402   4.027   1.687  14.779  0.0439  0.7102  0.0787
    1MPD2    H714403   4.039   1.787  14.793  1.5756  0.1662  2.5840
    2TMC3    C114404   3.788   1.737  14.800  0.3319  0.2041 -0.2366
    2TMC3    C214405   3.676   1.659  14.833  0.4386  0.0935  0.4467
    2TMC3    C314406   3.559   1.679  14.770  0.4279 -0.1949  0.0343
    2TMC3    C414407   3.780   1.844  14.713  0.0779  0.1799  0.6367
    2TMC3    C514408   3.653   1.863  14.661 -0.2631  0.4243  0.7946
    2TMC3    C614409   3.547   1.781  14.680 -0.0726  0.3458  1.0716
    2TMC3     C14410   3.902   1.638  14.789  0.5362  0.2429  0.4460
    2TMC3     O14411   3.875   1.520  14.804 -0.5020  0.2404 -0.6539
    2TMC3     H14412   3.677   1.591  14.918  1.3974  0.5758  0.8264
    2TMC3    H114413   3.859   1.914  14.690  1.8148 -2.6145 -1.8801
    2TMC3    H214414   3.454   1.799  14.627  2.0631  0.5207 -2.6000
    2TMC3    C714415   3.636   1.976  14.576  0.2722  0.0679 -0.4340
    2TMC3    C814416   3.505   1.558  14.720 -0.4332 -0.3348 -0.2194
    2TMC3    O114417   3.548   1.965  14.490 -0.0295  0.4596 -0.6005
    2TMC3    O214418   3.392   1.569  14.682 -0.9118  0.0983 -0.1571
    3TCq1    O114419   4.346   2.929  14.219  0.5887  0.0575  0.6941
    3TCq1    C114420   4.412   2.893  14.331  0.4055  0.1147  0.1858
    3TCq1    O214421   4.530   2.897  14.341  0.0552  0.2003  0.3695
    3TCq1    C214422   4.338   2.799  14.410 -0.1575 -0.7979 -0.2671
    3TCq1    C314423   4.387   2.760  14.532 -0.5082 -0.1053  0.6547
    3TCq1    C414424   4.316   2.671  14.607  0.2065  0.0010 -0.4211
    3TCq1    C514425   4.204   2.601  14.562 -0.1660  0.1117  0.2322
    3TCq1    C614426   4.170   2.627  14.431  0.3258  0.2985 -1.2596
    3TCq1    C714427   4.231   2.727  14.356  0.4767 -0.0381  0.6591
    3TCq1    C814428   4.046   2.574  14.382 -0.0746 -0.2791 -1.1539
    3TCq1    O414429   3.990   2.632  14.289 -0.5585  0.0403  0.2377
    3TCq1    C914430   4.349   2.654  14.744  0.3071 -0.4839  0.0701
    3TCq1    O514431   4.289   2.565  14.811  0.4616  0.5896  0.1316
    3TCq1    O614432   4.430   2.736  14.785  0.0306 -0.5058 -0.2311
    3TCq1    H114433   4.249   2.936  14.233  0.4591 -0.4898  0.1166
    3TCq1    H214434   4.463   2.810  14.590  0.1664 -1.0490  0.5744
    3TCq1    H314435   4.148   2.543  14.634 -1.1782 -2.5389 -2.6644
    3TCq1    H414436   4.193   2.744  14.255  0.3425 -0.1764  0.6866
    4MPD2     C14437   3.805   2.398  14.330 -0.2074  0.2228  0.0801
    4MPD2    C114438   3.900   2.367  14.424 -0.0975 -0.1879 -0.6082
    4MPD2    C214439   3.870   2.261  14.513 -0.4877 -0.3324 -0.1873
    4MPD2    C314440   3.751   2.187  14.502  0.8018  0.0795  0.3073
    4MPD2    C414441   3.660   2.213  14.395  0.1652 -0.1033 -0.5231
    4MPD2    C514442   3.692   2.321  14.315  0.3586  0.0936 -0.9764
    4MPD2     H14443   3.937   2.225  14.590  1.4082  1.2847 -1.1019
    4MPD2    H114444   3.564   2.164  14.387  0.5826 -0.8265 -1.1698
    4MPD2    H214445   3.827   2.473  14.255  0.5577 -1.2751 -1.2170
    4MPD2    H314446   3.633   2.341  14.225 -4.4640 -0.8217  1.9850
    4MPD2     N14447   3.732   2.075  14.595 -0.0154  0.9520  0.2988
    4MPD2    H514448   3.791   2.075  14.677  0.2587  0.8623  0.0987
    4MPD2    N114449   4.010   2.455  14.449  0.5092 -0.1063 -0.1070
    4MPD2    H714450   4.084   2.414  14.506  0.2025 -0.6398 -0.0875
    5TMC2    C114451   4.046   1.025  14.522  0.4788  0.8453 -0.6076
    5TMC2    C214452   4.035   0.927  14.614  0.8831 -0.1997 -0.1703
    5TMC2    C314453   4.152   0.897  14.677  0.1446 -0.1275 -0.5905
    5TMC2    C414454   4.164   1.081  14.480  0.1672 -0.1545  0.0211
    5TMC2    C514455   4.274   1.055  14.553 -0.3565 -0.2811 -0.0517
    5TMC2    C614456   4.267   0.961  14.649 -0.3770  0.1978  0.2439
    5TMC2     C14457   3.938   1.118  14.543  0.2379  1.2392 -0.5218
    5TMC2     O14458   3.969   1.233  14.569  0.1108 -0.0660  0.2686
    5TMC2     H14459   3.938   0.911  14.659  0.5831 -1.5916 -1.3119
    5TMC2    H114460   4.166   1.149  14.395  0.3850 -1.9320 -1.4055
    5TMC2    H214461   4.355   0.943  14.709  1.8612  1.5839 -2.5917
    5TMC2    C714462   4.330   1.176  14.614 -0.5473  0.1177 -0.4278
    5TMC2    C814463   4.140   0.868  14.817 -0.7356 -0.0767  0.5630
    5TMC2    O114464   4.434   1.155  14.674 -0.2543  0.1929 -0.5628
    5TMC2    O214465   4.179   0.945  14.905  0.2074 -0.3145 -0.2028
    5TMC2    O514466   4.038   0.776  14.830  0.2801  0.2733 -0.3318
    5TMC2    H514467   4.021   0.727  14.747 -0.6743  1.1293 -0.6463
    6MPD2     C14468   3.455   1.291  14.602  0.5146 -0.2273 -0.2509
    6MPD2    C114469   3.581   1.342  14.645 -0.5780  0.0973 -0.0490
    6MPD2    C214470   3.697   1.265  14.632 -0.1802 -0.4036  0.7001
    6MPD2    C314471   3.697   1.143  14.565  0.6269  0.2808 -0.0888
    6MPD2    C414472   3.578   1.092  14.529  0.0729  0.1875 -1.1591
    6MPD2    C514473   3.457   1.161  14.549 -0.3246 -0.3449  0.5666
    6MPD2     H14474   3.787   1.312  14.670 -0.2079 -0.2484  0.5702
    6MPD2    H114475   3.570   0.997  14.479  1.6958 -0.9597  0.7288
    6MPD2    H214476   3.365   1.349  14.614 -0.4154 -1.5494 -0.9302
    6MPD2    H314477   3.361   1.120  14.518  0.4866 -1.2460 -0.7244
    6MPD2     N14478   3.809   1.066  14.534  0.3484  0.2322 -0.1471
    6MPD2    H514479   3.793   0.972  14.499 -1.1705  0.0748  0.9988
    6MPD2    N114480   3.594   1.463  14.709 -0.4113 -0.9933  0.4808
    6MPD2    H714481   3.683   1.477  14.755  0.6328  0.3613 -1.9585
  945NH4     N114482   4.039   2.598  11.077 -0.2035  0.4595  0.1267
  945NH4     H214483   4.121   2.617  11.017  0.4324  1.9445  1.4433
  945NH4     H314484   3.984   2.526  11.027 -2.6048  0.3026  2.9607
  945NH4     H414485   3.978   2.681  11.093 -2.3896 -0.6537 -2.4974
  945NH4     H514486   4.064   2.562  11.171 -0.1754 -2.2323 -0.9208
  946SOD     NA14487   4.286   0.140   0.734 -0.3357 -0.1073 -0.3013
  947SOD     NA14488   4.658   1.327  15.099 -0.2116  0.0963  0.0465
  948SOD     NA14489   4.597   2.716  11.185 -0.9268 -0.1085 -0.0875
  949SOD     NA14490   1.181   3.377  16.253  0.2819  0.5626 -0.3924
  950SOD     NA14491   2.376   1.342  11.185 -0.1024  0.4598  0.6350
  951SOD     NA14492   1.109   1.383   5.322  0.3512  0.0623 -0.0924
  952SOD     NA14493   3.130   3.220  12.927  0.3421  0.3369 -0.3118
  953SOL     OW14494   0.010   2.730   4.883  0.1778 -0.3667 -0.5181
  953SOL    HW114495   0.025   2.823   4.865  2.8909 -0.6751  0.1587
  953SOL    HW214496   4.664   2.702   4.840  0.7452 -1.3958 -0.9045
  954SOL     OW14497   1.201   2.180   7.250 -0.3950 -0.0775 -0.1712
  954SOL    HW114498   1.203   2.127   7.170  0.7208  0.4991 -0.5316
  954SOL    HW214499   1.179   2.104   7.303  1.4020  0.0431  0.7352
  955SOL     OW14500   0.082   1.180   2.233  0.1754  0.1366  0.0410
  955SOL    HW114501   0.001   1.142   2.266  1.8961 -1.3874  2.5020
  955SOL    HW214502   0.132   1.105   2.201  0.2504 -0.1181  0.7423
  956SOL     OW14503   3.156   4.266  14.424 -1.1955  0.5385 -0.1477
  956SOL    HW114504   3.149   4.345  14.478 -2.5918  1.7392 -2.0718
  956SOL    HW214505   3.077   4.269  14.370 -0.1624 -1.7587 -1.7888
  957SOL     OW14506   0.538   2.923   2.721 -0.2815 -0.4468  0.1830
  957SOL    HW114507   0.579   3.007   2.742 -0.7580  0.0336 -0.7947
  957SOL    HW214508   0.577   2.907   2.635  1.4281 -0.3828  0.9436
  958SOL     OW14509   4.385   2.324   2.057 -1.1004  0.3751 -0.2261
  958SOL    HW114510   4.422   2.237   2.073 -1.4480  0.4087  0.7705
  958SOL    HW214511   4.459   2.375   2.023 -0.1134  0.7864  2.5294
  959SOL     OW14512   2.050   3.650   7.697 -0.0437  0.3095 -0.0107
  959SOL    HW114513   1.957   3.647   7.719  0.3641 -0.5275  1.5929
  959SOL    HW214514   2.060   3.561   7.663  0.6809  1.2476 -2.2611
  960SOL     OW14515   3.643   3.116  16.689  0.2714 -0.0714  0.1204
  960SOL    HW114516   3.648   3.199  16.643 -2.4476  0.0060 -0.0415
  960SOL    HW214517   3.710   3.071  16.638 -0.8435 -1.9312  0.3053
  961SOL     OW14518   2.634   0.337   5.433 -0.2038  0.2410  0.5618
  961SOL    HW114519   2.618   0.321   5.340 -1.1865  1.6839  0.4878
  961SOL    HW214520   2.680   0.257   5.460 -1.1587 -0.6958 -0.6193
  962SOL     OW14521   0.723   0.723   1.769 -0.3845  0.4895 -0.8866
  962SOL    HW114522   0.756   0.797   1.717  2.7158 -0.5116 -0.3516
  962SOL    HW214523   0.648   0.698   1.716 -1.6152  1.9029  0.1814
  963SOL     OW14524   4.389   3.483   3.042 -0.0805  0.0945 -0.2360
  963SOL    HW114525   4.444   3.462   2.966  0.8382 -0.8336  0.6857
  963SOL    HW214526   4.312   3.523   3.001 -0.5950  0.2469  0.8606
  964SOL     OW14527   4.618   3.726   3.392 -0.0420 -0.0703  0.0644
  964SOL    HW114528   4.638   3.796   3.331 -1.1728 -0.8272 -1.1837
  964SOL    HW214529   4.702   3.734   3.437  0.9016 -4.2997 -0.8875
  965SOL     OW14530   4.151   2.781   8.676 -0.2059  0.0842 -0.7365
  965SOL    HW114531   4.097   2.843   8.725  0.5127  0.4290 -0.3706
  965SOL    HW214532   4.236   2.774   8.719 -0.6020  0.7862  0.1607
  966SOL     OW14533   3.184   1.475   0.834  0.1619  0.5919  0.0324
  966SOL    HW114534   3.141   1.531   0.900 -0.8832 -1.6764  1.2948
  966SOL    HW214535   3.167   1.523   0.753  1.8903 -1.0194 -1.2895
  967SOL     OW14536   4.573   2.922  14.850 -0.3829  0.2955  0.2348
  967SOL    HW114537   4.520   2.846  14.825  0.2840 -0.6322  1.6430
  967SOL    HW214538   4.661   2.886  14.845 -0.8837 -1.0042  0.7902
  968SOL     OW14539   4.159   3.124  11.756 -0.2864 -0.4009  0.6202
  968SOL    HW114540   4.176   3.186  11.827  1.2773  0.1728 -0.2553
  968SOL    HW214541   4.239   3.072  11.761 -0.0536 -0.0818  0.2255
  969SOL     OW14542   1.686   3.439  14.412  0.0036  0.3888 -0.0288
  969SOL    HW114543   1.662   3.362  14.463 -1.8198 -0.9649 -3.0014
  969SOL    HW214544   1.603   3.462  14.369 -0.7014  1.8582  2.0669
  970SOL     OW14545   0.358   1.768   1.095 -0.3997  0.3306  0.0048
  970SOL    HW114546   0.341   1.730   1.182  1.8310  0.5865  0.5593
  970SOL    HW214547   0.453   1.773   1.099 -0.2056 -3.1403 -0.2710
  971SOL     OW14548   3.221   4.264   9.639  0.5863 -0.1142  0.4058
  971SOL    HW114549   3.165   4.197   9.599 -1.9273  2.2597 -0.0393
  971SOL    HW214550   3.233   4.211   9.718  1.3326  0.4257  0.6488
  972SOL     OW14551   1.975   4.613   9.142 -0.4318 -0.6368  0.1556
  972SOL    HW114552   2.020   4.536   9.106  0.4774 -0.8612  1.7674
  972SOL    HW214553   1.931   4.663   9.074  1.9748 -1.0833 -1.7293
  973SOL     OW14554   1.595   2.203   1.668  0.1618  0.0985  0.2402
  973SOL    HW114555   1.551   2.288   1.679  2.1166  1.0877  0.4611
  973SOL    HW214556   1.522   2.153   1.632 -1.4325 -0.2612  4.0147
  974SOL     OW14557   1.968   4.547  13.911 -0.2505  0.1902 -0.2932
  974SOL    HW114558   2.043   4.592  13.949  0.7564 -0.9378 -0.9421
  974SOL    HW214559   2.015   4.466  13.889  0.6990  0.5647  0.3717
  975SOL     OW14560   0.136   3.787   5.975  0.4420 -0.3412 -0.0408
  975SOL    HW114561   0.081   3.714   6.006  1.5604 -0.7876  0.9017
  975SOL    HW214562   0.198   3.745   5.915  1.6022 -0.6081  1.3320
  976SOL     OW14563   0.082   3.894   4.936  0.5479  0.4382 -0.5653
  976SOL    HW114564   0.175   3.907   4.957  0.1761 -2.0078  2.5777
  976SOL    HW214565   0.054   3.982   4.964 -0.4602  0.2556 -0.9846
  977SOL     OW14566   2.916   1.375   7.610 -0.5475 -0.1923 -0.2638
  977SOL    HW114567   2.913   1.415   7.697 -1.3824  0.8638 -0.7718
  977SOL    HW214568   2.974   1.434   7.563  1.5673  0.0238  2.6414
  978SOL     OW14569   0.582   3.793   8.489 -0.2382 -0.7347 -0.2636
  978SOL    HW114570   0.638   3.727   8.530  0.9987  1.4586  1.5812
  978SOL    HW214571   0.493   3.758   8.502 -0.2492 -1.3557 -1.9772
  979SOL     OW14572   1.365   1.809   8.581 -0.0557 -0.2827 -0.0856
  979SOL    HW114573   1.401   1.857   8.507  0.1704 -0.5129 -0.1253
  979SOL    HW214574   1.285   1.782   8.537 -0.3898  0.2434  0.2017
  980SOL     OW14575   2.347   0.080  15.276  0.2018  0.3428 -0.0673
  980SOL    HW114576   2.419   0.142  15.266  0.3554  0.4846  1.9343
  980SOL    HW214577   2.337   0.054  15.184 -1.3229  2.2735 -0.4495
  981SOL     OW14578   3.374   4.042   3.160  0.4684 -0.0880 -0.1285
  981SOL    HW114579   3.437   4.069   3.228 -0.0580  0.8479 -0.0147
  981SOL    HW214580   3.421   4.082   3.087  0.0836 -1.2726 -1.0246
  982SOL     OW14581   4.365   0.641   5.723 -0.0153 -0.0496  0.0891
  982SOL    HW114582   4.292   0.697   5.752 -0.2194 -0.2924  0.0412
  982SOL    HW214583   4.351   0.649   5.628 -1.8158  2.1503  0.5287
  983SOL     OW14584   1.849   2.074  12.216  0.0243  0.8295  0.1763
  983SOL    HW114585   1.867   1.992  12.170  2.7455  1.6085 -0.1190
  983SOL    HW214586   1.885   2.134  12.151 -0.9592 -0.1865 -1.3323
  984SOL     OW14587   1.156   3.541   0.873 -0.1456 -0.6688 -0.4849
  984SOL    HW114588   1.211   3.606   0.918 -1.1708  0.5083 -0.9256
  984SOL    HW214589   1.071   3.582   0.890 -0.4306 -0.7032 -1.8387
  985SOL     OW14590   2.978   0.673   5.564 -0.2390  0.2999  0.1088
  985SOL    HW114591   2.909   0.739   5.559 -0.1465  0.2404 -1.6742
  985SOL    HW214592   2.929   0.596   5.592  3.2124 -1.5367  1.0737
  986SOL     OW14593   0.890   1.143   5.629  0.2798  0.7615  0.4629
  986SOL    HW114594   0.881   1.178   5.717 -0.4555  0.3184  0.5643
  986SOL    HW214595   0.974   1.097   5.640 -0.0341 -1.0522 -4.8089
  987SOL     OW14596   3.281   0.705  14.351 -0.4286 -0.7687 -0.3094
  987SOL    HW114597   3.204   0.648  14.358  0.1013 -1.4676 -0.2474
  987SOL    HW214598   3.260   0.772  14.417 -0.4529 -1.0130 -0.0670
  988SOL     OW14599   1.313   2.929  15.638 -0.0952 -0.1205  0.4300
  988SOL    HW114600   1.342   3.013  15.603  2.1649 -0.7286  0.8567
  988SOL    HW214601   1.227   2.923  15.598  0.1365 -0.6371  0.0076
  989SOL     OW14602   3.828   3.688   3.475 -0.4448 -0.1132  0.1858
  989SOL    HW114603   3.853   3.771   3.516  2.5311 -0.5014 -0.8548
  989SOL    HW214604   3.900   3.675   3.413  1.6499 -0.4681  2.6811
  990SOL     OW14605   1.551   0.932   8.216  0.1261  0.7301  0.0707
  990SOL    HW114606   1.616   0.875   8.174 -0.3870  0.0399  0.2151
  990SOL    HW214607   1.603   0.990   8.272  3.0109  0.1944 -2.0222
  991SOL     OW14608   2.521   4.488   2.199  0.2132 -0.5967 -0.4575
  991SOL    HW114609   2.441   4.517   2.244 -0.2515 -0.0737 -1.6153
  991SOL    HW214610   2.492   4.415   2.144 -0.8395 -0.5364  0.0207
  992SOL     OW14611   0.455   1.685   5.280 -0.3459  0.2431  0.4114
  992SOL    HW114612   0.501   1.769   5.289  0.9719 -0.5175  0.6803
  992SOL    HW214613   0.374   1.724   5.246 -0.1189  0.6317  0.3126
  993SOL     OW14614   4.068   0.351  17.667  0.0078 -0.1024  0.0405
  993SOL    HW114615   4.137   0.398  17.620 -0.6817  2.5633  1.7086
  993SOL    HW214616   3.986   0.374  17.623 -2.2719  0.7776  4.7408
  994SOL     OW14617   0.975   1.036   8.634  0.1472  0.1948  0.2303
  994SOL    HW114618   0.988   0.979   8.559 -2.8997 -1.5123  0.9808
  994SOL    HW214619   1.018   1.117   8.607 -2.2974  1.3663 -0.1752
  995SOL     OW14620   1.384   1.255  14.099  0.1294 -0.1400  0.4634
  995SOL    HW114621   1.371   1.296  14.013 -1.2691 -0.0399  0.7252
  995SOL    HW214622   1.372   1.161  14.088 -1.1327 -0.1383  1.8046
  996SOL     OW14623   3.673   4.220   9.792 -0.0931 -0.4006 -0.8841
  996SOL    HW114624   3.638   4.205   9.879 -1.0126 -1.6704 -1.4655
  996SOL    HW214625   3.673   4.316   9.794 -1.2732 -0.4455  0.9215
  997SOL     OW14626   2.587   3.539  12.590 -0.2803  0.3741 -0.1059
  997SOL    HW114627   2.519   3.606  12.603  0.0681  1.2839 -2.9381
  997SOL    HW214628   2.663   3.596  12.583 -0.7609  0.9746 -0.5068
  998SOL     OW14629   4.719   3.157   7.354 -0.3850 -0.1554  0.2064
  998SOL    HW114630   4.651   3.199   7.301  0.2136  2.5744  1.6589
  998SOL    HW214631   4.666   3.152   7.434  0.9512 -2.1790  0.9657
  999SOL     OW14632   4.585   0.410   3.935 -0.1180 -0.1153  1.0494
  999SOL    HW114633   4.675   0.415   3.968  2.1593 -2.2740 -4.7682
  999SOL    HW214634   4.532   0.403   4.014  0.8807  1.7611  1.9106
 1000SOL     OW14635   1.486   3.650  10.542  0.0107 -0.4237  0.7533
 1000SOL    HW114636   1.539   3.719  10.581 -3.5003  2.8706 -0.2687
 1000SOL    HW214637   1.534   3.644  10.460 -1.3571 -0.6762 -0.0369
 1001SOL     OW14638   0.254   4.710   4.834 -0.5746 -0.2345 -0.8523
 1001SOL    HW114639   0.177   0.025   4.862  0.2771 -0.0688  1.1951
 1001SOL    HW214640   0.214   4.623   4.827  0.0895 -0.6455  0.5279
 1002SOL     OW14641   3.646   4.596   5.403  0.1811  0.2118  0.3332
 1002SOL    HW114642   3.558   4.590   5.367  0.0012  1.2368  0.6117
 1002SOL    HW214643   3.658   4.690   5.390 -1.7937  0.3151 -0.7288
 1003SOL     OW14644   3.812   4.335   0.578  0.2938 -0.5861  0.1797
 1003SOL    HW114645   3.718   4.348   0.566  0.4883 -0.8537 -1.5969
 1003SOL    HW214646   3.826   4.281   0.500  4.3771 -0.5996  0.9597
 1004SOL     OW14647   4.511   1.148   5.965 -0.3416  0.2819  0.0735
 1004SOL    HW114648   4.472   1.062   5.976 -0.9503  0.4860 -0.4883
 1004SOL    HW214649   4.568   1.150   6.042  0.7172  2.2004 -0.7336
 1005SOL     OW14650   4.717   1.653   1.625 -0.0530 -0.1515  0.5963
 1005SOL    HW114651   4.676   1.704   1.555 -0.8054 -2.0203 -0.3186
 1005SOL    HW214652   4.661   1.576   1.627 -0.8804  0.4342 -0.6171
 1006SOL     OW14653   3.954   4.422   9.919  0.1189  0.0796  0.0310
 1006SOL    HW114654   3.984   4.492   9.862  2.1356 -0.2238  0.6887
 1006SOL    HW214655   3.861   4.442   9.910  0.5888  3.1104  1.7672
 1007SOL     OW14656   4.233   0.428  15.500  0.0743  0.1247  0.5154
 1007SOL    HW114657   4.308   0.485  15.485  0.2266  0.1259  1.2835
 1007SOL    HW214658   4.172   0.493  15.534  0.4002  0.4301  0.5091
 1008SOL     OW14659   2.306   1.348   3.356  0.1073  0.5145 -0.5147
 1008SOL    HW114660   2.319   1.253   3.357 -2.5146  0.1216 -2.5853
 1008SOL    HW214661   2.296   1.367   3.449  3.8537  1.3421 -0.3068
 1009SOL     OW14662   3.000   1.134   1.323  0.1496 -0.0644 -0.1556
 1009SOL    HW114663   2.912   1.161   1.295  0.9978  2.0177 -0.8307
 1009SOL    HW214664   2.981   1.101   1.411  0.9252  0.3684  0.1709
 1010SOL     OW14665   4.690   4.592   0.499 -0.4983  0.2051 -0.1514
 1010SOL    HW114666   4.678   4.579   0.593 -0.0942  2.2070  0.1740
 1010SOL    HW214667   0.020   4.526   0.474 -1.5453 -1.5037  1.5925
 1011SOL     OW14668   4.357   0.335   6.592  0.3348  0.0398 -0.1380
 1011SOL    HW114669   4.299   0.410   6.604  1.4472  0.9030 -0.2248
 1011SOL    HW214670   4.430   0.370   6.642  0.7742  1.4487 -1.7716
 1012SOL     OW14671   1.226   3.495   4.438  0.2127 -0.0861  0.0245
 1012SOL    HW114672   1.271   3.486   4.522  0.4616 -1.9095 -0.2931
 1012SOL    HW214673   1.139   3.527   4.462 -0.7598 -0.3504 -3.1480
 1013SOL     OW14674   1.690   4.062   5.358 -0.2018 -0.0531 -0.3210
 1013SOL    HW114675   1.614   4.008   5.340  0.3225 -0.2253 -1.9920
 1013SOL    HW214676   1.702   4.052   5.453 -0.7431  0.1216 -0.2333
 1014SOL     OW14677   1.399   1.174   3.904  0.1517 -0.1925  0.1391
 1014SOL    HW114678   1.463   1.214   3.845  0.1269 -1.5704 -0.8135
 1014SOL    HW214679   1.320   1.211   3.866  0.9588 -1.3713 -2.6596
 1015SOL     OW14680   0.333   4.401   2.624  0.0950  0.0690 -0.2759
 1015SOL    HW114681   0.348   4.308   2.640 -1.4896  0.0100  0.9655
 1015SOL    HW214682   0.354   4.394   2.531 -1.4182  1.3133 -0.7115
 1016SOL     OW14683   4.269   2.879   4.829 -0.5747 -0.4162 -0.2389
 1016SOL    HW114684   4.316   2.922   4.758 -0.4528  0.6336  0.4704
 1016SOL    HW214685   4.306   2.935   4.897  1.0838 -0.0197 -1.4624
 1017SOL     OW14686   3.022   3.293   7.565 -0.0659  0.0028 -0.2781
 1017SOL    HW114687   3.052   3.375   7.604 -0.4524  0.4694 -0.9542
 1017SOL    HW214688   2.931   3.308   7.537 -1.2685 -1.4365  2.8137
 1018SOL     OW14689   3.046   0.487   8.346 -0.1820  0.0690 -0.2128
 1018SOL    HW114690   2.983   0.438   8.293  0.6582 -2.2090  0.9057
 1018SOL    HW214691   3.104   0.415   8.369  0.0584  0.7479  1.3403
 1019SOL     OW14692   2.341   2.434   9.049  0.5084 -0.0988 -0.3166
 1019SOL    HW114693   2.303   2.474   9.127  0.4574 -0.8257  0.0328
 1019SOL    HW214694   2.291   2.477   8.980 -0.5321 -2.3225 -0.9635
 1020SOL     OW14695   1.846   0.452   5.447  0.4589 -0.8313  0.2439
 1020SOL    HW114696   1.808   0.426   5.363  2.5851  1.3215 -1.3907
 1020SOL    HW214697   1.771   0.429   5.502 -0.1790  2.1975  0.6250
 1021SOL     OW14698   3.701   2.231   7.828 -0.5158 -0.0380 -0.0829
 1021SOL    HW114699   3.714   2.306   7.886 -2.2386  1.7443 -2.0015
 1021SOL    HW214700   3.760   2.167   7.868  0.2167  2.9240  3.5961
 1022SOL     OW14701   0.769   3.103   4.413  0.4086 -0.0568 -0.0376
 1022SOL    HW114702   0.812   3.072   4.493 -0.4123 -1.0715  0.0078
 1022SOL    HW214703   0.738   3.020   4.377 -0.1932  0.7248 -1.3047
 1023SOL     OW14704   3.422   1.090   8.801  0.3415  0.2106 -0.3313
 1023SOL    HW114705   3.492   1.070   8.739 -0.6574 -1.0028 -1.0796
 1023SOL    HW214706   3.422   1.019   8.866  0.9076  0.9742  0.5065
 1024SOL     OW14707   3.898   3.323  15.514 -0.2210 -0.7122 -0.0819
 1024SOL    HW114708   3.985   3.359  15.496 -0.5910  0.1202 -0.2002
 1024SOL    HW214709   3.895   3.240  15.466 -3.5553 -0.4512 -0.3087
 1025SOL     OW14710   2.057   0.166   6.269 -0.7251  0.1095 -0.0644
 1025SOL    HW114711   2.114   0.150   6.194  0.0749  1.9492  0.1672
 1025SOL    HW214712   2.109   0.237   6.307 -1.0722  0.7257 -0.7472
 1026SOL     OW14713   4.681   1.411   7.694  0.7962  0.1669  0.5542
 1026SOL    HW114714   4.623   1.350   7.648  2.1170 -0.5493 -0.1735
 1026SOL    HW214715   4.686   1.377   7.783 -3.0045  0.2938  0.8042
 1027SOL     OW14716   4.630   4.218  13.552 -0.5529  0.4488 -0.4123
 1027SOL    HW114717   4.568   4.172  13.607  0.8455 -0.3031  0.5495
 1027SOL    HW214718   4.635   4.307  13.587 -0.0822  0.8812 -1.5797
 1028SOL     OW14719   1.860   4.144  15.588 -0.3212 -0.3525  0.2943
 1028SOL    HW114720   1.814   4.201  15.650 -2.6532 -2.4509  0.4984
 1028SOL    HW214721   1.949   4.178  15.592 -0.8966  0.9430  2.0757
 1029SOL     OW14722   4.673   0.777   1.696 -0.0849  0.1691 -0.5249
 1029SOL    HW114723   4.624   0.832   1.756 -0.6065  0.8857 -1.6013
 1029SOL    HW214724   4.687   0.832   1.618 -1.8403 -0.0183 -0.9873
 1030SOL     OW14725   1.674   1.981   8.872 -0.0970  0.2520 -0.2268
 1030SOL    HW114726   1.606   2.000   8.808 -0.5985 -0.8055 -0.0048
 1030SOL    HW214727   1.626   1.926   8.934 -0.7586 -1.5796 -2.3481
 1031SOL     OW14728   3.725   0.942   8.107  0.4244  0.2133 -0.3283
 1031SOL    HW114729   3.787   1.015   8.109 -2.3545  2.5445  0.7721
 1031SOL    HW214730   3.787   0.888   8.058 -0.5042 -0.8695 -0.3214
 1032SOL     OW14731   3.120   1.866   1.886  0.3878  0.0719  0.0907
 1032SOL    HW114732   3.205   1.836   1.918 -0.0680  0.3565  1.5743
 1032SOL    HW214733   3.060   1.833   1.953 -0.4000  2.5910  0.6474
 1033SOL     OW14734   1.967   1.684   3.014  0.5300 -0.0547 -0.3698
 1033SOL    HW114735   1.956   1.778   3.005 -3.2260 -0.5865 -1.0613
 1033SOL    HW214736   2.031   1.669   3.084  0.2548 -0.4096 -0.1916
 1034SOL     OW14737   1.736   1.024   3.302  0.2342 -0.0108  0.0112
 1034SOL    HW114738   1.822   1.056   3.331  0.3780  0.9620 -1.4796
 1034SOL    HW214739   1.729   1.029   3.207 -1.9900  3.1724  0.3379
 1035SOL     OW14740   3.467   3.356   9.066 -0.3697  0.1872  0.2636
 1035SOL    HW114741   3.443   3.321   9.151 -0.2034 -0.9893 -0.1738
 1035SOL    HW214742   3.452   3.279   9.010  0.9262 -0.3575  0.6705
 1036SOL     OW14743   0.888   2.323   6.146 -0.0522  0.4690  0.2458
 1036SOL    HW114744   0.826   2.396   6.136  0.5575  0.9439 -0.0647
 1036SOL    HW214745   0.842   2.261   6.090 -0.7967  0.7182  0.5735
 1037SOL     OW14746   0.412   3.241   5.181 -0.4848  0.5936  0.1669
 1037SOL    HW114747   0.439   3.199   5.263  0.1835 -1.3245 -1.0235
 1037SOL    HW214748   0.470   3.198   5.118 -2.1945 -2.1293  0.4720
 1038SOL     OW14749   1.141   3.107   3.620  0.3121  0.5693  0.1805
 1038SOL    HW114750   1.100   3.021   3.622 -0.7329  1.0627  0.0629
 1038SOL    HW214751   1.065   3.163   3.606  1.4125  1.5261 -2.0073
 1039SOL     OW14752   1.097   3.191  13.434 -0.0029  0.3359 -0.4325
 1039SOL    HW114753   1.045   3.269  13.453 -1.4549 -0.4133 -1.3057
 1039SOL    HW214754   1.035   3.118  13.428  1.8881 -1.2106 -1.3146
 1040SOL     OW14755   0.392   1.766   7.383  0.2366 -0.1468  0.2083
 1040SOL    HW114756   0.298   1.756   7.399  0.6985 -0.8211  2.5782
 1040SOL    HW214757   0.376   1.806   7.297  1.9087  1.2787  0.5637
 1041SOL     OW14758   2.489   0.241  10.888 -0.0982 -0.6303  0.2008
 1041SOL    HW114759   2.526   0.305  10.827  0.4975 -0.4246  0.7728
 1041SOL    HW214760   2.403   0.283  10.885  1.3297  2.0593 -2.2942
 1042SOL     OW14761   4.484   4.336   2.499 -0.4328 -0.2106 -0.3717
 1042SOL    HW114762   4.433   4.408   2.461  1.2259 -0.2838 -2.6994
 1042SOL    HW214763   4.565   4.325   2.450  0.9170  1.9563  1.3833
 1043SOL     OW14764   0.695   3.313   1.469 -0.5904  0.8237 -1.1604
 1043SOL    HW114765   0.609   3.299   1.508 -0.7504  1.2344 -1.3655
 1043SOL    HW214766   0.669   3.284   1.381 -3.7267 -1.2764  0.4691
 1044SOL     OW14767   3.148   0.356   7.758  0.0174 -0.1205  0.3560
 1044SOL    HW114768   3.239   0.375   7.782  0.5359 -0.1344 -1.5786
 1044SOL    HW214769   3.147   0.260   7.750 -0.6051  0.0193 -1.1967
 1045SOL     OW14770   0.335   1.710   4.650 -0.0064  0.2347  0.5378
 1045SOL    HW114771   0.397   1.721   4.723 -0.3653  1.8725  0.5745
 1045SOL    HW214772   0.269   1.653   4.688  1.5246 -0.0410  2.8021
 1046SOL     OW14773   3.206   2.426   7.204  0.1439  0.0732 -0.3304
 1046SOL    HW114774   3.264   2.418   7.128 -0.7397 -2.1225 -0.7678
 1046SOL    HW214775   3.259   2.388   7.274 -0.5473  1.3006  0.8609
 1047SOL     OW14776   3.020   0.434   7.995  0.3989 -0.1452 -0.7877
 1047SOL    HW114777   2.964   0.511   7.984 -0.2516 -0.5300 -0.1343
 1047SOL    HW214778   3.023   0.401   7.905 -0.3182  2.0518 -1.6265
 1048SOL     OW14779   1.066   2.410  11.323  0.1587 -0.3680 -0.0866
 1048SOL    HW114780   1.124   2.431  11.251  0.2657 -1.5969 -0.3574
 1048SOL    HW214781   0.980   2.447  11.301 -0.8423 -2.1719  0.7632
 1049SOL     OW14782   1.876   2.174   5.575 -0.2035  0.2694 -0.1091
 1049SOL    HW114783   1.965   2.152   5.602 -0.1236  0.4592 -0.2167
 1049SOL    HW214784   1.849   2.239   5.640  2.6730  0.7016  0.6443
 1050SOL     OW14785   1.773   0.942   6.994  0.2530 -0.0176  0.1740
 1050SOL    HW114786   1.797   1.027   6.956  0.0783  0.3032  0.7757
 1050SOL    HW214787   1.699   0.964   7.051  0.3317 -2.1317  1.0901
 1051SOL     OW14788   1.517   3.774   9.564  0.3649 -0.1380 -0.6964
 1051SOL    HW114789   1.462   3.751   9.489 -0.1265 -2.2872  0.3227
 1051SOL    HW214790   1.472   3.854   9.590 -1.0932 -1.3925  0.6157
 1052SOL     OW14791   1.291   3.747   7.528 -0.5887  0.6481 -0.1742
 1052SOL    HW114792   1.197   3.763   7.519 -0.8950 -1.6614 -1.0299
 1052SOL    HW214793   1.299   3.749   7.623  0.6350 -1.4543 -0.2372
 1053SOL     OW14794   2.278   3.422   8.186 -0.2670 -0.4790  0.0084
 1053SOL    HW114795   2.264   3.396   8.095  2.4992 -2.5885  0.1925
 1053SOL    HW214796   2.367   3.459   8.187 -0.7132  0.6193 -0.5649
 1054SOL     OW14797   2.802   3.295   3.636 -0.7888  0.4108 -0.1882
 1054SOL    HW114798   2.889   3.316   3.604 -1.6587  1.1108 -2.0869
 1054SOL    HW214799   2.784   3.216   3.584 -1.1426  0.3719 -0.0121
 1055SOL     OW14800   1.936   0.937   0.151 -0.4638  0.2081 -0.2140
 1055SOL    HW114801   2.002   0.870   0.130 -1.5850 -1.5693  2.0141
 1055SOL    HW214802   1.987   1.012   0.120  1.3399 -1.8544 -2.3311
 1056SOL     OW14803   4.167   1.533   2.625 -0.2572  0.2042 -0.1929
 1056SOL    HW114804   4.130   1.483   2.697  1.1367 -3.2113 -1.8473
 1056SOL    HW214805   4.088   1.584   2.607 -1.0890 -1.0137  0.0618
 1057SOL     OW14806   3.691   0.326   0.043 -0.6736 -0.0267 -0.0349
 1057SOL    HW114807   3.632   0.401   0.045 -2.5394 -1.4801 -0.2041
 1057SOL    HW214808   3.739   0.341  17.699 -0.7402  0.6463  0.0454
 1058SOL     OW14809   1.112   2.375   8.185 -0.0501  0.0410  0.1802
 1058SOL    HW114810   1.182   2.311   8.198  1.0566  1.2201  0.1442
 1058SOL    HW214811   1.067   2.340   8.108  0.9081 -2.8623  0.9514
 1059SOL     OW14812   2.443   3.930   5.871  0.3600 -0.8063 -0.1640
 1059SOL    HW114813   2.365   3.894   5.826  1.1186 -1.0795 -1.2710
 1059SOL    HW214814   2.469   3.856   5.926 -1.6171 -2.1801 -1.0376
 1060SOL     OW14815   1.933   4.647   9.416 -0.2673  0.4149  0.5335
 1060SOL    HW114816   1.957   4.653   9.323  2.0282  2.7026  1.2914
 1060SOL    HW214817   1.854   4.701   9.412  0.4517  1.4445  0.2348
 1061SOL     OW14818   4.271   2.986   2.909 -0.1014  0.0399  0.3581
 1061SOL    HW114819   4.316   3.063   2.874  1.0559  0.0423  1.8768
 1061SOL    HW214820   4.176   3.002   2.905  0.1271  1.1091 -0.6824
 1062SOL     OW14821   3.342   3.152   4.482 -0.5404 -0.0923  0.0576
 1062SOL    HW114822   3.422   3.099   4.477  0.7945  1.8444  0.8969
 1062SOL    HW214823   3.289   3.102   4.421 -2.2860  1.4834  0.2934
 1063SOL     OW14824   1.433   3.444   3.393 -0.3621 -0.1407  0.0192
 1063SOL    HW114825   1.448   3.395   3.312 -1.2598 -0.2645 -0.0780
 1063SOL    HW214826   1.349   3.487   3.375  0.5685  0.6581 -2.4419
 1064SOL     OW14827   3.944   2.469   1.943 -0.0379  0.3931  0.2085
 1064SOL    HW114828   3.852   2.482   1.918 -0.5465 -1.5524  1.0649
 1064SOL    HW214829   3.983   2.513   1.867  0.5301 -0.0147  0.2669
 1065SOL     OW14830   2.932   1.449  14.972 -0.3063  0.1207  0.1334
 1065SOL    HW114831   2.976   1.513  15.028  2.4640 -0.5490 -1.2660
 1065SOL    HW214832   2.885   1.508  14.913  2.5879  2.1777 -0.1451
 1066SOL     OW14833   1.536   1.036   2.784  0.6807  0.4016  0.1196
 1066SOL    HW114834   1.581   1.068   2.706  1.9646 -0.2168  0.6170
 1066SOL    HW214835   1.452   1.082   2.775  1.3542  1.0446 -2.7597
 1067SOL     OW14836   3.199   3.711   6.629 -0.3879  0.4099  0.0072
 1067SOL    HW114837   3.207   3.739   6.538  1.5256  1.2545  0.4200
 1067SOL    HW214838   3.107   3.723   6.649 -0.9085 -0.9847 -1.5897
 1068SOL     OW14839   2.709   2.894  10.830 -0.4621  0.4986 -0.4951
 1068SOL    HW114840   2.699   2.865  10.739 -0.3891  3.1332 -1.3619
 1068SOL    HW214841   2.641   2.960  10.820  0.2108  1.6220  2.3260
 1069SOL     OW14842   4.133   0.025   3.933  0.1901 -0.4747 -0.4239
 1069SOL    HW114843   4.058   4.720   3.888 -0.2909  0.1316 -0.1479
 1069SOL    HW214844   4.206   4.729   3.878  0.0588  0.7424 -1.2679
 1070SOL     OW14845   0.780   2.383  10.815 -0.2589 -0.7152  0.2650
 1070SOL    HW114846   0.815   2.324  10.881  0.1863  0.4989  1.1206
 1070SOL    HW214847   0.735   2.451  10.866 -2.6896 -1.6288 -0.6473
 1071SOL     OW14848   1.964   4.277   4.573  0.6899  0.1288  0.2567
 1071SOL    HW114849   1.909   4.202   4.552 -0.8052  1.8531 -2.0562
 1071SOL    HW214850   1.964   4.274   4.669  0.8918  1.3991  0.3031
 1072SOL     OW14851   3.152   2.127   0.617  0.4031 -0.2932  0.2702
 1072SOL    HW114852   3.186   2.111   0.705  2.2419 -3.1426 -0.9806
 1072SOL    HW214853   3.193   2.053   0.573  1.6990 -1.6662  3.7938
 1073SOL     OW14854   2.931   3.425   8.521  0.0798 -0.4037  0.3839
 1073SOL    HW114855   2.975   3.498   8.565 -0.1453 -0.6815  1.0700
 1073SOL    HW214856   3.003   3.378   8.480 -0.2577 -0.7882  0.2364
 1074SOL     OW14857   0.108   3.204  10.042  0.1676  0.1712  0.0713
 1074SOL    HW114858   0.198   3.179  10.020  0.4986 -0.0345  1.6973
 1074SOL    HW214859   0.077   3.201   9.951 -0.9766 -0.2655  0.4755
 1075SOL     OW14860   2.509   3.104   8.526  0.3122  0.2467 -0.0630
 1075SOL    HW114861   2.579   3.041   8.509  1.5369  1.5450  0.1870
 1075SOL    HW214862   2.553   3.177   8.483  1.3416  0.4601  1.3502
 1076SOL     OW14863   2.243   2.264   5.362 -0.6059  0.1981 -0.8026
 1076SOL    HW114864   2.312   2.198   5.365 -0.7165  0.0660 -1.0833
 1076SOL    HW214865   2.233   2.285   5.454  0.7199  0.4573 -0.7284
 1077SOL     OW14866   4.584   0.822   0.346  0.0921 -0.6342 -0.0151
 1077SOL    HW114867   4.587   0.743   0.399 -0.9142 -0.4658  0.2803
 1077SOL    HW214868   4.672   0.806   0.311  0.2097  0.0502 -0.0383
 1078SOL     OW14869   2.726   0.654   6.797  0.1618 -0.5427  0.3409
 1078SOL    HW114870   2.702   0.710   6.724 -1.5146  0.4607  1.6495
 1078SOL    HW214871   2.683   0.573   6.770  0.2784 -0.2800 -0.6035
 1079SOL     OW14872   2.933   2.322  10.776 -0.0945  0.4197  0.3318
 1079SOL    HW114873   2.963   2.237  10.808  1.1870 -0.0512 -2.1000
 1079SOL    HW214874   3.022   2.348  10.753 -0.1115  1.2542  1.2118
 1080SOL     OW14875   3.344   3.123   5.886 -0.0264  0.0231  0.5753
 1080SOL    HW114876   3.374   3.097   5.973 -1.9060  1.0094  1.4933
 1080SOL    HW214877   3.337   3.036   5.846 -0.1793  1.0643 -1.6931
 1081SOL     OW14878   1.764   0.462   0.101  0.5280  0.2525  0.1243
 1081SOL    HW114879   1.787   0.380   0.147  2.3596  2.0917  2.4745
 1081SOL    HW214880   1.678   0.473   0.142 -0.1392 -1.3480 -0.8420
 1082SOL     OW14881   0.526   4.291   7.330 -0.1945  0.0708  0.3588
 1082SOL    HW114882   0.548   4.384   7.330  1.6975 -0.3663  1.0314
 1082SOL    HW214883   0.486   4.269   7.414  0.2894 -0.8714  0.3467
 1083SOL     OW14884   2.975   2.479   4.925 -0.5353  0.2727  0.1389
 1083SOL    HW114885   2.983   2.503   4.833  0.8242 -0.5975  0.0306
 1083SOL    HW214886   3.012   2.557   4.965  1.5637 -1.3941  1.4372
 1084SOL     OW14887   1.038   2.208   5.090  0.0693 -0.1052  0.4242
 1084SOL    HW114888   0.992   2.165   5.018  0.6274  0.2227 -0.1274
 1084SOL    HW214889   1.102   2.139   5.107  0.1395  0.1692  1.2536
 1085SOL     OW14890   2.729   0.235   7.447  0.2789  0.4170 -0.1379
 1085SOL    HW114891   2.721   0.248   7.353  1.4469  2.6486  0.0770
 1085SOL    HW214892   2.652   0.185   7.476 -0.5584  1.4990 -0.5110
 1086SOL     OW14893   0.763   2.276  16.214 -0.0226 -0.1562  0.2227
 1086SOL    HW114894   0.783   2.187  16.242  0.1585  0.1423  1.0362
 1086SOL    HW214895   0.839   2.291  16.158  0.0795 -0.5969  0.2494
 1087SOL     OW14896   2.756   4.009   2.749  0.0653  0.1549 -0.2329
 1087SOL    HW114897   2.767   4.104   2.739  0.7332  0.1145  0.1233
 1087SOL    HW214898   2.800   4.000   2.833  0.1358  0.9913 -0.1824
 1088SOL     OW14899   4.171   0.358  17.048  0.0600 -0.3755  0.1081
 1088SOL    HW114900   4.148   0.269  17.075  1.3978 -0.9207 -0.5780
 1088SOL    HW214901   4.207   0.345  16.961 -0.4780 -0.8661 -0.0398
 1089SOL     OW14902   1.128   2.806   6.047 -0.2130  0.2441 -0.1139
 1089SOL    HW114903   1.213   2.800   6.003 -0.3187 -2.2295  0.0532
 1089SOL    HW214904   1.063   2.785   5.980  0.9197  0.3336 -1.2429
 1090SOL     OW14905   1.992   0.365   2.128  0.3928 -0.3009 -0.5241
 1090SOL    HW114906   1.972   0.388   2.219 -0.9795  2.5970 -1.5362
 1090SOL    HW214907   1.954   0.279   2.143 -0.4450 -0.0653 -1.3057
 1091SOL     OW14908   4.282   0.445   1.396 -0.4502  0.3927  0.3790
 1091SOL    HW114909   4.255   0.480   1.482  0.0354  2.1591 -0.1787
 1091SOL    HW214910   4.201   0.421   1.352 -0.0871  0.6490 -0.4164
 1092SOL     OW14911   2.472   0.481  16.091  0.4664  0.1343 -0.5714
 1092SOL    HW114912   2.388   0.456  16.053 -0.4752  0.4324  1.2993
 1092SOL    HW214913   2.470   0.577  16.086  0.0958  0.1665  0.1601
 1093SOL     OW14914   0.933   3.034   9.473 -0.2720 -0.4711 -0.2204
 1093SOL    HW114915   0.882   3.074   9.403  1.8345  1.1865 -0.8113
 1093SOL    HW214916   0.919   2.940   9.463 -1.6808 -0.3730  0.7616
 1094SOL     OW14917   0.805   3.713  13.193  0.0821 -0.4521 -0.3812
 1094SOL    HW114918   0.722   3.720  13.240 -0.8772  1.4816 -2.3321
 1094SOL    HW214919   0.801   3.620  13.174  0.5809 -0.2579 -1.4338
 1095SOL     OW14920   3.445   1.596   0.879  0.5578  0.0098 -0.4437
 1095SOL    HW114921   3.371   1.600   0.819  1.9025 -0.1969 -2.1103
 1095SOL    HW214922   3.487   1.682   0.871 -1.5208  0.7800 -3.1269
 1096SOL     OW14923   2.657   4.279   0.134  0.5986 -0.2179 -0.4337
 1096SOL    HW114924   2.731   4.259   0.192  0.1674  2.0818  0.9163
 1096SOL    HW214925   2.695   4.319   0.056 -0.6863 -0.4777 -1.1996
 1097SOL     OW14926   3.577   0.410  15.885 -0.4900 -0.4372 -0.3363
 1097SOL    HW114927   3.555   0.489  15.934  0.3304 -1.1137  1.1211
 1097SOL    HW214928   3.533   0.432  15.803  2.2470 -2.1675 -2.2576
 1098SOL     OW14929   1.797   2.087   3.629  0.2482  0.4727 -0.0035
 1098SOL    HW114930   1.834   2.003   3.656 -0.2919  0.4825  0.7565
 1098SOL    HW214931   1.864   2.154   3.643 -0.1595  0.3386  2.5816
 1099SOL     OW14932   0.616   1.557   6.522  0.0554 -0.0265 -0.5861
 1099SOL    HW114933   0.687   1.511   6.477 -0.0220 -0.6917 -0.0312
 1099SOL    HW214934   0.647   1.645   6.499  0.6846 -0.3582 -1.0391
 1100SOL     OW14935   0.054   3.045   1.879 -0.3833 -0.0156  0.6247
 1100SOL    HW114936   0.077   2.991   1.803  0.3170  0.6154  0.3954
 1100SOL    HW214937   0.023   2.982   1.945  1.1818  0.3532  1.6863
 1101SOL     OW14938   3.522   3.141   4.791 -0.0768  0.2678  0.4102
 1101SOL    HW114939   3.506   3.225   4.832 -2.8242  0.4258 -0.9226
 1101SOL    HW214940   3.592   3.162   4.730 -0.3699  1.1458  0.3802
 1102SOL     OW14941   2.206   2.005   7.029  0.2632 -0.2493  0.5316
 1102SOL    HW114942   2.167   2.075   7.082  1.3829  0.7241  0.0765
 1102SOL    HW214943   2.282   1.983   7.083  0.6070  0.4278  0.3294
 1103SOL     OW14944   0.986   4.376   8.346  0.1454  0.1907 -0.1612
 1103SOL    HW114945   1.072   4.351   8.310  0.0255 -0.0199 -0.3048
 1103SOL    HW214946   0.983   4.467   8.319 -2.9551 -0.2140 -1.1936
 1104SOL     OW14947   1.054   1.327  17.622 -0.0128  0.4169 -0.1587
 1104SOL    HW114948   1.031   1.419  17.615  1.1927  0.7637  0.3624
 1104SOL    HW214949   0.975   1.313  17.674 -0.3052  1.2164 -0.4078
 1105SOL     OW14950   0.457   2.668  11.277 -0.4979  0.1192 -0.1870
 1105SOL    HW114951   0.462   2.630  11.365 -1.0607  0.4047 -0.0274
 1105SOL    HW214952   0.536   2.722  11.270  0.0329 -0.2868  2.4699
 1106SOL     OW14953   1.008   3.229   2.864 -0.1775  0.2316 -0.1733
 1106SOL    HW114954   1.015   3.324   2.861 -1.3255  0.3574  0.8107
 1106SOL    HW214955   0.937   3.221   2.928  2.4271 -1.1305  2.5684
 1107SOL     OW14956   1.258   3.504  14.976  0.1374 -0.7077 -0.2170
 1107SOL    HW114957   1.258   3.522  14.882 -0.4281  0.9035  0.0977
 1107SOL    HW214958   1.268   3.592  15.010  0.9279 -0.4341 -1.1753
 1108SOL     OW14959   2.888   2.329  12.653  0.1815  0.0470  0.2732
 1108SOL    HW114960   2.983   2.338  12.659  0.4219 -2.0519 -0.1256
 1108SOL    HW214961   2.858   2.418  12.668  1.2689  0.4747 -0.1350
 1109SOL     OW14962   1.954   4.102   7.566 -0.5139  0.4441  0.2982
 1109SOL    HW114963   1.959   4.036   7.498  0.5723  1.4402 -0.6015
 1109SOL    HW214964   1.995   4.057   7.640  0.6858  1.4087  0.2388
 1110SOL     OW14965   2.659   0.879  14.711  0.5717 -0.0239  0.0318
 1110SOL    HW114966   2.727   0.945  14.697 -0.8516  1.7984  1.6137
 1110SOL    HW214967   2.683   0.841  14.795 -0.1281 -0.1770  0.1667
 1111SOL     OW14968   4.569   3.669  10.697 -0.4944  0.7088  0.0839
 1111SOL    HW114969   4.529   3.705  10.777 -4.0064 -1.7796 -0.5694
 1111SOL    HW214970   4.544   3.731  10.628  1.6538  0.9764 -0.4497
 1112SOL     OW14971   3.004   2.958  12.268 -0.1641  0.4607  0.2398
 1112SOL    HW114972   3.051   3.006  12.336 -1.0208 -2.0430  2.5903
 1112SOL    HW214973   3.056   2.980  12.191 -0.8919 -0.4691 -0.5088
 1113SOL     OW14974   0.825   4.026   3.729  0.1693  0.1299 -0.1550
 1113SOL    HW114975   0.802   4.000   3.640 -0.8917  2.3294 -0.5255
 1113SOL    HW214976   0.920   4.017   3.728  0.4116  2.4300  0.9938
 1114SOL     OW14977   2.413   2.051   1.870 -0.3548 -0.2071  0.1666
 1114SOL    HW114978   2.481   2.060   1.802  0.3926 -0.9706  0.8139
 1114SOL    HW214979   2.335   2.036   1.817 -0.4356  0.3698  0.1223
 1115SOL     OW14980   2.192   4.653   8.908  0.0303 -0.4153  0.1115
 1115SOL    HW114981   2.174   4.667   9.001  1.8591 -0.7469  0.5131
 1115SOL    HW214982   2.114   4.603   8.883  1.0103 -0.9628 -1.8487
 1116SOL     OW14983   1.944   4.169   9.019  0.1270  0.1862  0.4525
 1116SOL    HW114984   1.863   4.120   9.034 -0.4764  0.8949 -0.4078
 1116SOL    HW214985   1.937   4.186   8.925  0.1865 -2.5359 -0.0409
 1117SOL     OW14986   2.850   1.643   8.813  0.3890 -0.1184  0.0831
 1117SOL    HW114987   2.762   1.610   8.797  0.1733  0.5760 -0.1686
 1117SOL    HW214988   2.901   1.562   8.815 -0.4917 -0.7076 -1.0435
 1118SOL     OW14989   2.944   2.522   5.319 -0.5332 -0.5631  0.2141
 1118SOL    HW114990   3.009   2.457   5.345 -0.0229  0.2289  0.9389
 1118SOL    HW214991   2.869   2.471   5.288 -0.6426 -0.2307 -0.0718
 1119SOL     OW14992   3.878   1.606   4.722 -0.2159 -0.1333 -0.4868
 1119SOL    HW114993   3.882   1.677   4.786 -1.1733 -1.2662  0.8390
 1119SOL    HW214994   3.967   1.577   4.741  0.2909  1.3925 -0.5802
 1120SOL     OW14995   3.956   3.983  15.608 -0.1692 -0.1378 -0.3703
 1120SOL    HW114996   4.026   4.039  15.640 -0.2012  0.0760 -0.6744
 1120SOL    HW214997   3.882   4.023  15.653  0.8905  0.1589  1.0868
 1121SOL     OW14998   3.954   0.966  15.240  0.3776 -0.0320  0.7710
 1121SOL    HW114999   3.977   1.055  15.214 -1.9935 -0.8387 -4.0697
 1121SOL    HW215000   3.981   0.966  15.332  0.0332 -0.7643  0.8702
 1122SOL     OW15001   2.457   0.703   7.886  0.2434 -0.7632 -0.3121
 1122SOL    HW115002   2.519   0.654   7.940 -0.9546 -1.2177  0.6499
 1122SOL    HW215003   2.407   0.735   7.961 -0.8542  0.7217 -1.6837
 1123SOL     OW15004   0.748   0.285   5.686 -0.4864 -0.1194 -0.2196
 1123SOL    HW115005   0.768   0.267   5.778  1.2784  1.5764 -0.2767
 1123SOL    HW215006   0.658   0.317   5.697 -1.0410 -1.1177 -1.9127
 1124SOL     OW15007   1.877   0.664   2.086  0.0730 -0.4999  0.4825
 1124SOL    HW115008   1.875   0.701   2.175  1.5387  2.1049 -0.5623
 1124SOL    HW215009   1.912   0.577   2.104 -1.9186 -1.0169  1.8146
 1125SOL     OW15010   4.250   1.332  15.030  0.2605 -0.4761 -0.0725
 1125SOL    HW115011   4.342   1.305  15.034  0.3489 -0.0383  0.9812
 1125SOL    HW215012   4.247   1.392  14.955 -1.9329 -2.5504 -1.6210
 1126SOL     OW15013   0.511   4.088  16.654  0.0639  0.7374  0.2690
 1126SOL    HW115014   0.596   4.086  16.610  0.3913 -1.3987  0.9517
 1126SOL    HW215015   0.509   4.002  16.697  0.7585  0.5155 -0.1476
 1127SOL     OW15016   0.078   1.712   1.024 -0.3148  0.2253  0.4977
 1127SOL    HW115017   0.136   1.649   0.981 -0.6877  0.0963  0.1857
 1127SOL    HW215018   0.128   1.727   1.104 -1.0956  1.1425  0.8121
 1128SOL     OW15019   1.210   3.916  10.998  0.4560  0.0469 -0.6725
 1128SOL    HW115020   1.277   3.875  10.944 -0.3723  0.1875 -1.8195
 1128SOL    HW215021   1.128   3.897  10.953 -1.4357  0.0854  2.7612
 1129SOL     OW15022   2.263   2.231   4.568 -0.1783 -1.2920 -0.0132
 1129SOL    HW115023   2.326   2.301   4.552 -0.0845 -1.1437  0.9802
 1129SOL    HW215024   2.197   2.278   4.621 -2.4272 -2.9114 -1.3972
 1130SOL     OW15025   1.056   2.470   5.533 -0.2329  0.2044  0.4756
 1130SOL    HW115026   1.069   2.531   5.606  0.4235 -0.6458  1.0672
 1130SOL    HW215027   1.134   2.415   5.535 -0.5362 -0.1851  1.9325
 1131SOL     OW15028   0.769   2.015   3.808 -0.3674 -0.0666  0.1611
 1131SOL    HW115029   0.726   2.037   3.891  0.0641  1.1737  0.0470
 1131SOL    HW215030   0.813   2.099   3.796  1.5280 -0.9005  1.1257
 1132SOL     OW15031   0.989   2.490   7.912  0.9422  0.3015  0.3357
 1132SOL    HW115032   1.067   2.546   7.913  1.7007 -0.7685  0.2072
 1132SOL    HW215033   0.929   2.561   7.938  0.9711  1.1524 -1.9224
 1133SOL     OW15034   4.326   2.376   5.957 -0.2196  0.0544  0.2999
 1133SOL    HW115035   4.407   2.353   6.004  2.2076  2.1842 -2.8261
 1133SOL    HW215036   4.327   2.471   5.962 -0.5419  0.1749 -1.8218
 1134SOL     OW15037   3.240   0.319   4.004 -0.1440 -0.0075 -0.3057
 1134SOL    HW115038   3.275   0.233   4.029 -0.6163 -0.2691 -0.5498
 1134SOL    HW215039   3.319   0.371   4.018  0.6470 -1.5885  1.1574
 1135SOL     OW15040   2.725   4.176   7.932  0.3525  0.1534 -0.2390
 1135SOL    HW115041   2.811   4.204   7.963  0.0936 -0.1336  0.7357
 1135SOL    HW215042   2.680   4.261   7.932 -0.5438 -0.3235  0.5749
 1136SOL     OW15043   1.875   4.262   8.769 -0.2078  0.4646  0.1136
 1136SOL    HW115044   1.792   4.283   8.726 -0.8685  0.7790  1.5341
 1136SOL    HW215045   1.939   4.259   8.698  2.3895  0.5347  2.3979
 1137SOL     OW15046   0.019   3.053   4.574  0.9482 -0.1221  0.5976
 1137SOL    HW115047   0.103   3.047   4.529 -0.4861  2.5518 -2.4272
 1137SOL    HW215048   0.011   3.149   4.570  2.2620 -0.1495 -2.4331
 1138SOL     OW15049   3.117   0.652  11.886 -0.0024  0.2482 -0.4031
 1138SOL    HW115050   3.154   0.673  11.800 -1.4627 -2.5060 -1.6815
 1138SOL    HW215051   3.157   0.567  11.903  1.0845  0.8062 -0.1148
 1139SOL     OW15052   3.121   3.948   7.657 -0.5896 -0.1531 -0.0940
 1139SOL    HW115053   3.026   3.949   7.669 -0.5307  0.8785  0.3054
 1139SOL    HW215054   3.146   3.871   7.708 -0.1898  0.9967  1.4462
 1140SOL     OW15055   3.014   1.947   7.154 -0.4741 -0.3732  0.0348
 1140SOL    HW115056   3.088   1.977   7.205 -2.3573  1.2554  1.7732
 1140SOL    HW215057   3.067   1.938   7.074  1.0737 -2.2129  1.2518
 1141SOL     OW15058   0.657   1.051   8.587 -0.3986 -0.4196  0.2633
 1141SOL    HW115059   0.625   1.141   8.590 -0.4815 -0.4641  0.6242
 1141SOL    HW215060   0.735   1.059   8.532 -0.9970 -0.5844 -0.6108
 1142SOL     OW15061   4.428   0.015   5.840 -0.2023  0.2468 -0.1970
 1142SOL    HW115062   4.519   0.038   5.827  0.5795 -1.8772  1.5146
 1142SOL    HW215063   4.440   4.672   5.895  1.6608  1.1839  0.7159
 1143SOL     OW15064   4.284   3.676   7.539 -0.2163 -0.3512  0.4909
 1143SOL    HW115065   4.217   3.620   7.499  1.8584 -1.2775 -1.7031
 1143SOL    HW215066   4.244   3.762   7.535 -0.1223 -0.2032  2.6975
 1144SOL     OW15067   1.710   0.286   2.585 -0.3585  0.2856 -0.4960
 1144SOL    HW115068   1.642   0.249   2.642  1.0834 -2.9447 -0.8597
 1144SOL    HW215069   1.712   0.221   2.515 -0.0274  1.1314 -1.2594
 1145SOL     OW15070   0.573   2.079   7.249  0.1200 -0.5605  0.3864
 1145SOL    HW115071   0.600   2.086   7.157 -0.1212  1.4265  0.4672
 1145SOL    HW215072   0.617   1.995   7.263 -0.6133 -1.2785 -1.5776
 1146SOL     OW15073   1.130   0.607  17.443  0.6797  0.6035  0.0237
 1146SOL    HW115074   1.053   0.554  17.421  0.5044  1.0609 -0.4776
 1146SOL    HW215075   1.176   0.613  17.359  1.4331  2.8634  0.5943
 1147SOL     OW15076   2.002   0.611  11.081  0.1520 -0.2156 -0.5113
 1147SOL    HW115077   2.020   0.646  11.168 -0.2465 -2.3602  0.4314
 1147SOL    HW215078   1.929   0.553  11.100 -0.9411  0.7869 -1.6699
 1148SOL     OW15079   0.197   1.277   5.717 -0.2837 -0.0956 -0.1583
 1148SOL    HW115080   0.273   1.328   5.746 -0.5688  1.1207 -1.5606
 1148SOL    HW215081   0.225   1.229   5.639 -1.5930 -0.7088 -0.2460
 1149SOL     OW15082   3.166   4.349   5.777  0.2862 -1.3535 -0.2479
 1149SOL    HW115083   3.141   4.276   5.721  1.0542 -2.2336  0.5634
 1149SOL    HW215084   3.080   4.370   5.812  1.0222  1.2998 -0.0170
 1150SOL     OW15085   2.366   3.011   7.225  0.4457 -0.1658  0.1008
 1150SOL    HW115086   2.270   3.016   7.227  0.5546  1.8541  1.1432
 1150SOL    HW215087   2.378   2.941   7.289  0.3688  0.4479  0.7985
 1151SOL     OW15088   1.819   3.631   9.854 -0.1058 -0.1677  0.0271
 1151SOL    HW115089   1.858   3.718   9.862  1.3324 -0.8118 -0.0250
 1151SOL    HW215090   1.725   3.649   9.854  0.1213  1.0280 -0.5679
 1152SOL     OW15091   3.786   2.336   5.311 -0.5150  0.0143 -0.3641
 1152SOL    HW115092   3.848   2.402   5.343 -1.4302  0.0790  1.2899
 1152SOL    HW215093   3.840   2.287   5.249 -0.3142 -0.4340  0.1538
 1153SOL     OW15094   0.299   2.744   0.976  0.4164 -0.0303  0.2656
 1153SOL    HW115095   0.277   2.828   1.018 -1.1258  0.0574 -0.7118
 1153SOL    HW215096   0.263   2.744   0.888 -0.6630  1.4684  0.7080
 1154SOL     OW15097   0.160   2.351   7.154  0.1409  0.2652  0.0907
 1154SOL    HW115098   0.201   2.422   7.106  2.2569 -0.3365  1.0271
 1154SOL    HW215099   0.102   2.403   7.209 -0.3059  0.0936 -0.2162
 1155SOL     OW15100   4.671   0.228   8.418  0.1793  0.0583 -0.0636
 1155SOL    HW115101   4.669   0.297   8.351  0.2145 -0.3165 -0.4523
 1155SOL    HW215102   0.018   0.253   8.461  0.4517 -0.9888  0.0237
 1156SOL     OW15103   2.279   3.551   7.448 -1.2480 -0.1376 -0.0452
 1156SOL    HW115104   2.198   3.514   7.412 -0.5083 -0.5913 -1.2417
 1156SOL    HW215105   2.318   3.475   7.492  0.1986  0.1888 -0.7384
 1157SOL     OW15106   3.300   1.894  11.328 -0.5001 -0.3019  0.1169
 1157SOL    HW115107   3.323   1.824  11.389  2.3466 -0.0145 -0.5918
 1157SOL    HW215108   3.330   1.973  11.373 -1.7797 -1.3354  2.7571
 1158SOL     OW15109   2.495   2.655   9.415  0.2980  0.1120 -0.9279
 1158SOL    HW115110   2.431   2.651   9.344 -0.3019 -1.7113 -0.2778
 1158SOL    HW215111   2.568   2.675   9.356 -0.6717  3.1646 -1.1033
 1159SOL     OW15112   2.870   2.030   4.558  0.5451  0.0389  0.2124
 1159SOL    HW115113   2.874   2.095   4.488 -2.2119 -0.5293 -0.4913
 1159SOL    HW215114   2.827   2.077   4.629 -0.5100  0.0200 -0.4114
 1160SOL     OW15115   1.841   0.461   5.907  0.3289 -0.3709  0.7172
 1160SOL    HW115116   1.756   0.433   5.876  0.3676  0.1426  0.1384
 1160SOL    HW215117   1.861   0.381   5.956  1.8974 -0.4809 -0.1136
 1161SOL     OW15118   2.730   1.300   1.948  0.2044  0.6306 -0.2664
 1161SOL    HW115119   2.637   1.278   1.937  0.3454 -1.0819  1.9562
 1161SOL    HW215120   2.726   1.382   1.997 -1.1698  0.2410  0.2792
 1162SOL     OW15121   3.021   4.015   5.996  0.8087 -0.1609 -0.0185
 1162SOL    HW115122   2.958   4.082   5.969 -0.0326  0.1828  2.7485
 1162SOL    HW215123   3.104   4.032   5.952  0.1710  0.1027 -1.1185
 1163SOL     OW15124   1.422   1.824   7.236  0.2341  0.3517 -0.3614
 1163SOL    HW115125   1.418   1.873   7.318  0.9602  0.5543 -0.4478
 1163SOL    HW215126   1.329   1.806   7.225  0.4047 -0.8404  0.1661
 1164SOL     OW15127   3.071   0.877  16.201 -0.9793 -0.1836 -0.1171
 1164SOL    HW115128   3.015   0.815  16.250  0.4314 -0.4876  1.0996
 1164SOL    HW215129   3.155   0.835  16.217 -1.1487  0.1106  1.5888
 1165SOL     OW15130   2.861   4.622   5.783  0.0063  0.4929 -0.4519
 1165SOL    HW115131   2.930   4.572   5.827 -0.8752  0.3810  0.7814
 1165SOL    HW215132   2.888   4.611   5.691 -0.3978 -1.8060 -0.2866
 1166SOL     OW15133   2.747   3.616  17.602 -0.1641  0.4346  0.1424
 1166SOL    HW115134   2.770   3.709  17.597  0.4640  0.1471 -2.5004
 1166SOL    HW215135   2.664   3.618  17.650  0.2448 -1.3059  0.9075
 1167SOL     OW15136   2.005   0.379  10.466 -0.1576  0.2027 -0.0163
 1167SOL    HW115137   2.072   0.325  10.507 -0.2518  0.0037 -0.1268
 1167SOL    HW215138   2.051   0.382  10.382  0.5224 -2.1084  0.2923
 1168SOL     OW15139   3.911   2.963   7.403  0.1168 -0.2913  0.6664
 1168SOL    HW115140   3.988   2.921   7.442  0.5846  0.1193  0.1855
 1168SOL    HW215141   3.874   2.877   7.382 -0.7561  0.0230  0.9497
 1169SOL     OW15142   0.485   1.239   5.194 -0.2560 -0.0391  0.2045
 1169SOL    HW115143   0.548   1.202   5.256 -1.0203 -1.3143  0.2091
 1169SOL    HW215144   0.532   1.319   5.169 -0.8981  0.1557 -0.3885
 1170SOL     OW15145   2.009   2.736   6.683 -0.2230  0.0729 -0.1035
 1170SOL    HW115146   2.025   2.796   6.610 -0.7408  0.1436 -0.1648
 1170SOL    HW215147   1.915   2.752   6.690 -0.0060  1.3756 -0.1761
 1171SOL     OW15148   0.905   2.044   2.205 -0.1409  0.1747  0.2927
 1171SOL    HW115149   0.813   2.019   2.207 -0.3200  0.7506 -0.8506
 1171SOL    HW215150   0.951   1.976   2.254  1.1465  1.6025  1.0362
 1172SOL     OW15151   4.118   2.243   5.863  0.1100  0.4102  0.2993
 1172SOL    HW115152   4.139   2.189   5.787  1.8459  1.6068 -0.0668
 1172SOL    HW215153   4.201   2.280   5.893  0.8387 -1.4933  0.6577
 1173SOL     OW15154   1.572   4.684   3.650 -0.5512 -0.2810 -0.5593
 1173SOL    HW115155   1.492   4.665   3.699 -0.2511  0.9418  0.4253
 1173SOL    HW215156   1.579   4.606   3.595  2.8544 -0.3407 -0.0783
 1174SOL     OW15157   1.059   1.247   8.486 -0.3460  0.2695 -0.3168
 1174SOL    HW115158   1.063   1.182   8.415  1.6378 -0.9932  0.9729
 1174SOL    HW215159   0.973   1.285   8.466 -0.2502  0.5362 -0.2206
 1175SOL     OW15160   2.792   4.240  11.509 -0.3396  0.2467  0.9146
 1175SOL    HW115161   2.843   4.260  11.430 -0.0860  0.1263  1.0482
 1175SOL    HW215162   2.732   4.315  11.521  0.1369  0.7423  0.2363
 1176SOL     OW15163   0.169   1.183  15.997  0.2031 -1.0004 -0.3310
 1176SOL    HW115164   0.234   1.116  15.978 -0.6355 -1.8731 -0.0933
 1176SOL    HW215165   0.116   1.196  15.919  1.6429  0.8907 -1.0079
 1177SOL     OW15166   1.241   2.810   9.892 -0.1705  0.2983  0.0925
 1177SOL    HW115167   1.194   2.753   9.953 -1.5223 -0.1695 -1.3894
 1177SOL    HW215168   1.174   2.857   9.843  2.5396  1.9212 -2.0344
 1178SOL     OW15169   3.725   0.128   2.468  0.1602 -0.1828 -0.0317
 1178SOL    HW115170   3.646   0.107   2.417 -0.2149 -0.7154  0.7613
 1178SOL    HW215171   3.680   0.148   2.550 -2.7667  1.4328 -2.0270
 1179SOL     OW15172   1.796   4.168  14.632 -0.5649  0.3797 -0.0093
 1179SOL    HW115173   1.856   4.205  14.697  0.4938  0.2711 -0.9261
 1179SOL    HW215174   1.723   4.138  14.686 -0.9541  3.8993  1.4110
 1180SOL     OW15175   1.659   0.114   2.363 -0.6434  0.1260  0.3195
 1180SOL    HW115176   1.601   0.179   2.324 -2.0216 -0.9770  0.5616
 1180SOL    HW215177   1.608   0.034   2.360 -0.1640 -0.2068  1.0583
 1181SOL     OW15178   3.803   1.543   7.140  0.4347 -0.1040 -0.4074
 1181SOL    HW115179   3.877   1.604   7.144 -0.9990  1.5793  0.2888
 1181SOL    HW215180   3.798   1.527   7.046 -3.8410  3.1070 -0.7235
 1182SOL     OW15181   0.722   4.057   2.478  0.4769  0.4395  0.5677
 1182SOL    HW115182   0.807   4.060   2.523  0.7746  0.0621  0.0298
 1182SOL    HW215183   0.669   4.079   2.555  2.0757 -1.4726  2.2019
 1183SOL     OW15184   1.682   1.410   9.178  0.0165 -0.3982  0.6562
 1183SOL    HW115185   1.601   1.361   9.193 -0.3649 -0.6006 -1.9864
 1183SOL    HW215186   1.731   1.373   9.251  0.1864 -2.6885 -0.6005
 1184SOL     OW15187   3.944   4.386   5.480  0.2831 -0.2710  0.2429
 1184SOL    HW115188   4.028   4.422   5.450 -1.1119  0.6764 -2.5659
 1184SOL    HW215189   3.966   4.335   5.557 -0.1947 -2.0522 -0.8068
 1185SOL     OW15190   4.295   0.617   4.373 -0.6588  0.0945  0.4332
 1185SOL    HW115191   4.385   0.586   4.364 -0.4295  0.6375  0.8243
 1185SOL    HW215192   4.250   0.547   4.419 -0.8550 -0.3916 -0.4971
 1186SOL     OW15193   0.926   2.766   5.863  0.0253 -0.0684  0.2584
 1186SOL    HW115194   0.950   2.841   5.808 -2.0892 -0.3446 -1.0206
 1186SOL    HW215195   0.843   2.735   5.827  0.6071 -0.3305 -0.8402
 1187SOL     OW15196   1.363   0.097   6.179 -0.2089  0.6476 -0.2012
 1187SOL    HW115197   1.267   0.103   6.177 -0.1674  1.6541  1.0327
 1187SOL    HW215198   1.381   0.097   6.085  1.0713  0.8331  0.0564
 1188SOL     OW15199   3.932   0.771   5.879 -0.0246  0.0337  0.0814
 1188SOL    HW115200   3.936   0.844   5.816 -1.8008 -0.1973 -0.3028
 1188SOL    HW215201   3.858   0.807   5.928  0.0770  2.4324 -1.4907
 1189SOL     OW15202   1.597   2.340   5.109  0.2434  0.6381  0.8580
 1189SOL    HW115203   1.553   2.269   5.062  0.0316  0.5553  1.1842
 1189SOL    HW215204   1.662   2.359   5.041 -1.0052 -0.2348 -0.5907
 1190SOL     OW15205   1.334   1.493   7.525 -0.5921  0.6597  0.1449
 1190SOL    HW115206   1.418   1.538   7.525 -0.8348  1.1311  1.3551
 1190SOL    HW215207   1.345   1.430   7.597  0.5830  0.2534 -0.3961
 1191SOL     OW15208   0.678   2.436   3.332 -0.2093  0.3675 -0.3638
 1191SOL    HW115209   0.603   2.401   3.379 -0.0106 -0.6756 -0.8345
 1191SOL    HW215210   0.657   2.528   3.317 -0.6797 -0.0589 -2.3569
 1192SOL     OW15211   3.587   4.032   3.747  0.1942 -0.0841 -0.3540
 1192SOL    HW115212   3.598   4.033   3.652  0.1858  1.3399 -0.3447
 1192SOL    HW215213   3.671   4.072   3.771 -0.2552  1.5428 -1.4604
 1193SOL     OW15214   2.530   3.738   1.600  0.2371 -0.3739 -0.2289
 1193SOL    HW115215   2.574   3.654   1.604 -1.6246 -1.4214 -1.6047
 1193SOL    HW215216   2.477   3.729   1.680  0.3644  0.3866 -0.0554
 1194SOL     OW15217   2.000   0.758   5.083  0.3875  0.2260  0.1513
 1194SOL    HW115218   1.979   0.824   5.017  1.2002 -0.2080 -0.5510
 1194SOL    HW215219   1.915   0.715   5.094  0.2116  0.2283 -1.2324
 1195SOL     OW15220   1.498   0.092   5.471  0.1171 -0.0960  0.2396
 1195SOL    HW115221   1.459   0.022   5.524  1.4650 -0.1906  1.0887
 1195SOL    HW215222   1.417   0.086   5.420  0.0267 -0.5226  0.4342
 1196SOL     OW15223   2.646   4.373   7.162  0.1305 -0.3218  0.6137
 1196SOL    HW115224   2.552   4.359   7.153  0.3440 -1.5869  0.3725
 1196SOL    HW215225   2.654   4.456   7.114  2.3812 -0.5324  0.6060
 1197SOL     OW15226   2.466   3.664  14.903 -0.0839 -0.0758  0.1816
 1197SOL    HW115227   2.416   3.737  14.868  0.5017  0.0395 -0.4220
 1197SOL    HW215228   2.501   3.699  14.984  0.1014 -1.2504  0.6162
 1198SOL     OW15229   3.108   1.216   3.395  0.1180  0.2571  0.0059
 1198SOL    HW115230   3.165   1.139   3.395 -1.2975 -0.8063  1.7911
 1198SOL    HW215231   3.134   1.260   3.476 -0.6821  1.5909 -0.4638
 1199SOL     OW15232   3.768   3.578   9.774  0.5380 -0.0797  0.2007
 1199SOL    HW115233   3.766   3.518   9.699  1.4080 -0.4749  0.4957
 1199SOL    HW215234   3.685   3.622   9.758 -0.1675 -1.9205 -1.2477
 1200SOL     OW15235   1.193   1.553  12.701  0.1861 -0.3233 -0.0132
 1200SOL    HW115236   1.201   1.461  12.724  1.4723 -0.1598  0.1800
 1200SOL    HW215237   1.109   1.563  12.745 -1.2854 -1.1288 -2.6458
 1201SOL     OW15238   1.019   0.465  15.789 -0.2514  0.1931  0.0285
 1201SOL    HW115239   0.977   0.381  15.767  1.7375 -0.6623 -0.5227
 1201SOL    HW215240   0.956   0.493  15.855  0.5763 -0.4969  1.1166
 1202SOL     OW15241   2.142   2.043   2.290 -0.4039 -0.9811  0.5994
 1202SOL    HW115242   2.192   2.054   2.210 -0.1316 -0.2868  0.8682
 1202SOL    HW215243   2.205   2.011   2.355 -0.7801  0.2186  1.5558
 1203SOL     OW15244   0.341   2.325  12.484  0.4259 -0.0452  0.4546
 1203SOL    HW115245   0.435   2.313  12.495  0.4203 -1.9412 -1.4896
 1203SOL    HW215246   0.304   2.241  12.513  0.1265  0.3596  1.2390
 1204SOL     OW15247   3.862   0.605   2.757  0.0697  0.1554  0.4138
 1204SOL    HW115248   3.896   0.518   2.778 -0.6749 -0.0158  0.8847
 1204SOL    HW215249   3.799   0.582   2.688  0.9380  0.7287 -0.5793
 1205SOL     OW15250   3.186   4.091   1.464 -0.3553  0.1888 -0.0741
 1205SOL    HW115251   3.182   4.179   1.427 -1.1737  0.0015 -0.4242
 1205SOL    HW215252   3.216   4.115   1.552  0.1048 -0.4568 -0.0504
 1206SOL     OW15253   2.091   3.081  11.530 -0.1635  0.0866 -0.1159
 1206SOL    HW115254   2.186   3.082  11.541 -0.3229  2.2540  1.0269
 1206SOL    HW215255   2.063   3.070  11.621 -0.8095  0.7687 -0.2304
 1207SOL     OW15256   1.623   4.247   1.470 -0.7013 -0.3129  0.4041
 1207SOL    HW115257   1.552   4.183   1.467 -1.8403  0.9463  0.6802
 1207SOL    HW215258   1.640   4.252   1.376 -1.3834  1.2559  0.3623
 1208SOL     OW15259   0.933   3.149   2.371  0.3146 -0.2882 -0.2586
 1208SOL    HW115260   1.003   3.206   2.338 -0.7286  1.5966  0.7527
 1208SOL    HW215261   0.953   3.160   2.464 -0.9733  1.4797 -0.1858
 1209SOL     OW15262   3.588   3.646  16.158  0.4583  0.1561 -0.1665
 1209SOL    HW115263   3.678   3.615  16.151  0.5960 -0.1399  2.9298
 1209SOL    HW215264   3.581   3.699  16.079  0.2144 -1.3080 -1.1279
 1210SOL     OW15265   1.904   0.207   6.540  0.2270 -0.0478 -0.5475
 1210SOL    HW115266   1.940   0.293   6.562  1.8798 -2.0763  4.6523
 1210SOL    HW215267   1.935   0.192   6.451  0.6787  0.2569 -0.4421
 1211SOL     OW15268   4.153   0.069   4.832  0.6709  0.0930 -0.0070
 1211SOL    HW115269   4.099   0.105   4.903  1.5130  0.6272  0.3543
 1211SOL    HW215270   4.181   0.151   4.792  0.0513  0.0399 -0.5674
 1212SOL     OW15271   2.074   2.889   2.560  0.0349 -0.5470  0.3804
 1212SOL    HW115272   2.074   2.866   2.653  1.0463 -1.6494  0.1062
 1212SOL    HW215273   1.981   2.889   2.538 -0.0503  0.7777  0.7553
 1213SOL     OW15274   2.786   1.806   0.773  0.2417 -0.0528  1.0689
 1213SOL    HW115275   2.764   1.892   0.809  0.4339 -0.1759  1.4856
 1213SOL    HW215276   2.709   1.783   0.721  0.7087 -0.6084  0.6279
 1214SOL     OW15277   0.638   3.946   5.248  0.2767  0.3680  0.2740
 1214SOL    HW115278   0.604   4.010   5.185 -1.1245 -0.2718  0.3878
 1214SOL    HW215279   0.654   3.870   5.193 -0.1684  0.4923 -0.0261
 1215SOL     OW15280   1.081   1.895   5.086  0.1692 -0.3969  0.2703
 1215SOL    HW115281   1.160   1.844   5.102 -0.8786 -1.7703  1.0602
 1215SOL    HW215282   1.064   1.868   4.996 -2.6656  0.8404  0.4420
 1216SOL     OW15283   1.833   3.889  15.490 -0.5785 -0.1357 -0.0461
 1216SOL    HW115284   1.742   3.899  15.516 -0.9539 -2.2851 -0.5355
 1216SOL    HW215285   1.870   3.972  15.519 -0.3431 -1.2123  2.7733
 1217SOL     OW15286   3.500   2.944   6.784 -0.1803  0.2965  0.5599
 1217SOL    HW115287   3.418   2.896   6.796  0.5413 -1.0043  0.2669
 1217SOL    HW215288   3.527   2.928   6.875 -0.5229  0.5352  0.7070
 1218SOL     OW15289   3.607   4.545  10.316 -0.4291 -0.0538 -0.3943
 1218SOL    HW115290   3.622   4.639  10.303 -0.8534 -0.0340 -0.7448
 1218SOL    HW215291   3.578   4.531  10.406 -0.0053  0.3638 -0.1906
 1219SOL     OW15292   1.374   3.066  14.025  0.3623  0.3910  0.0166
 1219SOL    HW115293   1.379   2.971  14.031  1.1848  0.4436  0.1752
 1219SOL    HW215294   1.408   3.085  14.113  1.4792  1.4205 -0.6363
 1220SOL     OW15295   3.616   2.189   6.217 -0.7757  0.1289  0.4864
 1220SOL    HW115296   3.603   2.098   6.187 -0.6842  0.8776 -1.8626
 1220SOL    HW215297   3.711   2.197   6.227 -0.5522 -0.9417 -0.7639
 1221SOL     OW15298   1.480   2.596   7.508 -0.2131  0.7395  0.0016
 1221SOL    HW115299   1.400   2.592   7.561 -0.7407 -0.1186 -0.8658
 1221SOL    HW215300   1.437   2.639   7.434 -1.7604 -0.0014  0.4664
 1222SOL     OW15301   3.294   4.344   7.428 -0.5231 -0.5514  0.3800
 1222SOL    HW115302   3.379   4.308   7.452 -0.9545 -0.2456  2.4004
 1222SOL    HW215303   3.314   4.376   7.340 -0.0346 -0.9223  0.3544
 1223SOL     OW15304   2.793   3.323   9.409 -0.3943 -0.0821 -0.0334
 1223SOL    HW115305   2.789   3.295   9.318  0.3918  2.3238 -0.8191
 1223SOL    HW215306   2.699   3.322   9.427 -0.6004  0.3523 -1.0868
 1224SOL     OW15307   3.259   3.377  14.473 -0.2409  0.1507 -0.7771
 1224SOL    HW115308   3.225   3.465  14.456  2.1230  1.0156 -0.9375
 1224SOL    HW215309   3.343   3.396  14.514 -1.2594  1.0457  0.9045
 1225SOL     OW15310   3.601   3.671  10.582  0.7135  0.2742 -0.0864
 1225SOL    HW115311   3.613   3.731  10.508 -0.1529 -1.8661 -1.9776
 1225SOL    HW215312   3.660   3.710  10.647  0.2859  0.0195  0.4551
 1226SOL     OW15313   4.672   3.779   6.226  0.1996  0.0597  0.1825
 1226SOL    HW115314   4.690   3.695   6.183 -0.7873 -0.7367  1.3168
 1226SOL    HW215315   4.673   3.749   6.317 -0.8708  1.9921  0.8378
 1227SOL     OW15316   2.437   2.579   9.921 -0.4018  0.4683 -0.2042
 1227SOL    HW115317   2.453   2.526   9.999  0.0758  0.8277 -0.0564
 1227SOL    HW215318   2.526   2.606   9.900 -0.2523  0.0283 -0.1198
 1228SOL     OW15319   1.302   0.787   6.474  0.3332  0.8298  0.3006
 1228SOL    HW115320   1.269   0.871   6.506 -0.1801  1.2772 -1.4335
 1228SOL    HW215321   1.227   0.748   6.430  0.7070  1.5130 -0.9294
 1229SOL     OW15322   0.386   3.365   9.148 -0.4457 -0.1415 -0.3083
 1229SOL    HW115323   0.477   3.394   9.142 -0.2672 -1.0530 -2.0554
 1229SOL    HW215324   0.338   3.446   9.129 -2.5098 -0.1799  4.8869
 1230SOL     OW15325   0.733   0.657   2.191  0.5052  0.7107  0.1508
 1230SOL    HW115326   0.695   0.730   2.143  1.7737  0.1406 -1.6995
 1230SOL    HW215327   0.788   0.621   2.122 -0.4791  0.8938 -0.7279
 1231SOL     OW15328   1.185   0.280  17.333 -0.4678 -0.9247 -0.1947
 1231SOL    HW115329   1.222   0.209  17.281  2.4917  0.1890  0.4316
 1231SOL    HW215330   1.261   0.303  17.386  0.6767  0.4271 -2.4141
 1232SOL     OW15331   2.286   2.350   4.878 -0.0718  0.0179 -0.6118
 1232SOL    HW115332   2.276   2.436   4.837  0.4713 -0.1738 -1.1316
 1232SOL    HW215333   2.320   2.367   4.966 -1.8127  2.1882 -0.3303
 1233SOL     OW15334   3.681   3.150   6.421  0.1754  0.0795  0.0522
 1233SOL    HW115335   3.630   3.225   6.451  1.4551  0.6198  0.8728
 1233SOL    HW215336   3.661   3.084   6.487  0.4126 -0.7645 -0.7243
 1234SOL     OW15337   1.042   1.441   6.763  0.1738 -0.3220 -0.5270
 1234SOL    HW115338   0.998   1.500   6.825 -0.1702 -0.5264 -0.5774
 1234SOL    HW215339   0.964   1.393   6.733  0.4639 -2.0258  1.4909
 1235SOL     OW15340   4.664   2.543   4.511  0.9481 -0.4945  0.1596
 1235SOL    HW115341   4.613   2.577   4.585 -1.4725  0.1756 -1.8025
 1235SOL    HW215342   4.668   2.450   4.533  0.1064 -0.3019  1.1313
 1236SOL     OW15343   1.644   3.605   3.236 -0.2992  0.4143  0.4653
 1236SOL    HW115344   1.563   3.575   3.277 -0.4433 -1.5080 -1.2595
 1236SOL    HW215345   1.662   3.517   3.202 -1.2066  0.4257 -0.0308
 1237SOL     OW15346   2.904   1.104   7.661  0.5353  0.1867 -0.7186
 1237SOL    HW115347   2.921   1.196   7.638  1.1612  0.4830  0.9147
 1237SOL    HW215348   2.838   1.108   7.731  0.3453 -1.1825 -0.8134
 1238SOL     OW15349   1.312   1.964   8.847  0.5801 -0.0794  0.0556
 1238SOL    HW115350   1.311   2.053   8.811  0.3350  0.0864  0.4676
 1238SOL    HW215351   1.326   1.917   8.764 -1.3115 -0.2681 -0.1625
 1239SOL     OW15352   1.534   2.763   4.739 -0.2322  0.5787  1.0265
 1239SOL    HW115353   1.459   2.707   4.760  1.9396 -2.0211  1.9444
 1239SOL    HW215354   1.593   2.746   4.812  1.7503  0.9056 -0.5159
 1240SOL     OW15355   1.579   4.713  11.423  0.3567 -0.1907 -0.8757
 1240SOL    HW115356   1.582   4.655  11.347 -2.7861 -1.6029  0.0699
 1240SOL    HW215357   1.673   4.730  11.426  0.4145 -0.8119  0.5253
 1241SOL     OW15358   1.592   1.623  10.241 -0.1538 -0.6838 -0.8150
 1241SOL    HW115359   1.534   1.671  10.300  2.2996 -0.4722  1.4203
 1241SOL    HW215360   1.654   1.583  10.302 -1.5483 -0.5548  0.6776
 1242SOL     OW15361   1.777   3.354   5.634  0.2142  0.3429  0.3564
 1242SOL    HW115362   1.706   3.354   5.698  1.6583  0.9357  1.9673
 1242SOL    HW215363   1.853   3.365   5.691  1.8486 -0.2936 -1.6656
 1243SOL     OW15364   2.768   3.809   8.457 -0.3201  0.1151 -0.1706
 1243SOL    HW115365   2.754   3.870   8.385  0.2969  0.6682  0.1681
 1243SOL    HW215366   2.830   3.752   8.412 -1.0142 -0.9202  0.1858
 1244SOL     OW15367   4.407   4.694   7.722  0.0801  0.1287  0.0273
 1244SOL    HW115368   4.477   4.653   7.673 -1.4091 -2.9488  0.5021
 1244SOL    HW215369   4.373   0.023   7.659 -1.1143 -0.8033 -0.2792
 1245SOL     OW15370   2.466   2.473  12.477 -0.0088 -0.2848 -0.1792
 1245SOL    HW115371   2.373   2.492  12.461 -0.3455 -1.5589  0.2489
 1245SOL    HW215372   2.498   2.563  12.486  3.1251 -1.3767 -0.3606
 1246SOL     OW15373   2.887   4.294   4.571 -0.3719  0.6387  0.3323
 1246SOL    HW115374   2.826   4.315   4.500  1.0282  0.1300 -1.0236
 1246SOL    HW215375   2.940   4.231   4.522  0.3571 -0.1003  2.0921
 1247SOL     OW15376   3.080   0.449   6.097 -0.4563  0.4607  0.9862
 1247SOL    HW115377   3.099   0.393   6.171  1.1753  2.4489  2.0565
 1247SOL    HW215378   3.011   0.501   6.139 -1.0063  0.6668 -0.1666
 1248SOL     OW15379   2.302   3.359   4.684 -0.2121  0.4444 -0.3195
 1248SOL    HW115380   2.362   3.359   4.609  1.2371  0.5550  0.8387
 1248SOL    HW215381   2.227   3.311   4.649  0.5189  0.4630 -1.8939
 1249SOL     OW15382   4.241   0.572   6.514  0.0947  0.1189 -0.4647
 1249SOL    HW115383   4.187   0.501   6.479 -1.5180  1.7747 -1.3607
 1249SOL    HW215384   4.284   0.604   6.436  1.0734 -1.7083 -0.6716
 1250SOL     OW15385   2.151   1.190  16.262 -0.7491  0.3947  0.7964
 1250SOL    HW115386   2.075   1.228  16.218  0.4747  0.6855 -1.0372
 1250SOL    HW215387   2.116   1.186  16.351 -0.4661  0.6028  0.9179
 1251SOL     OW15388   1.330   0.212  10.964  0.2451  0.1456  0.0008
 1251SOL    HW115389   1.380   0.156  11.024  0.0089  2.1915  2.1081
 1251SOL    HW215390   1.247   0.227  11.009  0.4250  1.7515 -0.2163
 1252SOL     OW15391   2.627   4.581   7.000  0.1748 -0.5408  0.3036
 1252SOL    HW115392   2.633   4.673   7.026 -1.9428 -0.7281  1.4025
 1252SOL    HW215393   2.537   4.566   6.973 -0.6165  0.4888  2.3859
 1253SOL     OW15394   1.295   0.405   7.521  0.0227 -0.0770  0.4075
 1253SOL    HW115395   1.325   0.319   7.551  0.9652  0.2037  0.2727
 1253SOL    HW215396   1.338   0.459   7.588 -1.3882  0.6838  0.6965
 1254SOL     OW15397   4.657   2.971   8.732 -0.2981 -0.1284 -0.0301
 1254SOL    HW115398   4.713   2.967   8.810  0.6768 -0.8092 -0.7600
 1254SOL    HW215399   4.706   3.018   8.665 -1.7119  1.0378 -0.2363
 1255SOL     OW15400   3.257   0.031  13.235 -0.0063  0.1651 -0.0487
 1255SOL    HW115401   3.177   0.059  13.192 -0.8627 -0.0288  1.4239
 1255SOL    HW215402   3.277   4.685  13.187  0.4824 -0.6262  1.4871
 1256SOL     OW15403   3.791   2.333   4.971 -0.4399  0.4858 -0.6729
 1256SOL    HW115404   3.851   2.379   5.030 -0.5234 -1.4602  0.9305
 1256SOL    HW215405   3.713   2.389   4.967 -0.3067  0.8120  1.2726
 1257SOL     OW15406   3.150   2.779   6.134  0.1272  0.1294 -0.3817
 1257SOL    HW115407   3.184   2.702   6.180 -0.4793  0.5178  0.7183
 1257SOL    HW215408   3.124   2.749   6.047 -0.9438  0.7827 -0.2906
 1258SOL     OW15409   1.308   2.331  12.618 -0.2097  0.4899 -0.4395
 1258SOL    HW115410   1.308   2.341  12.713  1.5337  2.0847 -0.6223
 1258SOL    HW215411   1.396   2.301  12.596  0.0524  1.8212 -1.2052
 1259SOL     OW15412   3.065   4.045  11.720  0.2869  0.0490 -0.7939
 1259SOL    HW115413   3.118   3.973  11.686  1.4654  1.3388 -1.6889
 1259SOL    HW215414   3.064   4.096  11.639  1.5016 -0.4157 -1.0971
 1260SOL     OW15415   4.387   1.411   5.960  0.0430  0.1121 -0.1553
 1260SOL    HW115416   4.469   1.440   6.000  0.7234  1.7500 -2.7454
 1260SOL    HW215417   4.416   1.327   5.925  2.0673  0.7110  0.0563
 1261SOL     OW15418   3.130   4.553   7.298  0.3055  1.0900  0.1466
 1261SOL    HW115419   3.039   4.582   7.306  0.5441  1.9116 -0.1362
 1261SOL    HW215420   3.129   4.491   7.371  1.6549 -0.5426 -1.2054
 1262SOL     OW15421   4.210   3.308   8.703  0.1636  0.6072 -0.0520
 1262SOL    HW115422   4.280   3.247   8.680 -0.2596 -0.1847  0.7421
 1262SOL    HW215423   4.150   3.290   8.630 -0.5874 -0.0038  0.7036
 1263SOL     OW15424   4.345   2.062   2.908 -0.6891 -0.7077  0.7862
 1263SOL    HW115425   4.382   1.998   2.969 -0.0990  0.5369  1.7599
 1263SOL    HW215426   4.261   2.017   2.900 -1.5844  1.4240 -1.6341
 1264SOL     OW15427   3.241   4.402   2.553 -0.6758 -0.1104  0.1098
 1264SOL    HW115428   3.232   4.316   2.511 -1.7821 -0.8854  1.9130
 1264SOL    HW215429   3.230   4.377   2.645 -0.6845  1.3281  0.4950
 1265SOL     OW15430   0.565   1.928   7.534  0.0160 -0.5815 -0.0582
 1265SOL    HW115431   0.499   1.872   7.492 -0.8181  1.4136 -1.4301
 1265SOL    HW215432   0.509   1.970   7.599 -0.0604 -0.5667 -0.1339
 1266SOL     OW15433   0.830   0.370   3.867  0.0712  0.0376 -0.2424
 1266SOL    HW115434   0.828   0.302   3.800  0.5521 -1.1404  0.9458
 1266SOL    HW215435   0.788   0.448   3.832 -0.7025 -0.7664 -1.1124
 1267SOL     OW15436   0.179   4.326   5.921  0.2336 -0.0804  0.7951
 1267SOL    HW115437   0.124   4.249   5.908  0.1164  0.0125  0.7503
 1267SOL    HW215438   0.118   4.371   5.980  0.1167  0.1429  0.4988
 1268SOL     OW15439   3.704   4.694  14.384 -0.2586  0.8809  0.3163
 1268SOL    HW115440   3.783   0.005  14.356  0.3874 -0.7984 -0.6225
 1268SOL    HW215441   3.682   4.652  14.301  1.0035  1.2180 -0.1845
 1269SOL     OW15442   4.474   2.447   5.038  0.5940 -0.6243 -0.3658
 1269SOL    HW115443   4.412   2.514   5.009  0.3794 -0.7838 -0.2736
 1269SOL    HW215444   4.463   2.392   4.960  1.9048 -1.8029  0.2932
 1270SOL     OW15445   0.339   4.058   6.683  0.3158  0.2125  0.9595
 1270SOL    HW115446   0.261   4.002   6.685  0.0955  0.5145  1.0078
 1270SOL    HW215447   0.386   4.012   6.752 -1.1199 -0.9815  1.1413
 1271SOL     OW15448   0.027   2.239  13.777  0.4968 -0.5868  0.2353
 1271SOL    HW115449   4.710   2.213  13.700 -0.2870 -1.2946  1.0003
 1271SOL    HW215450   0.075   2.157  13.791 -2.6936 -2.0498  2.5236
 1272SOL     OW15451   4.262   4.700  15.407  0.3242  0.1812 -0.3332
 1272SOL    HW115452   4.178   4.664  15.378 -0.3737  0.7280  0.9631
 1272SOL    HW215453   4.251   0.057  15.434 -4.4943 -0.6227  0.3958
 1273SOL     OW15454   3.313   4.685  13.486 -0.2774 -0.0090  0.4407
 1273SOL    HW115455   3.407   4.665  13.480 -0.4775 -0.0359 -2.6363
 1273SOL    HW215456   3.290   4.711  13.397 -0.5999 -0.0177  0.5232
 1274SOL     OW15457   3.682   4.695   9.031  0.2782  0.4694  0.4240
 1274SOL    HW115458   3.591   4.670   9.048  0.4001 -1.0511 -1.1569
 1274SOL    HW215459   3.710   4.626   8.971  0.4290  2.2093 -1.5090
 1275SOL     OW15460   3.014   2.356   3.967 -0.1073 -0.1480 -0.1044
 1275SOL    HW115461   2.981   2.428   4.020  2.4752  1.7612 -1.0906
 1275SOL    HW215462   2.949   2.287   3.983 -1.7359  0.9996 -1.7746
 1276SOL     OW15463   2.552   3.863   8.786  0.1060 -0.0400  0.2357
 1276SOL    HW115464   2.582   3.803   8.854  0.0573  0.0501  0.3364
 1276SOL    HW215465   2.601   3.944   8.798  2.0591 -1.1960  0.0115
 1277SOL     OW15466   0.260   0.736   3.935 -0.1930 -0.1073  0.6605
 1277SOL    HW115467   0.300   0.653   3.910 -0.3057 -0.0970  0.4445
 1277SOL    HW215468   0.165   0.724   3.926 -0.4301  0.7544  2.1152
 1278SOL     OW15469   3.619   1.023   2.828  0.1760  0.1012 -0.1195
 1278SOL    HW115470   3.542   0.970   2.806  1.4347 -1.6520 -0.3336
 1278SOL    HW215471   3.666   0.947   2.864 -2.3654 -0.5196  1.8739
 1279SOL     OW15472   2.758   3.266  10.645  0.2333 -0.2062  0.0737
 1279SOL    HW115473   2.845   3.238  10.618  0.1674 -0.5709  0.2387
 1279SOL    HW215474   2.700   3.227  10.580  1.5270 -0.3623 -0.9918
 1280SOL     OW15475   0.983   4.225   7.011 -0.1387  0.5909  0.0662
 1280SOL    HW115476   0.978   4.167   7.087  3.0803 -3.1203 -2.5335
 1280SOL    HW215477   0.996   4.306   7.060  2.3069  0.4755 -0.3864
 1281SOL     OW15478   4.461   3.139   8.281 -0.0474  0.0795 -0.1130
 1281SOL    HW115479   4.462   3.124   8.186 -0.5039 -0.1884 -0.0770
 1281SOL    HW215480   4.545   3.098   8.300 -0.8335 -0.8869  1.2570
 1282SOL     OW15481   1.258   4.062   5.390  0.1601  1.1517 -0.2616
 1282SOL    HW115482   1.284   4.079   5.299  2.8940 -0.5021  0.2312
 1282SOL    HW215483   1.326   4.111   5.436  2.1544 -1.9089  0.0093
 1283SOL     OW15484   2.315   3.974  13.375 -0.4997 -0.0597  0.1739
 1283SOL    HW115485   2.224   3.942  13.368 -0.6233  0.3973 -0.3320
 1283SOL    HW215486   2.330   4.019  13.292  0.2525 -0.6585 -0.0168
 1284SOL     OW15487   3.752   0.414   6.306  0.2570  0.2316 -0.2841
 1284SOL    HW115488   3.667   0.441   6.270 -0.5160  1.2585  2.2926
 1284SOL    HW215489   3.745   0.318   6.300  1.7722  0.2603 -2.1494
 1285SOL     OW15490   2.495   4.667   9.217  0.0408 -0.6100  0.4633
 1285SOL    HW115491   2.432   4.735   9.193  0.9844  0.5490  1.2538
 1285SOL    HW215492   2.571   4.721   9.237 -0.6505  0.2782  0.6662
 1286SOL     OW15493   3.809   2.551   4.762 -0.2004  0.4074 -0.0646
 1286SOL    HW115494   3.821   2.638   4.722 -1.5135  0.8672  0.5412
 1286SOL    HW215495   3.899   2.518   4.773  0.0782  1.1005 -0.2246
 1287SOL     OW15496   2.356   2.982  16.484 -0.0067 -0.3394  0.4531
 1287SOL    HW115497   2.359   2.935  16.567 -0.3658  0.0419  0.6849
 1287SOL    HW215498   2.320   3.063  16.521  0.2811  1.0986 -2.3887
 1288SOL     OW15499   1.065   0.453   1.727  0.5194 -0.3402 -0.2387
 1288SOL    HW115500   1.106   0.508   1.794 -0.7791 -0.9743  1.0705
 1288SOL    HW215501   1.086   0.369   1.767  0.5992 -0.0803  0.2748
 1289SOL     OW15502   4.619   0.848   9.990 -0.5103  0.0094 -0.7978
 1289SOL    HW115503   4.597   0.785  10.059  0.7406 -1.8484 -2.0919
 1289SOL    HW215504   4.712   0.867  10.005 -0.4807  0.0095 -0.9837
 1290SOL     OW15505   3.283   4.633   5.003  0.1090  0.0517 -0.3343
 1290SOL    HW115506   3.290   4.553   4.953 -0.5804  0.2747 -0.7908
 1290SOL    HW215507   3.195   4.640   5.041  0.1643 -0.0473 -0.1897
 1291SOL     OW15508   0.806   0.257   8.793 -0.4451 -0.3703  0.1876
 1291SOL    HW115509   0.821   0.196   8.721  1.0897  1.2001 -0.8393
 1291SOL    HW215510   0.763   0.207   8.863  0.0094 -2.3955 -0.9928
 1292SOL     OW15511   0.308   1.760   0.802 -0.6935  0.3378 -0.3608
 1292SOL    HW115512   0.398   1.782   0.775 -1.2066  0.5227 -1.9096
 1292SOL    HW215513   0.326   1.752   0.896 -1.4837  0.1504 -0.2300
 1293SOL     OW15514   3.496   1.339  12.977  0.2662 -0.4680  0.4267
 1293SOL    HW115515   3.495   1.278  13.051  1.8379 -0.4857  0.4429
 1293SOL    HW215516   3.587   1.316  12.957 -0.1274 -2.1423  0.5631
 1294SOL     OW15517   2.535   4.180   4.893  0.5180  0.1491 -0.6645
 1294SOL    HW115518   2.609   4.127   4.921 -0.5668 -1.2948 -0.5366
 1294SOL    HW215519   2.514   4.220   4.977 -0.4443 -0.5497 -0.5707
 1295SOL     OW15520   1.892   1.718   4.903  0.3292 -0.5293 -0.1972
 1295SOL    HW115521   1.904   1.666   4.824  1.8926  0.2448 -0.4837
 1295SOL    HW215522   1.978   1.707   4.945 -0.0827 -0.2744  0.7161
 1296SOL     OW15523   0.478   4.068   1.554 -0.1534  0.3056  0.4276
 1296SOL    HW115524   0.527   4.017   1.489 -0.8762  2.6956 -2.0116
 1296SOL    HW215525   0.415   4.110   1.496 -1.6370 -1.0620  1.0698
 1297SOL     OW15526   0.353   3.211  12.744  0.3047 -0.2579  0.4864
 1297SOL    HW115527   0.321   3.130  12.783  0.4895 -1.4128 -1.7320
 1297SOL    HW215528   0.396   3.247  12.821  2.0927 -0.9943 -0.1687
 1298SOL     OW15529   2.727   3.106   5.391 -0.2735  0.5394 -0.7592
 1298SOL    HW115530   2.657   3.092   5.327 -0.2048 -0.3397 -0.6325
 1298SOL    HW215531   2.684   3.082   5.474 -1.0090 -1.5894 -1.7627
 1299SOL     OW15532   1.954   0.030   6.731 -0.4488 -0.5262 -0.1970
 1299SOL    HW115533   1.926   0.071   6.649  0.1177  0.2638  0.0041
 1299SOL    HW215534   1.908   0.075   6.802  1.6894 -1.4927  1.7922
 1300SOL     OW15535   1.860   3.382   7.023  0.0653 -0.3125  0.3206
 1300SOL    HW115536   1.767   3.368   7.006  0.0744  1.5629 -1.2178
 1300SOL    HW215537   1.852   3.364   7.117 -1.0691 -0.5836  0.1722
 1301SOL     OW15538   1.079   4.057   7.720 -0.0240  0.6491  0.0118
 1301SOL    HW115539   1.037   4.143   7.732 -0.6789  0.1251  1.5504
 1301SOL    HW215540   1.031   4.020   7.646 -0.4016  0.4595  0.3516
 1302SOL     OW15541   2.974   0.773   1.947  0.3506 -0.5487  0.0471
 1302SOL    HW115542   2.994   0.867   1.953  0.2354 -0.6736  2.1953
 1302SOL    HW215543   2.933   0.755   2.031 -1.7633 -1.5239 -1.1825
 1303SOL     OW15544   3.151   1.214   0.956 -0.2674 -0.0137  0.1046
 1303SOL    HW115545   3.131   1.180   0.869  0.1330  2.3298 -0.8853
 1303SOL    HW215546   3.154   1.307   0.938  0.1717 -0.2868 -1.2162
 1304SOL     OW15547   3.004   0.832   3.890  0.2116  0.1624 -0.0582
 1304SOL    HW115548   2.965   0.745   3.898 -0.8215  0.5368 -1.0737
 1304SOL    HW215549   3.033   0.834   3.982 -1.4790 -0.5278  0.4930
 1305SOL     OW15550   4.725   0.988   3.958 -0.0699  0.3585 -0.3035
 1305SOL    HW115551   4.718   0.993   4.053 -1.5204 -0.8877 -0.3439
 1305SOL    HW215552   4.682   0.904   3.941 -0.6301  0.6248 -0.1677
 1306SOL     OW15553   0.932   1.814   6.854 -0.5428  0.0607 -0.6251
 1306SOL    HW115554   0.899   1.737   6.901 -1.6151  1.5055  0.9468
 1306SOL    HW215555   0.943   1.876   6.926 -1.3526 -0.7906  0.2460
 1307SOL     OW15556   3.694   0.543   1.929  0.6976 -0.2387  0.0743
 1307SOL    HW115557   3.676   0.468   1.872 -0.5715 -0.0383  0.2063
 1307SOL    HW215558   3.741   0.496   1.998 -0.6092  0.0992  1.1998
 1308SOL     OW15559   0.174   0.812   4.964 -0.2396  0.0619 -0.3939
 1308SOL    HW115560   0.164   0.907   4.972 -2.6510 -0.2181 -0.2221
 1308SOL    HW215561   0.118   0.791   5.039  0.3563 -0.4803 -0.0974
 1309SOL     OW15562   4.622   1.118   0.784  0.0052 -0.5395 -0.2421
 1309SOL    HW115563   4.580   1.033   0.792  1.0339 -1.2128 -2.0379
 1309SOL    HW215564   4.682   1.102   0.858  0.1232  2.3936  0.3064
 1310SOL     OW15565   3.676   1.860  15.789 -0.4317  0.1699  0.0555
 1310SOL    HW115566   3.725   1.930  15.747  0.3054 -0.0815  0.4876
 1310SOL    HW215567   3.598   1.845  15.736  0.2582 -1.5837 -0.4802
 1311SOL     OW15568   2.174   2.090   8.575  0.2627  0.4200  0.2487
 1311SOL    HW115569   2.243   2.101   8.509  0.0938 -1.5029 -0.2390
 1311SOL    HW215570   2.215   2.060   8.656  0.0618 -0.1497  0.1407
 1312SOL     OW15571   1.656   0.525  16.824  0.4732  0.5418 -0.0187
 1312SOL    HW115572   1.668   0.463  16.752  0.4331  0.3191  0.1652
 1312SOL    HW215573   1.702   0.480  16.895 -1.8174 -2.0047 -0.1240
 1313SOL     OW15574   2.553   0.230   6.957 -0.2210  0.0159  0.2707
 1313SOL    HW115575   2.492   0.164   6.991 -2.4114  1.4396 -0.9017
 1313SOL    HW215576   2.483   0.292   6.936  0.3265  0.9436  1.1655
 1314SOL     OW15577   0.735   3.686   4.424  0.4707 -0.4800 -0.0776
 1314SOL    HW115578   0.649   3.726   4.436  0.5249 -0.7504  1.2895
 1314SOL    HW215579   0.786   3.755   4.383 -1.7218 -0.0840 -2.1226
 1315SOL     OW15580   3.911   3.910   5.295  0.1326  0.3703  0.2661
 1315SOL    HW115581   3.867   3.995   5.284 -0.8788 -0.0033  1.3886
 1315SOL    HW215582   3.888   3.848   5.226  0.9027  1.0948 -0.6578
 1316SOL     OW15583   4.615   0.718  10.885 -0.1011  0.2248  0.1031
 1316SOL    HW115584   4.595   0.656  10.954 -0.5882 -1.4692 -1.5511
 1316SOL    HW215585   4.702   0.750  10.909  0.5072 -1.4318  0.0832
 1317SOL     OW15586   2.725   1.650   3.588  0.1703  0.1920 -0.6043
 1317SOL    HW115587   2.679   1.607   3.660  3.3829 -2.4187 -0.0941
 1317SOL    HW215588   2.782   1.586   3.544 -0.2357 -0.4924 -0.1369
 1318SOL     OW15589   1.274   3.198   0.216  0.5792  0.2409  0.2033
 1318SOL    HW115590   1.197   3.154   0.253 -0.8925  1.9091 -0.8621
 1318SOL    HW215591   1.338   3.140   0.258  0.5812 -2.0178 -2.9059
 1319SOL     OW15592   0.833   1.131  15.378  0.1297  0.1908  0.0173
 1319SOL    HW115593   0.889   1.130  15.300  1.1624 -0.6692  0.7672
 1319SOL    HW215594   0.898   1.128  15.448 -0.8846  2.1821  1.0491
 1320SOL     OW15595   2.171   4.356  11.524 -0.0063  0.3038 -0.3022
 1320SOL    HW115596   2.144   4.307  11.446  2.6473  1.1545 -1.7573
 1320SOL    HW215597   2.093   4.351  11.579 -0.3447 -0.3646 -0.8449
 1321SOL     OW15598   1.031   4.727   9.106  0.9322 -0.6236 -0.7063
 1321SOL    HW115599   1.040   4.700   9.198  0.5958  0.7946 -0.2601
 1321SOL    HW215600   1.001   4.642   9.074 -0.9917  0.1535 -0.9175
 1322SOL     OW15601   2.143   4.358   9.498 -0.2710  0.4610 -0.4103
 1322SOL    HW115602   2.192   4.376   9.418 -0.4315  0.4531 -0.5109
 1322SOL    HW215603   2.052   4.354   9.469  0.1001  2.1208 -1.7707
 1323SOL     OW15604   0.330   3.581   2.483 -0.4089 -0.1841  0.1318
 1323SOL    HW115605   0.270   3.534   2.425 -1.3015 -1.2996  1.9562
 1323SOL    HW215606   0.379   3.508   2.520 -1.2340  0.9731  3.5080
 1324SOL     OW15607   1.784   0.406   7.242 -0.1543  0.1019  0.0190
 1324SOL    HW115608   1.695   0.407   7.207 -0.4089 -1.6868  0.6122
 1324SOL    HW215609   1.800   0.500   7.245  3.4866 -0.5499  1.2609
 1325SOL     OW15610   2.437   3.377   3.300  0.2923  0.6836  0.2100
 1325SOL    HW115611   2.523   3.417   3.282 -0.3838  1.3848 -1.4422
 1325SOL    HW215612   2.385   3.402   3.224  1.3403 -1.2041 -1.1268
 1326SOL     OW15613   2.217   2.570   4.729  0.2653  0.1687 -0.0088
 1326SOL    HW115614   2.172   2.654   4.735 -1.6762 -0.8608 -0.0603
 1326SOL    HW215615   2.150   2.517   4.686  1.2602 -1.2557  0.1960
 1327SOL     OW15616   0.574   1.341  16.182 -0.7567 -0.0882  0.3529
 1327SOL    HW115617   0.546   1.408  16.244  0.6131 -0.6842  1.6112
 1327SOL    HW215618   0.501   1.280  16.196 -0.3425 -0.2579  1.8334
 1328SOL     OW15619   2.566   0.175   4.752  0.4839  0.3294 -0.0030
 1328SOL    HW115620   2.653   0.212   4.765  0.1975  1.4871 -1.3514
 1328SOL    HW215621   2.588   0.082   4.764  2.2798  0.9444  1.4776
 1329SOL     OW15622   1.126   0.783   2.526  0.7929 -0.4321  0.4409
 1329SOL    HW115623   1.060   0.816   2.464  1.0027 -2.1393 -0.6802
 1329SOL    HW215624   1.099   0.691   2.526 -1.0524  0.0949  1.2141
 1330SOL     OW15625   0.844   1.439   3.841  0.6799 -0.3928 -0.3163
 1330SOL    HW115626   0.834   1.370   3.775  0.8255  2.6349 -3.5132
 1330SOL    HW215627   0.925   1.476   3.806  0.3665 -0.5646 -1.2166
 1331SOL     OW15628   4.193   0.763   1.309  0.5185 -0.2730  0.0116
 1331SOL    HW115629   4.110   0.781   1.265 -0.9845 -0.7633  2.6166
 1331SOL    HW215630   4.159   0.707   1.380 -0.4665  1.7024  1.0999
 1332SOL     OW15631   3.604   1.428   3.565  0.3516  0.3201  0.4983
 1332SOL    HW115632   3.693   1.399   3.549 -0.2389 -1.7337  0.9633
 1332SOL    HW215633   3.561   1.387   3.490  1.7804  0.8758 -0.6185
 1333SOL     OW15634   2.587   2.404  12.251  0.2148  0.4461 -0.5745
 1333SOL    HW115635   2.673   2.437  12.278  0.8757 -0.4558 -1.5409
 1333SOL    HW215636   2.536   2.426  12.329  1.2586 -1.9062  0.8007
 1334SOL     OW15637   2.333   0.306   9.429 -0.3423  0.0351 -0.7754
 1334SOL    HW115638   2.252   0.259   9.411 -1.1475  0.1404  2.5098
 1334SOL    HW215639   2.313   0.339   9.517 -0.2475  0.6891 -1.0014
 1335SOL     OW15640   4.338   2.730   8.871  0.4362 -0.0044  0.2101
 1335SOL    HW115641   4.418   2.722   8.818  0.1135 -1.1007 -0.1086
 1335SOL    HW215642   4.375   2.683   8.946 -1.7981 -2.3638 -0.1809
 1336SOL     OW15643   2.615   3.023   6.148 -0.7702 -0.1641 -0.4379
 1336SOL    HW115644   2.633   2.946   6.202  0.4435 -1.0760 -2.1157
 1336SOL    HW215645   2.649   3.096   6.198 -1.8993  0.2735 -0.3003
 1337SOL     OW15646   0.679   3.298   8.819  0.3497 -0.3314  0.3925
 1337SOL    HW115647   0.772   3.319   8.833  1.1309 -2.1553 -2.0731
 1337SOL    HW215648   0.649   3.387   8.800  1.2160  0.4793  2.8737
 1338SOL     OW15649   0.233   4.413   2.976  0.1178 -0.0510 -0.0860
 1338SOL    HW115650   0.306   4.404   3.038 -1.2143  0.5806  1.5822
 1338SOL    HW215651   0.166   4.360   3.019  0.6621 -1.4379 -0.9539
 1339SOL     OW15652   4.117   1.976   2.587  0.6245  0.5148 -0.5545
 1339SOL    HW115653   4.194   2.025   2.558  0.4316  0.4132 -1.2267
 1339SOL    HW215654   4.159   1.891   2.602  2.2602  1.1679 -1.3822
 1340SOL     OW15655   3.495   0.257   5.449 -0.0472  0.1987  0.0678
 1340SOL    HW115656   3.479   0.350   5.431  2.2500  0.5147 -0.3634
 1340SOL    HW215657   3.422   0.231   5.505 -0.4021  1.0374  0.0037
 1341SOL     OW15658   1.664   3.471  12.578  0.4523  0.5542  0.0989
 1341SOL    HW115659   1.693   3.449  12.666 -0.5500  0.5422  0.4329
 1341SOL    HW215660   1.596   3.403  12.578  0.2685  0.7461  1.2334
 1342SOL     OW15661   3.133   2.137   2.307  0.2682 -1.2686 -1.1265
 1342SOL    HW115662   3.047   2.172   2.332  0.9071 -1.0382  0.8082
 1342SOL    HW215663   3.137   2.166   2.216  2.9209  2.7155  0.2667
 1343SOL     OW15664   2.877   4.147   3.294 -0.5420  0.1526  0.3978
 1343SOL    HW115665   2.945   4.089   3.329 -1.5148  0.1725  2.3771
 1343SOL    HW215666   2.805   4.146   3.357 -2.2059 -0.9387 -1.5329
 1344SOL     OW15667   1.066   4.534   6.429  0.0405  0.5346 -0.5962
 1344SOL    HW115668   0.989   4.561   6.478  1.3767  0.8537  1.3246
 1344SOL    HW215669   1.131   4.604   6.436  0.7918 -0.1225 -0.9578
 1345SOL     OW15670   3.206   3.570   1.206 -0.0422 -0.6922 -0.3553
 1345SOL    HW115671   3.179   3.661   1.216 -0.5030 -0.6361 -2.2893
 1345SOL    HW215672   3.294   3.585   1.241  0.0595 -0.1867 -0.8514
 1346SOL     OW15673   3.466   2.259   2.288 -0.1644 -0.1450  0.4994
 1346SOL    HW115674   3.542   2.203   2.306 -0.1586 -0.4474 -0.4593
 1346SOL    HW215675   3.422   2.205   2.222  0.3171  1.8080 -1.4179
 1347SOL     OW15676   2.818   3.260  12.534  0.0777 -0.5956 -0.4349
 1347SOL    HW115677   2.803   3.177  12.490 -1.6511  0.0610 -1.0691
 1347SOL    HW215678   2.727   3.283  12.554  0.0883 -0.2808 -0.7538
 1348SOL     OW15679   0.611   0.418  10.484 -0.2426  0.5088 -0.3084
 1348SOL    HW115680   0.563   0.462  10.414 -0.6422  1.8373  0.8069
 1348SOL    HW215681   0.657   0.484  10.535 -0.9679 -0.4177  1.5198
 1349SOL     OW15682   3.977   3.009   3.414 -0.2001  0.0329 -0.0089
 1349SOL    HW115683   4.009   2.960   3.490  0.0669  2.9847  1.7806
 1349SOL    HW215684   4.036   2.982   3.343  1.0749 -0.2407  1.1553
 1350SOL     OW15685   4.202   2.498  11.684  0.1892  0.1927  0.5742
 1350SOL    HW115686   4.273   2.479  11.623 -0.9625 -0.0455 -0.7121
 1350SOL    HW215687   4.165   2.410  11.689  0.1668  0.2795  1.9071
 1351SOL     OW15688   3.081   4.457   7.560  0.4619  0.7307 -0.0080
 1351SOL    HW115689   3.131   4.530   7.597  0.3551  0.6180  0.3514
 1351SOL    HW215690   3.156   4.409   7.522  1.3980  0.8856  1.6535
 1352SOL     OW15691   0.574   3.002   1.675  0.5701 -0.4676  0.2829
 1352SOL    HW115692   0.637   3.064   1.710 -1.4528  2.7548 -1.6963
 1352SOL    HW215693   0.516   2.997   1.751  0.8729 -4.3191  0.2821
 1353SOL     OW15694   1.385   2.597   6.289 -0.1826 -0.3445  0.0480
 1353SOL    HW115695   1.290   2.590   6.293 -0.3608  1.1071 -1.8200
 1353SOL    HW215696   1.395   2.687   6.257 -2.0311  0.0308  0.5160
 1354SOL     OW15697   3.063   1.383  16.643 -0.2684 -0.4875 -0.5763
 1354SOL    HW115698   3.107   1.457  16.601  0.1657  0.8058  2.1733
 1354SOL    HW215699   2.981   1.376  16.594  0.3005  3.3739 -2.1159
 1355SOL     OW15700   4.572   0.326  11.274 -0.5593 -0.2108 -0.5816
 1355SOL    HW115701   4.665   0.337  11.292 -0.2874 -1.5117 -1.1463
 1355SOL    HW215702   4.576   0.253  11.212  0.3519  1.4203 -2.4438
 1356SOL     OW15703   1.964   4.204   6.560 -0.0584  0.3006  0.2109
 1356SOL    HW115704   2.009   4.129   6.598 -0.0924  0.1242 -0.0977
 1356SOL    HW215705   1.917   4.228   6.640 -0.3159  2.4308 -0.5765
 1357SOL     OW15706   1.730   2.947  13.277 -0.0145  0.2586  0.5878
 1357SOL    HW115707   1.722   3.019  13.214  0.0825 -0.1475  0.1076
 1357SOL    HW215708   1.710   2.993  13.358  0.8922  0.9761  0.4103
 1358SOL     OW15709   3.763   3.288   4.697 -0.1785 -0.1550 -0.0461
 1358SOL    HW115710   3.855   3.294   4.672 -0.4309  0.1632 -0.8795
 1358SOL    HW215711   3.767   3.363   4.757 -1.2404 -1.9346  2.2631
 1359SOL     OW15712   1.404   3.584   6.687  0.1794  0.2621 -0.1904
 1359SOL    HW115713   1.485   3.561   6.641  0.5655  0.6298  0.3066
 1359SOL    HW215714   1.375   3.496   6.708  2.4962 -0.5595 -0.4834
 1360SOL     OW15715   4.644   0.904   2.960  0.1087  0.8540 -0.3923
 1360SOL    HW115716   4.664   0.857   3.041  0.1691 -2.9879 -2.6408
 1360SOL    HW215717   4.702   0.981   2.967  0.1750  0.8185 -0.5561
 1361SOL     OW15718   3.742   1.048  14.060  0.4898 -0.2088 -0.2124
 1361SOL    HW115719   3.733   0.954  14.043  2.5943 -0.6921  1.2774
 1361SOL    HW215720   3.654   1.071  14.090  0.8663  1.2680 -0.2438
 1362SOL     OW15721   3.740   1.547   6.348 -0.1841 -0.5494 -0.8999
 1362SOL    HW115722   3.779   1.523   6.432 -3.0337 -1.2117  0.2298
 1362SOL    HW215723   3.765   1.473   6.293  2.6679 -0.7105  0.6501
 1363SOL     OW15724   1.349   1.870   8.029  0.3216  0.0576 -0.3610
 1363SOL    HW115725   1.408   1.859   7.954 -0.2213 -0.1715 -0.7507
 1363SOL    HW215726   1.390   1.804   8.085 -1.7908 -1.5544 -0.7192
 1364SOL     OW15727   3.730   2.388  12.258 -0.1783 -0.4226 -0.0535
 1364SOL    HW115728   3.666   2.377  12.329  1.0673  1.6850  1.4104
 1364SOL    HW215729   3.810   2.351  12.295 -0.4669  0.7849  1.7717
 1365SOL     OW15730   3.060   2.072   6.096  0.5549  0.1734  0.1195
 1365SOL    HW115731   3.087   2.159   6.125  1.7606 -0.7284  1.6689
 1365SOL    HW215732   2.973   2.072   6.136 -0.1821 -1.0631 -1.5011
 1366SOL     OW15733   1.788   4.166  13.596 -0.1207 -0.1471 -0.4025
 1366SOL    HW115734   1.735   4.086  13.602 -0.0677 -0.0697  1.0359
 1366SOL    HW215735   1.730   4.231  13.635  0.9537  0.9448 -0.6415
 1367SOL     OW15736   0.053   0.588  10.355 -0.2280 -0.0583 -0.2756
 1367SOL    HW115737   0.033   0.673  10.395 -1.5373  0.7041 -2.5996
 1367SOL    HW215738   0.004   0.524  10.407  0.7545 -1.9968 -1.7401
 1368SOL     OW15739   3.922   2.671   5.987  0.5801  0.1505  0.1459
 1368SOL    HW115740   3.860   2.641   6.053  0.0375 -0.1627 -0.4987
 1368SOL    HW215741   3.874   2.649   5.907  0.9708 -0.7119  0.1538
 1369SOL     OW15742   1.273   1.121   4.375 -0.0456  0.2157 -0.0139
 1369SOL    HW115743   1.215   1.053   4.339 -0.4885 -0.0255  1.1380
 1369SOL    HW215744   1.250   1.202   4.330 -1.8531 -0.6401 -0.6429
 1370SOL     OW15745   4.098   0.468   9.626  0.2469 -0.0061 -0.0327
 1370SOL    HW115746   4.178   0.426   9.658 -0.0558  0.9250  1.9456
 1370SOL    HW215747   4.041   0.409   9.674  1.5775  0.4410  2.1192
 1371SOL     OW15748   0.915   1.749   5.983 -0.3412  0.1281  0.5930
 1371SOL    HW115749   0.885   1.727   5.894 -0.4145  2.2990  0.0829
 1371SOL    HW215750   0.844   1.790   6.032 -0.8894  1.1477 -1.0507
 1372SOL     OW15751   0.522   3.715   5.119 -0.2455 -0.4847 -0.3201
 1372SOL    HW115752   0.460   3.707   5.191  2.0675  1.3038  1.8526
 1372SOL    HW215753   0.557   3.626   5.107 -1.4019 -0.4729 -3.6779
 1373SOL     OW15754   4.414   1.345  12.503  0.1476  0.2017 -0.1134
 1373SOL    HW115755   4.491   1.333  12.448  2.3301 -1.2640  3.2682
 1373SOL    HW215756   4.344   1.351  12.438 -1.5739  3.3719  2.0959
 1374SOL     OW15757   3.206   4.041  15.579 -0.1357  0.1745 -0.7345
 1374SOL    HW115758   3.146   3.976  15.545 -0.1963 -1.0752  1.7431
 1374SOL    HW215759   3.253   4.073  15.502 -0.9517 -1.2752 -1.8128
 1375SOL     OW15760   1.366   3.101   7.668 -0.3114 -0.1810 -0.6137
 1375SOL    HW115761   1.410   3.035   7.722 -3.9963 -2.1594 -0.0549
 1375SOL    HW215762   1.377   3.182   7.716  1.4449 -1.0198  0.4302
 1376SOL     OW15763   3.746   0.215  13.331 -0.3285  0.2873  0.0178
 1376SOL    HW115764   3.761   0.279  13.261 -0.4957  0.3830  0.0687
 1376SOL    HW215765   3.651   0.217  13.323 -0.1999  0.4957 -1.4867
 1377SOL     OW15766   2.233   2.084   3.786  0.5628  0.9616 -0.4578
 1377SOL    HW115767   2.279   2.001   3.800 -0.6402  0.1113 -1.5628
 1377SOL    HW215768   2.215   2.107   3.877 -2.1837  2.4527 -1.3881
 1378SOL     OW15769   0.560   0.846  14.713  0.5472 -0.4157  0.0911
 1378SOL    HW115770   0.641   0.814  14.673 -0.2779 -1.3227 -0.8699
 1378SOL    HW215771   0.552   0.935  14.677  3.0133 -0.3451 -0.2886
 1379SOL     OW15772   2.542   3.820   6.778 -0.0949  0.1482 -0.1738
 1379SOL    HW115773   2.541   3.915   6.766  0.1560 -0.0520 -1.7905
 1379SOL    HW215774   2.564   3.785   6.692  1.5466  0.0460  0.2694
 1380SOL     OW15775   4.214   2.327   6.210  0.2558  0.4806  0.2632
 1380SOL    HW115776   4.195   2.379   6.132  1.1844  1.7933  0.9310
 1380SOL    HW215777   4.275   2.376   6.265 -0.6854  0.4147  1.3752
 1381SOL     OW15778   3.609   2.824   9.376  0.5074  0.6703  0.4621
 1381SOL    HW115779   3.582   2.906   9.416 -1.7357  0.7376 -1.1640
 1381SOL    HW215780   3.704   2.824   9.381  0.5792 -1.1933 -0.6365
 1382SOL     OW15781   3.657   3.385   3.021 -0.5157  0.2165  0.4750
 1382SOL    HW115782   3.694   3.330   2.952 -4.3795  2.1905 -3.1991
 1382SOL    HW215783   3.592   3.329   3.064  1.6778 -0.5655  2.7813
 1383SOL     OW15784   1.720   2.581   5.223  0.3870 -0.1591 -0.0568
 1383SOL    HW115785   1.764   2.498   5.202 -0.7935 -1.1821  1.4365
 1383SOL    HW215786   1.658   2.554   5.291  0.2982 -0.8285 -0.4031
 1384SOL     OW15787   2.879   4.286   7.264 -0.3786 -0.3976 -0.1107
 1384SOL    HW115788   2.787   4.302   7.241  0.3236  0.2642 -2.4396
 1384SOL    HW215789   2.913   4.375   7.278 -1.4935  0.4307 -2.6043
 1385SOL     OW15790   0.228   0.546   5.323  0.8371 -0.0396  0.1680
 1385SOL    HW115791   0.228   0.622   5.265 -1.6299 -0.0456  0.1636
 1385SOL    HW215792   0.220   0.485   5.249  0.0321 -0.6012  0.7168
 1386SOL     OW15793   3.051   4.720  13.610  0.4285 -0.6088  0.1283
 1386SOL    HW115794   3.139   4.702  13.643  0.6532  0.8002  0.2821
 1386SOL    HW215795   3.076   0.025  13.526 -2.8227  0.1458 -0.5007
 1387SOL     OW15796   3.491   0.119   2.323 -0.5464  0.4075  0.8452
 1387SOL    HW115797   3.530   0.141   2.239  1.0250 -0.2308  1.4194
 1387SOL    HW215798   3.428   0.048   2.306  0.6743 -1.0276  2.3117
 1388SOL     OW15799   1.636   1.914  12.280 -0.7119 -0.0759  0.7444
 1388SOL    HW115800   1.726   1.945  12.282 -0.8662  0.4907 -1.0965
 1388SOL    HW215801   1.583   1.986  12.314  0.3020  1.3260 -0.6922
 1389SOL     OW15802   1.153   1.004   4.982  0.0783 -0.1801  0.5370
 1389SOL    HW115803   1.139   1.014   4.888  0.1440  2.6232  0.8270
 1389SOL    HW215804   1.131   0.911   4.990  1.8711 -0.8231 -1.6846
 1390SOL     OW15805   2.621   3.647   2.946 -0.4163  0.6939  0.1217
 1390SOL    HW115806   2.557   3.642   2.876 -1.1563 -1.2318  0.9469
 1390SOL    HW215807   2.564   3.681   3.015  0.5116  1.0214  0.7461
 1391SOL     OW15808   4.412   2.685   2.480 -0.2353  0.0642  0.0139
 1391SOL    HW115809   4.387   2.606   2.527 -3.2426  0.3221 -1.1396
 1391SOL    HW215810   4.399   2.747   2.552 -2.3988 -2.0578  1.4401
 1392SOL     OW15811   0.696   1.033   2.598 -0.1123  0.6064  0.6415
 1392SOL    HW115812   0.775   1.002   2.642  0.4702  1.4656  0.2023
 1392SOL    HW215813   0.665   0.946   2.575  0.1936  1.3226 -2.3848
 1393SOL     OW15814   2.249   0.556  17.687  0.7499 -0.0798 -0.2309
 1393SOL    HW115815   2.267   0.576  17.595  0.3457 -0.7869 -0.4620
 1393SOL    HW215816   2.295   0.474  17.701 -0.6666 -0.8400  0.0034
 1394SOL     OW15817   4.623   3.140   7.612  0.2807  0.0717 -0.2202
 1394SOL    HW115818   4.574   3.172   7.688  0.3321  1.5738 -0.8225
 1394SOL    HW215819   4.708   3.182   7.628 -0.4487  2.4057 -2.5065
 1395SOL     OW15820   3.368   1.561   6.746 -0.1476 -0.5474  0.3170
 1395SOL    HW115821   3.283   1.542   6.787  0.5731 -0.6667  1.7648
 1395SOL    HW215822   3.402   1.475   6.770 -0.3798 -1.3792 -2.3822
 1396SOL     OW15823   3.551   4.311   6.836  0.0262  0.0323 -0.6563
 1396SOL    HW115824   3.539   4.218   6.855  1.7333  0.5015  2.5875
 1396SOL    HW215825   3.571   4.301   6.743 -0.2065 -0.4651 -0.6511
 1397SOL     OW15826   3.892   2.186   1.710 -0.6795 -0.2778  0.3677
 1397SOL    HW115827   3.801   2.166   1.692 -0.3179  0.2140 -1.9370
 1397SOL    HW215828   3.938   2.107   1.739 -1.6759 -1.0449 -0.1579
 1398SOL     OW15829   4.376   2.127   5.107 -0.2443 -0.1012 -0.3694
 1398SOL    HW115830   4.357   2.064   5.177  1.2714  2.0545  1.9570
 1398SOL    HW215831   4.439   2.076   5.057 -0.7292 -0.2671 -0.8069
 1399SOL     OW15832   0.501   2.892  15.008 -0.2943  0.4946  0.2573
 1399SOL    HW115833   0.464   2.935  14.931 -0.9268  3.2248  2.0638
 1399SOL    HW215834   0.415   2.885  15.050 -0.6821  0.2210 -0.6015
 1400SOL     OW15835   3.319   1.538  10.313 -0.1979  0.5297  0.2095
 1400SOL    HW115836   3.413   1.549  10.300 -0.0140  0.0300  1.1082
 1400SOL    HW215837   3.314   1.602  10.384 -2.7064  0.1844  0.3233
 1401SOL     OW15838   1.759   2.171   0.238 -0.0769 -0.1970 -0.6839
 1401SOL    HW115839   1.782   2.169   0.146 -1.6709 -0.8496 -1.0778
 1401SOL    HW215840   1.671   2.136   0.222  0.0794 -0.2543 -1.4079
 1402SOL     OW15841   3.318   3.488  10.841  0.1725  0.9597 -0.5832
 1402SOL    HW115842   3.258   3.554  10.806 -1.4777 -1.8146 -2.9980
 1402SOL    HW215843   3.287   3.473  10.930 -1.8709  0.6185 -1.3440
 1403SOL     OW15844   3.897   2.935   4.380 -0.5322  0.6689  0.4030
 1403SOL    HW115845   3.986   2.955   4.352 -0.7252 -0.6651 -1.1689
 1403SOL    HW215846   3.867   3.020   4.412 -0.0494 -0.2915  3.4489
 1404SOL     OW15847   1.003   3.336  13.123 -0.3816  0.1311 -0.3803
 1404SOL    HW115848   1.037   3.406  13.068 -0.6215  0.5292 -0.0308
 1404SOL    HW215849   1.083   3.302  13.163  0.2289  3.1882  1.0449
 1405SOL     OW15850   1.651   4.305   9.227  0.3376 -0.5493 -0.6192
 1405SOL    HW115851   1.727   4.301   9.285 -0.3672 -1.4019  0.2379
 1405SOL    HW215852   1.576   4.277   9.279 -0.6807 -0.7156 -2.1986
 1406SOL     OW15853   3.714   3.794   7.618 -0.2343  0.4627 -0.0235
 1406SOL    HW115854   3.671   3.714   7.647 -0.4429  0.5986  0.0425
 1406SOL    HW215855   3.654   3.866   7.637  0.5191  1.7153 -2.3140
 1407SOL     OW15856   4.053   2.503   2.626 -0.4122  0.4189  0.0575
 1407SOL    HW115857   4.121   2.441   2.601  0.4717  1.4607 -0.1231
 1407SOL    HW215858   3.984   2.437   2.617  0.1326 -0.1536  0.1050
 1408SOL     OW15859   2.939   1.613   7.163  0.6009 -0.1369  0.5769
 1408SOL    HW115860   2.943   1.624   7.258  2.2626 -0.6891  0.5803
 1408SOL    HW215861   2.955   1.702   7.132  0.7893  0.6927  2.9884
 1409SOL     OW15862   2.770   1.455   2.324 -0.1092  0.0208 -0.0564
 1409SOL    HW115863   2.776   1.381   2.384  0.4907  0.7303  0.7555
 1409SOL    HW215864   2.684   1.495   2.337  1.4637  2.8065  1.7095
 1410SOL     OW15865   2.047   2.246   7.168 -0.2926  0.2620 -0.3583
 1410SOL    HW115866   2.131   2.291   7.180 -1.3123  1.6927  1.5294
 1410SOL    HW215867   2.024   2.277   7.081 -0.2912 -4.6931 -2.1042
 1411SOL     OW15868   3.680   2.704   7.618  0.3138 -0.1605  0.0176
 1411SOL    HW115869   3.736   2.676   7.545 -0.5688  0.1115 -0.7697
 1411SOL    HW215870   3.623   2.774   7.586 -0.5021  0.1758  2.2201
 1412SOL     OW15871   2.793   2.263  10.540 -0.1339 -0.1186 -0.9270
 1412SOL    HW115872   2.823   2.344  10.500 -2.0293  1.3025  0.5416
 1412SOL    HW215873   2.846   2.266  10.619 -0.8254  0.6969 -0.4955
 1413SOL     OW15874   3.540   3.773   3.804  0.2796 -0.4721  0.2239
 1413SOL    HW115875   3.579   3.860   3.792  1.2985 -0.9175  0.3155
 1413SOL    HW215876   3.457   3.773   3.756 -0.6771 -1.8631  1.8912
 1414SOL     OW15877   2.037   3.913   7.783 -0.0810  0.1140  0.3006
 1414SOL    HW115878   2.126   3.905   7.817  0.7451  1.4869 -1.5531
 1414SOL    HW215879   2.022   3.835   7.731  0.4118 -0.4995  1.0833
 1415SOL     OW15880   2.704   2.924   5.603  0.3474  0.3114 -0.5641
 1415SOL    HW115881   2.726   2.899   5.692 -0.5930  2.8131  0.3782
 1415SOL    HW215882   2.776   2.888   5.552 -1.6346 -2.4984 -1.3805
 1416SOL     OW15883   0.292   2.155   2.304 -0.0341 -0.4577  0.3640
 1416SOL    HW115884   0.318   2.066   2.279  1.2008 -0.4390  1.5721
 1416SOL    HW215885   0.264   2.142   2.395 -0.5914 -2.4128 -0.0763
 1417SOL     OW15886   3.485   1.032   6.281 -0.1073  0.4018 -0.7186
 1417SOL    HW115887   3.512   0.957   6.334 -1.7043  1.2519  1.3036
 1417SOL    HW215888   3.390   1.021   6.273 -0.0833 -0.0183 -0.4400
 1418SOL     OW15889   4.118   2.936   8.170 -0.4891 -0.2637 -0.5594
 1418SOL    HW115890   4.027   2.915   8.194 -0.0411 -1.7487 -0.1218
 1418SOL    HW215891   4.164   2.862   8.209 -1.4517 -1.8121 -2.3370
 1419SOL     OW15892   0.179   1.777   5.839  0.2114  0.3043  0.9705
 1419SOL    HW115893   0.105   1.811   5.889 -0.2444  2.3962 -1.0960
 1419SOL    HW215894   0.211   1.720   5.908  0.7298  0.5104  0.9001
 1420SOL     OW15895   4.078   3.503   5.240  0.2560 -0.3593  1.1783
 1420SOL    HW115896   4.126   3.563   5.298  2.3131 -2.2447  1.4148
 1420SOL    HW215897   4.000   3.495   5.296 -0.4881  0.0660  0.1906
 1421SOL     OW15898   2.012   1.633   7.850  0.0887  0.4080  0.3028
 1421SOL    HW115899   1.994   1.692   7.924 -0.8333 -1.3098  1.4465
 1421SOL    HW215900   1.961   1.555   7.873  0.5379  0.2000  0.6046
 1422SOL     OW15901   1.511   1.711   8.211  0.1161  0.2952  0.5535
 1422SOL    HW115902   1.606   1.696   8.209  0.1569  0.5963  0.1325
 1422SOL    HW215903   1.464   1.638   8.251  0.8691 -0.6832 -0.3388
 1423SOL     OW15904   2.704   0.292   7.184  0.1092 -0.1689 -0.2329
 1423SOL    HW115905   2.664   0.374   7.214  1.2376  0.6210 -0.9043
 1423SOL    HW215906   2.645   0.284   7.110  1.3898  0.2781 -1.2910
 1424SOL     OW15907   0.849   1.219   9.072  0.2493  0.0439 -0.3233
 1424SOL    HW115908   0.883   1.157   9.008  0.9550 -0.0425  0.1378
 1424SOL    HW215909   0.832   1.296   9.018 -0.5078  0.7567  0.9037
 1425SOL     OW15910   1.862   0.658   6.496 -0.0039 -0.0329  0.2250
 1425SOL    HW115911   1.792   0.675   6.434 -0.2690  2.6373  1.2622
 1425SOL    HW215912   1.877   0.564   6.488  0.8535  0.1021  0.2126
 1426SOL     OW15913   1.569   1.751  11.947  0.1283  0.3759 -0.0123
 1426SOL    HW115914   1.608   1.664  11.957 -1.4640 -0.5493 -1.6723
 1426SOL    HW215915   1.548   1.773  12.038 -0.7751  1.2515 -0.4270
 1427SOL     OW15916   2.214   3.372   1.673 -0.0963 -0.2617  0.0201
 1427SOL    HW115917   2.123   3.358   1.648  0.4777 -4.8320  0.3264
 1427SOL    HW215918   2.199   3.361   1.766  0.2574  2.4340  0.3814
 1428SOL     OW15919   4.619   2.795   1.451  0.4114 -0.2673 -0.0088
 1428SOL    HW115920   4.637   2.796   1.357 -0.3620  1.2103 -0.1408
 1428SOL    HW215921   4.677   2.725   1.478  0.3751  0.6670  2.4710
 1429SOL     OW15922   1.313   2.858   4.141  0.3407  0.0680  0.1623
 1429SOL    HW115923   1.363   2.801   4.083  0.3279 -0.0641  0.2827
 1429SOL    HW215924   1.227   2.817   4.138 -0.7528  2.3592  0.3829
 1430SOL     OW15925   1.223   1.518   0.087  0.1620  0.0982  0.3343
 1430SOL    HW115926   1.192   1.538   0.175  0.8388  0.5886  0.4583
 1430SOL    HW215927   1.203   1.600   0.041  0.3664 -1.0674 -1.8388
 1431SOL     OW15928   3.170   4.503   8.006  0.0884  0.2324 -0.4137
 1431SOL    HW115929   3.094   4.557   8.027 -0.1915 -0.0441 -0.7131
 1431SOL    HW215930   3.215   4.562   7.945 -1.2001 -0.4974 -2.0770
 1432SOL     OW15931   2.070   3.954   6.708  0.5444 -0.4237  0.0426
 1432SOL    HW115932   2.012   3.925   6.778  1.4003 -1.5122  0.3143
 1432SOL    HW215933   2.083   3.871   6.660 -1.3630  0.5303 -2.1484
 1433SOL     OW15934   1.673   1.534   3.649 -0.0965  0.0312  0.5542
 1433SOL    HW115935   1.736   1.582   3.596  0.7606 -0.5778  1.0289
 1433SOL    HW215936   1.587   1.541   3.607 -0.6749 -0.6730  1.6009
 1434SOL     OW15937   3.458   2.288   9.998  0.3733 -0.1819  0.2225
 1434SOL    HW115938   3.540   2.289  10.048 -0.1038  0.7884  0.9620
 1434SOL    HW215939   3.484   2.235   9.923  0.6589  0.1851  0.0646
 1435SOL     OW15940   1.881   3.249   5.069 -0.0044  0.0090 -0.1609
 1435SOL    HW115941   1.927   3.296   4.999  0.3665 -0.8910 -0.5225
 1435SOL    HW215942   1.796   3.233   5.028  0.0582  0.6644 -0.5508
 1436SOL     OW15943   4.281   3.469   2.227  0.3247  0.1316 -0.2802
 1436SOL    HW115944   4.335   3.527   2.173 -0.8134  0.9358 -0.5505
 1436SOL    HW215945   4.345   3.402   2.253 -0.0040  0.4891  1.4392
 1437SOL     OW15946   0.363   3.417   2.826 -0.4274 -0.0111  0.1945
 1437SOL    HW115947   0.377   3.508   2.851  1.1010 -0.0062 -0.6978
 1437SOL    HW215948   0.420   3.399   2.751  0.6982  0.3617  0.9700
 1438SOL     OW15949   1.567   4.135   0.933 -0.8710 -0.0195 -0.0841
 1438SOL    HW115950   1.500   4.167   0.873 -1.1206 -0.5053 -0.0615
 1438SOL    HW215951   1.649   4.154   0.887 -1.0674  0.9173 -0.0362
 1439SOL     OW15952   0.692   2.423   8.707  0.3276 -0.6012  0.0637
 1439SOL    HW115953   0.600   2.431   8.734 -0.0925 -0.6223 -1.3458
 1439SOL    HW215954   0.724   2.366   8.777  1.3458 -0.0567  0.0343
 1440SOL     OW15955   1.038   1.674   8.213 -0.0611 -0.0498 -0.3631
 1440SOL    HW115956   1.064   1.599   8.159  2.2461 -0.6086  1.5360
 1440SOL    HW215957   0.948   1.654   8.239 -0.4270  0.0612 -1.5431
 1441SOL     OW15958   4.511   2.938   5.680  0.2103  0.6776 -0.0232
 1441SOL    HW115959   4.583   2.929   5.618  0.5356 -4.1978  1.0787
 1441SOL    HW215960   4.455   3.003   5.637 -1.0303 -0.3933 -0.0299
 1442SOL     OW15961   0.922   0.619   0.187  0.2046  0.0475 -0.3667
 1442SOL    HW115962   0.925   0.560   0.262 -0.0715 -0.1125 -0.4796
 1442SOL    HW215963   0.951   0.572   0.109  1.3478 -1.6644  1.0923
 1443SOL     OW15964   2.778   3.069  12.901 -0.4569 -0.2315  0.8956
 1443SOL    HW115965   2.860   3.113  12.922 -1.7431  3.3192 -1.5504
 1443SOL    HW215966   2.727   3.135  12.854  0.2279 -0.2235  0.1594
 1444SOL     OW15967   4.470   1.427   0.158  0.8491 -0.2308 -0.1912
 1444SOL    HW115968   4.414   1.492   0.116 -1.0035 -0.7819  1.4097
 1444SOL    HW215969   4.464   1.455   0.250  1.5203  0.6401 -0.4170
 1445SOL     OW15970   3.919   4.253   4.366  0.3339  0.6239 -0.6230
 1445SOL    HW115971   3.870   4.186   4.414 -2.2359  1.5344 -1.9554
 1445SOL    HW215972   3.968   4.306   4.429  0.3499 -1.8457  1.4669
 1446SOL     OW15973   1.978   0.744   3.192 -0.5738  0.2249 -0.1590
 1446SOL    HW115974   2.024   0.702   3.265 -0.6448  0.6722  0.1409
 1446SOL    HW215975   2.007   0.834   3.208 -2.4941  0.6178  1.1258
 1447SOL     OW15976   4.208   3.164   5.369 -0.3742  0.3305 -0.2417
 1447SOL    HW115977   4.242   3.075   5.360  1.0800  1.0743 -1.9619
 1447SOL    HW215978   4.136   3.167   5.307 -0.5646 -0.3288 -0.0473
 1448SOL     OW15979   2.198   4.573   0.876  0.0187 -0.0009 -0.5535
 1448SOL    HW115980   2.261   4.603   0.942 -0.5059  0.7022 -0.3616
 1448SOL    HW215981   2.231   4.484   0.869  2.7445  0.9023  0.6992
 1449SOL     OW15982   1.970   1.957   8.464 -0.4909 -0.2990  0.0583
 1449SOL    HW115983   2.035   2.017   8.500  0.9696 -0.9971 -1.4032
 1449SOL    HW215984   1.938   2.025   8.405  1.0157  0.6978  0.3908
 1450SOL     OW15985   1.905   1.705   2.255  0.1249 -0.2372 -0.8610
 1450SOL    HW115986   1.901   1.716   2.350 -0.9458  2.0218 -1.1622
 1450SOL    HW215987   1.905   1.610   2.251  1.6690 -0.2988  0.5400
 1451SOL     OW15988   3.334   2.260   3.157 -0.7394  0.0013 -0.5573
 1451SOL    HW115989   3.424   2.228   3.154 -0.9028 -0.9261  3.8987
 1451SOL    HW215990   3.349   2.349   3.188  1.8282 -0.2320 -1.1966
 1452SOL     OW15991   1.328   4.337   6.402  0.0075  0.1594 -0.5957
 1452SOL    HW115992   1.274   4.258   6.405 -0.4429  0.3883 -2.2149
 1452SOL    HW215993   1.258   4.401   6.415  1.6987  2.1087 -1.0163
 1453SOL     OW15994   3.139   1.522  13.620  0.3991 -0.2443  0.0862
 1453SOL    HW115995   3.131   1.604  13.669 -0.0876  1.0375 -2.1035
 1453SOL    HW215996   3.049   1.492  13.605  0.9811 -1.2535 -1.3255
 1454SOL     OW15997   3.511   1.242   6.121 -0.1211 -0.5417  0.4548
 1454SOL    HW115998   3.517   1.154   6.157  0.1500 -1.3576 -1.6039
 1454SOL    HW215999   3.434   1.230   6.065 -1.0345  0.6935  1.4358
 1455SOL     OW16000   0.810   1.912  17.274  0.2217  0.2434 -0.2613
 1455SOL    HW116001   0.822   1.845  17.207 -2.3739  1.0604 -1.5571
 1455SOL    HW216002   0.900   1.907  17.305  0.2183 -1.8426 -0.6139
 1456SOL     OW16003   1.795   3.745   5.783  0.1621 -0.6603 -0.3252
 1456SOL    HW116004   1.865   3.682   5.769 -0.8226 -1.2181 -2.6633
 1456SOL    HW216005   1.767   3.724   5.873 -0.0737 -0.9759 -0.4693
 1457SOL     OW16006   1.817   3.157   5.328  0.2575  0.1703 -0.3885
 1457SOL    HW116007   1.759   3.232   5.341 -0.4668 -0.3307 -0.6951
 1457SOL    HW216008   1.839   3.160   5.235  0.4123 -0.0427 -0.3580
 1458SOL     OW16009   2.169   1.450   2.448 -0.4964  0.3631  0.1257
 1458SOL    HW116010   2.248   1.404   2.476  0.1635  1.7519  0.5266
 1458SOL    HW216011   2.188   1.511   2.377  1.0193  0.4506  0.6274
 1459SOL     OW16012   4.610   1.608  12.444 -0.2902 -0.0988  0.0891
 1459SOL    HW116013   4.595   1.696  12.408 -1.8716 -1.2020 -1.9379
 1459SOL    HW216014   4.520   1.579  12.426 -0.0134 -1.6730  1.2950
 1460SOL     OW16015   3.156   1.150   2.317  0.0463  0.0131  0.7398
 1460SOL    HW116016   3.109   1.186   2.392  0.0576  0.8961  0.3202
 1460SOL    HW216017   3.106   1.172   2.239 -1.1978 -3.3076  0.6396
 1461SOL     OW16018   2.055   2.348   3.607 -0.1894  0.3750 -0.2339
 1461SOL    HW116019   2.084   2.428   3.651 -0.3511  0.3406 -0.0670
 1461SOL    HW216020   1.970   2.376   3.574 -1.5381 -1.8825  1.3584
 1462SOL     OW16021   1.911   4.672   8.191  0.2950 -0.0482  0.2331
 1462SOL    HW116022   1.953   0.014   8.230 -0.0542  0.3507 -0.1683
 1462SOL    HW216023   1.932   4.682   8.098 -0.0748  2.3714  0.4030
 1463SOL     OW16024   1.208   4.682   3.135  0.3121 -0.0878  0.1874
 1463SOL    HW116025   1.122   4.642   3.125  0.1613  0.8684 -2.5686
 1463SOL    HW216026   1.251   4.666   3.051  0.5033 -0.3738  0.3418
 1464SOL     OW16027   3.630   4.207   7.144 -0.3908  0.2628 -0.1207
 1464SOL    HW116028   3.584   4.179   7.064 -0.5044  0.2203 -0.0419
 1464SOL    HW216029   3.595   4.146   7.210  0.2061 -0.1060 -0.1458
 1465SOL     OW16030   0.585   0.126   4.044 -0.2546  0.2540 -0.1162
 1465SOL    HW116031   0.527   0.060   4.084  2.2367 -0.5726  2.1375
 1465SOL    HW216032   0.601   0.086   3.959  0.3842 -0.7782  0.4783
 1466SOL     OW16033   0.348   4.345  11.507  0.4275 -0.4578  0.3096
 1466SOL    HW116034   0.425   4.300  11.542  0.0494 -1.5095 -0.2073
 1466SOL    HW216035   0.292   4.269  11.489 -0.9486  0.3385  1.2687
 1467SOL     OW16036   1.045   1.674   2.596  0.3458  0.3494  0.6442
 1467SOL    HW116037   1.012   1.584   2.604 -0.5780  0.6049 -0.1992
 1467SOL    HW216038   0.981   1.723   2.647  1.0055  0.0829  1.7152
 1468SOL     OW16039   2.015   1.103   2.175  0.0606  1.3504  0.4222
 1468SOL    HW116040   1.968   1.129   2.254 -1.0322 -0.1170  0.2602
 1468SOL    HW216041   2.102   1.098   2.216 -0.4247 -2.4358  1.0246
 1469SOL     OW16042   0.205   0.109   8.812 -0.3393  0.2761 -0.5072
 1469SOL    HW116043   0.118   0.070   8.814  0.1557 -0.9340 -2.5783
 1469SOL    HW216044   0.243   0.066   8.889 -3.0818 -1.3201 -0.0602
 1470SOL     OW16045   1.132   1.921   9.164 -0.3466  0.2878  0.1523
 1470SOL    HW116046   1.181   1.859   9.110 -0.3886 -1.2878  1.9152
 1470SOL    HW216047   1.090   1.860   9.225  0.4378 -2.7746 -2.3728
 1471SOL     OW16048   1.072   3.353  16.459  0.5033  0.4901 -0.1497
 1471SOL    HW116049   0.984   3.389  16.464  0.1506 -0.2991 -0.5664
 1471SOL    HW216050   1.089   3.303  16.539  0.3937  0.4092 -0.1773
 1472SOL     OW16051   2.201   2.001   1.725  0.7904  0.5605  0.2325
 1472SOL    HW116052   2.128   1.991   1.787  0.2279 -2.3220 -0.8929
 1472SOL    HW216053   2.183   1.931   1.662  1.4532  0.2317  0.4072
 1473SOL     OW16054   1.881   1.404   8.922  0.3770  0.0647  0.4830
 1473SOL    HW116055   1.813   1.345   8.892  1.5498 -0.5149 -1.0174
 1473SOL    HW216056   1.876   1.464   8.847  0.0390 -2.3234 -1.3907
 1474SOL     OW16057   3.696   3.162   2.846  0.2850  0.4071 -0.0432
 1474SOL    HW116058   3.638   3.175   2.770  0.1203  0.0650  0.0239
 1474SOL    HW216059   3.749   3.096   2.801  1.1525  0.6213  0.6756
 1475SOL     OW16060   2.781   2.957  14.629  0.2392 -0.0782  0.7032
 1475SOL    HW116061   2.869   2.995  14.627  0.2573 -0.2280 -1.7288
 1475SOL    HW216062   2.799   2.880  14.683  0.7987 -1.4617 -1.4685
 1476SOL     OW16063   2.764   1.848   2.487 -0.4282  0.2826 -0.5938
 1476SOL    HW116064   2.787   1.938   2.513 -2.0689  0.3592  0.5932
 1476SOL    HW216065   2.852   1.812   2.477  0.1154  0.6111  2.8817
 1477SOL     OW16066   4.545   1.241   2.859  0.2886 -0.4924  0.2614
 1477SOL    HW116067   4.463   1.193   2.849 -1.1358  2.0747 -0.3516
 1477SOL    HW216068   4.582   1.232   2.771 -0.0212  0.3849  0.0416
 1478SOL     OW16069   0.595   3.045   6.777  0.1126 -0.4361 -0.3655
 1478SOL    HW116070   0.634   2.958   6.775  0.9444 -0.0716  0.2736
 1478SOL    HW216071   0.514   3.027   6.825 -1.6908  1.5967 -2.6354
 1479SOL     OW16072   1.574   3.465  16.033  0.3825  0.1742 -0.1409
 1479SOL    HW116073   1.554   3.558  16.040 -2.4411 -0.5679  1.4800
 1479SOL    HW216074   1.547   3.444  15.944 -1.7052 -0.4599  0.6402
 1480SOL     OW16075   3.501   1.785   4.659 -0.3381  0.0176 -0.0516
 1480SOL    HW116076   3.525   1.874   4.632  1.1464 -0.2978  0.2383
 1480SOL    HW216077   3.570   1.731   4.619  0.3612  1.1913 -0.4421
 1481SOL     OW16078   0.226   4.114  11.485 -0.1107 -0.2559  0.2698
 1481SOL    HW116079   0.232   4.084  11.394 -0.3525 -1.0373  0.5128
 1481SOL    HW216080   0.179   4.043  11.530 -1.2072  1.0563  1.1854
 1482SOL     OW16081   1.387   2.622   4.012  0.4637 -0.4638  0.5807
 1482SOL    HW116082   1.386   2.552   3.947 -0.6939 -0.8389  0.9952
 1482SOL    HW216083   1.454   2.683   3.981  0.3981 -0.1214  1.1186
 1483SOL     OW16084   1.693   1.594   5.851 -0.6774  0.2580  0.5309
 1483SOL    HW116085   1.706   1.508   5.813  1.7077  0.1884  1.4706
 1483SOL    HW216086   1.662   1.569   5.938 -0.1166  0.5382  0.8154
 1484SOL     OW16087   0.895   0.286   6.396 -0.2731  0.1581  0.5135
 1484SOL    HW116088   0.877   0.337   6.317 -0.1970  1.5287  1.3680
 1484SOL    HW216089   0.961   0.219   6.376 -1.9297 -1.0630 -0.8696
 1485SOL     OW16090   1.683   2.073   2.400 -0.5812 -0.1374 -0.0039
 1485SOL    HW116091   1.754   2.061   2.337 -1.2710  0.0935 -0.8271
 1485SOL    HW216092   1.717   2.150   2.446  0.9823 -0.4373 -0.6854
 1486SOL     OW16093   2.722   0.303   2.180  0.4012  0.0451  0.0912
 1486SOL    HW116094   2.710   0.334   2.269  2.4498 -0.0825  0.4260
 1486SOL    HW216095   2.817   0.292   2.171  0.1879 -1.1184 -0.7633
 1487SOL     OW16096   1.231   0.484   2.997 -0.1781 -0.5885  0.3222
 1487SOL    HW116097   1.262   0.412   3.052  1.4342  1.5774  2.2200
 1487SOL    HW216098   1.162   0.514   3.056 -0.3867  1.5570 -1.0215
 1488SOL     OW16099   0.211   1.875   4.920 -0.4464 -0.0756  0.0511
 1488SOL    HW116100   0.203   1.949   4.980 -3.2280 -1.3945  1.3368
 1488SOL    HW216101   0.191   1.927   4.843  0.9352  0.5256  0.0932
 1489SOL     OW16102   2.109   1.687   8.648 -0.3084 -0.7630 -0.0423
 1489SOL    HW116103   2.114   1.679   8.743 -1.1890  1.6644  0.2111
 1489SOL    HW216104   2.108   1.783   8.638  2.0160 -0.9655 -2.2572
 1490SOL     OW16105   1.562   1.628   7.536 -0.1439  0.0364 -0.0976
 1490SOL    HW116106   1.577   1.623   7.442  1.2151  2.4458 -0.0126
 1490SOL    HW216107   1.634   1.577   7.574 -0.8479 -1.3717 -0.6569
 1491SOL     OW16108   2.832   3.390   6.510  0.1975  0.0787 -0.9852
 1491SOL    HW116109   2.916   3.430   6.489  0.4912 -0.2927 -0.5370
 1491SOL    HW216110   2.857   3.302   6.539 -0.7973 -0.5127 -1.9056
 1492SOL     OW16111   2.210   0.968   4.173 -0.0270 -0.5620  0.6043
 1492SOL    HW116112   2.116   0.985   4.170  0.2952  0.8756 -1.5001
 1492SOL    HW216113   2.247   1.031   4.110 -1.3996  0.7101  1.0651
 1493SOL     OW16114   0.913   1.131  11.660 -0.1423  0.0022  0.2664
 1493SOL    HW116115   0.955   1.207  11.619 -0.2047  0.0172  0.2306
 1493SOL    HW216116   0.821   1.148  11.639 -0.0927  0.6850  0.6086
 1494SOL     OW16117   3.566   2.544   3.648 -0.2016 -0.0864 -0.0932
 1494SOL    HW116118   3.584   2.541   3.554  0.7178  1.7251  0.0384
 1494SOL    HW216119   3.556   2.638   3.659 -1.0742 -0.2830  0.7892
 1495SOL     OW16120   1.544   3.013   5.385 -1.1733 -0.1147  0.6086
 1495SOL    HW116121   1.494   3.051   5.457 -2.9123 -2.7668  0.7595
 1495SOL    HW216122   1.626   2.984   5.426  0.4947  1.3545 -1.6902
 1496SOL     OW16123   3.431   0.829   6.867  0.2360 -0.1600  0.2536
 1496SOL    HW116124   3.420   0.886   6.943  1.4138  1.5420 -0.8541
 1496SOL    HW216125   3.393   0.883   6.797 -1.3410  0.5645  1.6922
 1497SOL     OW16126   3.896   2.159   5.138  0.8118  0.4161  0.0186
 1497SOL    HW116127   3.868   2.213   5.064  2.1787 -0.0821 -0.8516
 1497SOL    HW216128   3.927   2.078   5.098  2.8373  1.1110  0.1684
 1498SOL     OW16129   4.590   0.775   5.588  0.4410 -0.1038 -0.1934
 1498SOL    HW116130   4.541   0.726   5.521  0.2240  0.7573 -0.6648
 1498SOL    HW216131   4.601   0.694   5.637  0.3245 -0.5269 -0.8516
 1499SOL     OW16132   1.978   2.330   7.982  0.1460  0.0060 -0.4345
 1499SOL    HW116133   1.926   2.406   7.954 -0.9295 -0.4952  0.1823
 1499SOL    HW216134   1.951   2.314   8.073  3.0147 -0.9539  0.2278
 1500SOL     OW16135   3.824   3.903   3.147  0.7111 -0.6042 -0.5168
 1500SOL    HW116136   3.862   3.927   3.063 -2.2690  1.0614 -1.3912
 1500SOL    HW216137   3.812   3.808   3.138  1.1335 -0.6634 -0.4530
 1501SOL     OW16138   4.732   1.241   1.902 -0.0490  0.3687  0.0145
 1501SOL    HW116139   0.070   1.179   1.888  1.4762  2.0724  0.4236
 1501SOL    HW216140   4.666   1.180   1.934 -0.7494  1.4061  0.5467
 1502SOL     OW16141   3.632   2.410  12.525  0.4830 -0.5315 -0.0924
 1502SOL    HW116142   3.663   2.458  12.602  0.3308  0.5432 -0.6929
 1502SOL    HW216143   3.703   2.356  12.491 -0.4385 -1.9211  0.1977
 1503SOL     OW16144   1.130   1.479   8.623  0.1035 -0.7182  0.3206
 1503SOL    HW116145   1.127   1.436   8.709 -0.1629  1.2115  1.2876
 1503SOL    HW216146   1.114   1.406   8.564  1.9062 -1.2880  0.5254
 1504SOL     OW16147   3.871   2.948  16.637 -0.0263  0.0588 -0.4380
 1504SOL    HW116148   3.874   3.012  16.566  0.3609  0.2825 -0.2189
 1504SOL    HW216149   3.962   2.957  16.664  0.2374 -0.6622 -1.0699
 1505SOL     OW16150   1.211   1.283  13.336  0.2272 -0.1910  0.4388
 1505SOL    HW116151   1.292   1.310  13.292  0.8606 -1.0922  1.0771
 1505SOL    HW216152   1.152   1.338  13.283  1.1257  1.9751  1.7163
 1506SOL     OW16153   4.475   0.785  16.318  0.0912 -0.8055  0.0666
 1506SOL    HW116154   4.494   0.781  16.412  2.3628  0.6173 -0.3454
 1506SOL    HW216155   4.442   0.874  16.307 -0.2108 -0.8762  0.4029
 1507SOL     OW16156   2.175   3.860  12.881 -0.6702  0.7233  0.1423
 1507SOL    HW116157   2.095   3.884  12.835 -0.9460  2.7776  1.6802
 1507SOL    HW216158   2.234   3.916  12.832 -0.6227 -1.5249 -2.3271
 1508SOL     OW16159   0.746   0.511  17.091  0.2387  0.0214  0.4907
 1508SOL    HW116160   0.793   0.580  17.137 -1.1451  0.4439  1.2577
 1508SOL    HW216161   0.736   0.554  17.006 -0.8127  1.8932  1.5485
 1509SOL     OW16162   2.897   1.613  10.677  0.0033  0.1997 -0.3898
 1509SOL    HW116163   2.814   1.579  10.708  0.4390  1.0456  1.7522
 1509SOL    HW216164   2.930   1.542  10.623 -1.4675 -1.1610  0.5141
 1510SOL     OW16165   1.679   3.998  16.573  0.3387 -0.0142 -0.2913
 1510SOL    HW116166   1.707   3.912  16.603 -2.3867 -1.1641 -1.0877
 1510SOL    HW216167   1.588   4.009  16.598  0.2742 -0.2150 -0.4383
 1511SOL     OW16168   0.716   0.016  11.206 -0.7708  0.2660  0.0574
 1511SOL    HW116169   0.647   0.023  11.272  0.6417  1.4411  1.3904
 1511SOL    HW216170   0.661   0.023  11.128  0.9234 -2.4065 -1.3835
 1512SOL     OW16171   0.629   4.297   9.304 -0.0989 -0.3131  0.0450
 1512SOL    HW116172   0.616   4.223   9.363  2.7236  0.4415  1.6132
 1512SOL    HW216173   0.539   4.323   9.286 -0.8188 -3.0663 -0.3586
 1513SOL     OW16174   3.571   2.859   4.835 -0.1648  0.0232 -0.4446
 1513SOL    HW116175   3.529   2.935   4.795 -2.4974 -0.6361  0.7857
 1513SOL    HW216176   3.659   2.897   4.839 -0.2185 -0.0880  1.6001
 1514SOL     OW16177   2.368   0.599   1.092 -0.3212 -0.0063 -0.1618
 1514SOL    HW116178   2.324   0.614   1.008 -0.7216 -2.2172 -0.3620
 1514SOL    HW216179   2.452   0.563   1.063 -0.9460 -0.4967 -1.3809
 1515SOL     OW16180   4.105   1.695   7.264 -0.4585 -0.4446 -0.1661
 1515SOL    HW116181   4.058   1.750   7.201  1.2858 -0.4365 -1.4673
 1515SOL    HW216182   4.080   1.728   7.350  0.5987 -0.0073 -0.0189
 1516SOL     OW16183   2.613   2.417   5.396 -0.0360  0.2168 -0.4451
 1516SOL    HW116184   2.666   2.339   5.379 -1.2306 -0.6919  0.0121
 1516SOL    HW216185   2.560   2.380   5.467  0.0284 -0.3896 -0.7157
 1517SOL     OW16186   3.582   1.443  12.503  0.0448 -0.3980 -0.0488
 1517SOL    HW116187   3.640   1.477  12.435 -1.1937  0.1146 -0.8404
 1517SOL    HW216188   3.598   1.350  12.485 -0.3414 -0.4978  0.1172
 1518SOL     OW16189   2.925   4.563   5.517 -0.4205 -0.4833 -0.1290
 1518SOL    HW116190   2.841   4.516   5.524  0.9153 -2.4658  2.6820
 1518SOL    HW216191   2.902   4.615   5.440 -0.3177 -0.4044 -0.1054
 1519SOL     OW16192   1.051   2.304   3.922 -0.2117  0.4738 -0.0903
 1519SOL    HW116193   1.067   2.210   3.930 -2.3460  0.4261  3.4668
 1519SOL    HW216194   1.140   2.336   3.906  0.0676 -0.1641  0.1819
 1520SOL     OW16195   3.108   0.867   4.150 -0.0859  0.7613 -0.4938
 1520SOL    HW116196   3.102   0.809   4.225  1.5658 -1.9538 -2.4692
 1520SOL    HW216197   3.184   0.836   4.101  0.8478  0.5258  1.1286
 1521SOL     OW16198   4.147   1.147   8.338  0.2906  0.4035  0.5666
 1521SOL    HW116199   4.060   1.182   8.314 -0.0981 -0.9282  0.0277
 1521SOL    HW216200   4.131   1.120   8.428  1.2728  0.0719  0.6394
 1522SOL     OW16201   3.116   4.047  14.621  0.3206 -0.0779  0.1079
 1522SOL    HW116202   3.149   4.134  14.642 -0.5606 -0.1380  1.7068
 1522SOL    HW216203   3.022   4.062  14.616  0.3359  0.5236  1.7776
 1523SOL     OW16204   2.956   4.064   2.470 -0.1379  0.2394 -0.4038
 1523SOL    HW116205   2.874   4.015   2.483  1.2434 -1.3000  2.4359
 1523SOL    HW216206   3.014   4.015   2.527  0.6534  2.0553  0.3483
 1524SOL     OW16207   4.060   1.581   4.200 -0.2796 -0.0204 -0.0232
 1524SOL    HW116208   4.039   1.672   4.180  2.0160  0.7963  1.3458
 1524SOL    HW216209   4.037   1.546   4.113 -0.2464 -0.7871  0.2747
 1525SOL     OW16210   4.563   3.823  15.911  0.7140 -0.2333  0.3591
 1525SOL    HW116211   4.596   3.864  15.991  1.8671 -1.8445  0.7111
 1525SOL    HW216212   4.470   3.835  15.927  0.7935  0.9400 -0.1038
 1526SOL     OW16213   0.683   2.047  17.074  0.1683  0.2151 -0.7552
 1526SOL    HW116214   0.771   2.020  17.047  0.9618  2.0307 -0.0248
 1526SOL    HW216215   0.666   1.988  17.147 -0.4664 -0.8401 -1.7602
 1527SOL     OW16216   4.584   3.602   3.724 -0.1349  0.3766 -0.3259
 1527SOL    HW116217   4.519   3.569   3.787  1.2536  0.3465  1.0823
 1527SOL    HW216218   4.563   3.562   3.640  3.8240 -0.8836 -0.6796
 1528SOL     OW16219   1.647   4.731   8.528  0.2260 -0.2885 -0.5351
 1528SOL    HW116220   1.691   4.664   8.477  1.3091 -0.1030  0.1440
 1528SOL    HW216221   1.568   0.003   8.474  0.2674  0.7477 -0.4747
 1529SOL     OW16222   1.051   2.673   4.861 -0.0095 -0.3255  0.0944
 1529SOL    HW116223   1.105   2.598   4.836 -2.5612 -1.7630 -1.0708
 1529SOL    HW216224   1.001   2.635   4.933 -2.1009  1.5655 -0.3484
 1530SOL     OW16225   3.778   3.072   2.270  0.1130  0.5822  0.4211
 1530SOL    HW116226   3.861   3.118   2.286 -0.8950  3.1698 -1.8031
 1530SOL    HW216227   3.722   3.145   2.242 -0.5927 -0.8999 -2.0198
 1531SOL     OW16228   2.157   1.069   4.537 -0.2452 -0.5288  0.0549
 1531SOL    HW116229   2.099   0.994   4.520  2.9259 -2.7525 -0.9542
 1531SOL    HW216230   2.234   1.031   4.581 -0.1501  1.0883  1.2791
 1532SOL     OW16231   3.109   0.053   8.270  0.2359 -0.1961 -0.4204
 1532SOL    HW116232   3.029   0.067   8.321  0.2563  1.0601 -0.7379
 1532SOL    HW216233   3.088   0.079   8.181  1.4321  0.2117 -0.5859
 1533SOL     OW16234   3.468   0.346   7.907 -0.0490  0.3527  0.5413
 1533SOL    HW116235   3.563   0.354   7.914 -0.0285  1.0566 -0.3935
 1533SOL    HW216236   3.457   0.383   7.819 -1.2869  1.4741  1.1590
 1534SOL     OW16237   0.992   0.913   3.603  0.5537 -0.0373  0.2545
 1534SOL    HW116238   1.086   0.912   3.585  0.1519  0.1946 -1.8570
 1534SOL    HW216239   0.992   0.854   3.678  0.7181 -0.4291 -0.0586
 1535SOL     OW16240   0.868   1.961  14.483  0.9055 -0.1248 -0.1521
 1535SOL    HW116241   0.827   1.894  14.538 -1.0387  1.5094  0.3965
 1535SOL    HW216242   0.798   1.994  14.426  0.0307 -0.9634  0.4215
 1536SOL     OW16243   4.312   0.029  14.440 -0.1319 -0.1753 -0.1785
 1536SOL    HW116244   4.279   4.677  14.464 -0.4444 -0.3380 -1.1629
 1536SOL    HW216245   4.316   0.070  14.526 -0.9754  1.1257 -0.7736
 1537SOL     OW16246   3.415   0.719   9.312 -0.1891 -0.2373 -0.4174
 1537SOL    HW116247   3.372   0.710   9.398 -1.9710 -0.6046 -1.3526
 1537SOL    HW216248   3.423   0.630   9.278 -2.1947 -1.0956  1.3451
 1538SOL     OW16249   3.516   3.781   4.068 -0.1977  0.2029 -0.3911
 1538SOL    HW116250   3.537   3.782   3.975  0.2447 -0.0414 -0.2963
 1538SOL    HW216251   3.570   3.856   4.095  1.6987 -1.0723 -0.5958
 1539SOL     OW16252   0.055   2.612   1.556  0.2062 -0.2474 -0.4292
 1539SOL    HW116253   0.056   2.540   1.493  0.4375 -0.4515 -0.1941
 1539SOL    HW216254   0.015   2.566   1.630  0.0943  2.1384  0.9963
 1540SOL     OW16255   4.067   2.816   7.584 -0.5282 -0.1999 -1.6003
 1540SOL    HW116256   4.043   2.753   7.652  1.1234 -0.5077 -1.3093
 1540SOL    HW216257   4.119   2.883   7.627  0.0075 -1.3066 -0.5270
 1541SOL     OW16258   3.394   2.226  15.075 -0.1651 -0.7933  0.0058
 1541SOL    HW116259   3.360   2.293  15.017  2.6022  1.1671  0.6780
 1541SOL    HW216260   3.433   2.169  15.008 -0.8801 -1.8571  0.4811
 1542SOL     OW16261   0.194   0.702   3.577  0.5618 -0.3265 -0.1085
 1542SOL    HW116262   0.111   0.655   3.585 -1.2065  2.6861 -0.7772
 1542SOL    HW216263   0.174   0.787   3.538  0.3156  0.1655  1.1029
 1543SOL     OW16264   1.025   1.203   0.207 -0.2152  0.4885 -0.1872
 1543SOL    HW116265   1.079   1.260   0.261 -1.0114  0.4895  0.6107
 1543SOL    HW216266   1.070   1.180   0.125  0.0067  0.2407  0.0056
 1544SOL     OW16267   3.171   4.671  10.247 -0.2132  0.3640 -0.5593
 1544SOL    HW116268   3.210   4.649  10.331 -1.7023  1.3894  0.3906
 1544SOL    HW216269   3.136   0.024  10.263 -0.5845  0.0190  0.5128
 1545SOL     OW16270   1.338   2.192  17.329 -0.5010  0.0766 -0.0472
 1545SOL    HW116271   1.397   2.141  17.385  0.0267  0.0732 -0.6111
 1545SOL    HW216272   1.352   2.278  17.368  0.9096  0.0395 -0.4570
 1546SOL     OW16273   0.033   3.776  11.424  0.0153 -0.3246  0.0244
 1546SOL    HW116274   0.048   3.686  11.451  0.0991 -0.8823 -1.8398
 1546SOL    HW216275   0.024   3.826  11.505 -3.1446 -1.8293  0.6155
 1547SOL     OW16276   1.857   0.598   0.359  0.4608  0.1561 -0.0664
 1547SOL    HW116277   1.817   0.540   0.294  0.5052  0.7103 -0.5887
 1547SOL    HW216278   1.944   0.619   0.325  1.0994 -0.3327  1.2760
 1548SOL     OW16279   3.334   2.586   5.191  0.3783 -0.0541 -0.0859
 1548SOL    HW116280   3.350   2.604   5.283  0.1506  1.9945 -0.4469
 1548SOL    HW216281   3.254   2.636   5.173  1.1056  0.6118 -1.5093
 1549SOL     OW16282   3.176   0.128   5.246  0.0842 -0.7018 -0.0716
 1549SOL    HW116283   3.176   0.073   5.324 -1.9981 -0.7351 -0.1040
 1549SOL    HW216284   3.109   0.194   5.264 -0.8259 -2.0756  1.5052
 1550SOL     OW16285   2.320   2.074  10.346  0.6039 -0.0783 -0.0160
 1550SOL    HW116286   2.326   2.033  10.260 -0.8527 -1.4826  0.5613
 1550SOL    HW216287   2.406   2.053  10.383 -0.0461 -3.1299 -0.2879
 1551SOL     OW16288   4.127   4.526   7.686 -0.6142  0.5372  0.2187
 1551SOL    HW116289   4.033   4.532   7.666 -0.5500  1.4516  0.1974
 1551SOL    HW216290   4.153   4.615   7.663  1.9833 -0.3325 -0.2677
 1552SOL     OW16291   1.737   0.332  16.648  0.4256 -0.5189  0.5925
 1552SOL    HW116292   1.824   0.363  16.673  1.6585 -1.5283 -2.4591
 1552SOL    HW216293   1.761   0.287  16.567 -0.8002 -0.6710  0.3098
 1553SOL     OW16294   3.849   0.955   8.390  0.3260  0.0581 -0.2372
 1553SOL    HW116295   3.936   0.914   8.391  1.4472  2.4161 -1.6309
 1553SOL    HW216296   3.798   0.878   8.365  0.6704 -0.1216 -0.3962
 1554SOL     OW16297   2.652   3.652   8.660  0.2946 -0.1145  0.6014
 1554SOL    HW116298   2.711   3.703   8.606 -1.2592  0.1779 -0.8138
 1554SOL    HW216299   2.586   3.714   8.693 -1.2752 -1.0441 -0.7640
 1555SOL     OW16300   2.464   1.851   7.628  0.2715 -0.2125 -0.0201
 1555SOL    HW116301   2.507   1.914   7.687  3.6320  0.9478 -3.7175
 1555SOL    HW216302   2.446   1.782   7.691  1.3665  0.5723  1.1547
 1556SOL     OW16303   0.956   3.320   3.539  0.0453  0.6247  0.0087
 1556SOL    HW116304   0.866   3.294   3.558  0.1212  0.7671  0.5654
 1556SOL    HW216305   0.944   3.400   3.488  1.6040  0.7884 -0.0908
 1557SOL     OW16306   4.419   2.257   7.466 -0.0355 -0.5019  0.7057
 1557SOL    HW116307   4.440   2.299   7.383  2.7536 -0.6311  1.3280
 1557SOL    HW216308   4.505   2.232   7.502  0.2030 -2.7399 -1.3638
 1558SOL     OW16309   3.302   3.734   3.635  0.5211 -0.2333 -0.0450
 1558SOL    HW116310   3.326   3.746   3.543  2.0855  0.0705  0.4080
 1558SOL    HW216311   3.295   3.638   3.635  0.5880 -0.2399  2.2866
 1559SOL     OW16312   3.034   4.685   6.934  0.2013 -0.1892 -0.0232
 1559SOL    HW116313   3.001   0.022   6.988 -0.2759  0.4602 -1.1814
 1559SOL    HW216314   3.120   4.678   6.975  0.6663 -0.7308 -1.0880
 1560SOL     OW16315   3.924   3.493   6.058 -0.5366  0.0555  0.0182
 1560SOL    HW116316   3.888   3.498   5.970 -3.5714  1.2627  1.3236
 1560SOL    HW216317   3.961   3.405   6.056 -1.2736 -0.2319 -1.4910
 1561SOL     OW16318   2.630   2.677  14.728 -0.0062  0.1560 -0.3180
 1561SOL    HW116319   2.562   2.700  14.791 -0.2583 -0.1985 -0.4618
 1561SOL    HW216320   2.683   2.625  14.787  0.6636  1.5636  0.3303
 1562SOL     OW16321   1.776   3.891   9.615  0.3128 -0.4263 -0.0754
 1562SOL    HW116322   1.815   3.892   9.527  0.5584 -0.4824  0.0324
 1562SOL    HW216323   1.703   3.833   9.594 -1.2942  1.1199  1.2341
 1563SOL     OW16324   4.599   3.506   7.887 -0.2208  0.0006 -0.6447
 1563SOL    HW116325   4.682   3.495   7.840 -0.1723 -1.6390 -0.1692
 1563SOL    HW216326   4.611   3.582   7.944 -1.7878 -1.2522  1.3874
 1564SOL     OW16327   2.158   3.782   5.146  0.4921  0.2677  0.1619
 1564SOL    HW116328   2.098   3.829   5.205 -0.1755 -0.9340  0.4410
 1564SOL    HW216329   2.179   3.847   5.080 -2.2795 -1.6849 -2.6384
 1565SOL     OW16330   0.085   2.504  14.151  0.0110 -0.0670 -0.5591
 1565SOL    HW116331   0.044   2.524  14.067  0.3589 -0.2964 -0.7842
 1565SOL    HW216332   0.173   2.475  14.126 -1.1525 -1.0255 -3.6027
 1566SOL     OW16333   1.435   3.227   4.641  0.2558 -0.8987 -0.2315
 1566SOL    HW116334   1.477   3.303   4.602  1.0972 -0.6424  1.1769
 1566SOL    HW216335   1.405   3.265   4.724  0.2780  0.9108 -1.0560
 1567SOL     OW16336   3.653   0.773  17.251  0.4346  0.7576  0.1217
 1567SOL    HW116337   3.646   0.837  17.180  1.2446 -0.9554 -1.5290
 1567SOL    HW216338   3.603   0.701  17.212  1.5658  0.8815 -1.5715
 1568SOL     OW16339   2.687   1.905   2.119 -0.0806  0.2318 -0.4734
 1568SOL    HW116340   2.598   1.889   2.087  0.5990  1.1132 -2.7824
 1568SOL    HW216341   2.666   1.964   2.192  0.9048 -0.0797  0.0646
 1569SOL     OW16342   2.427   0.436   4.877  0.1500 -0.0006 -0.2019
 1569SOL    HW116343   2.457   0.345   4.884  0.3308 -0.0893 -2.0093
 1569SOL    HW216344   2.350   0.434   4.820  1.0010 -2.4806 -1.2713
 1570SOL     OW16345   1.337   1.196   5.013  0.3188 -0.6261  0.0449
 1570SOL    HW116346   1.421   1.155   5.037  1.8192  1.8581 -0.9778
 1570SOL    HW216347   1.285   1.116   5.004  1.7838 -1.9238  2.7308
 1571SOL     OW16348   1.703   2.580   6.593 -0.1433  0.0835  0.4489
 1571SOL    HW116349   1.636   2.548   6.653  1.2746 -0.8622  1.5235
 1571SOL    HW216350   1.686   2.673   6.609  0.2396  0.3269 -0.5768
 1572SOL     OW16351   3.401   2.784   3.968 -0.5126 -0.4589 -0.0524
 1572SOL    HW116352   3.453   2.797   4.047  1.0911 -0.5011 -1.1108
 1572SOL    HW216353   3.323   2.734   3.993 -1.4615  0.5206 -1.0673
 1573SOL     OW16354   3.000   1.102   6.365  1.1376 -0.3489 -0.4023
 1573SOL    HW116355   2.947   1.067   6.293 -1.0668  1.4125  0.3788
 1573SOL    HW216356   2.954   1.068   6.441 -1.0194  0.4471 -1.3687
 1574SOL     OW16357   2.241   4.457   8.333 -0.0656  0.5993 -0.5035
 1574SOL    HW116358   2.335   4.440   8.343 -0.4005 -1.2711 -0.6501
 1574SOL    HW216359   2.242   4.552   8.348 -0.6135  0.6161 -0.5876
 1575SOL     OW16360   4.083   4.464   4.110  0.1051 -0.0728 -0.1238
 1575SOL    HW116361   4.039   4.445   4.027 -0.6571 -0.9457  0.4801
 1575SOL    HW216362   4.008   4.503   4.155 -0.3854 -0.6537 -0.4487
 1576SOL     OW16363   4.029   3.811   0.364  0.6581 -0.3162  0.2987
 1576SOL    HW116364   4.082   3.849   0.434 -0.8781  1.6365  0.4120
 1576SOL    HW216365   3.954   3.871   0.363 -1.9688 -3.5606 -0.1316
 1577SOL     OW16366   4.234   1.072  12.583  0.0614  0.0694  0.1123
 1577SOL    HW116367   4.236   1.092  12.489 -1.4170 -1.4544 -0.2327
 1577SOL    HW216368   4.143   1.042  12.585  0.5351 -1.3126  0.9968
 1578SOL     OW16369   0.628   2.319  10.567 -0.1219 -0.1081  0.2674
 1578SOL    HW116370   0.692   2.331  10.637  0.9085  1.4723 -0.9377
 1578SOL    HW216371   0.587   2.237  10.595 -0.1268 -0.6145 -1.2343
 1579SOL     OW16372   0.524   3.666  16.783 -0.6762  0.9175  0.4288
 1579SOL    HW116373   0.579   3.716  16.723 -1.3804  1.0332 -0.1122
 1579SOL    HW216374   0.488   3.737  16.837 -1.5833  0.9417 -0.2165
 1580SOL     OW16375   1.038   4.409   4.366 -0.5141 -0.0789 -0.3497
 1580SOL    HW116376   1.088   4.422   4.447 -0.4052  1.3638 -0.6412
 1580SOL    HW216377   0.988   4.339   4.407 -0.0715 -0.1720  0.0367
 1581SOL     OW16378   0.193   3.396   8.306 -0.2505  0.1225  0.1221
 1581SOL    HW116379   0.127   3.343   8.261 -0.0186  0.5979 -0.7697
 1581SOL    HW216380   0.134   3.440   8.367 -1.5247  0.6777 -1.5177
 1582SOL     OW16381   1.186   4.132   6.114 -0.0639  0.3787  0.0509
 1582SOL    HW116382   1.187   4.128   6.210  1.7097 -1.4985 -0.0325
 1582SOL    HW216383   1.248   4.059   6.107  0.5423  0.8004  1.0450
 1583SOL     OW16384   0.544   2.863  16.692  0.1443  0.5449  0.2180
 1583SOL    HW116385   0.484   2.789  16.694  1.0622 -0.1939  0.9289
 1583SOL    HW216386   0.578   2.865  16.782  0.6852 -1.5118  0.0704
 1584SOL     OW16387   2.961   2.386   1.893 -0.2065  0.5351 -0.3506
 1584SOL    HW116388   2.943   2.414   1.983  1.8662  1.4580 -0.2280
 1584SOL    HW216389   3.041   2.426   1.859  0.0946  0.3513  0.1457
 1585SOL     OW16390   3.996   0.555   1.043  0.0273  0.2864  0.3796
 1585SOL    HW116391   3.946   0.491   1.094  0.5597 -1.3677 -1.1552
 1585SOL    HW216392   3.930   0.577   0.978 -0.8377 -1.1014  0.7814
 1586SOL     OW16393   4.026   1.093   7.465 -0.8222 -0.1040  0.2213
 1586SOL    HW116394   3.999   1.142   7.387 -0.6304 -0.2960  0.0341
 1586SOL    HW216395   4.075   1.161   7.511  0.4690  0.1222 -1.4942
 1587SOL     OW16396   1.302   3.551  11.676 -0.2521 -0.1508  0.5032
 1587SOL    HW116397   1.314   3.619  11.610  0.6845 -1.7053 -0.9239
 1587SOL    HW216398   1.278   3.606  11.751 -2.5018 -0.5504  0.0704
 1588SOL     OW16399   3.262   1.954   7.015 -0.4670 -0.3172  0.1637
 1588SOL    HW116400   3.278   2.027   6.955 -0.4582 -0.0102  0.5409
 1588SOL    HW216401   3.314   1.986   7.089  0.1971 -1.1044  0.0372
 1589SOL     OW16402   0.909   4.052   4.766  0.1202 -0.2973  0.2024
 1589SOL    HW116403   0.838   3.987   4.766 -1.2288  1.1433 -1.5412
 1589SOL    HW216404   0.973   4.002   4.817  0.8083 -0.5869 -0.9252
 1590SOL     OW16405   2.502   0.419   2.634  0.1575 -0.0760 -0.5500
 1590SOL    HW116406   2.416   0.431   2.592  0.2314  1.8301 -0.1724
 1590SOL    HW216407   2.511   0.324   2.629 -2.2931 -0.3499  0.6666
 1591SOL     OW16408   3.035   0.228   4.505 -0.1559  0.8696 -0.4384
 1591SOL    HW116409   2.962   0.290   4.500  0.4729  1.8111  1.8759
 1591SOL    HW216410   2.989   0.151   4.472 -0.0777 -0.2414  2.0240
 1592SOL     OW16411   3.206   1.191   6.544 -0.0067 -0.3951 -0.4545
 1592SOL    HW116412   3.134   1.243   6.581 -1.1761 -2.4226  0.1020
 1592SOL    HW216413   3.156   1.140   6.481  1.1099  0.9829 -2.4549
 1593SOL     OW16414   4.590   1.038   8.404 -0.2437  0.1141  0.6410
 1593SOL    HW116415   4.532   1.113   8.390 -0.2631  0.3393  1.9612
 1593SOL    HW216416   4.557   0.980   8.336 -1.0410  0.4706  0.7290
 1594SOL     OW16417   1.797   1.070   3.018 -0.3042  0.3946 -0.1448
 1594SOL    HW116418   1.786   1.041   2.927 -0.1749 -0.5121  0.1218
 1594SOL    HW216419   1.792   1.165   3.006 -1.2840  0.2083 -1.1614
 1595SOL     OW16420   3.212   2.608  12.388  0.1253  0.2186  0.3269
 1595SOL    HW116421   3.267   2.534  12.413 -2.0099  0.2147  5.0869
 1595SOL    HW216422   3.279   2.666  12.352  1.6603 -0.2117  2.4567
 1596SOL     OW16423   0.122   2.980   1.609 -0.7669  0.1159  0.5660
 1596SOL    HW116424   0.030   2.967   1.584 -0.4524 -2.3206  0.6533
 1596SOL    HW216425   0.159   2.905   1.563 -0.5862  0.7977 -0.3875
 1597SOL     OW16426   2.642   2.013  11.593  0.8908 -0.4322 -0.0184
 1597SOL    HW116427   2.699   1.950  11.637  0.0053 -1.0034  0.3243
 1597SOL    HW216428   2.559   1.965  11.601 -0.2832  1.2550 -2.0016
 1598SOL     OW16429   4.127   3.853   1.141 -0.1852  0.0322 -0.9608
 1598SOL    HW116430   4.066   3.795   1.095 -1.0348 -0.0685  0.2835
 1598SOL    HW216431   4.121   3.928   1.082  0.2904 -0.0137 -1.0708
 1599SOL     OW16432   3.917   3.369   8.237 -0.3360 -0.5484  0.0252
 1599SOL    HW116433   3.939   3.311   8.165  0.5300  0.5467 -0.5789
 1599SOL    HW216434   3.824   3.389   8.221  0.1626  0.6848 -1.2700
 1600SOL     OW16435   4.120   3.908   8.111 -0.5153  0.2936 -0.5571
 1600SOL    HW116436   4.027   3.931   8.119 -0.8345 -1.0903 -0.3880
 1600SOL    HW216437   4.107   3.815   8.095 -2.5500  0.7169 -1.4338
 1601SOL     OW16438   3.026   0.398   8.707 -0.2413 -0.1784 -0.0234
 1601SOL    HW116439   3.113   0.379   8.671 -0.7808  0.8417 -1.8424
 1601SOL    HW216440   2.966   0.377   8.636  0.7462 -0.7525 -0.6986
 1602SOL     OW16441   3.802   1.229   2.945  0.3582 -0.6177 -0.0343
 1602SOL    HW116442   3.799   1.197   3.036  0.6774 -1.1244 -0.2008
 1602SOL    HW216443   3.743   1.165   2.905  0.3202 -0.5782 -0.0409
 1603SOL     OW16444   2.828   3.797  13.466  0.4648  0.4586  0.5479
 1603SOL    HW116445   2.836   3.862  13.536 -2.1372 -0.8671  2.0845
 1603SOL    HW216446   2.732   3.794  13.458  0.4297 -2.3376  1.9614
 1604SOL     OW16447   2.961   0.852   7.258 -0.1009 -0.1966  0.1756
 1604SOL    HW116448   2.994   0.903   7.184 -1.3378  1.3051  0.6420
 1604SOL    HW216449   2.908   0.787   7.212  0.2100  0.3964 -1.0324
 1605SOL     OW16450   1.047   3.825   5.633  0.3907  0.0697  0.6219
 1605SOL    HW116451   1.038   3.915   5.665  1.4827  0.4435 -0.1441
 1605SOL    HW216452   1.033   3.833   5.539 -0.2769 -0.6370  0.6523
 1606SOL     OW16453   1.327   4.475  15.449 -0.0284  0.2481  0.0307
 1606SOL    HW116454   1.396   4.483  15.515  0.4920  1.3187 -0.6362
 1606SOL    HW216455   1.328   4.382  15.430 -0.3781 -0.0532  1.4910
 1607SOL     OW16456   1.745   1.459   6.321  0.5001 -0.2901 -0.5357
 1607SOL    HW116457   1.770   1.500   6.239  1.1824 -2.9242 -1.6485
 1607SOL    HW216458   1.676   1.398   6.294 -0.0876 -0.1013  0.5233
 1608SOL     OW16459   0.969   1.768   1.137 -0.8698 -0.4975 -0.1494
 1608SOL    HW116460   0.914   1.776   1.215 -0.0363 -1.3980  0.5365
 1608SOL    HW216461   0.946   1.679   1.110  1.1972 -0.8798 -0.6289
 1609SOL     OW16462   3.512   4.152  15.560 -0.1221 -0.1600 -0.3499
 1609SOL    HW116463   3.580   4.156  15.494 -0.1858 -2.4655 -0.5523
 1609SOL    HW216464   3.436   4.152  15.502 -0.3581  0.0527 -0.0405
 1610SOL     OW16465   4.301   3.887   8.337  0.5020 -0.0060 -0.1623
 1610SOL    HW116466   4.232   3.917   8.278  0.3807 -0.2877 -0.1606
 1610SOL    HW216467   4.256   3.819   8.386 -0.9130  0.0658 -1.3620
 1611SOL     OW16468   1.693   0.022   9.334 -0.4302 -0.0489  0.3843
 1611SOL    HW116469   1.630   4.713   9.277 -1.0251 -1.1681  1.8827
 1611SOL    HW216470   1.627   0.034   9.403 -1.7974 -0.4677 -0.8430
 1612SOL     OW16471   3.490   1.103   4.214  0.4850 -0.0556 -0.2398
 1612SOL    HW116472   3.439   1.148   4.281  0.7796  0.0009 -0.0510
 1612SOL    HW216473   3.455   1.137   4.132 -0.5303  0.7220  0.5198
 1613SOL     OW16474   1.727   1.522  12.749 -0.2633 -0.0291 -0.0805
 1613SOL    HW116475   1.803   1.503  12.805 -0.9216  0.2310  0.9049
 1613SOL    HW216476   1.746   1.477  12.667 -1.4342 -0.4051 -0.1479
 1614SOL     OW16477   1.598   4.200   4.539  0.3091  0.4444  1.0390
 1614SOL    HW116478   1.645   4.124   4.503  1.0049  2.2202 -1.7729
 1614SOL    HW216479   1.529   4.154   4.586 -0.7015  1.0085  0.0919
 1615SOL     OW16480   1.097   1.299   7.814  0.5057  0.2448  0.3796
 1615SOL    HW116481   1.023   1.348   7.779  1.8135  2.6970  1.0718
 1615SOL    HW216482   1.043   1.226   7.846 -1.3654  1.3141 -0.3174
 1616SOL     OW16483   1.562   0.760   5.395 -0.0581 -0.6558 -0.1695
 1616SOL    HW116484   1.608   0.715   5.325  1.0953  1.7390 -0.9198
 1616SOL    HW216485   1.470   0.735   5.379  0.4586 -1.9075 -1.1651
 1617SOL     OW16486   4.609   2.258  13.988 -0.7306 -0.2158  0.0031
 1617SOL    HW116487   4.600   2.353  13.999 -1.0195 -0.5582  2.6496
 1617SOL    HW216488   4.676   2.253  13.920  0.7897 -1.0167  1.5628
 1618SOL     OW16489   1.067   0.328   8.774  0.1869 -0.0271 -0.0467
 1618SOL    HW116490   0.982   0.291   8.796 -0.1026  0.4032 -0.4390
 1618SOL    HW216491   1.127   0.263   8.811  0.7307  0.1321 -0.6239
 1619SOL     OW16492   0.619   4.422   6.724  0.0543  0.5233  0.6771
 1619SOL    HW116493   0.569   4.436   6.644 -0.4796 -0.2218  0.8859
 1619SOL    HW216494   0.687   4.362   6.692 -0.9130 -0.3003  0.2001
 1620SOL     OW16495   0.156   0.030  17.720  0.0299 -0.6117 -0.1094
 1620SOL    HW116496   0.203   0.065   0.057  0.9853 -2.8055  0.2982
 1620SOL    HW216497   0.133   0.109  17.671  0.5995  0.8420  1.9932
 1621SOL     OW16498   3.284   3.961   1.874 -1.2667 -0.1828  0.3656
 1621SOL    HW116499   3.209   4.018   1.888 -0.8351  0.7900 -1.2748
 1621SOL    HW216500   3.240   3.876   1.872  0.8476 -1.3458  2.2438
 1622SOL     OW16501   1.689   4.644   5.540  0.8468 -0.6940 -0.0629
 1622SOL    HW116502   1.758   4.696   5.583 -0.7634 -1.1423  3.0850
 1622SOL    HW216503   1.638   4.718   5.508  2.4352 -0.4177 -1.9888
 1623SOL     OW16504   1.902   4.681   6.346 -0.4880  0.7114  0.4978
 1623SOL    HW116505   1.969   4.732   6.300  0.8626 -1.6083 -0.0635
 1623SOL    HW216506   1.823   4.734   6.332 -1.3186 -0.2878  1.4442
 1624SOL     OW16507   0.879   2.053  16.655 -0.3825 -0.6651  0.2827
 1624SOL    HW116508   0.831   2.125  16.613  0.4674  0.3669  1.0647
 1624SOL    HW216509   0.961   2.061  16.605  0.2932 -0.2502  1.4513
 1625SOL     OW16510   2.261   2.011  10.939 -0.1085 -0.1440  0.0278
 1625SOL    HW116511   2.305   1.954  11.003  1.1336  0.5658 -0.1995
 1625SOL    HW216512   2.270   2.102  10.966  2.1169 -0.3489  0.0156
 1626SOL     OW16513   1.148   2.316   7.777  0.3198 -0.1404  0.1947
 1626SOL    HW116514   1.125   2.304   7.685  0.9374 -1.6909  0.2566
 1626SOL    HW216515   1.072   2.361   7.815 -0.3857 -0.9060 -0.3170
 1627SOL     OW16516   1.309   1.648   9.500 -0.1084 -0.1166  0.0294
 1627SOL    HW116517   1.255   1.719   9.537 -0.4650 -0.0496 -0.6182
 1627SOL    HW216518   1.344   1.605   9.578 -0.4828 -1.2923 -0.4459
 1628SOL     OW16519   2.771   4.034  11.892  0.1918  0.1582 -0.2994
 1628SOL    HW116520   2.773   3.979  11.813 -0.8030  0.2629 -0.3973
 1628SOL    HW216521   2.808   4.114  11.854 -0.0872  1.1421  1.5120
 1629SOL     OW16522   1.948   4.350   5.955 -1.1397 -0.4900 -0.2205
 1629SOL    HW116523   1.936   4.260   5.923  0.9998 -1.1860  0.9926
 1629SOL    HW216524   1.861   4.390   5.949 -1.2308 -0.9872 -2.2412
 1630SOL     OW16525   2.030   3.268  13.857  0.0517  0.2710  0.0850
 1630SOL    HW116526   1.993   3.318  13.930 -0.7994  0.0463 -0.2027
 1630SOL    HW216527   1.976   3.304  13.787 -0.3783  1.0172  0.7997
 1631SOL     OW16528   1.742   2.058   5.908  0.6287 -0.0482  0.2812
 1631SOL    HW116529   1.702   1.998   5.845  0.9645 -0.0394  0.0599
 1631SOL    HW216530   1.735   2.142   5.862 -0.9472 -0.2193  0.2045
 1632SOL     OW16531   4.261   1.230  11.742 -0.3593 -0.4936 -0.6708
 1632SOL    HW116532   4.280   1.143  11.705 -1.4343 -2.4688  3.4481
 1632SOL    HW216533   4.212   1.212  11.822  1.8004 -2.0548  0.2841
 1633SOL     OW16534   2.350   4.134   7.373  0.3327  0.3222 -0.4696
 1633SOL    HW116535   2.443   4.113   7.361  0.1855 -0.5741 -0.0601
 1633SOL    HW216536   2.353   4.152   7.467  0.1116  2.8099 -0.9277
 1634SOL     OW16537   0.111   1.636   0.629  0.2352  0.2481 -0.3148
 1634SOL    HW116538   0.085   1.548   0.654  0.6874  0.1456 -0.2016
 1634SOL    HW216539   0.159   1.676   0.702 -0.9970  0.8802  0.1472
 1635SOL     OW16540   0.804   3.174   3.058 -0.3324  0.3813 -0.1990
 1635SOL    HW116541   0.799   3.251   3.114  1.6185 -0.9115  1.7886
 1635SOL    HW216542   0.742   3.113   3.099  2.1276 -0.4209  2.3331
 1636SOL     OW16543   0.275   3.514   5.674  0.0440  0.1602  0.2259
 1636SOL    HW116544   0.198   3.514   5.616  0.7312 -0.1446 -0.6835
 1636SOL    HW216545   0.341   3.568   5.629 -1.3698  0.0217 -2.0336
 1637SOL     OW16546   2.999   0.475   0.704  0.2114 -0.4592 -0.3902
 1637SOL    HW116547   2.954   0.420   0.767 -0.6904  0.2149 -0.4363
 1637SOL    HW216548   3.079   0.488   0.756  1.0035 -2.5608 -1.0866
 1638SOL     OW16549   1.402   3.976   3.669  0.1923  0.6321  0.0566
 1638SOL    HW116550   1.367   3.898   3.714 -0.0065  0.7975  0.1887
 1638SOL    HW216551   1.469   4.010   3.729  1.0691  1.4690 -1.4017
 1639SOL     OW16552   4.090   3.580   8.194 -0.0654  0.1051  0.1649
 1639SOL    HW116553   4.054   3.632   8.266 -3.1863 -1.4868 -0.2876
 1639SOL    HW216554   4.060   3.490   8.205  2.5009 -0.7583  0.2536
 1640SOL     OW16555   2.005   0.170   5.024  0.0858  0.0813  0.2352
 1640SOL    HW116556   1.940   0.100   5.025 -1.0516  1.1629  1.7626
 1640SOL    HW216557   1.986   0.205   4.937 -0.6010 -0.4776  0.1673
 1641SOL     OW16558   1.735   3.001  16.826 -0.1674 -0.5111  0.4404
 1641SOL    HW116559   1.692   3.028  16.745  1.9752 -1.1737 -0.9200
 1641SOL    HW216560   1.749   3.085  16.870  2.4108 -0.7120 -0.0004
 1642SOL     OW16561   4.113   2.249   7.460  0.5553 -0.1215  0.1447
 1642SOL    HW116562   4.040   2.304   7.489 -1.9435 -3.4050  0.0681
 1642SOL    HW216563   4.146   2.292   7.381  1.5200 -2.3410 -0.6484
 1643SOL     OW16564   3.202   2.591  17.551  0.3000 -0.6125 -0.9430
 1643SOL    HW116565   3.244   2.669  17.588  1.0293 -1.4684  0.0465
 1643SOL    HW216566   3.182   2.546  17.633 -0.3850  0.4345 -0.5369
 1644SOL     OW16567   3.309   3.342   7.898  0.9064 -0.1878 -0.4358
 1644SOL    HW116568   3.335   3.254   7.869  1.8978  0.7875 -2.4699
 1644SOL    HW216569   3.391   3.389   7.912  0.4424  0.2645  0.8209
 1645SOL     OW16570   2.433   4.432   2.754 -0.0723  0.3912  0.1328
 1645SOL    HW116571   2.405   4.408   2.666  1.1146 -1.2664  0.2150
 1645SOL    HW216572   2.499   4.497   2.730  2.0270 -1.7296  0.1808
 1646SOL     OW16573   0.853   3.944  15.152  0.2562  0.2939  0.1705
 1646SOL    HW116574   0.942   3.909  15.162  0.9061  2.2170  1.1823
 1646SOL    HW216575   0.857   4.020  15.095 -0.2899  0.0775 -0.1539
 1647SOL     OW16576   3.671   0.010   3.753  0.2684  0.7635  0.2286
 1647SOL    HW116577   3.617   4.690   3.695  0.4540 -0.5057  1.2538
 1647SOL    HW216578   3.647   0.101   3.732  1.8156  0.4083 -3.0184
 1648SOL     OW16579   1.067   1.880   4.796  0.2792 -0.2302 -0.1206
 1648SOL    HW116580   1.006   1.932   4.744  1.0236  0.8725  0.1079
 1648SOL    HW216581   1.141   1.939   4.809  0.8078 -0.6231 -1.3644
 1649SOL     OW16582   3.477   0.329   4.551  0.1175  0.0098 -0.9410
 1649SOL    HW116583   3.404   0.284   4.593 -0.9798  2.1284 -0.5924
 1649SOL    HW216584   3.512   0.370   4.631 -3.6106  0.4798  0.4340
 1650SOL     OW16585   1.012   1.072  13.570 -0.0236  0.3416 -0.2623
 1650SOL    HW116586   0.930   1.105  13.535  0.5543  0.2306 -1.7044
 1650SOL    HW216587   0.988   1.064  13.662  0.7529  1.3526  0.0243
 1651SOL     OW16588   4.125   1.837   8.531 -0.0531 -0.0032  0.3607
 1651SOL    HW116589   4.146   1.745   8.547  2.1414  0.5772  0.8507
 1651SOL    HW216590   4.080   1.863   8.612  1.2798  2.1745  0.4018
 1652SOL     OW16591   1.450   1.433  14.634 -0.3748  0.1882  0.5008
 1652SOL    HW116592   1.405   1.406  14.554 -0.5485 -0.6898  0.8926
 1652SOL    HW216593   1.471   1.349  14.676  1.6860 -0.5727 -2.0940
 1653SOL     OW16594   1.106   1.773  13.114  0.8481 -0.2894  0.4101
 1653SOL    HW116595   1.096   1.776  13.019  0.9006 -2.3324  0.3528
 1653SOL    HW216596   1.113   1.865  13.141 -0.5581 -0.3840  1.1266
 1654SOL     OW16597   1.269   3.672  10.748 -0.3422 -0.0365  0.5236
 1654SOL    HW116598   1.336   3.664  10.815  0.8099 -0.0303 -0.6112
 1654SOL    HW216599   1.320   3.632  10.677  0.1775 -2.5590  2.3351
 1655SOL     OW16600   4.200   4.304   5.192  0.0026  0.3899 -0.0521
 1655SOL    HW116601   4.147   4.253   5.131  0.1381  0.5710 -0.3232
 1655SOL    HW216602   4.210   4.377   5.131 -2.0815  0.0838 -0.7467
 1656SOL     OW16603   0.784   3.817   5.808 -0.2616  0.2081 -0.6218
 1656SOL    HW116604   0.846   3.753   5.843 -0.5621  0.9638  1.2697
 1656SOL    HW216605   0.845   3.890   5.814  0.1960 -0.3341  1.2549
 1657SOL     OW16606   2.795   3.829   5.991 -0.1144 -0.3052  0.3308
 1657SOL    HW116607   2.745   3.872   6.061  0.2328  1.1413 -0.3100
 1657SOL    HW216608   2.879   3.874   5.998  0.3974 -1.5032  1.9222
 1658SOL     OW16609   0.686   3.644   2.438  0.5440 -0.0081 -0.0099
 1658SOL    HW116610   0.690   3.705   2.365 -0.8558  1.1886  0.8993
 1658SOL    HW216611   0.781   3.635   2.445  0.4491 -1.2580 -0.3429
 1659SOL     OW16612   2.343   0.960  10.959 -0.0009 -0.8760 -0.1308
 1659SOL    HW116613   2.435   0.984  10.974 -0.2666 -0.1311  0.2989
 1659SOL    HW216614   2.331   0.909  11.039 -1.8271 -1.1201 -0.5702
 1660SOL     OW16615   1.239   4.194   3.034  0.2868 -0.0268  0.0856
 1660SOL    HW116616   1.274   4.199   3.123  1.3208  0.6800 -0.3659
 1660SOL    HW216617   1.311   4.242   2.994  0.4117  1.2571  1.8124
 1661SOL     OW16618   1.125   2.618  10.107 -0.1727 -0.0669  0.2163
 1661SOL    HW116619   1.187   2.582  10.171  1.7567  1.5475 -0.7488
 1661SOL    HW216620   1.100   2.537  10.063 -0.9390  0.9400 -1.1832
 1662SOL     OW16621   2.226   2.620   9.741  0.0635  0.1105 -0.1256
 1662SOL    HW116622   2.272   2.580   9.667 -1.2906  0.3901 -1.1051
 1662SOL    HW216623   2.282   2.599   9.816 -0.6151 -1.3954 -0.0349
 1663SOL     OW16624   1.301   3.818   4.996 -0.4130 -0.3170 -0.3102
 1663SOL    HW116625   1.270   3.854   5.080  5.0475  0.7870  1.2232
 1663SOL    HW216626   1.387   3.860   4.988 -1.3841  1.6382 -0.5518
 1664SOL     OW16627   0.656   3.601   6.105 -0.1619  0.0648  0.6961
 1664SOL    HW116628   0.624   3.691   6.105  0.1894  0.1920 -1.2304
 1664SOL    HW216629   0.749   3.615   6.122 -0.1362  1.0612 -0.3169
 1665SOL     OW16630   3.293   3.579  16.589 -0.4125 -0.2477  0.1624
 1665SOL    HW116631   3.202   3.608  16.580 -0.4713 -1.0890 -1.9140
 1665SOL    HW216632   3.328   3.663  16.558  0.7609 -0.0586  2.0252
 1666SOL     OW16633   4.024   3.860  14.240 -0.0822 -0.2148 -0.1368
 1666SOL    HW116634   3.990   3.887  14.154 -0.0843 -3.7117 -1.2254
 1666SOL    HW216635   4.106   3.821  14.210 -0.1627  1.2916 -2.3827
 1667SOL     OW16636   3.705   2.127   2.821  0.2978 -0.7936  0.0097
 1667SOL    HW116637   3.643   2.085   2.762 -0.1415  1.4215 -1.1260
 1667SOL    HW216638   3.681   2.085   2.903  0.5811  0.6954  0.8548
 1668SOL     OW16639   3.727   0.490  14.211  0.5631  0.4176  0.4616
 1668SOL    HW116640   3.677   0.562  14.248 -2.3713 -0.0442 -2.5443
 1668SOL    HW216641   3.684   0.411  14.243 -1.3392  1.4585  0.4632
 1669SOL     OW16642   3.842   3.713  10.726 -0.3044  0.3071  0.0253
 1669SOL    HW116643   3.922   3.731  10.776  0.3973 -1.2146 -0.5481
 1669SOL    HW216644   3.850   3.784  10.662  1.1999  0.1319  0.0072
 1670SOL     OW16645   4.318   4.609   4.614 -0.3053  1.0821  0.1582
 1670SOL    HW116646   4.250   4.644   4.671 -1.5503 -2.0758  0.6205
 1670SOL    HW216647   4.362   4.690   4.588  0.9190  0.5965  0.7410
 1671SOL     OW16648   1.167   0.512   3.480  0.0050 -0.3223  0.1051
 1671SOL    HW116649   1.201   0.465   3.557 -0.6083  0.4828  0.8622
 1671SOL    HW216650   1.239   0.574   3.468  0.6919 -0.6683  2.4078
 1672SOL     OW16651   4.056   3.193  13.571 -0.2204  0.2865 -0.2527
 1672SOL    HW116652   4.038   3.287  13.570 -1.3157  0.0604 -2.5029
 1672SOL    HW216653   4.110   3.183  13.492  1.1667  0.0450  0.7305
 1673SOL     OW16654   0.220   0.134   3.941 -0.3854  0.2596  0.3494
 1673SOL    HW116655   0.293   0.074   3.925 -2.0480 -1.0495 -2.3052
 1673SOL    HW216656   0.142   0.079   3.937 -0.7233  0.6773  1.1283
 1674SOL     OW16657   1.700   2.127   3.209  0.1218  0.2607 -0.1072
 1674SOL    HW116658   1.609   2.115   3.180 -0.4130 -1.2344  2.2229
 1674SOL    HW216659   1.743   2.117   3.124  0.1449 -1.2654  0.0807
 1675SOL     OW16660   1.682   2.832   7.633  0.0395  0.5675 -0.4937
 1675SOL    HW116661   1.599   2.785   7.622  1.0439 -1.4957  0.8869
 1675SOL    HW216662   1.679   2.901   7.566 -1.4048  1.2680  0.2791
 1676SOL     OW16663   1.506   1.399   6.553  0.2757  0.7403  0.5146
 1676SOL    HW116664   1.438   1.373   6.490  0.5767  0.9846  0.0901
 1676SOL    HW216665   1.570   1.338   6.516  1.3607  3.5988 -2.3003
 1677SOL     OW16666   2.435   1.105   8.262  0.2907  0.3615 -1.0390
 1677SOL    HW116667   2.387   1.052   8.198  1.2606 -0.1571 -1.3239
 1677SOL    HW216668   2.502   1.042   8.287  0.2578 -0.3874 -2.8363
 1678SOL     OW16669   4.272   0.936   8.087  0.3931 -0.4924  0.2427
 1678SOL    HW116670   4.269   1.030   8.072 -1.8864 -0.5668  0.2484
 1678SOL    HW216671   4.284   0.909   7.996  1.2323  1.4571 -0.2087
 1679SOL     OW16672   0.954   0.526   5.903  0.2118 -0.8558 -0.3898
 1679SOL    HW116673   0.859   0.539   5.894  0.9323  3.2362 -2.0615
 1679SOL    HW216674   0.966   0.489   5.990  0.3978 -0.9476 -0.4544
 1680SOL     OW16675   3.638   2.960   1.729  0.3415 -0.0976  0.4456
 1680SOL    HW116676   3.552   2.985   1.764 -1.2514 -1.3884 -2.4712
 1680SOL    HW216677   3.691   2.952   1.808  1.0187 -2.5061 -0.2693
 1681SOL     OW16678   3.985   0.789   6.379 -0.1639  0.8922  0.2914
 1681SOL    HW116679   4.073   0.771   6.346 -1.0499 -2.0991 -0.4608
 1681SOL    HW216680   3.996   0.864   6.438  0.1527  1.0671  0.0142
 1682SOL     OW16681   3.062   0.897   7.935  0.0621  0.1453 -0.3535
 1682SOL    HW116682   3.077   0.991   7.939  1.0280  0.0902 -2.6495
 1682SOL    HW216683   3.087   0.876   7.845 -1.6459 -0.7992 -0.6084
 1683SOL     OW16684   2.495   4.008  14.143 -0.4319  0.0995  0.6218
 1683SOL    HW116685   2.509   4.078  14.206 -3.9616  2.6988 -1.5358
 1683SOL    HW216686   2.579   3.987  14.100 -1.5798 -2.4858 -0.3587
 1684SOL     OW16687   3.050   0.473  16.283 -0.1155 -0.5156 -0.5334
 1684SOL    HW116688   3.109   0.449  16.354  0.8911  1.1404 -0.7949
 1684SOL    HW216689   3.091   0.440  16.203  0.4933 -1.6068  0.2359
 1685SOL     OW16690   1.691   4.128   5.902 -0.8243  0.1067 -0.5432
 1685SOL    HW116691   1.685   4.096   5.992  2.7261  0.8219 -0.0418
 1685SOL    HW216692   1.776   4.093   5.875  0.9862  3.5053  0.7069
 1686SOL     OW16693   4.155   1.672   4.569  0.2465  0.2490 -0.0977
 1686SOL    HW116694   4.227   1.611   4.555 -0.2335 -0.2063 -0.5879
 1686SOL    HW216695   4.133   1.639   4.656  0.1416 -0.6496 -0.4636
 1687SOL     OW16696   2.970   0.277   5.349  0.0527 -0.3322  0.2250
 1687SOL    HW116697   2.918   0.357   5.342 -1.3131 -1.1793  0.6496
 1687SOL    HW216698   2.917   0.208   5.308  1.3463 -0.4997 -1.1828
 1688SOL     OW16699   0.463   3.146  10.676  0.3177 -0.1953 -0.5598
 1688SOL    HW116700   0.371   3.172  10.684  0.6974  0.4725  1.6439
 1688SOL    HW216701   0.491   3.139  10.767  2.2703  1.0172 -1.0446
 1689SOL     OW16702   1.400   3.516   2.908 -0.5940 -0.0413  0.2161
 1689SOL    HW116703   1.372   3.558   2.826 -0.1476  0.5938  0.3852
 1689SOL    HW216704   1.449   3.589   2.947 -0.8139 -0.0238  0.4617
 1690SOL     OW16705   3.686   4.064   4.446 -0.3100  0.6890 -0.1378
 1690SOL    HW116706   3.682   4.032   4.356  2.1791  1.7126 -0.6335
 1690SOL    HW216707   3.752   4.004   4.482 -1.2457  0.0784  0.5556
 1691SOL     OW16708   3.697   1.125   3.438 -0.0368  0.6079 -0.1989
 1691SOL    HW116709   3.635   1.057   3.413  1.4581  0.0454 -2.3205
 1691SOL    HW216710   3.656   1.206   3.407  1.5036  0.4853 -2.5451
 1692SOL     OW16711   3.703   4.300  10.767 -0.2526 -0.6949  0.1192
 1692SOL    HW116712   3.712   4.208  10.792 -2.5630 -0.4868  1.7377
 1692SOL    HW216713   3.696   4.332  10.857 -0.8506  0.1349 -0.2302
 1693SOL     OW16714   4.168   1.447   6.141  0.3167  0.1458  0.1634
 1693SOL    HW116715   4.235   1.399   6.093 -0.2532  0.4054 -0.8924
 1693SOL    HW216716   4.133   1.483   6.059  1.4649  3.3995  1.1016
 1694SOL     OW16717   0.220   4.475   6.291 -0.3183 -0.2856  0.5339
 1694SOL    HW116718   0.291   4.414   6.270  0.6784  1.1221 -0.1361
 1694SOL    HW216719   0.252   4.538   6.355  3.0468 -1.0044 -0.4520
 1695SOL     OW16720   2.992   2.690  12.207 -0.3470  0.4327 -0.1712
 1695SOL    HW116721   3.070   2.715  12.256 -0.0452 -0.8726 -0.0007
 1695SOL    HW216722   2.961   2.779  12.189  2.9142  1.3062 -1.3881
 1696SOL     OW16723   3.837   2.817   1.366  0.2467  0.3990  0.2219
 1696SOL    HW116724   3.881   2.831   1.451 -1.2431 -1.7911  1.3523
 1696SOL    HW216725   3.765   2.879   1.376 -0.0734 -0.1522  1.3209
 1697SOL     OW16726   1.703   0.690  15.453  0.0353  0.3380  0.2238
 1697SOL    HW116727   1.719   0.646  15.369  1.4858  0.5669  0.3867
 1697SOL    HW216728   1.670   0.773  15.419  0.6630 -0.9135 -3.4580
 1698SOL     OW16729   2.459   3.535   9.653  0.2882  0.2100 -0.4091
 1698SOL    HW116730   2.506   3.512   9.733  0.4992 -1.9348 -1.1508
 1698SOL    HW216731   2.491   3.462   9.600 -0.2467 -0.0514 -0.3701
 1699SOL     OW16732   3.718   3.799   1.076 -0.4583  0.1801 -0.2687
 1699SOL    HW116733   3.799   3.780   1.124 -2.5105  1.3490  3.6281
 1699SOL    HW216734   3.688   3.881   1.114 -1.1718 -0.6689  1.0027
 1700SOL     OW16735   1.914   1.843  12.060  0.3571  0.0906 -0.3814
 1700SOL    HW116736   1.977   1.822  11.990 -0.1832 -0.6223 -0.6536
 1700SOL    HW216737   1.918   1.762  12.112  0.1044  0.0026 -0.5010
 1701SOL     OW16738   2.464   1.544   7.820  0.3448  0.4515  0.3195
 1701SOL    HW116739   2.539   1.527   7.878  0.3643 -1.3357 -0.2389
 1701SOL    HW216740   2.428   1.617   7.870  1.4082  0.8770  0.4722
 1702SOL     OW16741   3.500   0.080   7.296  1.2201 -0.6483  0.0499
 1702SOL    HW116742   3.425   0.068   7.238  1.0101  0.5876  0.0713
 1702SOL    HW216743   3.551   0.002   7.274  1.0036 -1.1367  1.2784
 1703SOL     OW16744   1.616   2.273   7.690  0.0681  0.2029 -0.1180
 1703SOL    HW116745   1.534   2.314   7.718 -0.5417 -0.9880 -0.1290
 1703SOL    HW216746   1.636   2.209   7.758 -0.7192 -0.8360 -0.8565
 1704SOL     OW16747   0.890   3.038  13.434 -0.2871 -0.6850  0.1119
 1704SOL    HW116748   0.849   3.039  13.348 -1.9548  1.9587  0.9266
 1704SOL    HW216749   0.810   3.008  13.477  0.2541  1.2626  2.4912
 1705SOL     OW16750   2.080   3.486  10.093 -0.0264 -0.4566 -0.5115
 1705SOL    HW116751   2.010   3.425  10.117  1.7742 -2.3223  0.0182
 1705SOL    HW216752   2.078   3.494   9.998  0.6724 -1.5243 -0.6155
 1706SOL     OW16753   1.012   4.093   5.571 -0.1425 -0.2213  0.4577
 1706SOL    HW116754   0.921   4.120   5.562  0.4978  0.9903 -2.0628
 1706SOL    HW216755   1.054   4.094   5.486  0.0186 -0.2157  0.5377
 1707SOL     OW16756   4.586   2.812   5.076 -0.2730 -0.0289 -0.5671
 1707SOL    HW116757   4.519   2.747   5.054 -0.3317  0.8676 -3.0659
 1707SOL    HW216758   4.668   2.790   5.031 -1.0998  1.9103 -3.0396
 1708SOL     OW16759   1.624   4.681   8.084 -0.2286 -0.4039 -0.2181
 1708SOL    HW116760   1.612   4.590   8.055 -1.9556 -0.4742  0.6798
 1708SOL    HW216761   1.699   4.679   8.143 -0.1929 -0.7476 -0.2720
 1709SOL     OW16762   4.326   1.495  17.553  0.5075  0.6534 -0.2331
 1709SOL    HW116763   4.418   1.474  17.567  1.1505  4.3440  1.2796
 1709SOL    HW216764   4.278   1.453  17.624 -1.3984  0.3222 -1.7229
 1710SOL     OW16765   2.262   2.599   3.609  0.4597 -0.2608  0.3306
 1710SOL    HW116766   2.190   2.657   3.634  2.1584  1.7211  0.6100
 1710SOL    HW216767   2.313   2.609   3.689 -1.5532 -0.7440  1.6699
 1711SOL     OW16768   3.625   4.259   1.432 -0.4521  0.6619 -0.1410
 1711SOL    HW116769   3.700   4.213   1.394  0.6502  2.8580 -0.6478
 1711SOL    HW216770   3.564   4.273   1.360 -0.2337 -0.6284 -0.5828
 1712SOL     OW16771   3.927   3.758  17.313  0.3291 -0.5172 -0.4604
 1712SOL    HW116772   3.999   3.741  17.373 -1.2184 -1.8914  1.0284
 1712SOL    HW216773   3.960   3.839  17.274 -1.2707 -0.1586 -1.1096
 1713SOL     OW16774   2.609   4.690   7.317  0.1700 -0.8086 -0.1201
 1713SOL    HW116775   2.569   0.041   7.334 -0.9437 -1.4493  0.4571
 1713SOL    HW216776   2.556   4.623   7.359 -1.6931  1.5916  1.3625
 1714SOL     OW16777   4.440   2.446   2.612  0.6237 -0.9378 -0.0998
 1714SOL    HW116778   4.358   2.396   2.611  0.3690 -0.5106 -0.4181
 1714SOL    HW216779   4.481   2.406   2.689  1.4737  0.4617  0.1657
 1715SOL     OW16780   1.634   2.830   0.083  0.3043 -0.3206 -0.1408
 1715SOL    HW116781   1.596   2.761   0.139 -1.5576  0.9176  0.1149
 1715SOL    HW216782   1.664   2.778   0.008 -1.7953 -2.0862  0.2331
 1716SOL     OW16783   4.617   4.116  11.521  0.6330 -0.0702  0.0935
 1716SOL    HW116784   4.619   4.068  11.437  2.2867 -2.3279  1.4173
 1716SOL    HW216785   4.537   4.169  11.516  1.6382  1.3735 -0.4374
 1717SOL     OW16786   0.995   0.614   1.525 -0.1939  0.4247  0.5005
 1717SOL    HW116787   0.934   0.571   1.465  0.3760  0.1351  0.1246
 1717SOL    HW216788   1.033   0.543   1.578  0.0729 -0.4466 -0.8424
 1718SOL     OW16789   2.061   4.461   5.498  0.6025 -0.0686 -0.1841
 1718SOL    HW116790   2.155   4.480   5.492  0.9792 -1.3812  1.6127
 1718SOL    HW216791   2.046   4.471   5.591 -1.5901  0.6185 -0.6164
 1719SOL     OW16792   2.982   4.163   9.464 -0.8807 -0.1376  0.1053
 1719SOL    HW116793   2.891   4.143   9.487 -0.9965  1.1424  0.7537
 1719SOL    HW216794   3.009   4.085   9.416  0.3060  0.3751 -0.0515
 1720SOL     OW16795   3.283   1.695   7.103  0.1093 -0.4791  0.4022
 1720SOL    HW116796   3.287   1.757   7.030 -2.3310 -0.3047  0.4149
 1720SOL    HW216797   3.225   1.730   7.170 -0.9168 -0.3795 -0.5368
 1721SOL     OW16798   2.768   1.290   3.718 -0.2097 -0.2135 -0.5760
 1721SOL    HW116799   2.750   1.375   3.758  1.4134 -0.7862  1.3613
 1721SOL    HW216800   2.827   1.321   3.650  1.4453  0.3446  1.1024
 1722SOL     OW16801   3.907   3.421   4.412  0.3591 -0.0661  0.2454
 1722SOL    HW116802   3.963   3.443   4.486 -0.2006  1.4955  0.1880
 1722SOL    HW216803   3.939   3.481   4.345  2.4022  2.6669  3.7042
 1723SOL     OW16804   3.348   3.018  10.884 -0.3822  0.2960 -0.2457
 1723SOL    HW116805   3.382   3.090  10.936  0.6451  0.0688 -0.6158
 1723SOL    HW216806   3.425   2.984  10.839 -1.5238 -1.0298 -1.2063
 1724SOL     OW16807   4.531   0.984  15.764 -0.1487 -0.1460 -0.1805
 1724SOL    HW116808   4.582   1.066  15.768  0.2104 -0.4341  1.2930
 1724SOL    HW216809   4.590   0.926  15.812 -1.9053 -0.5424  1.4677
 1725SOL     OW16810   3.598   3.602   9.177  0.3654  0.1981 -0.4084
 1725SOL    HW116811   3.613   3.681   9.125 -0.4663  0.6486  0.0423
 1725SOL    HW216812   3.537   3.550   9.124 -0.2033  1.7854 -1.3124
 1726SOL     OW16813   1.454   4.010   7.446  0.8247 -0.1135 -0.0173
 1726SOL    HW116814   1.531   4.067   7.447  0.8372 -0.1513  1.3284
 1726SOL    HW216815   1.459   3.948   7.374  0.3263  2.3059 -2.1525
 1727SOL     OW16816   3.817   1.739   8.460  0.2124 -0.1179 -0.0625
 1727SOL    HW116817   3.779   1.666   8.509 -0.2053 -1.2405 -2.0388
 1727SOL    HW216818   3.820   1.804   8.530  1.1024 -0.9929  0.7176
 1728SOL     OW16819   0.803   2.237   8.894 -0.0115  0.4870  0.1710
 1728SOL    HW116820   0.879   2.219   8.838  0.5669  1.8297  0.5322
 1728SOL    HW216821   0.783   2.146   8.916 -1.0450  0.4273 -0.9764
 1729SOL     OW16822   3.366   1.578  12.968  0.1470  0.1863  0.7493
 1729SOL    HW116823   3.395   1.619  12.887 -2.8076 -0.1302 -0.4587
 1729SOL    HW216824   3.429   1.508  12.986  1.3276  0.5989 -1.7910
 1730SOL     OW16825   1.547   1.160   4.241 -0.5941 -0.0009  0.4242
 1730SOL    HW116826   1.472   1.109   4.210 -1.9711  2.2610 -0.0198
 1730SOL    HW216827   1.508   1.242   4.273  1.2645  0.2038  2.1346
 1731SOL     OW16828   0.721   3.093   8.651  0.3938  0.1405  0.3561
 1731SOL    HW116829   0.658   3.148   8.605  0.6987  0.3995  0.2440
 1731SOL    HW216830   0.737   3.163   8.713  0.4340 -0.3202  0.8662
 1732SOL     OW16831   3.267   4.384   7.120 -0.2174  1.1196  0.7024
 1732SOL    HW116832   3.199   4.435   7.164 -1.6449 -0.9303  0.9107
 1732SOL    HW216833   3.227   4.307   7.079  1.6577  0.1582  0.6651
 1733SOL     OW16834   0.947   3.653   3.653  0.2652 -0.2573  0.6444
 1733SOL    HW116835   1.031   3.624   3.687  0.3806  0.4620  0.9620
 1733SOL    HW216836   0.892   3.641   3.730 -1.0007  1.9165  0.0851
 1734SOL     OW16837   0.561   2.782  17.542 -0.5141  0.3479 -0.1623
 1734SOL    HW116838   0.638   2.745  17.499 -2.0069 -3.8283  0.6775
 1734SOL    HW216839   0.524   2.705  17.586  1.0540 -1.1512 -1.4448
 1735SOL     OW16840   0.252   1.134   6.109  0.1951 -0.6155  0.6399
 1735SOL    HW116841   0.255   1.125   6.014  2.0025 -2.4098  0.8809
 1735SOL    HW216842   0.213   1.049   6.130  0.1925 -0.5701  0.8249
 1736SOL     OW16843   4.078   0.916   7.758 -0.1016 -0.3040  0.4199
 1736SOL    HW116844   4.113   1.003   7.741 -1.2404  0.3705  1.5671
 1736SOL    HW216845   4.018   0.900   7.685  3.9025  2.3551 -3.4596
 1737SOL     OW16846   1.168   3.546  13.575  0.3571 -0.0663 -0.2869
 1737SOL    HW116847   1.150   3.640  13.568 -0.7420 -0.2249  0.4834
 1737SOL    HW216848   1.105   3.517  13.509  0.5825  0.3130 -0.6705
 1738SOL     OW16849   1.505   2.242   4.021  0.3271 -0.1397  0.9158
 1738SOL    HW116850   1.578   2.301   4.041 -0.8066  1.9877 -1.2134
 1738SOL    HW216851   1.556   2.169   3.988  0.0638  0.2250 -0.2866
 1739SOL     OW16852   1.905   2.438   6.059 -0.1873  0.5510  0.2357
 1739SOL    HW116853   1.942   2.526   6.063  2.6980 -0.7598  2.1014
 1739SOL    HW216854   1.868   2.441   5.970 -0.2418  1.0390  0.2760
 1740SOL     OW16855   0.452   2.940   3.125  0.2554 -0.6457  0.9937
 1740SOL    HW116856   0.435   3.034   3.116 -0.3442 -1.0083 -1.6896
 1740SOL    HW216857   0.363   2.907   3.117 -0.8643  2.0569  2.2663
 1741SOL     OW16858   3.315   3.303   9.311 -0.3350 -0.2561 -0.1290
 1741SOL    HW116859   3.251   3.297   9.240  0.2118  1.7233 -0.7852
 1741SOL    HW216860   3.273   3.342   9.387  0.5100  0.7399 -0.1797
 1742SOL     OW16861   4.726   0.801  10.528 -0.2877 -0.6922  0.3237
 1742SOL    HW116862   4.688   0.874  10.478 -1.5526 -0.6914  1.3002
 1742SOL    HW216863   0.069   0.843  10.564 -0.2063  2.1450 -3.0903
 1743SOL     OW16864   0.717   0.067   2.510  0.2767  0.0860 -0.0755
 1743SOL    HW116865   0.728   4.707   2.514 -0.4511 -0.0020 -0.2515
 1743SOL    HW216866   0.646   0.063   2.447 -1.4906  0.2052  1.9103
 1744SOL     OW16867   0.160   1.095   5.328  0.2105 -0.0980  0.0901
 1744SOL    HW116868   0.163   1.002   5.352 -0.1747 -0.3926 -1.0066
 1744SOL    HW216869   0.073   1.120   5.359 -1.5054 -1.3265 -3.7820
 1745SOL     OW16870   2.581   3.373   5.412 -0.4157 -0.6241  0.3101
 1745SOL    HW116871   2.593   3.376   5.317 -0.7983  1.0536  0.3162
 1745SOL    HW216872   2.673   3.364   5.437 -0.0224  0.4850 -0.7684
 1746SOL     OW16873   0.276   2.378  11.174 -0.0278 -0.2487  0.1236
 1746SOL    HW116874   0.255   2.471  11.160  1.1549 -0.0297 -0.1792
 1746SOL    HW216875   0.365   2.391  11.207 -0.0793 -0.1730  0.2342
 1747SOL     OW16876   2.299   0.154  16.353  0.1517 -0.6040  0.1244
 1747SOL    HW116877   2.348   0.082  16.392  0.5329 -1.0981 -1.2465
 1747SOL    HW216878   2.366   0.222  16.341 -2.1663  1.9991  2.0014
 1748SOL     OW16879   0.633   3.043  15.197 -0.2935 -0.5435  0.6135
 1748SOL    HW116880   0.610   3.132  15.223  1.5745 -0.2266  1.1992
 1748SOL    HW216881   0.636   3.042  15.102 -0.5361 -1.2734  0.6060
 1749SOL     OW16882   0.680   0.065   3.777 -0.0423  0.1743  0.4038
 1749SOL    HW116883   0.727   0.005   3.720 -1.0765  0.6430 -0.9559
 1749SOL    HW216884   0.605   0.082   3.721  0.8071  1.3173 -0.3821
 1750SOL     OW16885   1.742   4.559   8.362  0.6251  0.1157 -0.0702
 1750SOL    HW116886   1.817   4.577   8.305  0.7637  0.2902  0.1631
 1750SOL    HW216887   1.793   4.491   8.406  0.5837 -0.8287 -1.4763
 1751SOL     OW16888   1.277   0.834   2.087 -0.2019 -0.3144  0.0815
 1751SOL    HW116889   1.302   0.891   2.160 -2.9520 -0.2324  0.9316
 1751SOL    HW216890   1.250   0.899   2.022  0.4101  0.3623  0.4950
 1752SOL     OW16891   1.009   3.420   4.895  0.1656 -0.1515 -0.3253
 1752SOL    HW116892   0.972   3.412   4.807  0.1791  2.1128 -0.5429
 1752SOL    HW216893   1.073   3.491   4.883 -0.4134  0.2118 -1.2636
 1753SOL     OW16894   2.293   0.563   1.742 -0.4997 -0.0385 -0.1294
 1753SOL    HW116895   2.287   0.647   1.788  0.6750 -1.4277  2.5451
 1753SOL    HW216896   2.325   0.508   1.813 -0.3317 -1.7808 -1.5736
 1754SOL     OW16897   3.009   3.081   9.755  0.3016  0.0052 -0.2226
 1754SOL    HW116898   2.972   2.992   9.752 -0.8300  0.4926 -0.8128
 1754SOL    HW216899   2.930   3.134   9.742  0.9933  1.2536  0.6613
 1755SOL     OW16900   4.295   0.685   3.533 -0.0021  0.5002  1.0402
 1755SOL    HW116901   4.318   0.635   3.612 -2.4141  0.6092  1.8109
 1755SOL    HW216902   4.366   0.749   3.529 -1.9454  2.5319 -0.8655
 1756SOL     OW16903   2.826   1.690   8.294  0.2823 -0.0573 -0.7854
 1756SOL    HW116904   2.875   1.702   8.375 -1.0861  1.8479 -0.2691
 1756SOL    HW216905   2.840   1.596   8.277  2.2041  0.1976 -0.5547
 1757SOL     OW16906   1.735   1.812  15.797 -0.2333  0.0806  0.6211
 1757SOL    HW116907   1.690   1.867  15.861 -0.1840 -0.6409  1.2674
 1757SOL    HW216908   1.798   1.761  15.848 -0.5508 -0.8692  0.0797
 1758SOL     OW16909   3.024   3.585   4.727  0.0595  0.1151 -0.4770
 1758SOL    HW116910   3.094   3.524   4.703 -0.3628 -1.0298  1.2311
 1758SOL    HW216911   3.072   3.666   4.744  1.8076 -1.0065 -0.0233
 1759SOL     OW16912   4.322   1.127  15.925 -0.6560  0.6861 -0.1295
 1759SOL    HW116913   4.317   1.115  16.020  0.6270 -0.6959 -0.2271
 1759SOL    HW216914   4.368   1.048  15.897 -0.4782  1.6164 -2.4328
 1760SOL     OW16915   2.717   3.360  15.747 -0.2804  0.2794 -0.6193
 1760SOL    HW116916   2.667   3.328  15.672 -1.6885  0.1219  0.3883
 1760SOL    HW216917   2.739   3.273  15.780 -1.0645  1.0068  1.8436
 1761SOL     OW16918   0.864   3.105  13.146 -0.1863 -0.5034 -0.0482
 1761SOL    HW116919   0.891   3.060  13.066  2.7757 -0.5876  1.0043
 1761SOL    HW216920   0.919   3.183  13.149 -1.6260  0.3714  3.6767
 1762SOL     OW16921   1.071   0.890  10.794 -0.5872  0.2423 -0.0013
 1762SOL    HW116922   1.091   0.950  10.866 -0.2080  3.0671 -2.4665
 1762SOL    HW216923   1.141   0.900  10.729 -0.2024 -0.8204  0.2444
 1763SOL     OW16924   2.824   4.452   2.218 -0.1951 -0.5629 -0.0573
 1763SOL    HW116925   2.820   4.424   2.127  0.6807 -0.0990 -0.2391
 1763SOL    HW216926   2.734   4.482   2.232  0.3614  1.5570 -1.0758
 1764SOL     OW16927   2.134   0.205   2.537  0.0191  0.0396 -0.4115
 1764SOL    HW116928   2.069   0.189   2.469 -1.2787  0.6722  0.6757
 1764SOL    HW216929   2.111   0.137   2.600  0.3335  1.0358  0.7918
 1765SOL     OW16930   3.953   1.921   6.785 -0.3870 -0.4193 -0.2558
 1765SOL    HW116931   3.878   1.868   6.809 -1.4608  1.2061 -0.0386
 1765SOL    HW216932   3.907   2.003   6.766  2.5452  0.7444 -2.4204
 1766SOL     OW16933   0.814   2.815   2.673 -0.3766 -0.2774  0.0978
 1766SOL    HW116934   0.906   2.815   2.647 -0.8953 -1.2687 -1.7808
 1766SOL    HW216935   0.805   2.848   2.762 -2.0429  1.3344 -0.6654
 1767SOL     OW16936   4.602   0.677   0.906  0.4696  0.7542 -0.0530
 1767SOL    HW116937   4.599   0.588   0.872  0.4090 -0.1308  2.2618
 1767SOL    HW216938   4.562   0.672   0.993 -2.0673  0.5321 -1.2362
 1768SOL     OW16939   3.397   1.929  12.751  0.2065  0.1464  0.4745
 1768SOL    HW116940   3.353   1.968  12.826 -0.5948  2.5814 -1.2738
 1768SOL    HW216941   3.332   1.859  12.745 -2.4353  2.8196 -1.8207
 1769SOL     OW16942   0.310   1.797   2.543  0.2725 -0.7976  0.5141
 1769SOL    HW116943   0.226   1.837   2.521  2.4114  1.3288 -3.7224
 1769SOL    HW216944   0.307   1.732   2.472  0.2936 -0.1545 -0.0676
 1770SOL     OW16945   0.984   1.833   6.590 -0.7128 -0.3232 -0.0476
 1770SOL    HW116946   0.955   1.804   6.677 -2.1074 -1.1593 -0.7883
 1770SOL    HW216947   0.998   1.926   6.607  0.7037 -0.4906 -0.3011
 1771SOL     OW16948   1.155   2.513   7.163  0.0868  0.1471  0.0362
 1771SOL    HW116949   1.171   2.435   7.216 -1.8259 -1.6029 -1.9669
 1771SOL    HW216950   1.061   2.517   7.180  0.0862 -1.2736  0.3881
 1772SOL     OW16951   4.228   3.026   7.723  0.5599  0.3606 -0.3749
 1772SOL    HW116952   4.233   3.075   7.805 -0.1164 -0.6170  0.2569
 1772SOL    HW216953   4.249   3.108   7.679 -1.5719  0.7412 -0.6871
 1773SOL     OW16954   0.102   0.668   5.867  0.1817  0.2267  0.0879
 1773SOL    HW116955   0.159   0.591   5.876  1.0584  0.7612 -0.9479
 1773SOL    HW216956   0.024   0.628   5.827  1.2731  2.0424 -3.8273
 1774SOL     OW16957   3.520   0.470  12.462 -0.2941 -0.2853 -0.3516
 1774SOL    HW116958   3.439   0.511  12.493  0.1334 -0.8075  1.4515
 1774SOL    HW216959   3.583   0.488  12.531 -0.6456 -0.6538  0.0638
 1775SOL     OW16960   1.356   0.793   4.202  0.0253  0.2399 -0.1282
 1775SOL    HW116961   1.332   0.868   4.148  0.4414  0.0766 -0.5398
 1775SOL    HW216962   1.303   0.724   4.161 -2.1995  0.9038  1.6161
 1776SOL     OW16963   0.502   1.077   3.921  0.0370 -0.2250  0.0642
 1776SOL    HW116964   0.418   1.100   3.960 -0.0902  1.1152 -1.0345
 1776SOL    HW216965   0.466   1.018   3.855  1.2750  0.0415 -0.8470
 1777SOL     OW16966   1.046   1.994  10.992  0.4680 -0.4942 -0.1655
 1777SOL    HW116967   1.075   1.990  11.084 -0.7006  2.8054  0.3502
 1777SOL    HW216968   1.073   1.907  10.965  0.3759  0.0589 -2.0046
 1778SOL     OW16969   0.987   4.155   8.682 -0.8535  0.1857  0.1424
 1778SOL    HW116970   0.911   4.188   8.730 -0.3326  2.0259 -0.3018
 1778SOL    HW216971   1.058   4.193   8.733 -1.9392 -0.7511  2.3274
 1779SOL     OW16972   3.809   2.455   9.124 -0.4526  0.0207 -0.4321
 1779SOL    HW116973   3.838   2.414   9.205 -2.0992 -0.1067  0.0890
 1779SOL    HW216974   3.715   2.441   9.133 -0.5365 -0.2743 -1.8124
 1780SOL     OW16975   1.332   3.165   5.255  0.1855 -0.1454  0.0140
 1780SOL    HW116976   1.405   3.113   5.288  0.8509 -0.4386 -1.9222
 1780SOL    HW216977   1.386   3.242   5.236  0.8199 -0.6488 -0.2236
 1781SOL     OW16978   0.541   4.427   1.924  0.0830 -0.2274 -0.6962
 1781SOL    HW116979   0.565   4.515   1.898 -1.3866  1.3921  3.3716
 1781SOL    HW216980   0.446   4.437   1.922  0.4965  3.4435 -1.3507
 1782SOL     OW16981   2.714   2.267   8.260 -0.3038 -0.1655  0.3129
 1782SOL    HW116982   2.787   2.206   8.268  1.3612  1.6158 -1.3820
 1782SOL    HW216983   2.752   2.346   8.300  3.2017 -1.1889 -0.9965
 1783SOL     OW16984   1.436   2.396   3.569  0.0773 -0.4986  0.4369
 1783SOL    HW116985   1.483   2.314   3.586  0.0171 -0.2431  1.8060
 1783SOL    HW216986   1.512   2.453   3.575  0.1231 -0.6342  1.0783
 1784SOL     OW16987   1.884   4.203   6.287  0.3160  0.4782 -0.7122
 1784SOL    HW116988   1.931   4.220   6.369  1.2369 -1.6183 -0.8253
 1784SOL    HW216989   1.857   4.292   6.263 -0.1968  0.5307  0.0409
 1785SOL     OW16990   2.257   0.679   2.434  0.3175 -0.3635  0.2321
 1785SOL    HW116991   2.300   0.719   2.510 -0.2103 -2.0787  1.4467
 1785SOL    HW216992   2.240   0.590   2.464  0.4499 -0.7588 -0.8685
 1786SOL     OW16993   1.372   1.407   5.221  0.4727  0.2110  0.1564
 1786SOL    HW116994   1.414   1.327   5.252 -0.1782  0.0103  0.5231
 1786SOL    HW216995   1.367   1.460   5.301  0.9695  0.2888  0.1318
 1787SOL     OW16996   4.173   2.667   6.314  0.5869 -0.4654 -0.4436
 1787SOL    HW116997   4.169   2.687   6.220 -0.0878  2.0895  0.1216
 1787SOL    HW216998   4.199   2.751   6.350  0.3678 -0.6049  0.0449
 1788SOL     OW16999   4.140   0.758   7.032 -0.2093  0.3443 -0.1532
 1788SOL    HW117000   4.228   0.793   7.018 -1.1600  2.7612 -0.0419
 1788SOL    HW217001   4.102   0.792   6.951  2.1086 -1.1998 -1.8938
 1789SOL     OW17002   4.634   2.043   9.025  0.2492  0.3433 -0.2281
 1789SOL    HW117003   4.718   2.080   9.001  0.1930  1.4441  1.2522
 1789SOL    HW217004   4.637   2.051   9.120 -0.1377  0.4359 -0.2234
 1790SOL     OW17005   4.204   0.132   9.496  0.3641 -0.2508  0.5080
 1790SOL    HW117006   4.127   0.076   9.484 -0.9713  1.5501  0.7355
 1790SOL    HW217007   4.236   0.136   9.406 -1.8617 -0.9564 -0.3172
 1791SOL     OW17008   1.087   1.411   7.383 -0.1401 -0.2982  0.3311
 1791SOL    HW117009   1.135   1.345   7.333 -3.1433 -0.9226 -1.6766
 1791SOL    HW217010   1.148   1.425   7.456  1.3650 -0.8705 -0.8108
 1792SOL     OW17011   0.607   0.300   4.780  0.1286 -0.0099  0.3295
 1792SOL    HW117012   0.519   0.338   4.784  0.3511  0.5390  0.0253
 1792SOL    HW217013   0.597   0.218   4.828  1.3265 -1.0897 -1.2813
 1793SOL     OW17014   4.190   4.013   1.707 -0.7568 -0.2150 -0.2016
 1793SOL    HW117015   4.277   4.049   1.723 -1.0936 -0.6551  2.6441
 1793SOL    HW217016   4.154   4.033   1.794 -0.1380  1.3375 -0.3107
 1794SOL     OW17017   0.918   3.041   4.636  0.5129  0.8185 -0.3837
 1794SOL    HW117018   0.912   3.024   4.730 -0.0148  2.2663 -0.1568
 1794SOL    HW217019   0.994   2.985   4.621  0.1373  0.6103 -1.5339
 1795SOL     OW17020   1.550   1.454   2.578 -0.2915 -0.2147  0.2812
 1795SOL    HW117021   1.506   1.489   2.656  1.5033  0.2086  1.0823
 1795SOL    HW217022   1.554   1.522   2.510 -2.0253 -0.2626  0.1223
 1796SOL     OW17023   0.894   3.088   7.985 -0.0517 -0.2762 -0.2176
 1796SOL    HW117024   0.906   3.178   7.952 -0.1245  0.4661  1.7761
 1796SOL    HW217025   0.885   3.105   8.079 -0.1753 -1.0136 -0.1032
 1797SOL     OW17026   2.617   1.645   6.496  0.0037  0.5362  0.2032
 1797SOL    HW117027   2.602   1.707   6.568 -0.5756 -0.5668  1.0367
 1797SOL    HW217028   2.713   1.642   6.501 -0.0232  1.2141  1.3315
 1798SOL     OW17029   0.473   0.734  12.402  0.2146 -0.5716  0.0640
 1798SOL    HW117030   0.417   0.729  12.324 -1.0088  0.3900  0.9000
 1798SOL    HW217031   0.552   0.691  12.367  1.0843 -0.2672  1.6812
 1799SOL     OW17032   1.184   4.645   8.636  0.2879 -0.0950  0.2371
 1799SOL    HW117033   1.137   4.648   8.553 -1.4473  1.0535  1.2535
 1799SOL    HW217034   1.114   4.654   8.701 -0.5527 -0.3321 -0.6412
 1800SOL     OW17035   3.832   4.380  16.396  0.5794 -0.7740  0.4901
 1800SOL    HW117036   3.752   4.390  16.343  0.7959 -0.0082  0.3037
 1800SOL    HW217037   3.874   4.315  16.340  0.4925 -0.3774 -0.0482
 1801SOL     OW17038   2.671   0.229  15.785 -0.4976  0.3871  0.1812
 1801SOL    HW117039   2.690   0.135  15.790 -0.4787  0.3639 -0.3106
 1801SOL    HW217040   2.576   0.225  15.777 -0.4524  1.4408 -0.7991
 1802SOL     OW17041   2.773   3.355   8.203  0.4615 -0.3346  0.4137
 1802SOL    HW117042   2.708   3.423   8.186  0.4766 -0.4723 -0.1956
 1802SOL    HW217043   2.853   3.390   8.164  0.6515 -2.1539 -0.7925
 1803SOL     OW17044   4.640   0.962   7.665 -0.1794  0.1532  0.0832
 1803SOL    HW117045   4.686   0.901   7.608 -0.1755  0.8162 -0.6278
 1803SOL    HW217046   4.553   0.924   7.653  0.3903 -1.4693  1.2666
 1804SOL     OW17047   0.308   2.356   3.865  0.0449  0.2374 -0.5567
 1804SOL    HW117048   0.362   2.421   3.820 -0.0295  0.3243 -0.5201
 1804SOL    HW217049   0.358   2.275   3.872 -0.9366 -0.2054  1.1349
 1805SOL     OW17050   2.801   1.112   4.417  0.8997  0.4469 -0.0859
 1805SOL    HW117051   2.720   1.069   4.445  0.5866  1.5030  0.6581
 1805SOL    HW217052   2.846   1.099   4.501 -0.8355  0.5201  0.8787
 1806SOL     OW17053   0.759   3.710   9.663  0.6158  0.4020  0.6133
 1806SOL    HW117054   0.753   3.797   9.701 -3.2322  0.5957 -0.4344
 1806SOL    HW217055   0.705   3.661   9.725  1.4581  0.5380  1.4515
 1807SOL     OW17056   3.607   3.360   5.323 -0.1453  0.1003  0.2380
 1807SOL    HW117057   3.610   3.336   5.230 -1.2673  0.9966 -0.0374
 1807SOL    HW217058   3.513   3.347   5.335  0.1783 -2.7620 -0.3636
 1808SOL     OW17059   2.405   4.665   3.036 -0.2880 -0.1337 -0.3404
 1808SOL    HW117060   2.408   0.012   3.085  0.2014 -0.5354  0.2971
 1808SOL    HW217061   2.448   4.697   2.957  0.4225  2.0079  0.9117
 1809SOL     OW17062   0.411   0.530   5.536  0.3834 -0.4558  0.6960
 1809SOL    HW117063   0.332   0.556   5.488  1.6860 -2.8671 -2.7599
 1809SOL    HW217064   0.457   0.495   5.460 -1.1690  0.3786 -0.6296
 1810SOL     OW17065   1.233   4.523  11.370 -0.5357  0.1725  0.0967
 1810SOL    HW117066   1.312   4.489  11.328  0.3452  1.8896  0.3955
 1810SOL    HW217067   1.178   4.520  11.291 -0.7244  2.0888  0.1521
 1811SOL     OW17068   2.934   0.842   9.333  0.9031  0.4731  0.0027
 1811SOL    HW117069   2.931   0.874   9.424  0.3177  1.4389 -0.3624
 1811SOL    HW217070   2.859   0.782   9.337  1.4942 -0.3405 -1.2773
 1812SOL     OW17071   1.108   2.094   2.422  0.3496 -0.3264  0.4250
 1812SOL    HW117072   1.179   2.120   2.364  0.8853  1.2941  1.8193
 1812SOL    HW217073   1.105   2.006   2.383 -1.2146 -0.9427  1.9798
 1813SOL     OW17074   1.232   1.218  12.056 -0.3737  1.0372 -0.2011
 1813SOL    HW117075   1.194   1.231  11.969  1.3676  1.3918 -0.9018
 1813SOL    HW217076   1.160   1.260  12.102 -0.8132 -1.2556  1.1902
 1814SOL     OW17077   2.098   3.971  12.488  0.1654 -0.0895  0.3644
 1814SOL    HW117078   2.176   3.936  12.446 -0.0219  0.4865 -0.4537
 1814SOL    HW217079   2.027   3.987  12.427  1.0945 -1.1834 -1.0008
 1815SOL     OW17080   3.857   2.304   2.696  0.0993  0.7076  0.1626
 1815SOL    HW117081   3.813   2.244   2.756 -0.7979  2.3711  1.1826
 1815SOL    HW217082   3.811   2.299   2.613  0.3514  2.6598 -0.1016
 1816SOL     OW17083   4.680   0.102   5.780 -0.3542 -0.1155  0.0538
 1816SOL    HW117084   4.653   0.117   5.689  0.2772  0.6972  0.0094
 1816SOL    HW217085   0.000   0.024   5.776  0.6146  0.6704 -2.0657
 1817SOL     OW17086   1.320   4.495   7.331 -0.6534 -0.5507 -0.3226
 1817SOL    HW117087   1.414   4.514   7.324 -0.7787 -0.3590 -1.4553
 1817SOL    HW217088   1.289   4.566   7.387  0.4957 -0.6100  0.4137
 1818SOL     OW17089   2.438   0.345   1.510  0.3633 -0.3201 -0.4108
 1818SOL    HW117090   2.441   0.317   1.418 -0.7972  0.5003 -0.6941
 1818SOL    HW217091   2.347   0.372   1.504  0.0011 -1.1922  1.1832
 1819SOL     OW17092   2.215   1.369   6.764 -0.0664  0.5231 -0.0723
 1819SOL    HW117093   2.215   1.412   6.679 -1.6404 -1.8300 -1.2570
 1819SOL    HW217094   2.179   1.443   6.814 -0.4718 -1.8937  3.2385
 1820SOL     OW17095   3.685   3.962   6.060  0.2660  0.1339  0.0650
 1820SOL    HW117096   3.750   3.939   5.993  1.2142  0.0556  1.0007
 1820SOL    HW217097   3.694   4.058   6.064 -0.8427  0.1557  2.4298
 1821SOL     OW17098   1.523   4.383   4.363  0.2981 -0.3844 -0.2434
 1821SOL    HW117099   1.476   4.319   4.309  1.1435  0.6408 -2.1789
 1821SOL    HW217100   1.554   4.316   4.424  1.5806 -1.0070 -1.5842
 1822SOL     OW17101   0.723   1.113  10.734  0.0907 -0.4387 -0.2689
 1822SOL    HW117102   0.751   1.083  10.820  0.3637 -2.4489 -1.0537
 1822SOL    HW217103   0.631   1.120  10.758  0.2095 -1.7129  0.5239
 1823SOL     OW17104   0.094   1.083  11.325  0.5558 -0.4261 -1.0528
 1823SOL    HW117105   0.012   1.128  11.304  1.9291  1.9755 -1.3067
 1823SOL    HW217106   0.111   1.025  11.251 -1.1554 -2.4824  0.1904
 1824SOL     OW17107   3.196   1.266   1.205 -0.1247 -0.4051  0.4928
 1824SOL    HW117108   3.130   1.218   1.255  2.1570 -2.1291  1.8453
 1824SOL    HW217109   3.167   1.241   1.117  0.8411 -0.6238  0.2400
 1825SOL     OW17110   4.669   3.084   2.823 -0.1122 -0.4149  0.3845
 1825SOL    HW117111   4.731   3.012   2.816 -0.0219 -0.3005  0.0263
 1825SOL    HW217112   4.729   3.148   2.862 -0.3535  0.2887 -0.3991
 1826SOL     OW17113   0.870   0.662  11.329 -0.0391  0.0944  0.2165
 1826SOL    HW117114   0.874   0.730  11.396  2.8309  1.3868 -1.2924
 1826SOL    HW217115   0.913   0.592  11.378  0.1834  0.8535  1.0948
 1827SOL     OW17116   0.159   2.818   0.693  0.4561 -0.6211  0.0431
 1827SOL    HW117117   0.075   2.774   0.711  0.1469  0.6060  1.6353
 1827SOL    HW217118   0.192   2.772   0.616 -2.3538 -0.4781 -1.2523
 1828SOL     OW17119   3.751   3.533   8.585 -0.4883 -0.4322 -0.5620
 1828SOL    HW117120   3.812   3.549   8.656 -1.1932  0.7121 -0.2063
 1828SOL    HW217121   3.765   3.441   8.562 -1.5785 -0.8839  0.5569
 1829SOL     OW17122   1.763   4.477   2.403  0.8302  0.4754 -0.1704
 1829SOL    HW117123   1.720   4.470   2.317  0.7830 -1.7704  0.0484
 1829SOL    HW217124   1.700   4.423   2.452  2.1655 -0.9532 -0.0314
 1830SOL     OW17125   1.886   2.119   8.747  0.5903  0.3438  0.0710
 1830SOL    HW117126   1.978   2.091   8.743  0.5227 -0.0202  1.0725
 1830SOL    HW217127   1.849   2.064   8.816  1.4967  1.2807  1.3048
 1831SOL     OW17128   0.697   3.427   1.788 -0.0927  0.3644 -0.2916
 1831SOL    HW117129   0.615   3.476   1.793 -0.1220  0.2781  0.1367
 1831SOL    HW217130   0.756   3.486   1.742  0.1485  0.7490  0.5183
 1832SOL     OW17131   4.123   0.333   8.206 -0.4830  0.2520  0.8509
 1832SOL    HW117132   4.092   0.247   8.235  0.8554 -0.4150  0.2687
 1832SOL    HW217133   4.212   0.316   8.237  0.0416  0.5600 -0.4994
 1833SOL     OW17134   4.387   2.152  13.890 -0.5160 -0.2931  0.5535
 1833SOL    HW117135   4.357   2.220  13.829 -0.1543  1.0319  1.8690
 1833SOL    HW217136   4.458   2.202  13.930  0.6989 -0.9261 -0.8022
 1834SOL     OW17137   1.087   3.562   4.199 -0.3658  0.6467  0.1940
 1834SOL    HW117138   1.061   3.470   4.198  1.7917  0.0535 -2.1738
 1834SOL    HW217139   1.134   3.563   4.282  0.4055  2.3360 -0.2635
 1835SOL     OW17140   3.037   1.829   5.901  1.0113 -0.2146 -0.0116
 1835SOL    HW117141   3.031   1.887   5.977 -1.2765 -2.6076  1.5933
 1835SOL    HW217142   2.952   1.787   5.899  1.3184 -0.8271 -0.2243
 1836SOL     OW17143   4.473   0.425   6.985 -0.7299 -0.5325  0.5279
 1836SOL    HW117144   4.500   0.431   7.077  2.2390  0.8896 -0.4178
 1836SOL    HW217145   4.464   0.332   6.966  1.9607 -0.9036  1.0514
 1837SOL     OW17146   3.885   1.184  13.862  0.0477  0.4751 -0.1755
 1837SOL    HW117147   3.953   1.120  13.842 -0.1495 -0.0263  0.6950
 1837SOL    HW217148   3.819   1.148  13.922 -0.0323  0.8598 -0.0362
 1838SOL     OW17149   4.529   1.831   8.198  0.7830  0.7617  0.6237
 1838SOL    HW117150   4.496   1.789   8.278  1.6290 -0.5502  0.2770
 1838SOL    HW217151   4.555   1.751   8.152  1.1682  0.9895  0.4417
 1839SOL     OW17152   3.121   2.174  15.802  0.1132 -0.1996 -0.1775
 1839SOL    HW117153   3.203   2.150  15.759 -0.4457 -2.1341 -0.1531
 1839SOL    HW217154   3.130   2.270  15.798  4.0365 -0.6200 -1.4242
 1840SOL     OW17155   1.716   3.666   9.400 -0.1249 -0.7403  0.2876
 1840SOL    HW117156   1.653   3.682   9.471  1.2615 -1.3696  1.6692
 1840SOL    HW217157   1.674   3.697   9.320 -3.0646 -2.6847  1.0554
 1841SOL     OW17158   1.994   1.030  14.646  0.0849  0.4767  0.4805
 1841SOL    HW117159   1.962   1.112  14.682  2.0449  1.8863 -0.9520
 1841SOL    HW217160   2.035   1.068  14.568  0.1657 -0.1408  0.2210
 1842SOL     OW17161   3.566   3.575  12.081 -0.4414  0.1416  0.1391
 1842SOL    HW117162   3.507   3.635  12.127  0.6304  1.8398 -0.7226
 1842SOL    HW217163   3.653   3.597  12.113 -0.9950  0.1318  1.6508
 1843SOL     OW17164   4.613   2.439  10.551 -0.0706 -0.2768  0.4210
 1843SOL    HW117165   4.598   2.378  10.478 -0.9655  2.7716 -1.9161
 1843SOL    HW217166   4.574   2.381  10.617  1.7707 -1.1008  0.7712
 1844SOL     OW17167   4.069   4.601   2.247  0.4510 -0.2962 -0.2709
 1844SOL    HW117168   4.109   4.629   2.165  0.2462 -0.3357 -0.3874
 1844SOL    HW217169   4.023   4.525   2.211 -0.8661 -0.0599  0.9183
 1845SOL     OW17170   1.302   2.740   9.107 -0.3905  0.3657 -0.4590
 1845SOL    HW117171   1.251   2.736   9.188  0.9365  1.5239  0.4360
 1845SOL    HW217172   1.377   2.795   9.131  0.5292 -0.2239 -1.9417
 1846SOL     OW17173   4.360   2.450   3.529 -0.4714  0.6263  0.1105
 1846SOL    HW117174   4.431   2.481   3.473  0.0825 -1.3863 -0.2954
 1846SOL    HW217175   4.380   2.357   3.525 -0.2713  0.5945  1.9133
 1847SOL     OW17176   2.840   3.398   0.015  0.1676  0.4772  0.1357
 1847SOL    HW117177   2.836   3.481  17.706  0.4788  0.8655  0.7922
 1847SOL    HW217178   2.934   3.381   0.002 -0.2724 -1.6014 -0.3876
 1848SOL     OW17179   4.031   0.271   1.633 -0.2695 -0.0188  0.0278
 1848SOL    HW117180   3.936   0.284   1.631 -0.4171 -0.7716  2.3213
 1848SOL    HW217181   4.063   0.361   1.643 -0.1352  0.0181 -0.7129
 1849SOL     OW17182   3.274   1.132   9.140  0.0911  0.0986 -0.2429
 1849SOL    HW117183   3.293   1.063   9.204 -1.1108  1.7724  1.9186
 1849SOL    HW217184   3.264   1.078   9.061  1.6093 -0.4040 -0.0932
 1850SOL     OW17185   2.165   2.983   1.351  0.0381 -0.1316 -0.2435
 1850SOL    HW117186   2.248   2.974   1.398 -0.3314 -0.4941  0.3383
 1850SOL    HW217187   2.190   2.945   1.266 -4.3691 -1.3958 -0.9874
 1851SOL     OW17188   0.100   1.497   3.234 -0.0358  0.1308  0.8334
 1851SOL    HW117189   0.084   1.421   3.290  0.7000 -1.4176 -1.0685
 1851SOL    HW217190   0.189   1.525   3.255  0.8316 -1.1715 -1.1032
 1852SOL     OW17191   3.954   3.632   1.134  0.0909  0.5490  0.3511
 1852SOL    HW117192   4.016   3.572   1.092  0.2990  2.4927 -2.1394
 1852SOL    HW217193   3.905   3.574   1.192 -0.0847  1.2143  0.8763
 1853SOL     OW17194   0.723   4.260  11.238 -0.4131  0.5621 -0.0758
 1853SOL    HW117195   0.654   4.321  11.211 -0.7275  1.0114  1.6995
 1853SOL    HW217196   0.782   4.332  11.260 -0.3210  0.7395 -0.9033
 1854SOL     OW17197   0.773   1.790  15.878 -0.2282  0.3643 -0.0885
 1854SOL    HW117198   0.764   1.880  15.911 -2.8696 -0.0171  0.2602
 1854SOL    HW217199   0.762   1.814  15.785 -3.0255  1.6356  0.5508
 1855SOL     OW17200   0.337   1.883   8.013 -0.1553 -0.2595  0.5628
 1855SOL    HW117201   0.419   1.915   8.051 -0.5110  0.9247  0.3090
 1855SOL    HW217202   0.350   1.795   8.049  0.8310 -0.8767 -1.2742
 1856SOL     OW17203   2.471   4.006   2.445  0.2741 -0.4875  0.3615
 1856SOL    HW117204   2.552   3.964   2.416  0.3618  0.2976 -0.5542
 1856SOL    HW217205   2.410   4.013   2.371  0.8868 -0.3887 -0.1343
 1857SOL     OW17206   4.242   1.199   8.056  0.2578 -0.0318 -0.2464
 1857SOL    HW117207   4.236   1.250   8.136  0.6105  0.9971 -0.8701
 1857SOL    HW217208   4.219   1.261   7.986  3.7718  1.9515  0.3359
 1858SOL     OW17209   1.387   4.628   3.852  0.2186 -0.5145 -0.3360
 1858SOL    HW117210   1.377   4.533   3.842  0.2603 -0.7249  1.6871
 1858SOL    HW217211   1.413   4.637   3.944 -0.7112 -2.0219  0.0768
 1859SOL     OW17212   2.547   1.772   6.924 -0.1211 -1.1369 -0.2837
 1859SOL    HW117213   2.641   1.776   6.940 -0.4288 -0.4569  1.3311
 1859SOL    HW217214   2.495   1.741   6.998  1.2800 -1.2521  0.6399
 1860SOL     OW17215   4.678   0.770   3.725  0.1849 -0.6300 -0.0656
 1860SOL    HW117216   4.668   0.857   3.687  0.8559 -0.9504 -0.9847
 1860SOL    HW217217   4.645   0.707   3.661 -2.1736 -1.8768  2.3566
 1861SOL     OW17218   4.336   2.901   2.632  0.1555 -0.0243 -0.0334
 1861SOL    HW117219   4.259   2.858   2.668 -1.3266  1.5094 -1.4323
 1861SOL    HW217220   4.367   2.944   2.713  1.5404  0.6592 -0.9164
 1862SOL     OW17221   3.259   2.483  13.505 -0.2015 -0.2575  0.3337
 1862SOL    HW117222   3.234   2.532  13.427  0.7973  0.1384  0.2633
 1862SOL    HW217223   3.347   2.519  13.520  0.7606 -2.2693 -0.4589
 1863SOL     OW17224   2.503   1.001   7.141  0.2569  0.0560  0.0153
 1863SOL    HW117225   2.559   0.925   7.126 -0.9175 -0.8947  0.3909
 1863SOL    HW217226   2.436   0.989   7.074  2.0160  0.2514 -1.7651
 1864SOL     OW17227   3.174   0.855  15.722 -0.0797 -0.9091 -0.1458
 1864SOL    HW117228   3.269   0.860  15.734 -0.1036 -1.9131  0.4363
 1864SOL    HW217229   3.148   0.811  15.803 -1.8570  0.3132 -0.0452
 1865SOL     OW17230   3.765   2.543   2.860 -0.0305 -0.3542 -0.1055
 1865SOL    HW117231   3.785   2.598   2.784  0.1461 -0.7015 -0.3119
 1865SOL    HW217232   3.773   2.453   2.829  0.5010 -0.3439  0.0017
 1866SOL     OW17233   0.537   2.096   6.261 -0.2196  0.1136  0.3042
 1866SOL    HW117234   0.562   2.039   6.188  0.6125  1.0782 -0.1584
 1866SOL    HW217235   0.607   2.085   6.326  1.2118  1.0015 -1.0752
 1867SOL     OW17236   4.483   4.686  13.580  0.2778  0.2122 -0.2310
 1867SOL    HW117237   4.396   4.714  13.553 -0.1398 -0.0259  0.8627
 1867SOL    HW217238   4.534   0.033  13.576 -2.1838  1.6817 -1.3383
 1868SOL     OW17239   4.150   0.171   2.265  1.0843  0.1098 -0.2151
 1868SOL    HW117240   4.154   0.093   2.208 -0.6173  0.5742 -0.9644
 1868SOL    HW217241   4.091   0.140   2.334 -0.7515  1.2364 -1.3045
 1869SOL     OW17242   3.355   2.297   2.721 -0.0818 -0.2864  0.0742
 1869SOL    HW117243   3.401   2.376   2.692 -3.0849  0.6997 -1.9464
 1869SOL    HW217244   3.346   2.258   2.634 -0.7540  0.7714 -0.3332
 1870SOL     OW17245   3.061   4.134  11.956  0.2402  0.0546  0.3417
 1870SOL    HW117246   3.054   4.044  11.986  0.3095 -0.7538 -2.0657
 1870SOL    HW217247   3.084   4.115  11.864 -1.4442 -2.0165  0.3647
 1871SOL     OW17248   1.925   1.376  12.101  0.0316  0.1972 -0.5571
 1871SOL    HW117249   1.897   1.441  12.166 -0.4188  0.5518 -1.1020
 1871SOL    HW217250   1.923   1.431  12.022  1.9872  2.3323  0.8716
 1872SOL     OW17251   2.421   4.732   0.673  0.6742 -0.0109 -0.2710
 1872SOL    HW117252   2.448   4.643   0.653 -1.4716 -1.0207  1.3529
 1872SOL    HW217253   2.448   0.012   0.763 -1.4940  1.9407  0.0748
 1873SOL     OW17254   2.854   3.507   3.000 -0.1099 -0.3029 -0.3445
 1873SOL    HW117255   2.911   3.506   2.923  0.7649  0.2031  0.2922
 1873SOL    HW217256   2.789   3.568   2.966 -0.5090  0.6951  2.2042
 1874SOL     OW17257   4.542   1.522  15.148  0.4951 -0.4670 -0.1215
 1874SOL    HW117258   4.539   1.617  15.139 -0.7272 -0.7540 -2.7534
 1874SOL    HW217259   4.538   1.515  15.244  1.9479  2.6395  0.1465
 1875SOL     OW17260   1.091   4.375  15.110  0.2421 -0.1283  0.2800
 1875SOL    HW117261   1.025   4.425  15.159 -1.5524 -1.5444 -0.7058
 1875SOL    HW217262   1.150   4.444  15.080  1.4644 -2.2644 -2.1596
 1876SOL     OW17263   3.987   0.115  14.679 -0.8106 -0.1941  0.1162
 1876SOL    HW117264   4.020   0.036  14.637 -0.6750  2.3102 -4.4095
 1876SOL    HW217265   3.895   0.096  14.662 -0.3689 -0.7254 -1.6041
 1877SOL     OW17266   1.416   4.069  16.716 -0.0101  0.0687  0.1805
 1877SOL    HW117267   1.419   4.048  16.809 -0.9582 -0.1445  0.1670
 1877SOL    HW217268   1.341   4.129  16.715 -0.2662 -0.2440  0.5404
 1878SOL     OW17269   3.978   4.474   1.876 -0.3332  0.2563  0.3551
 1878SOL    HW117270   3.916   4.404   1.895 -0.4063  0.3369  0.4197
 1878SOL    HW217271   3.930   4.554   1.902 -0.4901 -0.0197  0.9182
 1879SOL     OW17272   3.322   1.734  10.482  0.4794  0.1883 -0.3920
 1879SOL    HW117273   3.331   1.792  10.559  1.9685 -1.1751  0.4573
 1879SOL    HW217274   3.241   1.772  10.450 -0.2740 -1.3292 -0.2548
 1880SOL     OW17275   4.183   4.165  15.646  0.3466 -0.9710  1.0059
 1880SOL    HW117276   4.234   4.180  15.726  0.4608 -1.6751  1.0661
 1880SOL    HW217277   4.172   4.256  15.619 -1.1507 -1.2752  0.6097
 1881SOL     OW17278   4.360   1.347   1.772 -0.3696  0.0077  0.1967
 1881SOL    HW117279   4.275   1.309   1.794 -0.1024 -0.9460 -0.4098
 1881SOL    HW217280   4.374   1.376   1.862  2.7629  2.3980 -1.0449
 1882SOL     OW17281   0.756   2.112  17.598  0.2729 -0.2579  0.1616
 1882SOL    HW117282   0.837   2.108  17.548 -0.2624 -0.7004 -0.6717
 1882SOL    HW217283   0.726   2.187  17.547  1.1825 -0.2381 -0.3265
 1883SOL     OW17284   0.172   3.301   3.285  0.1994  0.1835 -0.4037
 1883SOL    HW117285   0.100   3.284   3.345  1.0085 -1.9213 -0.0224
 1883SOL    HW217286   0.233   3.347   3.343 -0.0587 -0.6861  0.5560
 1884SOL     OW17287   3.743   4.268   1.829  0.3252  0.3011 -0.0476
 1884SOL    HW117288   3.689   4.215   1.888  1.0127 -0.4960 -0.1350
 1884SOL    HW217289   3.673   4.317   1.786  0.3980  1.0738  0.7155
 1885SOL     OW17290   0.888   1.710  16.640  0.0926  0.5416 -0.7477
 1885SOL    HW117291   0.932   1.648  16.582  2.1608  1.3993 -0.0716
 1885SOL    HW217292   0.965   1.752  16.677 -0.4097  1.3881 -0.6519
 1886SOL     OW17293   0.031   1.573   3.762  0.1294  0.4468 -0.1937
 1886SOL    HW117294   0.110   1.525   3.738  0.1095 -1.4248  3.4898
 1886SOL    HW217295   0.033   1.582   3.857 -0.2508  1.4915 -0.2890
 1887SOL     OW17296   1.674   2.618   8.576 -0.0827 -0.1596 -0.7511
 1887SOL    HW117297   1.679   2.674   8.499 -2.1913 -0.3150 -1.0136
 1887SOL    HW217298   1.694   2.527   8.553  1.3045 -0.5468  1.9642
 1888SOL     OW17299   2.395   0.826  17.358 -0.2956 -0.7016  0.4635
 1888SOL    HW117300   2.473   0.780  17.327 -0.2790 -0.3281 -0.0467
 1888SOL    HW217301   2.432   0.858  17.440  0.9552  0.3657 -0.5212
 1889SOL     OW17302   3.568   4.070   4.830  0.0025  0.2439 -0.5599
 1889SOL    HW117303   3.601   4.152   4.868 -0.4263  0.4295 -0.5806
 1889SOL    HW217304   3.507   4.047   4.900 -0.0245  0.3161 -0.5595
 1890SOL     OW17305   4.680   2.883   5.444  0.0507 -0.1400 -0.0698
 1890SOL    HW117306   0.023   2.914   5.491 -0.7044  0.9057  0.4775
 1890SOL    HW217307   4.703   2.790   5.441 -2.6921 -0.8061  0.1643
 1891SOL     OW17308   3.393   4.392   2.029 -0.3594  0.1239  0.2871
 1891SOL    HW117309   3.457   4.432   2.088  1.9265 -2.4672 -0.4286
 1891SOL    HW217310   3.328   4.375   2.097  0.8488  0.6172  1.5692
 1892SOL     OW17311   2.573   1.264   6.887  0.2618  0.2884 -0.5761
 1892SOL    HW117312   2.603   1.328   6.951 -0.1621 -1.4405  1.3618
 1892SOL    HW217313   2.485   1.242   6.919  0.2114  0.3733 -0.6555
 1893SOL     OW17314   2.204   1.025  17.306 -0.6595 -0.1439  0.2091
 1893SOL    HW117315   2.151   0.990  17.235 -0.5957 -1.8744  1.0107
 1893SOL    HW217316   2.267   0.956  17.327  0.9058  1.7122  1.6363
 1894SOL     OW17317   3.278   0.116   0.763  0.3298  0.3425 -0.2301
 1894SOL    HW117318   3.217   0.099   0.691 -0.0434  0.7731 -0.0096
 1894SOL    HW217319   3.363   0.096   0.724  0.4521 -0.8607  0.6483
 1895SOL     OW17320   4.539   2.742   7.302 -0.0085 -0.6528  0.5297
 1895SOL    HW117321   4.549   2.785   7.387  0.3263  1.0388 -0.3497
 1895SOL    HW217322   4.461   2.689   7.313 -0.7605  0.5247  0.9230
 1896SOL     OW17323   3.541   2.913   5.598 -0.1552  0.1313  0.1082
 1896SOL    HW117324   3.468   2.929   5.539  0.1880  0.9051 -0.1099
 1896SOL    HW217325   3.496   2.870   5.670 -0.0103 -0.8487 -0.3961
 1897SOL     OW17326   1.096   3.121   7.659  0.3878  0.5595  0.1283
 1897SOL    HW117327   1.089   3.205   7.704  1.4498  0.3551  0.6504
 1897SOL    HW217328   1.189   3.103   7.662  0.3043 -0.0220 -0.7104
 1898SOL     OW17329   0.422   4.318   4.235  0.1318  0.4321  0.6917
 1898SOL    HW117330   0.389   4.385   4.175 -0.5698 -1.1811 -0.7200
 1898SOL    HW217331   0.375   4.238   4.212 -0.6773  0.6708  1.5270
 1899SOL     OW17332   0.386   2.641   5.913  0.0862  0.1937 -0.3941
 1899SOL    HW117333   0.372   2.687   5.830  1.7341  0.9341 -0.2525
 1899SOL    HW217334   0.441   2.570   5.881 -0.4927  0.7916 -2.6590
 1900SOL     OW17335   2.128   1.834   1.998 -0.1077  0.5089  0.6184
 1900SOL    HW117336   2.095   1.758   1.948  2.6398  0.0504 -0.4753
 1900SOL    HW217337   2.055   1.891   1.972 -1.0285 -1.7047 -1.7719
 1901SOL     OW17338   2.784   0.001  10.056  0.2215  0.2950 -0.0169
 1901SOL    HW117339   2.798   4.699  10.143  1.0639  0.3266 -0.1401
 1901SOL    HW217340   2.872   0.034  10.038 -0.7253  2.5215 -0.6411
 1902SOL     OW17341   0.132   0.218   4.239 -0.2057  0.0774  0.1405
 1902SOL    HW117342   0.161   0.186   4.153  1.6369 -1.9414  1.5411
 1902SOL    HW217343   0.106   0.308   4.216  2.1798  1.5266  3.1207
 1903SOL     OW17344   2.348   3.016  12.645  0.3813 -0.0332  0.4216
 1903SOL    HW117345   2.320   3.099  12.684 -0.6916  0.9550 -2.4656
 1903SOL    HW217346   2.340   3.037  12.552 -0.2204  1.1860  0.7461
 1904SOL     OW17347   4.346   0.136  11.349 -0.3567  0.0006  1.0271
 1904SOL    HW117348   4.264   0.128  11.397 -0.2408  0.1736  1.2495
 1904SOL    HW217349   4.413   0.166  11.409 -2.1216 -1.4070  3.7184
 1905SOL     OW17350   1.966   3.682  12.017  0.5656 -0.0173  0.3805
 1905SOL    HW117351   1.892   3.722  11.972 -0.8595 -1.2936  1.5917
 1905SOL    HW217352   2.007   3.645  11.940  0.4413  0.9835 -0.1717
 1906SOL     OW17353   2.352   0.739  16.045  0.2945 -0.1061  0.1177
 1906SOL    HW117354   2.384   0.776  16.127  2.0590  3.1056 -2.0498
 1906SOL    HW217355   2.289   0.807  16.022 -0.9599 -0.9868  0.9488
 1907SOL     OW17356   4.484   1.085   1.654  0.4703  0.3460  0.5752
 1907SOL    HW117357   4.553   1.141   1.619  0.4582  1.0762  1.7007
 1907SOL    HW217358   4.430   1.146   1.705  2.7530  0.4275  2.8834
 1908SOL     OW17359   0.939   2.843   2.304 -0.5263 -0.1295 -0.3842
 1908SOL    HW117360   0.921   2.937   2.301  1.8074  0.2535 -2.8315
 1908SOL    HW217361   0.928   2.837   2.209 -0.3328 -1.3349 -0.3282
 1909SOL     OW17362   3.724   3.143  11.018  0.6585  0.0161  0.6352
 1909SOL    HW117363   3.639   3.184  11.004  2.0699  2.2559 -1.3593
 1909SOL    HW217364   3.713   3.049  10.999  3.3484 -0.3280  0.7708
 1910SOL     OW17365   1.771   0.404   1.939 -0.6662  0.3890 -0.0922
 1910SOL    HW117366   1.839   0.454   1.893 -0.6676  0.0447 -0.4659
 1910SOL    HW217367   1.826   0.356   2.002 -1.4134  0.2475  0.4493
 1911SOL     OW17368   2.465   0.259   4.493 -0.2903  0.8918 -0.0032
 1911SOL    HW117369   2.383   0.307   4.482 -0.9308 -0.7462 -2.3801
 1911SOL    HW217370   2.486   0.251   4.586 -0.0920 -0.8807 -0.1979
 1912SOL     OW17371   2.219   2.461   0.796 -0.5497 -0.3871 -0.2799
 1912SOL    HW117372   2.264   2.377   0.810  0.4225  0.2525  0.4621
 1912SOL    HW217373   2.255   2.516   0.865 -2.7298  1.4368 -0.6079
 1913SOL     OW17374   2.910   2.695   4.397 -0.5527  0.5684  0.1011
 1913SOL    HW117375   2.862   2.770   4.362 -1.6127 -0.8475 -1.4657
 1913SOL    HW217376   2.964   2.741   4.462  1.6388  0.1462 -1.4407
 1914SOL     OW17377   2.282   1.924  16.020  0.3795  0.0299 -0.6570
 1914SOL    HW117378   2.247   1.931  16.108  1.2239 -3.2461 -0.0716
 1914SOL    HW217379   2.288   1.828  16.015  0.5097 -0.0953  2.3590
 1915SOL     OW17380   2.857   0.687   4.412  0.8214  0.0025 -0.0028
 1915SOL    HW117381   2.876   0.740   4.489 -2.8898  1.0800  0.1768
 1915SOL    HW217382   2.947   0.672   4.384  0.5284 -1.7402 -0.0092
 1916SOL     OW17383   0.319   3.068   6.499  0.0954 -0.1117 -0.3233
 1916SOL    HW117384   0.250   3.082   6.435 -0.7200  0.0853  0.5922
 1916SOL    HW217385   0.374   3.014   6.443 -0.8230  0.6828 -2.0040
 1917SOL     OW17386   1.462   2.411   9.278 -0.5513 -0.3869  0.6434
 1917SOL    HW117387   1.374   2.381   9.303 -0.3250 -0.6287  1.1389
 1917SOL    HW217388   1.460   2.380   9.187  1.5232 -1.2760  0.9050
 1918SOL     OW17389   4.704   3.132  14.094  0.3225  0.2565 -0.2019
 1918SOL    HW117390   4.673   3.221  14.110  0.0162  0.4266 -1.7957
 1918SOL    HW217391   0.004   3.115  14.182  0.2186 -0.1880 -0.2447
 1919SOL     OW17392   2.320   1.907   7.401 -0.2038 -0.1754  0.3062
 1919SOL    HW117393   2.248   1.958   7.438 -0.1663 -0.1081  0.2868
 1919SOL    HW217394   2.362   1.880   7.483 -0.7091  0.5354  0.7971
 1920SOL     OW17395   1.170   0.060   7.104  0.0565 -0.1344 -0.1901
 1920SOL    HW117396   1.122   4.728   7.055  0.2232  0.5987 -1.3450
 1920SOL    HW217397   1.171   0.025   7.194 -0.1771  0.7913  0.1742
 1921SOL     OW17398   1.999   0.862   4.492 -0.3069 -0.4096 -0.2424
 1921SOL    HW117399   1.941   0.850   4.567 -2.8928  0.9151 -2.0427
 1921SOL    HW217400   1.937   0.873   4.420 -0.6039 -4.1828 -0.5731
 1922SOL     OW17401   0.613   2.498   7.055 -0.0579 -0.6153 -0.1039
 1922SOL    HW117402   0.690   2.556   7.054 -1.3403  1.0594 -1.2132
 1922SOL    HW217403   0.636   2.447   7.132  1.7162  1.0751  0.5025
 1923SOL     OW17404   3.131   2.121   9.268 -0.3919 -0.2683 -0.2193
 1923SOL    HW117405   3.225   2.117   9.285 -0.5822  2.2450  1.4495
 1923SOL    HW217406   3.114   2.140   9.175 -2.6932  0.4412  0.3334
 1924SOL     OW17407   1.373   3.340   4.884 -0.1916  0.4004  0.3096
 1924SOL    HW117408   1.293   3.393   4.887 -0.8855 -0.5800 -0.6250
 1924SOL    HW217409   1.385   3.307   4.973 -0.8069  1.6445  0.8576
 1925SOL     OW17410   0.309   2.843   1.400  0.1435 -0.5233 -0.1352
 1925SOL    HW117411   0.368   2.918   1.406  0.2043 -0.6212  0.4859
 1925SOL    HW217412   0.288   2.853   1.307  1.0620  1.3987 -0.1488
 1926SOL     OW17413   1.604   3.118   9.408 -0.1760  0.2305  0.2187
 1926SOL    HW117414   1.607   3.205   9.369  0.8542 -0.7929 -2.0027
 1926SOL    HW217415   1.672   3.122   9.476  0.5511 -0.8078 -0.4504
 1927SOL     OW17416   3.070   4.573  12.243  0.4270  0.3572  0.0313
 1927SOL    HW117417   3.100   4.485  12.221 -2.2662 -0.6081  0.1335
 1927SOL    HW217418   3.016   4.544  12.317  0.4058 -1.2580 -0.6318
 1928SOL     OW17419   3.408   3.354   0.345  0.1532  0.3896  0.4900
 1928SOL    HW117420   3.355   3.322   0.419  0.7767  0.0523  0.7866
 1928SOL    HW217421   3.428   3.272   0.300  1.4648  0.6785  0.5668
 1929SOL     OW17422   1.181   0.587  16.114 -0.0417  0.1252  0.2531
 1929SOL    HW117423   1.111   0.538  16.070 -0.0680 -1.1827  1.7306
 1929SOL    HW217424   1.218   0.636  16.041 -0.0551  1.5564  1.1953
 1930SOL     OW17425   0.713   3.313   2.450 -0.0812  0.2370  0.0427
 1930SOL    HW117426   0.765   3.235   2.427  0.3404  0.9906 -1.5862
 1930SOL    HW217427   0.642   3.317   2.386 -0.2917  1.4796  0.3707
 1931SOL     OW17428   4.696   1.266  14.653 -0.3157 -0.0691 -0.0706
 1931SOL    HW117429   4.610   1.228  14.638 -1.3110  1.0067  3.0447
 1931SOL    HW217430   0.005   1.245  14.570  0.1577 -1.3008  0.4922
 1932SOL     OW17431   1.720   3.304  14.116  0.1556 -0.0495  0.3478
 1932SOL    HW117432   1.655   3.362  14.076  0.1187 -0.8674 -0.8049
 1932SOL    HW217433   1.799   3.354  14.097 -0.7367  0.4760 -2.0387
 1933SOL     OW17434   2.708   0.816  16.812  0.5415 -0.4522  0.4154
 1933SOL    HW117435   2.647   0.885  16.840 -0.3660 -0.7340 -0.8565
 1933SOL    HW217436   2.789   0.861  16.788 -1.6942  2.4707 -1.7410
 1934SOL     OW17437   4.436   4.156   0.531 -0.0920  0.5266 -0.1429
 1934SOL    HW117438   4.374   4.164   0.459 -0.9164 -0.4783  0.4560
 1934SOL    HW217439   4.516   4.139   0.481 -0.1101 -0.6334  0.2396
 1935SOL     OW17440   0.856   4.533   6.231  0.1364 -0.3871  0.0834
 1935SOL    HW117441   0.831   4.576   6.312  0.6079  0.1263 -0.0404
 1935SOL    HW217442   0.868   4.443   6.262  0.3918 -0.9460 -1.6231
 1936SOL     OW17443   3.256   3.765   7.799 -0.4346  0.3588 -0.2231
 1936SOL    HW117444   3.296   3.687   7.761 -0.2632  1.0812 -1.4959
 1936SOL    HW217445   3.236   3.736   7.888 -0.3328  0.8925 -0.0265
 1937SOL     OW17446   2.178   3.336   3.961  0.8149 -0.0688  0.0853
 1937SOL    HW117447   2.267   3.323   3.928  0.4710 -0.4821 -0.6772
 1937SOL    HW217448   2.124   3.317   3.884  0.1153  1.4532  0.1950
 1938SOL     OW17449   2.236   1.935   8.800 -0.7690  0.5984  0.0559
 1938SOL    HW117450   2.313   1.907   8.849 -1.4252  1.9209  1.8772
 1938SOL    HW217451   2.200   1.991   8.869 -0.3167  0.7041  0.2000
 1939SOL     OW17452   4.145   2.558   1.760 -0.1615  0.1193 -0.2367
 1939SOL    HW117453   4.197   2.573   1.839  0.7263  2.5330 -1.2888
 1939SOL    HW217454   4.210   2.524   1.697 -0.2584 -0.9226  0.2173
 1940SOL     OW17455   2.015   3.409   6.274 -0.4372  0.6392 -0.8340
 1940SOL    HW117456   2.007   3.505   6.270  2.2164  0.9802  1.6909
 1940SOL    HW217457   2.100   3.404   6.317  0.1730  0.8266 -2.0088
 1941SOL     OW17458   1.454   0.451  15.873  0.2614 -0.1596 -0.1344
 1941SOL    HW117459   1.510   0.431  15.798 -0.9042  0.7825 -1.2446
 1941SOL    HW217460   1.482   0.542  15.885  0.5830 -0.4611  1.3858
 1942SOL     OW17461   2.409   2.844  17.310 -0.4114 -0.1791 -0.0644
 1942SOL    HW117462   2.462   2.922  17.328  0.3602 -0.2221 -2.2142
 1942SOL    HW217463   2.458   2.778  17.359 -0.6474 -0.8147 -0.6891
 1943SOL     OW17464   4.669   3.906   2.003 -0.5738  0.4035 -0.2827
 1943SOL    HW117465   4.646   3.815   1.984 -2.3536  0.7067  0.4830
 1943SOL    HW217466   0.028   3.913   1.985 -0.3730 -1.5482  0.0248
 1944SOL     OW17467   0.800   0.913   4.455 -0.0643  0.3383  0.0768
 1944SOL    HW117468   0.796   0.831   4.505 -0.6674 -0.0803 -0.6445
 1944SOL    HW217469   0.746   0.974   4.505  1.2064  0.3947  1.3684
 1945SOL     OW17470   0.920   3.428   6.112 -0.2656  0.0404 -0.2539
 1945SOL    HW117471   0.908   3.355   6.051 -0.6706  0.5423 -0.7695
 1945SOL    HW217472   0.997   3.406   6.164 -1.1094  1.5358  1.6373
 1946SOL     OW17473   0.685   3.955   7.303 -0.3296 -0.1376 -0.2551
 1946SOL    HW117474   0.725   4.042   7.303  0.0496 -0.3121 -0.6706
 1946SOL    HW217475   0.607   3.981   7.254 -0.8547  2.7026  2.0391
 1947SOL     OW17476   0.258   0.455   5.896 -0.0601  0.0882 -0.3889
 1947SOL    HW117477   0.328   0.413   5.846  0.2079 -1.6842  1.4730
 1947SOL    HW217478   0.203   0.383   5.927  0.1965  0.6785  1.4119
 1948SOL     OW17479   2.917   1.611  14.067 -0.0076 -0.1114 -0.1074
 1948SOL    HW117480   2.978   1.676  14.103  2.0534 -2.6126  0.9642
 1948SOL    HW217481   2.843   1.658  14.030 -0.6535 -1.0026  0.0635
 1949SOL     OW17482   3.637   1.504   9.401  0.2925  0.2050  0.0155
 1949SOL    HW117483   3.543   1.484   9.397  0.1720  0.3950  2.0815
 1949SOL    HW217484   3.671   1.418   9.424  1.3474  1.3157  2.5608
 1950SOL     OW17485   4.370   4.249   6.784 -0.0867 -0.2953 -0.7325
 1950SOL    HW117486   4.278   4.223   6.781  0.2940 -1.5148 -1.6926
 1950SOL    HW217487   4.407   4.162   6.770 -1.1739 -1.5522  4.2587
 1951SOL     OW17488   3.338   2.914   3.132  0.2772 -0.2971  0.1812
 1951SOL    HW117489   3.314   2.959   3.213  0.4311  2.4381 -1.3030
 1951SOL    HW217490   3.425   2.949   3.114  0.4151 -0.8367 -0.1928
 1952SOL     OW17491   3.780   0.227   5.405 -0.1388  0.6296  0.2198
 1952SOL    HW117492   3.830   0.165   5.458 -0.1676  0.7451  0.3841
 1952SOL    HW217493   3.690   0.207   5.431  0.0711 -0.5020  0.1126
 1953SOL     OW17494   3.179   2.323   3.394  0.4564  0.0824 -0.3550
 1953SOL    HW117495   3.173   2.305   3.300  3.4248 -2.7522  0.0156
 1953SOL    HW217496   3.241   2.395   3.405  1.2292 -0.6646  0.1262
 1954SOL     OW17497   4.357   3.589   4.762 -0.1607 -0.2234 -0.0883
 1954SOL    HW117498   4.423   3.656   4.780 -0.5341 -0.1889  1.1168
 1954SOL    HW217499   4.394   3.521   4.818  1.0701  0.6040  0.1047
 1955SOL     OW17500   2.537   2.599   0.699 -0.2694 -0.1300 -0.2259
 1955SOL    HW117501   2.618   2.550   0.690  0.5683  1.0323  0.9281
 1955SOL    HW217502   2.487   2.553   0.631  0.2370  2.9931 -2.7162
 1956SOL     OW17503   2.668   1.362  15.476 -0.1466  0.2329 -0.8468
 1956SOL    HW117504   2.590   1.387  15.525 -0.8262  2.7128 -3.1337
 1956SOL    HW217505   2.708   1.299  15.536  1.0184  0.2642 -1.5814
 1957SOL     OW17506   4.465   4.133   5.133 -0.9592 -0.1874  0.6495
 1957SOL    HW117507   4.543   4.187   5.136 -0.4199 -0.9901  1.0585
 1957SOL    HW217508   4.401   4.194   5.171  1.3663  2.9918 -0.5781
 1958SOL     OW17509   2.628   4.420   7.561 -0.6321  0.2976 -0.0300
 1958SOL    HW117510   2.553   4.386   7.609 -0.0000 -0.4175  0.4388
 1958SOL    HW217511   2.587   4.410   7.475  0.8680  1.2852 -0.8483
 1959SOL     OW17512   4.182   1.619   2.909  0.1700  0.1742  0.8498
 1959SOL    HW117513   4.265   1.573   2.892  0.3150  1.2131 -1.2630
 1959SOL    HW217514   4.128   1.544   2.935 -0.0303  0.8195  2.2658
 1960SOL     OW17515   1.701   3.553  13.067 -0.4418 -0.8322  0.0524
 1960SOL    HW117516   1.614   3.514  13.072 -0.5618 -0.7355 -1.3663
 1960SOL    HW217517   1.728   3.545  13.159 -0.5468  1.0156  0.2319
 1961SOL     OW17518   1.295   1.049   1.933 -0.4741 -0.3161 -0.1602
 1961SOL    HW117519   1.250   1.127   1.901 -0.5063 -0.6183 -0.8380
 1961SOL    HW217520   1.350   1.080   2.005  0.1639 -0.6532 -0.5042
 1962SOL     OW17521   1.887   0.504   7.951 -0.1175  0.2386 -0.0793
 1962SOL    HW117522   1.809   0.500   7.896 -0.3838  1.4371  0.2297
 1962SOL    HW217523   1.853   0.511   8.040 -3.4463 -0.5476 -1.2984
 1963SOL     OW17524   3.060   3.525   2.828 -0.3982 -0.2323 -0.2211
 1963SOL    HW117525   3.108   3.583   2.887  1.0030 -0.9361 -0.6750
 1963SOL    HW217526   3.131   3.466   2.805  0.8624  0.4875  1.8833
 1964SOL     OW17527   2.408   1.438   9.410 -0.2558  0.6921  0.1314
 1964SOL    HW117528   2.339   1.390   9.364  0.7775 -0.0106 -0.6745
 1964SOL    HW217529   2.351   1.463   9.484  1.3657 -1.1248  1.9964
 1965SOL     OW17530   3.907   3.923   3.593 -0.5746 -0.5899  0.4897
 1965SOL    HW117531   3.995   3.925   3.556 -0.6945  0.0867  0.2479
 1965SOL    HW217532   3.889   4.017   3.599  0.1782 -0.3703 -0.6974
 1966SOL     OW17533   2.894   0.531   5.228  0.8710  0.1896  0.2727
 1966SOL    HW117534   2.944   0.518   5.148 -0.0464 -0.6691 -0.1611
 1966SOL    HW217535   2.958   0.570   5.288 -0.2556  1.6334  0.5479
 1967SOL     OW17536   1.105   0.217   1.925 -0.3554  0.3859 -0.2345
 1967SOL    HW117537   1.116   0.208   2.020  1.2071  0.0020 -0.4426
 1967SOL    HW217538   1.177   0.163   1.892  0.4256  1.7444 -0.7547
 1968SOL     OW17539   4.106   1.642  12.368 -0.2888  0.3087 -0.1888
 1968SOL    HW117540   4.021   1.670  12.335 -0.9525  0.8799  2.0450
 1968SOL    HW217541   4.093   1.548  12.384 -0.0906  0.9031  3.5170
 1969SOL     OW17542   1.307   1.824   4.063 -0.1088 -0.0290 -0.1221
 1969SOL    HW117543   1.350   1.758   4.118 -2.3388 -1.0122  0.4381
 1969SOL    HW217544   1.360   1.836   3.984  0.8449  1.2343  0.7236
 1970SOL     OW17545   0.481   0.355   5.735  0.1015  0.6343  0.3992
 1970SOL    HW117546   0.397   0.313   5.713  1.1040 -1.4188  0.4439
 1970SOL    HW217547   0.469   0.426   5.673 -1.2714 -0.3299 -0.4598
 1971SOL     OW17548   0.498   2.003   2.001 -0.3908 -0.0138  0.3974
 1971SOL    HW117549   0.440   1.953   1.944  0.6746 -1.4237  0.5562
 1971SOL    HW217550   0.465   1.988   2.089  0.7427  0.9523  0.9963
 1972SOL     OW17551   4.489   4.717  17.097  0.1467  0.7299  0.0227
 1972SOL    HW117552   4.571   0.029  17.108  0.7540 -0.0801 -0.9663
 1972SOL    HW217553   4.500   4.648  17.162 -1.0802  1.1991  0.7143
 1973SOL     OW17554   3.145   1.309   3.643  0.6349 -0.1010  0.7093
 1973SOL    HW117555   3.162   1.383   3.701 -0.3511  3.0159 -2.9733
 1973SOL    HW217556   3.156   1.238   3.706 -1.2021  0.2963  1.4857
 1974SOL     OW17557   1.857   0.056   8.975  0.9372  0.1555  0.2498
 1974SOL    HW117558   1.903   0.105   8.907 -2.6243  0.6178 -1.8485
 1974SOL    HW217559   1.775   0.040   8.929  1.6422  0.6612 -1.1722
 1975SOL     OW17560   4.522   0.668   8.052 -0.4460 -0.2545  0.8437
 1975SOL    HW117561   4.451   0.607   8.034  0.5353 -0.5034 -2.2321
 1975SOL    HW217562   4.595   0.606   8.040 -1.3014 -1.1061  0.0247
 1976SOL     OW17563   4.358   3.225  15.043 -0.0197  0.0249 -0.3832
 1976SOL    HW117564   4.445   3.189  15.054  0.3281  1.3629  1.3014
 1976SOL    HW217565   4.305   3.160  15.090  1.0892 -0.5529  0.0581
 1977SOL     OW17566   1.418   1.382   4.341 -0.0413 -0.1211 -0.2734
 1977SOL    HW117567   1.436   1.473   4.319  0.3286 -0.0496  0.3164
 1977SOL    HW217568   1.375   1.399   4.425 -0.6647  1.3321 -0.8922
 1978SOL     OW17569   4.370   4.251  11.518 -0.0501 -0.2435  0.2427
 1978SOL    HW117570   4.362   4.344  11.542 -2.1386 -0.0745 -1.1673
 1978SOL    HW217571   4.298   4.211  11.566  0.0972 -0.7096  0.0738
 1979SOL     OW17572   1.260   2.088   4.854 -0.1509  0.8716 -0.3540
 1979SOL    HW117573   1.282   2.157   4.791  1.0989 -0.1630 -1.0511
 1979SOL    HW217574   1.341   2.082   4.905 -0.4069 -1.1111 -0.2025
 1980SOL     OW17575   1.275   4.728  10.476  0.5776  0.1398 -0.3212
 1980SOL    HW117576   1.360   0.036  10.475 -0.4787  2.2702 -0.0082
 1980SOL    HW217577   1.233   0.047  10.543  1.4021  1.2766 -0.7177
 1981SOL     OW17578   0.298   0.368   5.127 -0.0691 -0.2014  0.7245
 1981SOL    HW117579   0.277   0.356   5.035  0.5938  0.8693  0.4352
 1981SOL    HW217580   0.361   0.438   5.109 -2.2613  1.6080  0.1687
 1982SOL     OW17581   0.482   2.253   5.681  0.3411 -0.3362 -0.1119
 1982SOL    HW117582   0.518   2.280   5.596  0.0492 -0.4541 -0.2714
 1982SOL    HW217583   0.467   2.159   5.680  0.1907 -0.3048 -1.3114
 1983SOL     OW17584   0.606   3.421   2.991  0.6772 -0.3141 -0.0452
 1983SOL    HW117585   0.572   3.510   2.996  0.1798 -0.6217  2.0725
 1983SOL    HW217586   0.697   3.428   3.020  0.8255 -1.7721 -0.1441
 1984SOL     OW17587   4.571   0.627  10.172 -0.1013 -0.2463  0.2019
 1984SOL    HW117588   4.639   0.575  10.215 -0.0740 -0.3611  0.0207
 1984SOL    HW217589   4.537   0.688  10.238 -1.2211 -0.3850 -0.2599
 1985SOL     OW17590   0.398   2.629   2.300  0.0328 -0.6755  0.4430
 1985SOL    HW117591   0.374   2.546   2.261 -1.3298 -0.2771  0.4314
 1985SOL    HW217592   0.347   2.635   2.381 -0.7073  2.2912 -0.2265
 1986SOL     OW17593   1.319   0.081  11.487  0.1672  0.0706 -0.2431
 1986SOL    HW117594   1.411   0.076  11.459 -0.3211 -0.0782 -1.8027
 1986SOL    HW217595   1.287   0.001  11.446 -0.5260  0.8589 -1.2301
 1987SOL     OW17596   3.549   3.920   9.961 -0.1439 -0.0355  0.1418
 1987SOL    HW117597   3.461   3.927   9.998 -0.8851 -1.3195 -1.3865
 1987SOL    HW217598   3.594   3.978  10.023 -1.5884  1.5026 -0.2348
 1988SOL     OW17599   4.145   2.575   3.617 -0.4379 -0.1987  0.7231
 1988SOL    HW117600   4.226   2.524   3.611  0.7136  1.4507  2.0612
 1988SOL    HW217601   4.185   2.651   3.573  2.4685 -0.9713  2.0080
 1989SOL     OW17602   2.083   3.644  13.939  0.2819  0.8834 -0.1646
 1989SOL    HW117603   2.065   3.721  13.885  0.0572  0.0808 -1.2484
 1989SOL    HW217604   2.176   3.657  13.959  0.2496  1.2291 -0.2432
 1990SOL     OW17605   3.357   0.789  11.485  0.2115 -0.6643 -0.0224
 1990SOL    HW117606   3.310   0.834  11.415  4.1395  1.0955 -1.5755
 1990SOL    HW217607   3.415   0.733  11.433 -1.0115 -2.8939  1.0104
 1991SOL     OW17608   2.422   4.429   6.443  0.3879  0.3940  0.3419
 1991SOL    HW117609   2.468   4.406   6.362 -2.6307 -0.2651 -1.1972
 1991SOL    HW217610   2.505   4.454   6.483 -1.8570  3.9861  2.6842
 1992SOL     OW17611   0.354   2.436  14.118  0.7796  0.5153 -0.0368
 1992SOL    HW117612   0.408   2.361  14.138  2.2417  1.0840 -1.8535
 1992SOL    HW217613   0.413   2.498  14.074 -0.0459 -0.2080 -2.1868
 1993SOL     OW17614   3.115   4.421  13.836  0.3117 -0.8166 -0.4806
 1993SOL    HW117615   3.191   4.472  13.865 -0.0049  0.2990 -1.6054
 1993SOL    HW217616   3.123   4.336  13.879 -0.4805  1.0693  3.4074
 1994SOL     OW17617   0.505   2.602  13.553 -0.2948  0.0931 -0.1783
 1994SOL    HW117618   0.486   2.655  13.630  0.9481 -1.0025  0.8733
 1994SOL    HW217619   0.570   2.654  13.505  1.0042 -0.0649  1.4363
 1995SOL     OW17620   2.124   2.345   7.538  0.6839 -0.6297  0.0823
 1995SOL    HW117621   2.046   2.372   7.490  0.3986  1.4444  1.7210
 1995SOL    HW217622   2.140   2.428   7.583 -0.8855 -1.7418  2.6923
 1996SOL     OW17623   3.837   3.998   0.366  0.3176  0.0801  0.8840
 1996SOL    HW117624   3.767   4.008   0.430 -2.7240  3.1100 -2.9388
 1996SOL    HW217625   3.835   4.085   0.325 -0.1504 -0.4688 -0.2746
 1997SOL     OW17626   1.005   1.046   7.713 -0.1097 -0.0222  0.5647
 1997SOL    HW117627   0.987   1.104   7.639  0.0246 -1.3678 -0.5185
 1997SOL    HW217628   0.939   0.978   7.696  1.0881 -1.8211  3.0791
 1998SOL     OW17629   2.828   1.013   3.653  0.2096 -0.3243 -0.1771
 1998SOL    HW117630   2.813   1.101   3.687  0.4116 -1.1532  2.0681
 1998SOL    HW217631   2.882   0.982   3.725 -1.3945  0.3255  1.3088
 1999SOL     OW17632   2.745   4.149  12.484  0.0025  0.3920  0.2116
 1999SOL    HW117633   2.735   4.095  12.406 -2.0719  0.7553  0.2404
 1999SOL    HW217634   2.687   4.222  12.468 -0.6942 -0.7889 -2.5126
 2000SOL     OW17635   2.183   0.812  14.656 -0.0289  0.4307  0.6603
 2000SOL    HW117636   2.260   0.867  14.640  0.8707 -0.9929  0.1881
 2000SOL    HW217637   2.113   0.873  14.630 -0.1122  0.5394  1.1475
 2001SOL     OW17638   0.147   0.020   7.262  0.3123 -0.6699  0.4685
 2001SOL    HW117639   0.197   4.680   7.230  0.5550 -0.2919 -0.0426
 2001SOL    HW217640   0.194   0.038   7.344 -1.5750  4.0125  0.4849
 2002SOL     OW17641   1.664   0.613   4.610  0.4877  0.2343  0.2945
 2002SOL    HW117642   1.731   0.675   4.640  0.6352 -0.5037  1.5095
 2002SOL    HW217643   1.600   0.674   4.574 -0.2240 -0.5600  0.2433
 2003SOL     OW17644   0.846   0.217   1.795 -0.0956  0.3752  0.3554
 2003SOL    HW117645   0.866   0.127   1.769 -0.7185  0.4389 -0.3297
 2003SOL    HW217646   0.922   0.236   1.850  0.7826  1.8221 -1.3663
 2004SOL     OW17647   2.638   1.454   7.110 -0.3653  0.2517 -0.0525
 2004SOL    HW117648   2.662   1.382   7.168  1.4182  0.7185 -0.2352
 2004SOL    HW217649   2.722   1.499   7.102 -0.2964  0.2563  0.6954
 2005SOL     OW17650   1.044   2.004   5.339 -0.1721 -0.1954 -0.1844
 2005SOL    HW117651   1.132   2.037   5.360  0.0256 -1.0376  0.3099
 2005SOL    HW217652   1.069   1.957   5.259 -0.5302  2.3674 -1.8119
 2006SOL     OW17653   4.106   0.762   4.513 -0.2831  0.1569 -0.2060
 2006SOL    HW117654   4.148   0.711   4.444  2.4660  0.1395  1.5034
 2006SOL    HW217655   4.175   0.755   4.579 -0.1864  0.3008 -0.2913
 2007SOL     OW17656   0.407   0.633   4.720 -0.7062  0.3176  0.4647
 2007SOL    HW117657   0.371   0.690   4.652 -1.2972 -1.7480 -0.9383
 2007SOL    HW217658   0.420   0.550   4.674  0.3324  0.9564 -0.3930
 2008SOL     OW17659   0.532   1.745   2.684  0.2017  0.2292 -0.4702
 2008SOL    HW117660   0.537   1.650   2.669  0.9956  0.2714 -0.4896
 2008SOL    HW217661   0.464   1.769   2.621  1.0235 -0.2492 -1.5486
 2009SOL     OW17662   3.214   0.488   5.707  0.4635  0.0308 -0.1393
 2009SOL    HW117663   3.227   0.431   5.782 -0.6055 -0.1667 -0.0982
 2009SOL    HW217664   3.175   0.429   5.643  0.7252 -0.0478 -0.2266
 2010SOL     OW17665   3.126   1.762   7.407 -0.6493 -0.3066 -0.3180
 2010SOL    HW117666   3.163   1.850   7.413 -0.0733 -0.6905  1.6340
 2010SOL    HW217667   3.032   1.773   7.397 -0.5627 -0.6127 -1.4998
 2011SOL     OW17668   1.865   2.603   4.592 -0.6025 -0.1771  0.1572
 2011SOL    HW117669   1.804   2.630   4.523  1.5677  0.2331 -1.6025
 2011SOL    HW217670   1.857   2.679   4.650  2.2050  0.1051  0.1574
 2012SOL     OW17671   2.594   4.518   3.174  0.5647  0.2120 -0.7393
 2012SOL    HW117672   2.518   4.548   3.124 -1.7132 -1.0316  1.9938
 2012SOL    HW217673   2.599   4.577   3.250  0.6915 -0.8007  0.0337
 2013SOL     OW17674   2.121   3.641  12.604  0.0868 -0.5432  0.4287
 2013SOL    HW117675   2.033   3.656  12.570  0.8154 -0.0462 -1.1943
 2013SOL    HW217676   2.163   3.590  12.535 -1.4983  0.0027 -0.9284
 2014SOL     OW17677   3.624   0.618  17.510 -0.4131  0.0235 -0.4367
 2014SOL    HW117678   3.597   0.615  17.419  0.6737  0.9719 -0.7919
 2014SOL    HW217679   3.538   0.601  17.549  0.1965 -2.6221 -0.2217
 2015SOL     OW17680   1.397   3.199   3.530 -0.2697  0.7338 -0.0943
 2015SOL    HW117681   1.388   3.288   3.496 -1.2121  0.3810 -0.7584
 2015SOL    HW217682   1.305   3.179   3.545 -0.2260  1.3552  0.9119
 2016SOL     OW17683   3.695   2.971  15.453 -0.4782  0.4614  0.4118
 2016SOL    HW117684   3.670   3.022  15.376  2.1328 -3.0133 -2.7346
 2016SOL    HW217685   3.624   2.907  15.455  0.3846 -0.5581 -1.3466
 2017SOL     OW17686   0.516   2.637   4.851 -0.0887  0.0987  0.5602
 2017SOL    HW117687   0.452   2.708   4.841  1.6554  1.6330  0.2521
 2017SOL    HW217688   0.596   2.689   4.859  0.6118 -0.8865 -0.0659
 2018SOL     OW17689   3.283   4.067   5.902  0.7833  0.1665 -0.1081
 2018SOL    HW117690   3.282   4.142   5.843 -2.3362 -0.5207 -0.8896
 2018SOL    HW217691   3.368   4.021   5.899 -0.1254 -1.4420 -0.8907
 2019SOL     OW17692   4.677   1.017  10.310 -0.0286  0.2653 -0.4512
 2019SOL    HW117693   4.682   1.062  10.225 -3.3148 -0.0281 -0.7993
 2019SOL    HW217694   4.595   0.971  10.296  1.5805 -3.0440  0.9320
 2020SOL     OW17695   1.189   1.734   6.131  0.2174  0.2604  0.3452
 2020SOL    HW117696   1.179   1.810   6.188  0.0707 -1.3400  2.4433
 2020SOL    HW217697   1.096   1.732   6.108 -0.0795 -1.2011  1.7123
 2021SOL     OW17698   0.677   0.942  10.518  0.2481 -0.4138  0.1402
 2021SOL    HW117699   0.681   0.984  10.604 -0.7184  0.3479 -0.1868
 2021SOL    HW217700   0.726   1.002  10.462  0.1057  3.1631  3.8926
 2022SOL     OW17701   2.908   2.797   5.467  0.3564  0.0736 -0.9535
 2022SOL    HW117702   2.876   2.837   5.386 -2.7771  0.4374  0.4965
 2022SOL    HW217703   2.908   2.703   5.450  1.5160  0.0518 -0.8643
 2023SOL     OW17704   2.399   2.728   6.716  0.4138  0.0438 -0.0246
 2023SOL    HW117705   2.472   2.742   6.776  0.9900 -0.8412 -0.5165
 2023SOL    HW217706   2.335   2.788   6.756  1.8703  0.2309  2.0239
 2024SOL     OW17707   1.353   0.559   8.027  0.2452  0.2395 -0.0187
 2024SOL    HW117708   1.441   0.540   8.062 -0.6674  0.4218  2.3662
 2024SOL    HW217709   1.353   0.654   8.038  0.6025  0.2721 -0.2904
 2025SOL     OW17710   3.753   3.607   3.137 -0.3274 -0.1766 -0.1059
 2025SOL    HW117711   3.719   3.542   3.076 -0.1572  0.6162 -1.0524
 2025SOL    HW217712   3.844   3.576   3.136 -0.7691 -1.4545 -2.3484
 2026SOL     OW17713   2.007   3.323   4.152 -0.5346 -0.5840  0.3278
 2026SOL    HW117714   2.032   3.253   4.212 -0.1227  0.3304  1.2227
 2026SOL    HW217715   2.083   3.333   4.096 -1.2469 -2.8625 -1.0714
 2027SOL     OW17716   0.436   2.140   0.931  0.3054  0.2608 -0.4527
 2027SOL    HW117717   0.524   2.118   0.960  0.2366  0.2739 -0.2381
 2027SOL    HW217718   0.443   2.125   0.836  2.4796  1.5584 -0.4953
 2028SOL     OW17719   3.505   0.452   4.055  0.1874  0.2175 -0.0389
 2028SOL    HW117720   3.539   0.389   4.118  1.0201  0.4219 -0.2898
 2028SOL    HW217721   3.582   0.482   4.006  0.2256  0.9251  0.4563
 2029SOL     OW17722   4.510   1.202  14.972 -0.3104  0.1724 -0.2059
 2029SOL    HW117723   4.502   1.167  14.883 -2.2674  0.0084  0.0369
 2029SOL    HW217724   4.446   1.147  15.016  0.5257  2.3000  3.6793
 2030SOL     OW17725   3.944   4.472  15.622  0.8944 -0.1481  0.6887
 2030SOL    HW117726   3.951   4.553  15.672  1.2225 -1.0269  2.0637
 2030SOL    HW217727   4.030   4.473  15.580  0.1494  1.3860 -0.8291
 2031SOL     OW17728   3.374   2.225   4.461 -0.4962  0.3627  0.1133
 2031SOL    HW117729   3.420   2.169   4.523 -1.6459 -0.5696  0.1242
 2031SOL    HW217730   3.444   2.220   4.395 -1.9528 -0.5512 -1.3539
 2032SOL     OW17731   3.178   1.023   2.841  0.3191  0.4011  0.1528
 2032SOL    HW117732   3.163   1.006   2.748  0.1128 -0.0696  0.2701
 2032SOL    HW217733   3.092   1.000   2.877 -0.2684  0.2369 -1.3125
 2033SOL     OW17734   3.559   4.322   3.574 -0.2982  0.0302 -0.3186
 2033SOL    HW117735   3.518   4.361   3.497 -1.0297  0.7365  0.4289
 2033SOL    HW217736   3.554   4.228   3.556  1.3867 -0.0264 -0.5248
 2034SOL     OW17737   1.102   0.823   3.242 -0.0254 -0.5331 -0.3085
 2034SOL    HW117738   1.093   0.881   3.318 -0.0077  0.6964 -1.2413
 2034SOL    HW217739   1.179   0.862   3.200 -1.3921  1.6190 -0.8515
 2035SOL     OW17740   3.849   3.938   8.122 -0.4211 -0.0034 -0.2461
 2035SOL    HW117741   3.781   3.877   8.149 -0.6066  0.4770  0.3747
 2035SOL    HW217742   3.809   4.013   8.166  0.4358 -0.4876  1.3339
 2036SOL     OW17743   3.210   1.722   0.714  0.3239 -0.1465 -0.4356
 2036SOL    HW117744   3.192   1.800   0.767  2.8220 -0.8272  1.4246
 2036SOL    HW217745   3.202   1.752   0.624  0.1874 -0.9943 -0.7011
 2037SOL     OW17746   2.442   0.553   6.413 -0.1896  0.3641  0.1344
 2037SOL    HW117747   2.451   0.648   6.402  1.4024  0.0351 -1.4678
 2037SOL    HW217748   2.485   0.515   6.336 -0.4931 -0.6079  0.4476
 2038SOL     OW17749   3.498   0.652  16.048 -0.4424  0.0379  0.3277
 2038SOL    HW117750   3.581   0.669  16.092 -0.6332  1.1287  0.2781
 2038SOL    HW217751   3.446   0.727  16.080  2.3071  1.3345  1.6976
 2039SOL     OW17752   0.730   2.779   6.746 -0.4738 -0.3292  0.4791
 2039SOL    HW117753   0.656   2.758   6.690 -0.3937  2.5374 -0.7221
 2039SOL    HW217754   0.806   2.794   6.689 -0.9770  0.8030  0.1043
 2040SOL     OW17755   3.123   1.333   5.426 -0.0997 -0.0869  0.1320
 2040SOL    HW117756   3.187   1.322   5.356  0.9016  4.2441  0.3882
 2040SOL    HW217757   3.177   1.390   5.480 -3.0710  3.2852 -0.4571
 2041SOL     OW17758   4.377   2.679  11.808  0.4285 -0.1225 -0.0613
 2041SOL    HW117759   4.363   2.645  11.896  0.8922  0.6380  0.2967
 2041SOL    HW217760   4.308   2.628  11.764 -0.9899 -0.6111  2.6976
 2042SOL     OW17761   3.731   2.753  14.390  0.6704  0.4966  0.4892
 2042SOL    HW117762   3.818   2.737  14.354 -0.0067 -1.9647 -0.0958
 2042SOL    HW217763   3.724   2.847  14.405  1.2850  0.1969  2.5859
 2043SOL     OW17764   0.661   4.012  13.824 -0.1138  0.1953  0.2770
 2043SOL    HW117765   0.604   4.087  13.838 -0.6329  0.0547 -1.1069
 2043SOL    HW217766   0.747   4.053  13.832  0.3106 -0.2079 -2.1678
 2044SOL     OW17767   0.078   0.793   4.277 -0.0378  0.2054 -0.2549
 2044SOL    HW117768   0.021   0.868   4.295  1.1370  1.2553 -0.9051
 2044SOL    HW217769   0.128   0.831   4.205  0.7093 -0.2596  0.0216
 2045SOL     OW17770   3.639   4.639  16.069 -0.6660 -0.1116 -0.4988
 2045SOL    HW117771   3.731   4.653  16.046 -0.6903 -1.8170 -1.6288
 2045SOL    HW217772   3.595   4.705  16.016 -0.3805  0.3236 -0.1880
 2046SOL     OW17773   3.519   0.911   3.404  0.2641 -0.4575 -0.3566
 2046SOL    HW117774   3.505   0.829   3.452 -0.5567  1.2865  2.3620
 2046SOL    HW217775   3.434   0.935   3.367  0.1055  0.7520  0.8030
 2047SOL     OW17776   1.488   3.762  12.823 -0.4700 -0.1391 -0.0132
 2047SOL    HW117777   1.498   3.844  12.873  2.0924 -0.5219  0.0723
 2047SOL    HW217778   1.550   3.768  12.751 -0.3542  0.9815  0.1702
 2048SOL     OW17779   0.607   0.382   6.532  0.7320  0.4858 -0.2268
 2048SOL    HW117780   0.660   0.455   6.565  1.9056  0.3050 -1.6825
 2048SOL    HW217781   0.520   0.414   6.555  0.8737  1.8115 -1.5656
 2049SOL     OW17782   2.675   3.222   1.648  0.5774  0.0717  0.3295
 2049SOL    HW117783   2.656   3.142   1.598  0.8340 -0.1513  0.5924
 2049SOL    HW217784   2.652   3.189   1.735  1.1019 -0.9748  0.0689
 2050SOL     OW17785   4.668   3.287   2.561 -0.1717  0.2873 -0.0628
 2050SOL    HW117786   0.014   3.240   2.544 -0.7753 -0.9479  0.4424
 2050SOL    HW217787   4.610   3.215   2.588  1.9046 -0.9806  0.9770
 2051SOL     OW17788   0.835   0.548  16.625  0.9391 -0.3802 -0.0800
 2051SOL    HW117789   0.869   0.562  16.713 -1.4209  1.4047  0.5526
 2051SOL    HW217790   0.763   0.611  16.626  0.4565 -0.9242 -1.1273
 2052SOL     OW17791   1.536   2.122   2.744  0.1479  0.3901 -0.6547
 2052SOL    HW117792   1.559   2.198   2.689  0.9594  1.5333  1.2536
 2052SOL    HW217793   1.454   2.095   2.703  1.0791 -1.7965 -1.0979
 2053SOL     OW17794   2.238   0.077   8.656  0.2942 -0.0100  0.0985
 2053SOL    HW117795   2.297   0.138   8.699 -0.0212 -0.1824  0.7644
 2053SOL    HW217796   2.212   0.015   8.725 -0.4166 -2.4602 -2.3415
 2054SOL     OW17797   4.590   1.591   2.641  0.0953  0.7689  0.0323
 2054SOL    HW117798   4.626   1.513   2.599  0.6705  0.8131  0.4527
 2054SOL    HW217799   4.534   1.550   2.707  1.4728  2.5786  2.3245
 2055SOL     OW17800   1.712   3.150   4.519  0.3526  0.7308  1.4329
 2055SOL    HW117801   1.787   3.095   4.494 -1.9323 -1.5478 -0.4670
 2055SOL    HW217802   1.661   3.088   4.571 -0.4545 -0.5219 -0.8661
 2056SOL     OW17803   0.728   1.404   4.532  0.2171 -0.1957  0.1947
 2056SOL    HW117804   0.664   1.353   4.583 -0.5632 -0.2420 -0.8301
 2056SOL    HW217805   0.702   1.374   4.445  1.7996  2.1699 -1.0729
 2057SOL     OW17806   2.874   3.045  15.159  0.0162  0.4520 -0.2486
 2057SOL    HW117807   2.856   2.966  15.210 -0.8658  1.4677  1.0140
 2057SOL    HW217808   2.897   3.097  15.236  0.6018  0.7387 -0.6157
 2058SOL     OW17809   2.796   2.373   7.990  0.4849 -0.0786 -0.3038
 2058SOL    HW117810   2.776   2.330   8.073  1.3715 -2.5804 -1.3939
 2058SOL    HW217811   2.866   2.313   7.967 -0.5427 -1.3519 -0.1186
 2059SOL     OW17812   2.954   4.365   8.985  0.1730 -0.3763 -0.0600
 2059SOL    HW117813   3.042   4.336   9.010 -0.1370 -1.4826 -0.2365
 2059SOL    HW217814   2.962   4.459   8.972  1.2842 -0.5833 -0.9816
 2060SOL     OW17815   1.674   4.328   3.956 -0.0511 -0.0071  0.8253
 2060SOL    HW117816   1.723   4.307   3.877 -0.8622 -1.0597  0.6055
 2060SOL    HW217817   1.590   4.338   3.911  0.4622  0.9760  0.0763
 2061SOL     OW17818   2.558   1.464   4.502 -0.1558 -0.7029  0.3323
 2061SOL    HW117819   2.497   1.432   4.435  0.9359  0.2536 -1.1167
 2061SOL    HW217820   2.535   1.556   4.505 -1.1402 -0.8669 -1.7574
 2062SOL     OW17821   2.598   2.009   7.821  0.8493 -0.1125  0.0580
 2062SOL    HW117822   2.650   1.934   7.792 -0.1570 -1.1292  0.8505
 2062SOL    HW217823   2.577   1.989   7.912  0.9452 -0.0055  0.1030
 2063SOL     OW17824   4.228   2.286   4.911 -0.2081  0.1419  0.0359
 2063SOL    HW117825   4.201   2.234   4.835  1.2767 -2.7642  1.5338
 2063SOL    HW217826   4.275   2.227   4.968  0.0827  1.1973  0.8954
 2064SOL     OW17827   1.350   1.367  14.375 -0.2907 -0.0756  0.0156
 2064SOL    HW117828   1.349   1.461  14.357 -1.0852 -0.1182 -0.1387
 2064SOL    HW217829   1.361   1.338  14.285  0.4145 -0.6368  0.2797
 2065SOL     OW17830   4.505   2.387   7.240 -0.0229  0.2696 -0.5067
 2065SOL    HW117831   4.586   2.376   7.290  1.5334  1.4670 -2.7419
 2065SOL    HW217832   4.541   2.383   7.152  1.4048  2.4744 -0.0327
 2066SOL     OW17833   1.504   2.469   2.037 -0.4533 -0.4455 -0.2123
 2066SOL    HW117834   1.461   2.386   2.020  1.5839 -1.1916 -1.7564
 2066SOL    HW217835   1.436   2.529   2.006  0.4851  0.9945  0.4642
 2067SOL     OW17836   1.625   1.201   5.984 -0.5837 -0.4128 -0.1639
 2067SOL    HW117837   1.641   1.202   5.889  2.7165  3.4789  0.4362
 2067SOL    HW217838   1.634   1.293   6.009 -1.4814 -0.7978  1.5663
 2068SOL     OW17839   2.592   4.154  10.734 -0.1469  0.5368  0.0717
 2068SOL    HW117840   2.528   4.151  10.805  0.3439 -0.3794  0.4657
 2068SOL    HW217841   2.663   4.100  10.767  0.8959  1.2665 -0.9579
 2069SOL     OW17842   0.083   1.135   0.560  0.5821  0.3270  0.2965
 2069SOL    HW117843   0.033   1.181   0.493 -0.9849  0.0935  1.2832
 2069SOL    HW217844   0.014   1.145   0.627  0.9490  0.1995  0.6938
 2070SOL     OW17845   1.745   1.835   5.732  0.4624  0.2916  0.0297
 2070SOL    HW117846   1.764   1.754   5.780  1.0518  1.0270  1.0305
 2070SOL    HW217847   1.823   1.837   5.676  0.5254 -0.8003  0.0702
 2071SOL     OW17848   0.940   4.005   6.462 -0.1852 -0.1255  0.0808
 2071SOL    HW117849   0.857   3.966   6.434  0.0824 -0.8424  0.2917
 2071SOL    HW217850   0.906   4.035   6.546 -0.6251  0.2455 -0.2254
 2072SOL     OW17851   3.325   0.753  10.379  0.2413 -0.7541 -0.3430
 2072SOL    HW117852   3.288   0.842  10.381 -1.6257 -1.4963 -2.5501
 2072SOL    HW217853   3.370   0.750  10.464 -0.9467  3.3004  0.4368
 2073SOL     OW17854   4.428   3.272  16.991  0.1417 -0.1014 -0.1191
 2073SOL    HW117855   4.383   3.191  17.014 -2.2964  1.6532  1.2206
 2073SOL    HW217856   4.371   3.298  16.918 -2.9121 -0.4706  2.1477
 2074SOL     OW17857   1.762   2.763  16.054 -0.6160 -0.3311  0.0823
 2074SOL    HW117858   1.785   2.738  15.965  2.0499  0.1903  0.6445
 2074SOL    HW217859   1.833   2.825  16.066 -1.6433  0.8027  0.3515
 2075SOL     OW17860   2.320   1.385   4.933 -0.1375 -0.0025 -0.2222
 2075SOL    HW117861   2.307   1.470   4.891  0.7354  0.0489 -0.3886
 2075SOL    HW217862   2.414   1.371   4.942  0.2865  2.6672 -0.5308
 2076SOL     OW17863   4.542   2.655   2.237  0.5756 -0.2240 -0.2057
 2076SOL    HW117864   4.516   2.677   2.326 -0.5666 -0.3148 -0.5211
 2076SOL    HW217865   4.456   2.623   2.211  0.8853 -2.2104  1.2065
 2077SOL     OW17866   1.448   2.724  17.479  0.1482 -0.8479 -0.4214
 2077SOL    HW117867   1.389   2.695  17.550 -1.1523 -1.5484 -1.7903
 2077SOL    HW217868   1.529   2.712  17.529  1.1150  0.7654 -1.6324
 2078SOL     OW17869   1.943   2.669   3.061  0.3257  0.0880 -0.8691
 2078SOL    HW117870   1.929   2.763   3.057  0.1157  0.1068  0.6221
 2078SOL    HW217871   2.007   2.654   3.130  0.1043  1.0837 -0.4611
 2079SOL     OW17872   0.502   3.428   5.979 -0.0072 -0.4582  0.3011
 2079SOL    HW117873   0.559   3.397   5.908  0.5448  1.2971 -0.0523
 2079SOL    HW217874   0.568   3.486   6.019  0.7841 -0.6435 -0.7227
 2080SOL     OW17875   0.910   3.555   8.244 -0.2456 -0.3540 -0.2590
 2080SOL    HW117876   0.830   3.534   8.197 -0.9069  1.0246  0.2546
 2080SOL    HW217877   0.887   3.490   8.310 -0.1826 -2.2674 -2.1398
 2081SOL     OW17878   0.798   2.447   8.411  0.2395 -0.0881  0.4828
 2081SOL    HW117879   0.745   2.372   8.383 -1.0624  0.2045  2.1556
 2081SOL    HW217880   0.826   2.419   8.499  1.4383 -1.1861 -0.2363
 2082SOL     OW17881   4.470   0.439  11.527 -0.4691  0.6664  0.0039
 2082SOL    HW117882   4.500   0.382  11.457 -2.2180 -0.4321  0.1395
 2082SOL    HW217883   4.380   0.459  11.500  0.0609  1.0472 -1.4685
 2083SOL     OW17884   1.777   2.421   4.245 -0.1915  0.1240  0.1961
 2083SOL    HW117885   1.809   2.363   4.176  1.1342  0.4726  0.5159
 2083SOL    HW217886   1.822   2.503   4.224 -1.1263  0.2151 -1.4486
 2084SOL     OW17887   2.644   3.886  16.328 -0.0446 -0.2481  0.5501
 2084SOL    HW117888   2.643   3.952  16.258 -0.8628 -0.8643 -0.0170
 2084SOL    HW217889   2.570   3.904  16.385 -0.4760 -0.3860  0.0413
 2085SOL     OW17890   4.603   2.646   8.210  0.3217 -0.3915  0.0080
 2085SOL    HW117891   4.624   2.675   8.122 -0.1636  0.1484  0.0736
 2085SOL    HW217892   4.508   2.651   8.200  0.3700  1.4878  0.5895
 2086SOL     OW17893   4.228   1.111   6.771 -0.6696 -0.7335 -0.2504
 2086SOL    HW117894   4.138   1.140   6.770 -0.2170  0.6142 -2.8477
 2086SOL    HW217895   4.270   1.189   6.807 -1.2447 -0.4207 -0.2773
 2087SOL     OW17896   3.287   1.577   6.452 -0.3140 -0.1164 -0.3777
 2087SOL    HW117897   3.272   1.490   6.417 -0.2685 -0.0427 -0.5829
 2087SOL    HW217898   3.340   1.556   6.528  1.4671  0.9462 -1.3180
 2088SOL     OW17899   0.576   4.227  14.500 -0.1078 -0.1666  0.2261
 2088SOL    HW117900   0.647   4.209  14.439 -0.7600 -2.3676  0.1038
 2088SOL    HW217901   0.498   4.237  14.446  0.8173  0.3481 -1.0125
 2089SOL     OW17902   3.690   2.775   2.121 -0.4757  0.5663  0.2740
 2089SOL    HW117903   3.635   2.829   2.178 -0.8336  0.6441 -0.1444
 2089SOL    HW217904   3.688   2.692   2.168  0.3048 -1.2768 -2.9518
 2090SOL     OW17905   0.992   1.585  16.917 -0.5205  0.8319 -0.1097
 2090SOL    HW117906   1.005   1.654  16.852  0.7834 -0.8947 -1.7061
 2090SOL    HW217907   1.042   1.512  16.879 -1.8195  0.6902 -1.5219
 2091SOL     OW17908   4.156   0.385  16.070  0.3685 -0.2846 -0.1162
 2091SOL    HW117909   4.062   0.375  16.054  0.3470  0.5712 -0.5072
 2091SOL    HW217910   4.197   0.315  16.019  0.0377  2.0625 -3.5575
 2092SOL     OW17911   3.104   2.743   9.544 -0.4698 -0.5207 -0.0832
 2092SOL    HW117912   3.167   2.788   9.489 -0.9118  1.1439  0.7711
 2092SOL    HW217913   3.151   2.740   9.627 -1.4357  1.5821  0.5268
 2093SOL     OW17914   1.738   1.595   3.143  0.3838  0.4864 -0.2954
 2093SOL    HW117915   1.812   1.615   3.086 -0.0513  0.2714 -0.9280
 2093SOL    HW217916   1.674   1.661   3.117  2.3604  2.2074 -0.8106
 2094SOL     OW17917   2.003   1.185   8.077 -0.1437  0.5540 -0.0212
 2094SOL    HW117918   2.036   1.117   8.019  3.2524  2.5702 -0.4267
 2094SOL    HW217919   2.083   1.224   8.110  0.3649 -0.2338 -0.3294
 2095SOL     OW17920   3.652   4.552   2.626 -0.4917 -0.1186 -0.2174
 2095SOL    HW117921   3.673   4.556   2.719 -1.5377 -0.1957  0.0224
 2095SOL    HW217922   3.605   4.633   2.608 -0.0501 -0.6948 -3.9106
 2096SOL     OW17923   3.960   3.592  15.392 -0.2065 -0.7387  0.0576
 2096SOL    HW117924   3.946   3.534  15.316 -0.3874 -1.0823  0.3523
 2096SOL    HW217925   4.055   3.601  15.383 -0.0951  1.3203  3.3078
 2097SOL     OW17926   4.727   4.404  15.386  0.3905  1.0184 -0.5390
 2097SOL    HW117927   4.669   4.479  15.375 -0.1387  0.7030  0.0587
 2097SOL    HW217928   4.673   4.362  15.453 -2.3344  1.8100 -2.2382
 2098SOL     OW17929   3.757   3.038   1.035  0.0774  0.2313  0.3044
 2098SOL    HW117930   3.730   3.112   0.981  1.7806  0.3120 -0.4497
 2098SOL    HW217931   3.704   3.057   1.113 -1.0413  1.0413 -0.6708
 2099SOL     OW17932   4.009   3.257   8.020  0.3330  0.5472  0.1918
 2099SOL    HW117933   3.964   3.191   7.968  2.9664 -2.8148  2.2672
 2099SOL    HW217934   4.096   3.218   8.013  0.1571  0.0437  0.9448
 2100SOL     OW17935   0.936   1.122   3.752  0.1666 -0.2388 -0.0678
 2100SOL    HW117936   0.861   1.161   3.708 -0.9207  0.5530  2.5207
 2100SOL    HW217937   0.945   1.043   3.699  1.0156  0.4275 -0.9149
 2101SOL     OW17938   2.190   3.935   3.125  0.3481 -0.0387  0.7138
 2101SOL    HW117939   2.238   3.878   3.064  1.7323  3.4174 -1.4778
 2101SOL    HW217940   2.146   3.868   3.176 -2.4588  1.1198 -0.2135
 2102SOL     OW17941   3.287   3.641   4.103 -0.3870 -0.4833  0.2076
 2102SOL    HW117942   3.217   3.705   4.094 -0.1910 -0.3459 -0.3528
 2102SOL    HW217943   3.367   3.692   4.090 -1.1250  0.2896 -1.2686
 2103SOL     OW17944   2.779   1.256   2.512 -0.4802  0.3221  0.2230
 2103SOL    HW117945   2.758   1.164   2.527  1.4638 -0.3886 -1.4030
 2103SOL    HW217946   2.723   1.299   2.577 -0.5120  0.7364 -0.0744
 2104SOL     OW17947   2.847   3.440   5.354  0.3264  0.2811 -0.0886
 2104SOL    HW117948   2.899   3.415   5.277  0.5796 -0.3807  0.2981
 2104SOL    HW217949   2.866   3.533   5.361  0.3063  0.2408  0.4784
 2105SOL     OW17950   1.592   1.625   2.361  0.1190 -0.0996 -0.4314
 2105SOL    HW117951   1.638   1.662   2.286  0.1697 -0.1217 -0.4114
 2105SOL    HW217952   1.548   1.705   2.391  1.9091  1.3774 -1.7029
 2106SOL     OW17953   3.400   2.917  10.483 -0.0785 -0.0909 -0.2756
 2106SOL    HW117954   3.366   2.866  10.409 -0.4329 -1.0311  0.5399
 2106SOL    HW217955   3.439   2.991  10.436 -0.1648 -2.0309 -3.4044
 2107SOL     OW17956   1.305   2.178   8.169 -0.6606  0.1030 -0.2806
 2107SOL    HW117957   1.323   2.084   8.179  1.3427  0.6431  1.1794
 2107SOL    HW217958   1.311   2.194   8.075 -1.9854 -0.2945 -0.4286
 2108SOL     OW17959   2.100   2.389   2.945 -0.0915 -0.0143  0.2817
 2108SOL    HW117960   2.101   2.386   3.041  0.2287  0.1420  0.2848
 2108SOL    HW217961   2.026   2.445   2.923  1.5554  1.7385 -0.7275
 2109SOL     OW17962   3.227   4.430   0.981  0.5572  0.2120  0.2325
 2109SOL    HW117963   3.238   4.449   1.075 -0.0422 -1.1723  0.5799
 2109SOL    HW217964   3.294   4.483   0.937  1.7114 -2.7127 -1.4889
 2110SOL     OW17965   2.619   3.651   1.912  0.0902  0.1196  0.0430
 2110SOL    HW117966   2.572   3.586   1.860  0.5122  0.4319 -0.7380
 2110SOL    HW217967   2.557   3.718   1.939  2.8155  3.3798 -1.8057
 2111SOL     OW17968   4.188   0.053   8.850  0.3750 -0.0154  0.0230
 2111SOL    HW117969   4.136   4.735   8.911 -0.0321  1.0209  0.5718
 2111SOL    HW217970   4.195   0.126   8.911  0.1478  0.5560 -0.6384
 2112SOL     OW17971   3.701   0.633   4.626 -0.0536 -0.0197 -0.0470
 2112SOL    HW117972   3.685   0.545   4.658  0.9454  0.9348  3.1135
 2112SOL    HW217973   3.651   0.641   4.545 -0.6315 -1.6218  0.1599
 2113SOL     OW17974   4.467   1.290  12.007  0.5205 -0.2807 -0.3779
 2113SOL    HW117975   4.499   1.279  11.918  1.3201 -2.3623  0.1756
 2113SOL    HW217976   4.450   1.199  12.030  1.4669 -0.5961 -0.9435
 2114SOL     OW17977   3.922   3.588   8.798 -0.5753  0.4877 -0.1594
 2114SOL    HW117978   3.904   3.560   8.888 -0.2659 -1.2705 -0.6339
 2114SOL    HW217979   4.018   3.591   8.806 -0.4986 -1.7348 -0.2310
 2115SOL     OW17980   4.107   3.608   6.424  0.0114  0.6445  0.2700
 2115SOL    HW117981   4.144   3.655   6.349 -1.8164 -2.0451 -2.3092
 2115SOL    HW217982   4.022   3.586   6.387  0.0512  0.4276  0.3072
 2116SOL     OW17983   4.496   2.208   6.113  0.2703 -0.5491  0.1924
 2116SOL    HW117984   4.484   2.184   6.205  0.5705  1.9931  0.9144
 2116SOL    HW217985   4.566   2.271   6.133 -0.6261 -0.2496  2.3479
 2117SOL     OW17986   3.034   1.256  10.318 -0.0591 -0.3257 -0.0940
 2117SOL    HW117987   2.954   1.213  10.288 -0.3325 -0.4642  0.8296
 2117SOL    HW217988   3.080   1.177  10.346 -0.1015 -0.8613 -1.5287
 2118SOL     OW17989   0.181   1.388   7.253  0.1412  0.3177 -0.4855
 2118SOL    HW117990   0.121   1.442   7.304 -2.0746 -1.4218 -1.2432
 2118SOL    HW217991   0.261   1.420   7.293 -0.1398  1.5003 -0.8706
 2119SOL     OW17992   3.162   3.924   2.589  0.0756  0.1897 -0.1070
 2119SOL    HW117993   3.245   3.888   2.619  0.0707 -0.8249 -1.3607
 2119SOL    HW217994   3.099   3.862   2.625 -1.7088  1.8519 -0.3534
 2120SOL     OW17995   3.059   2.569  11.638  0.2748 -0.7301  0.3269
 2120SOL    HW117996   2.995   2.518  11.589 -0.1750  0.2581 -0.1188
 2120SOL    HW217997   3.135   2.512  11.629 -1.1266 -2.9090  2.2623
 2121SOL     OW17998   1.041   3.243  16.132  0.1773 -0.3282  0.4614
 2121SOL    HW117999   0.978   3.269  16.064  3.5225  3.1123 -1.3191
 2121SOL    HW218000   1.041   3.148  16.127  0.1538 -0.3614  1.0676
 2122SOL     OW18001   3.730   3.974   2.008 -0.2187  0.2809 -0.1800
 2122SOL    HW118002   3.747   4.009   2.096 -2.5295 -0.4390  0.5465
 2122SOL    HW218003   3.648   4.019   1.990 -0.7715  0.1881  2.1287
 2123SOL     OW18004   4.097   2.197   2.005  0.4251  0.4854 -0.2546
 2123SOL    HW118005   4.058   2.280   1.980 -1.0259 -0.4893 -1.2242
 2123SOL    HW218006   4.180   2.198   1.957  0.7971 -1.9604  0.3199
 2124SOL     OW18007   1.608   0.374   5.852 -0.4935  0.7168 -0.3948
 2124SOL    HW118008   1.568   0.402   5.769  0.4589 -0.5032 -1.2644
 2124SOL    HW218009   1.541   0.389   5.918  0.3167  2.8977 -0.0763
 2125SOL     OW18010   0.877   0.435   3.507  0.3063 -0.4959  0.0449
 2125SOL    HW118011   0.900   0.342   3.507 -1.4461 -0.9191  2.9114
 2125SOL    HW218012   0.967   0.465   3.497 -0.1469  0.8080 -0.0724
 2126SOL     OW18013   2.316   2.982   9.332 -0.4723  0.5188 -0.3269
 2126SOL    HW118014   2.259   3.013   9.262  0.0659  0.7188 -0.6761
 2126SOL    HW218015   2.255   2.925   9.379 -1.6823  1.0190 -1.2995
 2127SOL     OW18016   3.624   3.463   4.337 -0.2487 -0.0977 -0.3188
 2127SOL    HW118017   3.632   3.532   4.404 -0.8979  0.5149 -0.8651
 2127SOL    HW218018   3.718   3.455   4.325 -0.1980  0.2367 -0.1678
 2128SOL     OW18019   2.834   2.944   6.439 -0.5439  0.2376 -0.1236
 2128SOL    HW118020   2.788   2.880   6.384  2.3410 -1.4989 -0.5012
 2128SOL    HW218021   2.920   2.956   6.398  0.0027 -2.9417  0.0433
 2129SOL     OW18022   2.264   1.878   4.149 -0.0658  0.0306 -0.2838
 2129SOL    HW118023   2.322   1.928   4.091  0.8062  1.0236  1.4585
 2129SOL    HW218024   2.324   1.805   4.168 -1.2108 -0.4607  1.3799
 2130SOL     OW18025   1.803   1.254  16.679 -0.2397  0.2957 -0.1488
 2130SOL    HW118026   1.878   1.234  16.623 -0.2693 -1.8108  0.5605
 2130SOL    HW218027   1.812   1.178  16.737 -0.0089  0.6910  0.3397
 2131SOL     OW18028   0.109   2.099   4.319 -0.4323  0.4132  0.4495
 2131SOL    HW118029   0.042   2.037   4.291 -0.1536 -0.1063  0.9350
 2131SOL    HW218030   0.176   2.036   4.344 -1.3198 -0.8603 -0.4285
 2132SOL     OW18031   4.097   0.254  15.666 -0.1358 -0.2456 -0.2623
 2132SOL    HW118032   4.132   0.299  15.590 -1.0671  0.1697 -0.4414
 2132SOL    HW218033   4.016   0.304  15.673  1.2791  1.8213  1.0518
 2133SOL     OW18034   2.774   0.135   3.145  0.2648 -0.4142  1.0864
 2133SOL    HW118035   2.745   0.148   3.054 -0.7814  0.1214  1.4970
 2133SOL    HW218036   2.719   0.197   3.194 -0.5779  2.6974 -3.7775
 2134SOL     OW18037   4.509   2.796   1.922 -0.5478 -0.4601  0.4887
 2134SOL    HW118038   4.484   2.748   1.842 -0.0749 -1.8561  1.1887
 2134SOL    HW218039   4.451   2.768   1.992 -0.5069 -0.7861  0.3960
 2135SOL     OW18040   2.545   1.104   8.568 -0.0011 -0.1639 -0.3867
 2135SOL    HW118041   2.498   1.187   8.582  0.0781 -0.1093 -0.4424
 2135SOL    HW218042   2.634   1.126   8.595 -0.1305 -0.0496 -0.0505
 2136SOL     OW18043   3.760   1.442   0.859  0.0897 -0.2645 -0.0407
 2136SOL    HW118044   3.754   1.490   0.776  1.5419  0.6238  0.3732
 2136SOL    HW218045   3.797   1.516   0.907 -1.0579  0.4127 -0.1994
 2137SOL     OW18046   0.150   1.318   0.032 -0.4736 -0.0033 -1.1941
 2137SOL    HW118047   0.081   1.282   0.088  0.1544 -1.9841 -1.7010
 2137SOL    HW218048   0.148   1.408   0.066  0.1225  0.1229 -1.4984
 2138SOL     OW18049   3.496   1.971   6.721  0.0514 -0.0574  0.1934
 2138SOL    HW118050   3.533   1.951   6.807 -2.0340  0.4142  1.1924
 2138SOL    HW218051   3.426   2.026   6.756 -1.0574 -2.1810  1.3305
 2139SOL     OW18052   3.026   3.138   9.340  0.0712 -0.1745 -0.3389
 2139SOL    HW118053   3.045   3.196   9.266 -0.1158 -0.2138 -0.4208
 2139SOL    HW218054   2.976   3.202   9.390  0.5985  0.1037 -0.1805
 2140SOL     OW18055   4.144   2.965  16.691 -0.0406 -0.1890  0.5281
 2140SOL    HW118056   4.220   3.020  16.672  1.0535 -2.2364 -1.0359
 2140SOL    HW218057   4.176   2.913  16.765  1.1201  0.8640  0.7619
 2141SOL     OW18058   3.345   0.680   4.063 -0.1691 -0.3022  0.5504
 2141SOL    HW118059   3.417   0.618   4.054 -1.0508 -1.2882  0.2896
 2141SOL    HW218060   3.365   0.721   4.148 -0.6953  2.3818 -0.6060
 2142SOL     OW18061   3.467   0.397  16.930  0.5155 -0.2808  0.1109
 2142SOL    HW118062   3.502   0.475  16.887  1.6674 -1.4442 -1.0449
 2142SOL    HW218063   3.551   0.353  16.940  0.6191  0.0694  0.8208
 2143SOL     OW18064   0.293   2.474   4.422 -0.4791  0.7473  0.5607
 2143SOL    HW118065   0.276   2.437   4.509  1.3819 -1.4924 -0.0141
 2143SOL    HW218066   0.216   2.451   4.369  1.1065 -1.6205 -0.7065
 2144SOL     OW18067   0.902   2.608   3.648 -0.4675  0.2791 -0.2377
 2144SOL    HW118068   0.974   2.582   3.705 -1.3365 -1.0370  0.2397
 2144SOL    HW218069   0.862   2.526   3.622  0.4562 -0.5143  0.8524
 2145SOL     OW18070   1.025   3.939  10.330  0.1512  0.2375 -0.3398
 2145SOL    HW118071   1.058   3.877  10.396  0.9401  0.0918 -0.8625
 2145SOL    HW218072   1.027   4.019  10.382 -2.5007 -0.4993  0.8557
 2146SOL     OW18073   0.275   3.620   3.925  0.2276 -0.2150 -0.4127
 2146SOL    HW118074   0.293   3.636   3.833 -0.5713 -1.3192 -0.7546
 2146SOL    HW218075   0.198   3.565   3.928  0.8906 -1.2008 -1.5298
 2147SOL     OW18076   2.500   0.273   5.926 -0.6803 -0.8243  0.6030
 2147SOL    HW118077   2.542   0.195   5.963  0.6906 -2.4030 -4.2383
 2147SOL    HW218078   2.577   0.317   5.889  0.9002 -2.5805  1.7594
 2148SOL     OW18079   0.640   3.342   5.713  0.1902  0.1027 -0.2748
 2148SOL    HW118080   0.607   3.390   5.637  0.6138 -1.9596 -1.7756
 2148SOL    HW218081   0.733   3.336   5.691  0.3442  1.0614  0.0896
 2149SOL     OW18082   3.879   4.409   2.984 -0.5185  0.3341  0.4779
 2149SOL    HW118083   3.944   4.420   3.053 -1.4774 -0.8009  1.5540
 2149SOL    HW218084   3.813   4.381   3.047 -0.4800  1.0125  0.8143
 2150SOL     OW18085   3.936   1.680   1.416  0.0748  0.2768  0.4578
 2150SOL    HW118086   3.926   1.598   1.465  0.4669  1.1266  1.9798
 2150SOL    HW218087   3.847   1.706   1.393  0.3461  0.0983 -0.7978
 2151SOL     OW18088   2.454   3.270   3.985 -0.6503 -0.0881 -0.1890
 2151SOL    HW118089   2.494   3.195   3.939  0.7361 -0.0403  0.9432
 2151SOL    HW218090   2.520   3.335   3.964 -0.9581  0.3127  0.0974
 2152SOL     OW18091   3.722   0.940   4.155 -0.4194 -0.3926 -0.0835
 2152SOL    HW118092   3.775   1.013   4.123 -1.0941 -0.2047 -0.7530
 2152SOL    HW218093   3.632   0.972   4.160 -0.7296 -1.4802  1.4852
 2153SOL     OW18094   1.705   0.718   3.163 -0.1681  0.3309 -0.3414
 2153SOL    HW118095   1.682   0.806   3.192 -2.3977 -0.0588 -0.8920
 2153SOL    HW218096   1.797   0.729   3.143 -0.4199 -0.3807 -1.9228
 2154SOL     OW18097   2.175   1.363  13.988  0.4056  0.0292 -0.0163
 2154SOL    HW118098   2.224   1.429  14.037 -0.9091  2.1271 -1.5304
 2154SOL    HW218099   2.179   1.410  13.904  0.3129  1.8316  0.9913
 2155SOL     OW18100   3.875   3.751   6.218  0.0281 -0.0301  0.0099
 2155SOL    HW118101   3.788   3.724   6.248  0.0145  0.6083  0.5569
 2155SOL    HW218102   3.895   3.679   6.159  0.3188  0.1650 -0.1298
 2156SOL     OW18103   1.210   4.158   2.351 -0.1622 -0.1866  0.2898
 2156SOL    HW118104   1.262   4.090   2.310 -1.5078 -0.3900 -1.0537
 2156SOL    HW218105   1.272   4.200   2.411  0.0920 -0.5800  0.3029
 2157SOL     OW18106   0.892   3.846  14.081 -0.0387  0.6666  0.4186
 2157SOL    HW118107   0.948   3.898  14.023  0.0746  1.2164  1.0233
 2157SOL    HW218108   0.823   3.824  14.019  1.1483 -0.4795 -0.5132
 2158SOL     OW18109   3.936   1.081   1.747 -0.1270  0.2599  0.5113
 2158SOL    HW118110   3.903   1.135   1.675 -1.6168 -0.4579  0.6799
 2158SOL    HW218111   3.875   1.010   1.728  0.3625  0.0222 -0.1797
 2159SOL     OW18112   2.373   0.539   5.254 -0.0314  0.3832  0.2474
 2159SOL    HW118113   2.465   0.537   5.226 -0.6565  2.3743 -1.9277
 2159SOL    HW218114   2.343   0.620   5.212 -1.0312  0.4212  1.0591
 2160SOL     OW18115   2.655   0.820   7.014  0.0832  1.0836 -0.1149
 2160SOL    HW118116   2.619   0.891   6.961 -0.6302  2.1204  1.7373
 2160SOL    HW218117   2.721   0.782   6.956  1.5007  1.8189  1.0081
 2161SOL     OW18118   3.823   2.832  13.409 -0.2148  0.7086  0.0116
 2161SOL    HW118119   3.885   2.850  13.480 -0.2166 -1.2183  0.5021
 2161SOL    HW218120   3.885   2.831  13.336 -1.0112  2.4344 -0.6843
 2162SOL     OW18121   0.734   1.072  16.418  0.5116  0.9527 -0.4465
 2162SOL    HW118122   0.794   1.122  16.363  1.1993 -1.3944 -1.8431
 2162SOL    HW218123   0.648   1.083  16.378 -0.5339  1.2404  1.8680
 2163SOL     OW18124   3.024   0.562   4.992  0.0764  0.5109  0.3897
 2163SOL    HW118125   3.059   0.643   5.029 -0.0684  0.8171 -0.1464
 2163SOL    HW218126   3.103   0.523   4.956 -0.1422 -1.1873  1.7401
 2164SOL     OW18127   0.368   1.490   7.414 -0.0779  0.2219 -0.2575
 2164SOL    HW118128   0.407   1.577   7.420  0.4651 -0.1387  1.3716
 2164SOL    HW218129   0.312   1.495   7.492 -0.4348 -0.8803 -0.4293
 2165SOL     OW18130   0.717   0.372   8.362 -0.8416 -0.6014 -0.3871
 2165SOL    HW118131   0.642   0.345   8.415 -0.2112 -1.0457  0.2737
 2165SOL    HW218132   0.701   0.326   8.279 -2.0705 -2.1045  0.6885
 2166SOL     OW18133   0.221   0.828   8.618 -0.3536 -0.1323 -0.4477
 2166SOL    HW118134   0.270   0.749   8.598  1.6334  0.5137  1.8335
 2166SOL    HW218135   0.132   0.802   8.596  0.0939 -1.2481 -0.8888
 2167SOL     OW18136   1.928   1.200   8.687  0.4826 -0.5463  0.3516
 2167SOL    HW118137   1.942   1.106   8.701 -1.2071 -0.9174 -0.4354
 2167SOL    HW218138   1.835   1.202   8.710  0.2801 -0.1489 -0.5194
 2168SOL     OW18139   3.323   2.666   5.463  0.3902 -0.3999  0.1407
 2168SOL    HW118140   3.326   2.669   5.558  3.1940  1.2708  0.0104
 2168SOL    HW218141   3.283   2.751   5.448 -0.4388 -0.9187 -0.5754
 2169SOL     OW18142   3.412   0.383   7.626 -0.4822 -0.3604 -0.3789
 2169SOL    HW118143   3.430   0.477   7.622  0.2001 -0.5954 -2.5563
 2169SOL    HW218144   3.370   0.374   7.540 -2.2304  2.1527  0.2140
 2170SOL     OW18145   0.331   0.662   7.906  0.0200 -0.4499  0.2791
 2170SOL    HW118146   0.383   0.589   7.938 -0.9247 -0.5796  1.5181
 2170SOL    HW218147   0.268   0.673   7.977 -0.3848  0.7962 -0.2669
 2171SOL     OW18148   1.681   2.828   4.486  0.1455  0.3320  0.3825
 2171SOL    HW118149   1.630   2.778   4.422  0.8187  1.1992 -0.8270
 2171SOL    HW218150   1.621   2.826   4.560  0.4462 -0.6302  0.5979
 2172SOL     OW18151   2.736   1.416  11.121  0.2212  1.2834 -0.4121
 2172SOL    HW118152   2.795   1.491  11.131 -0.6103  1.9002  0.0066
 2172SOL    HW218153   2.775   1.356  11.058 -0.2380  0.5141  0.0320
 2173SOL     OW18154   2.622   4.458  11.536  0.1141 -0.3951  0.6563
 2173SOL    HW118155   2.609   4.445  11.629  2.7648  1.4528  1.2892
 2173SOL    HW218156   2.575   4.541  11.520  0.2497 -0.4477 -0.0369
 2174SOL     OW18157   4.415   1.451   3.672  0.2736  0.1006 -0.0555
 2174SOL    HW118158   4.359   1.521   3.638  1.3888  1.4124  0.8188
 2174SOL    HW218159   4.447   1.403   3.595 -0.3142 -2.2931  1.1931
 2175SOL     OW18160   1.436   3.180  15.529  0.5517 -0.5244 -0.0554
 2175SOL    HW118161   1.441   3.147  15.440  0.3927 -1.0952  0.1491
 2175SOL    HW218162   1.522   3.223  15.531  0.3447 -0.1402  0.8350
 2176SOL     OW18163   3.221   3.638   9.292  0.1839  0.1256  0.6440
 2176SOL    HW118164   3.280   3.629   9.367 -1.4291 -0.2950  1.8555
 2176SOL    HW218165   3.142   3.634   9.345  0.5939 -1.7459  1.1346
 2177SOL     OW18166   4.014   3.573  15.128 -0.0566  0.5173 -0.1355
 2177SOL    HW118167   4.084   3.534  15.076 -1.0058 -2.3779  0.7853
 2177SOL    HW218168   4.056   3.655  15.155 -0.1166  0.9362 -1.3095
 2178SOL     OW18169   2.771   2.737   5.181 -0.2239  0.5234 -0.1463
 2178SOL    HW118170   2.677   2.723   5.165  0.2975 -3.2047  0.2962
 2178SOL    HW218171   2.779   2.823   5.138 -1.8560  1.6897  1.8488
 2179SOL     OW18172   1.186   1.991   1.924 -0.2957  0.4969  0.2779
 2179SOL    HW118173   1.120   2.045   1.968 -0.5819  0.1879  0.2294
 2179SOL    HW218174   1.138   1.921   1.880  0.4235  0.1261  0.0805
 2180SOL     OW18175   3.509   3.026   5.268  0.7063  0.4532 -0.0445
 2180SOL    HW118176   3.467   3.112   5.268  1.2353  0.7204 -1.2361
 2180SOL    HW218177   3.438   2.973   5.233  0.0321 -0.5455  2.9060
 2181SOL     OW18178   2.786   0.041  15.530  1.1735  0.2055  0.4334
 2181SOL    HW118179   2.729   0.020  15.604  0.1158  0.0213 -0.4351
 2181SOL    HW218180   2.714   0.080  15.480 -0.0124  0.5312  2.3795
 2182SOL     OW18181   3.054   4.661   1.880  0.1130 -0.5558 -0.5318
 2182SOL    HW118182   3.002   4.658   1.800 -2.3945  0.0227  1.1044
 2182SOL    HW218183   3.023   0.010   1.915  0.0931 -0.8224  0.0758
 2183SOL     OW18184   3.095   2.278   1.593  0.2996  0.5550 -0.6323
 2183SOL    HW118185   3.180   2.316   1.573  1.0621 -0.1036  1.3310
 2183SOL    HW218186   3.120   2.209   1.654  2.0790  0.0430 -1.9785
 2184SOL     OW18187   4.705   2.640  13.933  0.1788 -0.1140  0.2590
 2184SOL    HW118188   4.686   2.685  14.015  0.9814  1.8238 -0.6042
 2184SOL    HW218189   4.732   2.710  13.873 -2.0758  3.1516  3.0343
 2185SOL     OW18190   0.834   2.174   7.689  0.0265 -0.1627 -0.5038
 2185SOL    HW118191   0.892   2.109   7.729  2.7629  3.1559  0.8925
 2185SOL    HW218192   0.762   2.171   7.752  3.4230  1.4755  3.4014
 2186SOL     OW18193   2.021   0.974   3.539 -0.3060  0.1401 -0.7249
 2186SOL    HW118194   2.109   0.944   3.565 -0.6131  0.9499  1.2501
 2186SOL    HW218195   1.991   0.883   3.535  1.5312 -0.6017  1.8877
 2187SOL     OW18196   2.949   1.728  10.178 -0.0873  0.1157  0.0989
 2187SOL    HW118197   2.901   1.696  10.102  1.0829 -0.6893 -0.3046
 2187SOL    HW218198   3.016   1.660  10.186  0.8296  0.9680 -0.2332
 2188SOL     OW18199   0.823   4.312   6.570 -0.2094 -0.4045 -0.0780
 2188SOL    HW118200   0.902   4.302   6.623 -0.1934 -1.1495 -0.2403
 2188SOL    HW218201   0.843   4.278   6.483  1.0943 -3.1532  1.2782
 2189SOL     OW18202   2.132   2.146   6.210  0.5978  0.2957 -0.3167
 2189SOL    HW118203   2.084   2.102   6.140 -1.5860  1.4614  0.4743
 2189SOL    HW218204   2.141   2.238   6.189 -4.4006  0.2919 -2.2115
 2190SOL     OW18205   0.749   0.781  15.164 -0.3276  0.3253 -0.7021
 2190SOL    HW118206   0.701   0.698  15.163 -1.7045  1.1055  0.5868
 2190SOL    HW218207   0.809   0.772  15.090 -0.7787  2.1150 -1.2760
 2191SOL     OW18208   4.686   0.434   6.791  0.1336 -0.2971  0.1850
 2191SOL    HW118209   4.610   0.435   6.850  0.7384  0.1662  0.9462
 2191SOL    HW218210   0.024   0.440   6.852  0.4549  1.0836 -0.3273
 2192SOL     OW18211   1.139   4.020   6.833  1.5798 -0.0777  0.4133
 2192SOL    HW118212   1.087   3.957   6.882 -0.6577 -0.5442 -2.5021
 2192SOL    HW218213   1.069   4.048   6.773  1.5851  0.4798  0.6706
 2193SOL     OW18214   2.033   3.219   5.549 -0.2984 -0.0723  0.1385
 2193SOL    HW118215   1.965   3.182   5.493 -0.3622 -1.0785  0.8719
 2193SOL    HW218216   2.056   3.294   5.494  0.8946 -0.2216  0.4282
 2194SOL     OW18217   0.000   0.657   3.971 -1.0772 -0.3270 -0.7642
 2194SOL    HW118218   4.695   0.678   3.886 -2.4742  1.5459  0.3735
 2194SOL    HW218219   4.670   0.697   4.028 -1.0291 -0.3679 -0.6818
 2195SOL     OW18220   2.616   2.123   3.028  0.4355  0.0168  0.1242
 2195SOL    HW118221   2.548   2.189   3.022  1.2877  0.8652 -0.1061
 2195SOL    HW218222   2.685   2.165   3.079 -0.6041  1.8465 -0.0089
 2196SOL     OW18223   0.291   3.849   1.660  0.5693  0.6256 -0.2283
 2196SOL    HW118224   0.355   3.910   1.623 -1.1493  1.8876 -1.0907
 2196SOL    HW218225   0.264   3.898   1.738 -1.5429  0.4772 -0.8752
 2197SOL     OW18226   0.971   2.729  14.990 -0.9208 -0.3753 -0.4949
 2197SOL    HW118227   1.039   2.765  15.048 -1.3162 -1.3733  0.5754
 2197SOL    HW218228   0.897   2.759  15.043 -2.3803 -0.9484 -2.2107
 2198SOL     OW18229   0.602   3.227   6.536  0.0287 -0.0426  0.6268
 2198SOL    HW118230   0.571   3.180   6.614  0.5725 -1.8446 -0.2464
 2198SOL    HW218231   0.573   3.173   6.462 -1.4586  1.1412  0.3316
 2199SOL     OW18232   1.686   1.234   0.330 -0.0595 -0.1079  0.0105
 2199SOL    HW118233   1.779   1.218   0.314 -0.2927 -2.0384  0.5483
 2199SOL    HW218234   1.643   1.177   0.266 -1.4647  1.7310 -0.6906
 2200SOL     OW18235   1.692   2.044   9.254  0.0147  0.5957  0.2672
 2200SOL    HW118236   1.628   2.032   9.184  0.4639  3.3599 -0.6426
 2200SOL    HW218237   1.636   2.028   9.330 -0.6810 -0.6817 -0.5234
 2201SOL     OW18238   4.523   2.548   3.306 -0.2679  0.0848  0.6965
 2201SOL    HW118239   4.535   2.637   3.272 -1.2139 -0.2895 -0.6033
 2201SOL    HW218240   4.479   2.507   3.231 -0.9097  1.5492  0.2764
 2202SOL     OW18241   2.276   0.739   5.135  0.0208 -0.2490 -0.4291
 2202SOL    HW118242   2.180   0.731   5.131 -0.0178 -0.1396  0.2810
 2202SOL    HW218243   2.286   0.831   5.158 -0.0660  0.1040 -1.8317
 2203SOL     OW18244   2.537   0.530   9.695  0.2814  0.0453  0.1310
 2203SOL    HW118245   2.496   0.467   9.755  1.8080 -1.4752 -0.3845
 2203SOL    HW218246   2.499   0.608   9.735  1.7917  1.3470 -0.9817
 2204SOL     OW18247   1.984   2.127   2.556 -0.1158  0.3924  0.2565
 2204SOL    HW118248   2.027   2.075   2.488  1.2829 -0.3731  1.7353
 2204SOL    HW218249   2.052   2.157   2.616  0.6506 -1.8267  0.4949
 2205SOL     OW18250   0.472   3.797   2.533 -0.3672  0.4048  0.8235
 2205SOL    HW118251   0.429   3.712   2.527 -1.1342  0.9295 -1.2389
 2205SOL    HW218252   0.565   3.777   2.524  0.0584  1.9521  1.7363
 2206SOL     OW18253   3.025   4.600   2.341  0.2151 -0.3079 -0.5421
 2206SOL    HW118254   2.942   4.554   2.331  0.7749 -1.3645 -0.4265
 2206SOL    HW218255   3.010   4.661   2.414  1.9315  0.0286 -0.4618
 2207SOL     OW18256   2.010   4.007   9.688 -0.1964  0.5948  0.1267
 2207SOL    HW118257   2.016   3.952   9.766  2.7204 -0.1734 -0.6502
 2207SOL    HW218258   1.923   3.982   9.657 -0.7371  3.4283 -0.6303
 2208SOL     OW18259   1.166   3.335   5.487 -0.5392  0.3509  0.1015
 2208SOL    HW118260   1.197   3.326   5.397  1.2355 -1.4085  0.8939
 2208SOL    HW218261   1.089   3.389   5.467 -0.1139  0.5173 -1.1087
 2209SOL     OW18262   1.592   0.789  10.382 -0.0326 -0.1879 -0.3667
 2209SOL    HW118263   1.598   0.856  10.450 -0.8978 -0.4539 -0.0220
 2209SOL    HW218264   1.681   0.793  10.348  0.2212  1.4944  0.5269
 2210SOL     OW18265   2.875   4.453   7.871  0.0766  0.0898 -0.0926
 2210SOL    HW118266   2.878   4.519   7.940  0.9376  0.4454 -0.4713
 2210SOL    HW218267   2.779   4.452   7.868  0.0077  2.1179  1.9416
 2211SOL     OW18268   2.213   0.978   0.672 -0.5482  0.2334 -0.1693
 2211SOL    HW118269   2.269   0.991   0.749 -1.7411  3.5218  0.1515
 2211SOL    HW218270   2.268   1.012   0.602  0.7830 -1.8156 -0.0947
 2212SOL     OW18271   1.806   1.903   7.439 -0.2805 -0.1251  0.3025
 2212SOL    HW118272   1.882   1.868   7.487  0.4765 -0.4440 -1.1478
 2212SOL    HW218273   1.739   1.905   7.508  0.7027 -1.0358  1.2721
 2213SOL     OW18274   1.670   3.244  13.226 -0.5129 -0.1031 -0.2474
 2213SOL    HW118275   1.700   3.312  13.288 -0.0076 -1.0148  0.5111
 2213SOL    HW218276   1.591   3.281  13.188  0.0789  1.5367  0.0772
 2214SOL     OW18277   0.084   0.686   4.742 -0.1084 -0.1228  0.3783
 2214SOL    HW118278   0.126   0.736   4.811  0.5778  0.6463 -0.6069
 2214SOL    HW218279   0.126   0.732   4.670  0.2221 -0.3953  0.4007
 2215SOL     OW18280   0.564   4.271   3.496 -0.1896  0.9791 -0.3203
 2215SOL    HW118281   0.615   4.341   3.455 -0.7307  0.9847 -0.9975
 2215SOL    HW218282   0.505   4.315   3.557 -0.1648 -1.9916  1.8121
 2216SOL     OW18283   2.808   2.469   6.308  0.4384  0.0005  0.0394
 2216SOL    HW118284   2.749   2.408   6.351  1.6267  0.1884  1.9841
 2216SOL    HW218285   2.783   2.552   6.348 -0.6148 -0.0899 -0.4456
 2217SOL     OW18286   1.710   3.161  10.076  0.0366 -0.1353  0.0536
 2217SOL    HW118287   1.722   3.076  10.035  0.3340 -0.1289  0.1254
 2217SOL    HW218288   1.658   3.134  10.152  0.2194 -4.4785 -1.3830
 2218SOL     OW18289   1.113   1.752  10.145  0.0351 -0.5605 -0.4856
 2218SOL    HW118290   1.085   1.744  10.054 -0.7808  1.0506 -0.3754
 2218SOL    HW218291   1.184   1.815  10.133  0.3099 -0.8842 -0.5435
 2219SOL     OW18292   1.627   3.414   9.312  0.1234  0.5198  0.0103
 2219SOL    HW118293   1.675   3.490   9.344 -0.2297 -0.6726  3.3937
 2219SOL    HW218294   1.666   3.410   9.225  0.0304  0.9287 -0.0484
 2220SOL     OW18295   1.033   1.061   0.461  0.4145  1.2266  0.4625
 2220SOL    HW118296   1.044   1.152   0.488  2.6785  0.1817  3.0378
 2220SOL    HW218297   1.002   1.078   0.372  1.5303 -0.5501 -0.2728
 2221SOL     OW18298   1.350   4.694   8.021 -0.2917  0.0585  0.1239
 2221SOL    HW118299   1.393   0.032   7.978  0.4414  0.4123  1.4591
 2221SOL    HW218300   1.408   4.682   8.097 -1.4593  0.0118  1.0144
 2222SOL     OW18301   0.333   0.699  12.180 -0.1104 -0.0102  0.6218
 2222SOL    HW118302   0.323   0.604  12.172  0.1100 -0.0488  0.8180
 2222SOL    HW218303   0.331   0.725  12.087  1.9828  1.5393  1.0131
 2223SOL     OW18304   1.063   1.010   8.319 -0.5094  0.3374  0.1262
 2223SOL    HW118305   0.969   0.994   8.304 -0.5770 -0.2662  1.2501
 2223SOL    HW218306   1.089   0.962   8.241  1.6389  1.3581  0.2336
 2224SOL     OW18307   2.883   1.749   6.157 -0.4896 -0.1013  0.4195
 2224SOL    HW118308   2.880   1.804   6.235 -1.3504  1.2290 -0.5306
 2224SOL    HW218309   2.813   1.684   6.160  0.5320 -1.4008 -4.0061
 2225SOL     OW18310   2.350   4.301   8.706  0.8766 -0.3765  0.5730
 2225SOL    HW118311   2.385   4.212   8.713 -0.5954 -1.0206 -0.2579
 2225SOL    HW218312   2.345   4.334   8.795 -0.7284 -0.0679  0.3594
 2226SOL     OW18313   2.542   4.199   1.431  0.4106 -0.5842  0.0758
 2226SOL    HW118314   2.557   4.287   1.465 -1.3160 -0.2140 -0.0816
 2226SOL    HW218315   2.485   4.165   1.500  1.2452 -1.2913  0.4101
 2227SOL     OW18316   4.203   2.095  15.795 -0.1564 -0.3912  0.0276
 2227SOL    HW118317   4.194   2.120  15.704  0.5368  0.6161  0.2408
 2227SOL    HW218318   4.274   2.031  15.787  2.2797  2.4522 -0.6545
 2228SOL     OW18319   4.497   0.843   2.615  0.4450  0.5417  0.7623
 2228SOL    HW118320   4.443   0.766   2.598  0.4531  0.9595 -1.0779
 2228SOL    HW218321   4.428   0.909   2.614  0.8522  0.9559  0.1412
 2229SOL     OW18322   0.979   2.959  16.518  0.7348 -0.5613 -0.2510
 2229SOL    HW118323   0.915   2.943  16.448 -3.0320  0.8270  2.9231
 2229SOL    HW218324   0.924   2.968  16.596 -0.4196 -1.2378 -0.9844
 2230SOL     OW18325   4.599   4.729  14.633 -0.0345  0.1696  0.2415
 2230SOL    HW118326   4.693   4.719  14.644  0.3492  1.0066 -2.2383
 2230SOL    HW218327   4.585   0.086  14.658 -2.2668 -0.1693  0.2726
 2231SOL     OW18328   0.193   4.193   3.268  0.1429  0.3189  0.0650
 2231SOL    HW118329   0.128   4.211   3.201 -0.7758  2.2715  1.5063
 2231SOL    HW218330   0.193   4.098   3.281 -0.5683  0.8123  3.6150
 2232SOL     OW18331   3.988   1.838   4.101  0.6516 -0.2992  0.1987
 2232SOL    HW118332   3.965   1.931   4.101  1.3175 -0.1415  0.0936
 2232SOL    HW218333   3.902   1.801   4.078 -0.2146  0.5375  2.0507
 2233SOL     OW18334   2.665   0.937   8.258 -0.1280  0.6618 -0.1153
 2233SOL    HW118335   2.711   1.002   8.205  2.8004 -0.2920  1.2670
 2233SOL    HW218336   2.715   0.855   8.261 -2.0938 -0.5129  0.4860
 2234SOL     OW18337   2.262   1.474   7.400  0.0673  0.2925  0.2814
 2234SOL    HW118338   2.340   1.466   7.454  0.8358 -1.7444 -1.1216
 2234SOL    HW218339   2.281   1.566   7.380 -0.0084  0.3731  0.5760
 2235SOL     OW18340   0.023   1.348  16.716  0.4435 -0.2820 -0.0751
 2235SOL    HW118341   4.710   1.293  16.777 -2.5475  2.5888  0.1939
 2235SOL    HW218342   0.035   1.428  16.768 -2.5491  0.2085 -0.1565
 2236SOL     OW18343   4.254   4.060   6.513  0.3963  0.4491  0.0199
 2236SOL    HW118344   4.247   4.071   6.419  2.4685  0.2213 -0.1608
 2236SOL    HW218345   4.212   4.143   6.537 -1.4796 -0.3502 -0.5447
 2237SOL     OW18346   3.178   3.271   2.290  0.7443  0.1533 -0.0813
 2237SOL    HW118347   3.098   3.231   2.325  0.7188 -0.6801 -1.0709
 2237SOL    HW218348   3.153   3.362   2.277 -1.4961 -0.3243  0.8792
 2238SOL     OW18349   0.485   3.753   4.507 -0.2818  0.5808  0.5227
 2238SOL    HW118350   0.429   3.688   4.466 -1.4556 -0.0869  3.1391
 2238SOL    HW218351   0.470   3.740   4.601 -2.8587  2.8152  0.4470
 2239SOL     OW18352   2.159   1.737   4.563  0.1384  0.2874  0.0340
 2239SOL    HW118353   2.093   1.686   4.516 -1.1323  1.1210  0.8955
 2239SOL    HW218354   2.131   1.827   4.549 -0.7577 -0.0422 -0.2650
 2240SOL     OW18355   2.437   3.130   1.376 -0.0220  0.0559 -0.3773
 2240SOL    HW118356   2.382   3.208   1.388  0.7768  0.4235  0.8553
 2240SOL    HW218357   2.423   3.078   1.456  1.7671  1.1094  0.6219
 2241SOL     OW18358   0.639   4.193  14.129 -0.1108 -0.2497  1.0538
 2241SOL    HW118359   0.639   4.220  14.037 -0.9065  3.6488  2.2326
 2241SOL    HW218360   0.562   4.229  14.173 -1.0991 -2.6436  1.3189
 2242SOL     OW18361   4.651   3.245  13.297  0.1181  0.3576 -0.1464
 2242SOL    HW118362   4.574   3.301  13.288 -0.9678 -1.4425 -1.8905
 2242SOL    HW218363   4.700   3.306  13.352  0.0051  0.1517  0.1827
 2243SOL     OW18364   2.126   3.202   9.750  0.2911  0.5210  0.2892
 2243SOL    HW118365   2.074   3.158   9.818  0.9207 -0.6711 -0.0049
 2243SOL    HW218366   2.198   3.139   9.746  1.3531  1.7892 -0.3059
 2244SOL     OW18367   4.558   2.376   2.973 -0.0778  0.1138 -0.1154
 2244SOL    HW118368   4.464   2.363   2.957 -0.1739 -1.5876  1.8296
 2244SOL    HW218369   4.607   2.351   2.895  1.3896  2.1961  0.1379
 2245SOL     OW18370   4.605   3.713   8.168  0.1972  0.4481 -0.2472
 2245SOL    HW118371   4.551   3.679   8.240 -0.6258  0.2267 -0.9769
 2245SOL    HW218372   4.671   3.756   8.223  0.1628  2.3282 -1.7160
 2246SOL     OW18373   3.173   2.898   7.208 -0.2509 -0.1288  0.6652
 2246SOL    HW118374   3.125   2.975   7.235 -0.6221 -0.4335  0.8716
 2246SOL    HW218375   3.239   2.887   7.277 -1.0872 -1.8448  1.1889
 2247SOL     OW18376   2.479   3.071  12.943 -0.3228  0.2602  0.5200
 2247SOL    HW118377   2.560   3.023  12.932  1.0560  2.4945  0.8781
 2247SOL    HW218378   2.458   3.047  13.034 -0.7915 -0.8809  0.1068
 2248SOL     OW18379   2.699   3.675  10.807  0.1799  0.4763 -0.0380
 2248SOL    HW118380   2.644   3.598  10.794  0.2789  0.5407 -0.8497
 2248SOL    HW218381   2.670   3.712  10.890 -0.8980 -2.6242  0.9517
 2249SOL     OW18382   2.709   2.177   5.724  0.3578 -0.6629 -0.1057
 2249SOL    HW118383   2.656   2.104   5.758  3.6789 -2.5986  0.9602
 2249SOL    HW218384   2.770   2.130   5.667  0.1627  0.7629 -1.4841
 2250SOL     OW18385   2.903   3.724   7.714 -0.2298  0.3069 -0.3130
 2250SOL    HW118386   2.876   3.801   7.764  0.2810  0.7053 -0.6573
 2250SOL    HW218387   2.890   3.761   7.627 -0.2904  0.6190 -0.1698
 2251SOL     OW18388   4.402   3.157   2.045 -0.1175  0.0628 -0.3830
 2251SOL    HW118389   4.483   3.105   2.040 -0.7828 -1.1255  1.5707
 2251SOL    HW218390   4.344   3.081   2.052 -0.1326  0.3539  2.5353
 2252SOL     OW18391   3.017   3.140   1.834 -0.4484 -0.5926  0.4881
 2252SOL    HW118392   3.000   3.119   1.742  1.2473  3.1979 -0.6851
 2252SOL    HW218393   3.006   3.054   1.875 -2.7034  0.0427  1.2326
 2253SOL     OW18394   2.681   2.044   0.921 -0.5039  0.5401  0.4284
 2253SOL    HW118395   2.594   2.009   0.902  0.3099 -1.3455  0.1941
 2253SOL    HW218396   2.701   2.010   1.008  0.7260 -1.6263 -0.7238
 2254SOL     OW18397   0.793   1.937   7.395 -0.1889 -0.2963 -0.0032
 2254SOL    HW118398   0.713   1.918   7.445 -0.6108  1.5747  0.0320
 2254SOL    HW218399   0.857   1.870   7.420 -0.4407 -1.2732 -2.0018
 2255SOL     OW18400   4.636   0.755  17.734  0.2227 -0.4321 -0.0550
 2255SOL    HW118401   4.564   0.816  17.718  1.4540  0.5999 -1.5559
 2255SOL    HW218402   4.708   0.798   0.042  0.9415  1.8433 -3.3459
 2256SOL     OW18403   4.171   1.809   1.521  0.2495  0.5075  0.1234
 2256SOL    HW118404   4.106   1.770   1.463  1.7038  1.3852 -2.1045
 2256SOL    HW218405   4.164   1.899   1.489 -0.6685 -0.2712 -1.8090
 2257SOL     OW18406   3.484   1.176   1.626 -0.0662  0.4072 -0.3673
 2257SOL    HW118407   3.405   1.217   1.660  0.3714 -0.9950  2.3746
 2257SOL    HW218408   3.501   1.207   1.537  0.3951  1.4229  0.0670
 2258SOL     OW18409   1.904   1.937   3.011 -0.1373  0.4832  0.0995
 2258SOL    HW118410   1.980   1.995   3.003  1.0271 -1.2226 -1.1950
 2258SOL    HW218411   1.855   1.966   2.934 -0.3331 -0.6438 -0.2021
 2259SOL     OW18412   3.522   4.042   6.885 -0.6544  0.0471 -0.4200
 2259SOL    HW118413   3.483   3.982   6.822 -0.1839  0.6244 -1.2518
 2259SOL    HW218414   3.461   4.034   6.959 -0.5123 -2.2764 -0.5653
 2260SOL     OW18415   0.175   0.996  10.512 -0.1087  0.9153  0.1705
 2260SOL    HW118416   0.107   1.010  10.446 -1.9227 -1.1332  1.6139
 2260SOL    HW218417   0.253   0.999  10.457  1.2611 -4.4546  1.7708
 2261SOL     OW18418   0.147   0.710   8.100  0.2735 -0.0785  0.0208
 2261SOL    HW118419   0.145   0.653   8.177  2.5759  1.3373  1.1269
 2261SOL    HW218420   0.144   0.800   8.131 -2.0495 -0.2404  0.3136
 2262SOL     OW18421   1.914   4.312   7.888  0.3714 -0.1285 -0.1193
 2262SOL    HW118422   2.007   4.335   7.894  0.2527  1.1605 -3.1045
 2262SOL    HW218423   1.903   4.280   7.978 -0.5684 -1.4992 -0.7342
 2263SOL     OW18424   3.876   3.916  16.315  1.1969 -0.0497  0.7087
 2263SOL    HW118425   3.965   3.949  16.325  0.9082 -0.0117  3.1610
 2263SOL    HW218426   3.826   3.995  16.292  2.5570  0.2219 -1.2794
 2264SOL     OW18427   1.877   1.838   6.247 -0.3288  0.1463  0.3335
 2264SOL    HW118428   1.867   1.811   6.339 -1.8899  0.4615  0.2532
 2264SOL    HW218429   1.940   1.767   6.234 -0.3398  0.9306 -3.8472
 2265SOL     OW18430   2.341   3.339   8.878 -0.7133 -0.3260  0.4450
 2265SOL    HW118431   2.398   3.412   8.852  0.4625 -1.2953  0.3292
 2265SOL    HW218432   2.266   3.386   8.917  1.0704  0.9490  2.3778
 2266SOL     OW18433   4.186   4.152   2.307 -0.1803  0.1163  0.2002
 2266SOL    HW118434   4.130   4.095   2.359  3.2325 -2.3218  1.1725
 2266SOL    HW218435   4.272   4.141   2.348  0.0402  2.1403  0.2755
 2267SOL     OW18436   4.554   4.711  10.422 -0.1543 -0.0729 -0.1830
 2267SOL    HW118437   4.472   4.670  10.397  0.6470 -1.2007 -0.9633
 2267SOL    HW218438   4.603   4.661  10.357 -0.3338 -1.4359  0.7513
 2268SOL     OW18439   0.004   2.488   8.518  0.3016  0.3294 -0.0837
 2268SOL    HW118440   4.723   2.574   8.479 -0.5626  1.0939  1.9522
 2268SOL    HW218441   4.716   2.439   8.439  0.6681  0.4701 -0.2766
 2269SOL     OW18442   3.710   2.272   8.884 -0.5490 -0.1573  0.1209
 2269SOL    HW118443   3.756   2.355   8.871 -1.7878  0.4755 -0.1695
 2269SOL    HW218444   3.778   2.205   8.878 -0.8776 -0.5278  0.5545
 2270SOL     OW18445   4.567   2.313  16.394 -0.0354  0.9118 -0.7095
 2270SOL    HW118446   4.558   2.405  16.421  0.3775  0.4203  1.0913
 2270SOL    HW218447   4.663   2.315  16.390 -0.1309  1.1654 -2.7843
 2271SOL     OW18448   2.996   2.956  16.668  0.4255  0.2543  0.2355
 2271SOL    HW118449   3.059   2.952  16.596 -0.5171 -2.8106 -0.4336
 2271SOL    HW218450   2.981   2.864  16.690  2.3756 -0.6663 -2.2665
 2272SOL     OW18451   0.173   1.861  13.563 -0.5040 -0.1015  0.0139
 2272SOL    HW118452   0.215   1.942  13.535  0.7870 -0.5323  0.7111
 2272SOL    HW218453   0.233   1.799  13.521  1.8898  1.8099  0.6488
 2273SOL     OW18454   2.428   0.386  14.040 -0.0694  0.6697 -0.5028
 2273SOL    HW118455   2.409   0.471  14.000 -2.9213  1.4890  2.6231
 2273SOL    HW218456   2.368   0.339  13.981  2.0147 -1.4781 -0.9214
 2274SOL     OW18457   3.004   2.927   5.669 -0.0665  0.0102 -0.4270
 2274SOL    HW118458   2.995   2.876   5.589  0.4606  0.5786 -0.8521
 2274SOL    HW218459   3.020   2.859   5.734  1.8490  1.8015  0.9933
 2275SOL     OW18460   2.786   0.824   5.217 -0.0636  0.5844  0.0945
 2275SOL    HW118461   2.880   0.825   5.231  0.1346 -0.9177 -1.1348
 2275SOL    HW218462   2.769   0.731   5.202 -0.6443  0.4338  1.7089
 2276SOL     OW18463   1.675   0.683   2.370 -0.4256  0.4427 -0.3678
 2276SOL    HW118464   1.649   0.771   2.397  0.8670  0.2723  1.3590
 2276SOL    HW218465   1.765   0.677   2.403 -0.5350 -1.0724 -0.3422
 2277SOL     OW18466   3.712   0.666   4.138  0.4307  0.0554  0.4510
 2277SOL    HW118467   3.734   0.657   4.045 -1.6126  0.9075 -0.1196
 2277SOL    HW218468   3.731   0.758   4.159 -0.8176  0.4387 -0.1203
 2278SOL     OW18469   4.696   1.500  14.499  0.2921 -0.0669  0.4379
 2278SOL    HW118470   4.683   1.440  14.572  0.5166 -0.2247  0.3474
 2278SOL    HW218471   0.051   1.481  14.473 -0.3722  1.6346 -3.0672
 2279SOL     OW18472   1.039   4.353  14.142 -0.0036  0.4266  0.2909
 2279SOL    HW118473   1.019   4.329  14.232 -0.0601  0.3132  0.2469
 2279SOL    HW218474   0.994   4.437  14.134  2.3640  1.7030  0.2923
 2280SOL     OW18475   1.658   1.667   5.135  0.3007 -0.2301  0.2215
 2280SOL    HW118476   1.736   1.651   5.082 -0.0263 -1.2372  0.0262
 2280SOL    HW218477   1.701   1.657   5.219  1.5132  1.2989 -0.2371
 2281SOL     OW18478   3.502   3.473  14.539  0.4911  0.5392 -0.3104
 2281SOL    HW118479   3.567   3.476  14.610 -0.7610  1.4099  0.8180
 2281SOL    HW218480   3.526   3.555  14.494 -0.6495  0.1446 -1.6147
 2282SOL     OW18481   2.243   1.096   7.264  0.2315  0.2667 -0.3806
 2282SOL    HW118482   2.337   1.083   7.249  0.5671  1.6971  0.4726
 2282SOL    HW218483   2.229   1.160   7.195 -0.5369  0.0865 -0.3897
 2283SOL     OW18484   1.701   4.348   5.609  0.4951  0.1676 -0.2832
 2283SOL    HW118485   1.713   4.433   5.568  1.0126 -0.4146 -1.3516
 2283SOL    HW218486   1.661   4.363   5.694 -1.1924 -0.6241 -0.9466
 2284SOL     OW18487   2.544   4.540   0.195 -0.0781 -0.1195 -0.2679
 2284SOL    HW118488   2.587   4.473   0.143  2.2343  1.2882 -0.1971
 2284SOL    HW218489   2.475   4.490   0.239 -1.1638  0.2030 -1.5973
 2285SOL     OW18490   4.616   0.930  11.666  0.5703 -0.2998 -0.4987
 2285SOL    HW118491   4.620   0.976  11.749  2.9336 -2.1493  0.4382
 2285SOL    HW218492   4.646   0.843  11.694 -0.4100 -0.4308  0.1763
 2286SOL     OW18493   2.975   3.509  12.498 -0.8965  0.0448 -0.1439
 2286SOL    HW118494   2.930   3.429  12.524 -0.3029  0.2871  1.6313
 2286SOL    HW218495   3.019   3.486  12.416  0.9559 -0.7841  1.1005
 2287SOL     OW18496   4.693   3.099   0.615 -0.7674 -0.1652 -0.3803
 2287SOL    HW118497   4.657   3.058   0.537  1.5995  0.5713 -1.8617
 2287SOL    HW218498   0.053   3.105   0.601 -0.5653 -0.5582  0.7806
 2288SOL     OW18499   1.132   2.368   6.015 -0.6094 -0.2900  1.0563
 2288SOL    HW118500   1.060   2.365   6.078 -0.1587 -2.2214  1.4801
 2288SOL    HW218501   1.072   2.380   5.941  1.5892 -0.5510 -0.7626
 2289SOL     OW18502   3.335   1.484   4.322  0.3605 -0.8055 -0.5566
 2289SOL    HW118503   3.320   1.413   4.384 -1.5043 -0.5167 -0.6521
 2289SOL    HW218504   3.304   1.445   4.240  1.2945 -2.2318 -0.2274
 2290SOL     OW18505   3.931   3.235   3.101  0.0407  0.3850 -0.0323
 2290SOL    HW118506   3.953   3.188   3.021 -0.5890  2.0362 -1.1735
 2290SOL    HW218507   3.858   3.187   3.141  0.5888 -2.2872 -2.2255
 2291SOL     OW18508   2.225   3.723   8.639  0.2310 -0.1415  0.3955
 2291SOL    HW118509   2.185   3.675   8.568 -2.0766  2.5172 -0.1001
 2291SOL    HW218510   2.290   3.660   8.669  0.1579 -0.4606 -0.1274
 2292SOL     OW18511   3.715   4.164   8.300  0.1393 -0.2134 -0.0104
 2292SOL    HW118512   3.693   4.203   8.215  1.9663 -1.8045 -1.2100
 2292SOL    HW218513   3.737   4.241   8.353 -1.6174  1.1383 -1.2359
 2293SOL     OW18514   2.874   3.190   5.858 -0.2428  0.1419 -0.2029
 2293SOL    HW118515   2.882   3.253   5.787 -3.6363  0.1311 -0.5860
 2293SOL    HW218516   2.856   3.109   5.810  0.1572 -0.1588  0.1483
 2294SOL     OW18517   1.742   0.332   7.514 -0.4009  0.4432  0.3969
 2294SOL    HW118518   1.751   0.341   7.419  0.0588  2.2278  0.6102
 2294SOL    HW218519   1.756   0.239   7.532 -2.4021  0.6256  2.8740
 2295SOL     OW18520   2.688   0.096  16.378  0.3933  0.1331  0.0461
 2295SOL    HW118521   2.674   0.189  16.394 -0.7450  0.2116 -1.4365
 2295SOL    HW218522   2.727   0.091  16.291 -2.6820  0.0395 -1.3462
 2296SOL     OW18523   0.326   0.792   5.657 -0.1362 -0.4276  0.3411
 2296SOL    HW118524   0.256   0.750   5.707 -0.4198  0.6185  0.8421
 2296SOL    HW218525   0.366   0.710   5.630 -2.9945 -1.2817 -1.2219
 2297SOL     OW18526   2.630   0.196  15.003 -0.0348  0.8317 -0.1925
 2297SOL    HW118527   2.644   0.123  15.063 -0.9364  0.1968 -0.7533
 2297SOL    HW218528   2.723   0.199  14.979  0.8412 -1.4653  2.9087
 2298SOL     OW18529   2.350   2.601   4.081  0.1550 -0.4268  0.6982
 2298SOL    HW118530   2.387   2.688   4.094  0.7631 -0.9385  2.3420
 2298SOL    HW218531   2.298   2.599   4.161 -1.7885  1.0679 -0.5436
 2299SOL     OW18532   0.896   4.115  13.808  0.0860 -0.6198  0.0765
 2299SOL    HW118533   0.982   4.075  13.816  0.1375 -0.6420 -0.5728
 2299SOL    HW218534   0.925   4.200  13.776  0.4766 -1.5237 -1.9602
 2300SOL     OW18535   2.828   4.121  17.193  0.1180 -0.1180 -0.1083
 2300SOL    HW118536   2.739   4.088  17.183 -0.3536  1.0699  0.1765
 2300SOL    HW218537   2.874   4.042  17.164  1.7627  0.0079  2.1730
 2301SOL     OW18538   4.625   1.952  15.967  0.5102 -0.6015  0.5851
 2301SOL    HW118539   4.535   1.972  15.993  0.2112 -0.9437 -0.2099
 2301SOL    HW218540   4.654   2.043  15.971  0.4262 -0.5160 -1.0362
 2302SOL     OW18541   3.358   1.286   2.549 -0.0835  0.4549  0.1428
 2302SOL    HW118542   3.264   1.276   2.562 -0.0963 -0.7950 -1.0339
 2302SOL    HW218543   3.388   1.283   2.640  0.3008  0.2414  0.0098
 2303SOL     OW18544   4.345   3.130   9.372 -0.4615  0.0275 -0.7085
 2303SOL    HW118545   4.441   3.133   9.378 -0.5844  2.3475 -0.0127
 2303SOL    HW218546   4.341   3.034   9.376  1.7066  0.0793  2.4102
 2304SOL     OW18547   0.684   3.730   2.836  0.4156 -0.0450  0.0050
 2304SOL    HW118548   0.749   3.689   2.779  1.0254 -0.3628  0.9304
 2304SOL    HW218549   0.721   3.818   2.849 -0.6283  0.4212 -0.2064
 2305SOL     OW18550   0.622   1.302   7.933  0.0900  0.3306 -0.2820
 2305SOL    HW118551   0.658   1.369   7.874  3.0969 -0.3764  0.7993
 2305SOL    HW218552   0.617   1.224   7.877  1.7883  1.0552 -1.4369
 2306SOL     OW18553   1.093   3.616   6.506  0.4105  0.2778 -0.2285
 2306SOL    HW118554   1.183   3.641   6.523  0.2391 -1.3643  3.2194
 2306SOL    HW218555   1.088   3.603   6.412  1.9558  2.2442 -0.5610
 2307SOL     OW18556   2.779   1.200  13.063  0.1061  0.0187  0.0309
 2307SOL    HW118557   2.775   1.294  13.076 -0.8509  0.2233 -1.7192
 2307SOL    HW218558   2.801   1.163  13.148  1.9701  2.5336  0.6332
 2308SOL     OW18559   3.916   1.526  17.437  0.1223 -0.2402  0.0356
 2308SOL    HW118560   3.931   1.562  17.524 -2.2002 -3.6101  1.8551
 2308SOL    HW218561   4.003   1.527  17.398 -0.3662 -2.0582 -1.1006
 2309SOL     OW18562   1.600   0.127  17.134 -0.0289 -0.3042 -0.2898
 2309SOL    HW118563   1.552   0.059  17.088  0.0140  0.1643 -1.0284
 2309SOL    HW218564   1.553   0.207  17.110 -1.1623 -0.3316  1.9097
 2310SOL     OW18565   2.685   0.643   4.226  0.0742 -0.2655 -0.0546
 2310SOL    HW118566   2.659   0.563   4.272  1.1019  1.3801  3.3685
 2310SOL    HW218567   2.743   0.676   4.295  1.1758 -1.2320 -0.5038
 2311SOL     OW18568   2.836   0.517   0.474 -0.3404  0.2518 -0.6716
 2311SOL    HW118569   2.915   0.501   0.423  0.0631 -0.7253  0.2654
 2311SOL    HW218570   2.871   0.515   0.563 -2.8847 -0.1174  0.3477
 2312SOL     OW18571   3.127   1.678   8.971  0.0843 -0.3063 -0.4674
 2312SOL    HW118572   3.163   1.613   9.032 -1.0792 -0.8424 -0.3534
 2312SOL    HW218573   3.203   1.697   8.917 -0.8663  1.8034 -1.0573
 2313SOL     OW18574   4.225   0.375   2.129  0.2822 -0.1945 -0.2514
 2313SOL    HW118575   4.320   0.365   2.126  0.5154  1.6282  0.8788
 2313SOL    HW218576   4.206   0.292   2.172 -0.1858 -0.3323 -0.7278
 2314SOL     OW18577   4.142   0.416  12.401 -0.5029 -0.0504 -0.0497
 2314SOL    HW118578   4.195   0.386  12.474 -1.0222 -0.2671  0.2402
 2314SOL    HW218579   4.167   0.508  12.398 -0.6059  0.0395  1.9745
 2315SOL     OW18580   1.520   1.467   6.091  0.3089 -0.1472 -0.8774
 2315SOL    HW118581   1.466   1.499   6.164 -0.1722 -0.1786 -1.2159
 2315SOL    HW218582   1.456   1.460   6.021  0.8778  1.3164 -1.5355
 2316SOL     OW18583   0.233   1.137   4.006  0.0377  0.2517  0.1257
 2316SOL    HW118584   0.238   1.084   4.086 -1.1045 -0.3010 -0.1722
 2316SOL    HW218585   0.154   1.096   3.971 -0.1084  1.1112 -0.5366
 2317SOL     OW18586   1.518   1.591   8.763  0.1710  0.1453 -0.3341
 2317SOL    HW118587   1.498   1.578   8.856  0.2955  0.6111 -0.2402
 2317SOL    HW218588   1.491   1.680   8.740  2.3218  1.7739  3.3905
 2318SOL     OW18589   1.214   1.439   0.628 -0.3990 -0.7449  0.1580
 2318SOL    HW118590   1.174   1.523   0.647  1.1614 -0.3481  1.7518
 2318SOL    HW218591   1.233   1.401   0.715 -1.3926  1.3168  1.2649
 2319SOL     OW18592   0.136   3.216   7.691  0.2348  0.2717  0.4632
 2319SOL    HW118593   0.186   3.266   7.756  1.3220  0.7410 -0.7384
 2319SOL    HW218594   0.211   3.189   7.639  1.0606  1.7264  0.8998
 2320SOL     OW18595   0.220   0.561   2.211  0.7580  0.6898  0.2104
 2320SOL    HW118596   0.254   0.486   2.260  1.2028  0.9651  0.3178
 2320SOL    HW218597   0.205   0.623   2.283  1.6422  0.4221  0.6220
 2321SOL     OW18598   1.061   1.556   0.871  0.0213  0.1790 -0.0230
 2321SOL    HW118599   1.045   1.560   0.966  3.7660 -0.2270  0.6216
 2321SOL    HW218600   1.108   1.472   0.869 -2.6256 -1.2864 -0.5719
 2322SOL     OW18601   0.837   0.033  11.644  0.3714 -0.2408 -0.1573
 2322SOL    HW118602   0.809   4.725  11.725  0.6650  1.2366  0.7352
 2322SOL    HW218603   0.913   0.087  11.665  0.5438 -1.0464  1.2407
 2323SOL     OW18604   2.959   4.262   8.049  0.3442  0.4358  0.9959
 2323SOL    HW118605   2.956   4.354   8.026  0.7718 -0.2533 -1.7960
 2323SOL    HW218606   2.961   4.266   8.145 -1.2042  0.3824  1.0308
 2324SOL     OW18607   2.531   2.597  13.467  0.3670 -0.1220  0.5762
 2324SOL    HW118608   2.563   2.588  13.557  0.7229  1.6926  0.6321
 2324SOL    HW218609   2.609   2.575  13.416  0.0338  1.6612 -0.6946
 2325SOL     OW18610   1.097   3.515   2.834  0.1167 -0.4832 -0.0762
 2325SOL    HW118611   1.177   3.464   2.845  0.7571  0.3346 -0.9720
 2325SOL    HW218612   1.087   3.581   2.902  1.6161  0.6222 -0.9086
 2326SOL     OW18613   3.773   1.802   8.040 -0.5293  0.3739 -0.3784
 2326SOL    HW118614   3.730   1.716   8.037  0.6592 -0.1937 -1.1178
 2326SOL    HW218615   3.855   1.778   8.083 -1.2651  0.9971  1.3785
 2327SOL     OW18616   0.535   0.706  17.181  0.2769 -0.3838  0.6553
 2327SOL    HW118617   0.576   0.792  17.179 -2.5586  1.0417  3.1023
 2327SOL    HW218618   0.559   0.680  17.270  0.7038 -0.5976  0.4790
 2328SOL     OW18619   3.383   2.496  16.997  0.1535  0.2034 -0.1905
 2328SOL    HW118620   3.358   2.412  16.959  3.1334  0.3676 -2.5136
 2328SOL    HW218621   3.321   2.557  16.957 -0.5695  0.7410  1.7836
 2329SOL     OW18622   2.560   2.784  11.376 -0.1713  0.4242  0.0944
 2329SOL    HW118623   2.522   2.808  11.460  0.1271  1.2903 -0.0184
 2329SOL    HW218624   2.642   2.754  11.415 -0.3983  0.4240  0.5666
 2330SOL     OW18625   2.020   2.743   5.211  0.3663  0.4302 -0.0172
 2330SOL    HW118626   2.019   2.802   5.287 -0.4299 -0.7496  0.8964
 2330SOL    HW218627   1.937   2.765   5.170  0.1687  0.9982  0.6972
 2331SOL     OW18628   3.402   4.173   3.908  0.6282 -0.6761  0.2864
 2331SOL    HW118629   3.454   4.174   3.988  0.8274 -1.0431  0.1568
 2331SOL    HW218630   3.455   4.122   3.847  1.7239  0.7431  0.0474
 2332SOL     OW18631   0.139   4.649   3.604  0.5341 -0.1255 -0.1284
 2332SOL    HW118632   0.153   4.558   3.579 -0.2286 -0.2511 -0.1028
 2332SOL    HW218633   0.046   4.656   3.581  1.5575  2.8613 -3.3210
 2333SOL     OW18634   4.206   4.019   3.863  0.2775  0.2206 -0.1605
 2333SOL    HW118635   4.170   3.977   3.941 -1.7490  1.9779 -0.1280
 2333SOL    HW218636   4.267   3.953   3.832  1.8162  1.2955  0.5700
 2334SOL     OW18637   0.297   4.081  14.405  0.0572  0.0559  0.0311
 2334SOL    HW118638   0.347   4.003  14.432 -1.6987 -1.6010 -1.4844
 2334SOL    HW218639   0.212   4.049  14.437 -1.0327  1.5027 -1.3914
 2335SOL     OW18640   1.835   0.625   9.270 -0.1079 -0.4691  0.4925
 2335SOL    HW118641   1.890   0.652   9.342 -1.0838  2.2829  0.2173
 2335SOL    HW218642   1.819   0.716   9.242  2.2151 -0.3872 -0.5302
 2336SOL     OW18643   0.392   1.583   7.913  0.1206  0.9424  0.2738
 2336SOL    HW118644   0.341   1.621   7.842  1.5021  1.7255 -0.2825
 2336SOL    HW218645   0.418   1.500   7.875 -0.7788 -0.3070  2.3890
 2337SOL     OW18646   1.643   2.269   8.801 -0.3550  0.6543 -0.3421
 2337SOL    HW118647   1.605   2.225   8.725 -0.4410  0.2814 -0.0833
 2337SOL    HW218648   1.735   2.246   8.783 -0.1497 -0.4164  2.0800
 2338SOL     OW18649   3.433   0.461   9.103  0.1116  0.3690 -0.3177
 2338SOL    HW118650   3.355   0.419   9.138  1.5262 -2.7997 -0.9457
 2338SOL    HW218651   3.394   0.512   9.033 -0.7689  1.5461  1.0366
 2339SOL     OW18652   2.868   1.604   1.428 -0.3889 -0.1511 -0.1930
 2339SOL    HW118653   2.812   1.565   1.496  0.3275 -0.6035  0.1348
 2339SOL    HW218654   2.794   1.643   1.380  0.2439 -0.9748 -1.8304
 2340SOL     OW18655   2.023   1.240   2.597 -0.4035 -0.5048  0.0750
 2340SOL    HW118656   2.045   1.318   2.546 -2.9323  0.5280  0.5259
 2340SOL    HW218657   1.952   1.273   2.653  1.8699 -1.6690  3.7047
 2341SOL     OW18658   0.510   1.004   7.487 -0.2555  0.1170  0.4132
 2341SOL    HW118659   0.421   0.980   7.464  0.7175 -0.8994 -2.3758
 2341SOL    HW218660   0.554   0.983   7.404  0.3371  0.8199  0.5531
 2342SOL     OW18661   3.928   0.796   7.518 -0.1036  0.1576  0.2223
 2342SOL    HW118662   3.970   0.757   7.441  1.7684  1.5369  0.5375
 2342SOL    HW218663   3.912   0.881   7.477 -0.3671  0.3556  0.7408
 2343SOL     OW18664   1.982   0.340   6.889  0.2520  0.1591 -0.0628
 2343SOL    HW118665   1.899   0.292   6.882  0.6190  0.0093 -3.4418
 2343SOL    HW218666   2.032   0.281   6.944  1.1209  0.5140 -0.4681
 2344SOL     OW18667   3.072   1.802   1.456  0.0570  0.2453  0.1839
 2344SOL    HW118668   3.120   1.743   1.514 -0.2860 -1.3765 -1.1779
 2344SOL    HW218669   2.998   1.741   1.445  0.5527 -0.4144  0.5076
 2345SOL     OW18670   3.442   1.902   8.478  0.0354 -0.0573 -0.3395
 2345SOL    HW118671   3.420   1.988   8.513  0.8998 -0.6432  1.6291
 2345SOL    HW218672   3.533   1.920   8.456  0.7409 -1.9719  1.0197
 2346SOL     OW18673   3.487   0.530   5.420 -0.0157 -0.2472  0.0989
 2346SOL    HW118674   3.460   0.564   5.335 -0.1908 -2.1199 -0.5826
 2346SOL    HW218675   3.442   0.586   5.483  0.6022  0.1656  0.1838
 2347SOL     OW18676   0.706   2.271   3.111 -0.3118 -0.2499  0.7839
 2347SOL    HW118677   0.696   2.336   3.180 -1.1677 -1.4396  1.7812
 2347SOL    HW218678   0.728   2.328   3.037 -0.5113 -1.2567 -0.0684
 2348SOL     OW18679   0.990   0.998  10.342 -0.6018  0.2819  0.3790
 2348SOL    HW118680   0.907   1.042  10.326 -0.4776  0.4261  0.1317
 2348SOL    HW218681   1.001   1.030  10.432  0.0644  0.7822  0.1209
 2349SOL     OW18682   3.233   1.763   4.429  0.2541 -0.0183 -0.5390
 2349SOL    HW118683   3.297   1.817   4.383 -1.8779  2.1468 -0.9275
 2349SOL    HW218684   3.277   1.678   4.431 -0.5511 -0.4529 -1.2750
 2350SOL     OW18685   0.077   3.328   0.796  0.5144 -0.8467  0.2486
 2350SOL    HW118686   0.038   3.382   0.727  0.4896 -1.1391  0.0318
 2350SOL    HW218687   0.013   3.257   0.807 -1.3705  1.1016  1.8864
 2351SOL     OW18688   2.567   2.227   8.733 -0.1302 -0.0625 -0.7084
 2351SOL    HW118689   2.535   2.255   8.647 -1.2077 -1.3424 -0.7287
 2351SOL    HW218690   2.652   2.195   8.703 -0.4207 -0.5364 -1.0181
 2352SOL     OW18691   3.867   2.771   9.415 -0.2046  0.2627  0.2519
 2352SOL    HW118692   3.922   2.748   9.340 -1.4893 -0.4736 -0.4652
 2352SOL    HW218693   3.831   2.685   9.438  1.8174 -0.6999 -0.2267
 2353SOL     OW18694   3.855   4.173   6.368  0.1821  0.1555 -0.1529
 2353SOL    HW118695   3.914   4.122   6.311  1.2312  1.0852  0.0990
 2353SOL    HW218696   3.807   4.224   6.303 -0.3613 -0.9254 -0.6028
 2354SOL     OW18697   0.686   2.796  10.295  0.0317  0.7610 -0.0577
 2354SOL    HW118698   0.646   2.846  10.366  1.0532  1.4309  0.0342
 2354SOL    HW218699   0.729   2.860  10.240  1.8369 -1.1522 -0.8646
 2355SOL     OW18700   0.613   0.560  15.162 -0.0728  0.5947  0.1932
 2355SOL    HW118701   0.529   0.525  15.194  0.0886 -0.1562 -0.2121
 2355SOL    HW218702   0.628   0.502  15.088 -1.7991  0.7474 -0.2735
 2356SOL     OW18703   2.790   1.047   4.058 -0.3800  0.4234  0.4408
 2356SOL    HW118704   2.716   1.003   4.100 -0.4996 -1.1568 -1.4679
 2356SOL    HW218705   2.840   0.973   4.024 -1.0682  0.6145 -0.9617
 2357SOL     OW18706   1.704   1.054   7.923  0.2467  0.5885 -0.1070
 2357SOL    HW118707   1.661   1.086   8.002  3.2415  0.5734  1.5124
 2357SOL    HW218708   1.660   1.112   7.861 -2.4962 -0.3184  0.9935
 2358SOL     OW18709   3.417   1.894   2.928  0.1731 -0.1146  0.2862
 2358SOL    HW118710   3.499   1.923   2.967 -0.0636  2.1008 -0.8676
 2358SOL    HW218711   3.359   1.970   2.938 -0.3145 -0.3470 -0.7069
 2359SOL     OW18712   1.199   1.941   2.822 -0.0417 -0.2453  0.1419
 2359SOL    HW118713   1.117   1.927   2.775 -0.2587 -0.4357  0.5744
 2359SOL    HW218714   1.161   1.982   2.900 -2.0256  1.4413 -1.7218
 2360SOL     OW18715   3.578   3.747   2.425 -0.1663  0.0749 -0.3750
 2360SOL    HW118716   3.637   3.821   2.439  0.8305 -0.7694 -0.1476
 2360SOL    HW218717   3.628   3.673   2.390  1.4897  1.1776 -0.2930
 2361SOL     OW18718   1.953   2.055   9.300  0.5696  0.1672  0.4751
 2361SOL    HW118719   1.962   2.091   9.389  0.9112  2.0675 -0.3198
 2361SOL    HW218720   1.858   2.050   9.293  0.4983 -0.5692  2.0075
 2362SOL     OW18721   1.837   4.494  15.526  0.0882 -0.1024 -0.3150
 2362SOL    HW118722   1.783   4.562  15.485  1.8463  0.1910 -2.1403
 2362SOL    HW218723   1.921   4.531  15.497  1.3059 -1.5336  1.3977
 2363SOL     OW18724   1.500   0.459   0.698 -0.2209 -0.0241  0.1709
 2363SOL    HW118725   1.543   0.402   0.635  0.5260 -0.2157  0.8498
 2363SOL    HW218726   1.445   0.397   0.745  1.2847  0.0206  1.9893
 2364SOL     OW18727   4.095   3.744   1.659 -0.4520 -0.4893  0.1754
 2364SOL    HW118728   4.071   3.836   1.672 -0.5964 -0.8254  2.3196
 2364SOL    HW218729   4.077   3.691   1.737 -1.3305 -2.0374 -1.0629
 2365SOL     OW18730   1.931   0.683   8.666  0.0669 -0.0005 -0.0170
 2365SOL    HW118731   1.872   0.610   8.645 -3.4351  2.6317  0.5796
 2365SOL    HW218732   1.983   0.639   8.733  0.6068 -1.3865 -1.3368
 2366SOL     OW18733   2.520   3.299   2.622 -0.3920 -0.1480 -0.2826
 2366SOL    HW118734   2.507   3.204   2.623 -0.3733 -0.1136  4.2319
 2366SOL    HW218735   2.435   3.323   2.659  0.0424 -0.4198  0.8899
 2367SOL     OW18736   4.195   1.313   7.422 -0.1213 -0.0463 -0.0028
 2367SOL    HW118737   4.193   1.318   7.327 -0.4321 -1.5227 -0.0635
 2367SOL    HW218738   4.208   1.404   7.451  0.2658  0.2983 -1.2825
 2368SOL     OW18739   2.020   2.544   5.488 -0.2466 -0.5758  0.0014
 2368SOL    HW118740   2.006   2.508   5.400 -0.3760 -1.4876  0.3926
 2368SOL    HW218741   1.965   2.482   5.537  2.2778 -2.6009  0.3016
 2369SOL     OW18742   0.878   3.061   0.717  0.3364 -0.0964 -0.0639
 2369SOL    HW118743   0.914   3.101   0.639 -0.8628 -1.2166 -1.1983
 2369SOL    HW218744   0.877   2.967   0.696 -0.4634  0.0104 -0.5317
 2370SOL     OW18745   1.545   1.932   5.210 -0.3265 -0.2060  0.0310
 2370SOL    HW118746   1.534   1.844   5.175  3.1912  0.2010 -2.0919
 2370SOL    HW218747   1.576   1.916   5.299  0.0509 -2.9567 -0.5864
 2371SOL     OW18748   3.240   0.886   1.578 -0.1851 -0.0144 -0.5934
 2371SOL    HW118749   3.186   0.962   1.603  0.0109  0.0504 -0.3618
 2371SOL    HW218750   3.241   0.897   1.483  0.1965  1.6912 -0.4082
 2372SOL     OW18751   2.926   1.123   4.682 -0.5354  0.5980 -0.2352
 2372SOL    HW118752   3.013   1.162   4.684 -0.3924  0.2315  0.5169
 2372SOL    HW218753   2.875   1.196   4.718 -0.9558  0.0111  0.3490
 2373SOL     OW18754   2.665   3.420   4.490 -0.3237 -0.3181  0.4304
 2373SOL    HW118755   2.737   3.412   4.427  1.1381 -2.3923  2.3659
 2373SOL    HW218756   2.716   3.397   4.568 -2.5744  1.2395  2.3408
 2374SOL     OW18757   4.196   3.694  12.477  0.0530  0.4125 -0.2880
 2374SOL    HW118758   4.239   3.639  12.542 -2.0044 -2.5356 -1.4139
 2374SOL    HW218759   4.218   3.781  12.509  1.3429  0.5432 -1.5166
 2375SOL     OW18760   1.832   2.140   4.654  0.0915  0.3014  0.6727
 2375SOL    HW118761   1.799   2.082   4.722 -0.8902 -1.0123 -0.9029
 2375SOL    HW218762   1.752   2.137   4.601 -0.4624  0.6483  1.4977
 2376SOL     OW18763   1.364   3.555  16.345  0.1932 -0.4109  0.2778
 2376SOL    HW118764   1.291   3.584  16.399 -1.0226  1.6515 -2.4388
 2376SOL    HW218765   1.410   3.635  16.319 -3.4347  1.2428 -0.9608
 2377SOL     OW18766   0.249   1.637   0.348 -0.0616  0.5557  0.6455
 2377SOL    HW118767   0.325   1.583   0.369  0.2502  1.3807  1.6374
 2377SOL    HW218768   0.197   1.640   0.429 -2.3272 -0.2475 -0.7533
 2378SOL     OW18769   4.448   0.100   4.551  0.2605  0.7067  0.2171
 2378SOL    HW118770   4.440   0.167   4.618 -2.1315  0.9841 -0.3356
 2378SOL    HW218771   4.504   0.143   4.486  1.7854 -0.9306  0.4345
 2379SOL     OW18772   2.879   3.864   9.373 -0.5402 -0.6911 -0.0836
 2379SOL    HW118773   2.961   3.876   9.422 -1.0973  1.2779  0.3616
 2379SOL    HW218774   2.828   3.811   9.435 -1.0691 -2.1799 -1.7735
 2380SOL     OW18775   3.194   0.177   3.689  0.3867  0.1212  0.2269
 2380SOL    HW118776   3.168   0.200   3.600  0.0809  3.9782  1.3136
 2380SOL    HW218777   3.145   0.244   3.737  2.8212  1.4647  0.8377
 2381SOL     OW18778   0.596   3.322   7.920 -0.7847  0.4109 -0.1999
 2381SOL    HW118779   0.621   3.305   7.829 -1.5815 -1.8486  0.0011
 2381SOL    HW218780   0.583   3.230   7.943  2.3239 -0.6002 -2.4184
 2382SOL     OW18781   1.094   2.253   7.002  0.7505 -0.0521  0.0125
 2382SOL    HW118782   1.006   2.218   6.990  0.3103 -0.1464  3.5855
 2382SOL    HW218783   1.146   2.174   6.989  2.7456  1.0153  1.4691
 2383SOL     OW18784   2.710   1.015   3.039  0.2020  0.1259 -0.2061
 2383SOL    HW118785   2.747   1.080   3.099  1.5958 -0.2928 -0.6163
 2383SOL    HW218786   2.664   1.070   2.977 -0.7811  0.4432  0.7969
 2384SOL     OW18787   0.949   2.554  16.162 -0.0714 -0.1301 -0.8822
 2384SOL    HW118788   0.937   2.499  16.084  1.0383 -3.3995  1.2182
 2384SOL    HW218789   0.980   2.629  16.111  0.4372 -0.7096 -1.4277
 2385SOL     OW18790   0.448   1.564   1.492 -0.2172  0.1741  0.2389
 2385SOL    HW118791   0.453   1.487   1.550  0.0972 -1.0197 -1.3744
 2385SOL    HW218792   0.481   1.633   1.550  2.6532 -0.0872 -1.0921
 2386SOL     OW18793   1.502   2.724   8.761 -0.0245  0.6222 -0.0442
 2386SOL    HW118794   1.451   2.773   8.697 -0.9596  2.1089  1.8288
 2386SOL    HW218795   1.573   2.702   8.701 -1.4890  0.9769 -1.9078
 2387SOL     OW18796   2.881   1.670  12.314  0.3231  0.3160 -0.1446
 2387SOL    HW118797   2.899   1.580  12.288  1.6245  0.6426 -0.3924
 2387SOL    HW218798   2.870   1.720  12.233  1.7462 -1.3906 -1.3794
 2388SOL     OW18799   2.471   0.655  10.079  0.6131  0.7179  0.0447
 2388SOL    HW118800   2.462   0.630  10.171 -3.1141 -2.7458 -1.2901
 2388SOL    HW218801   2.460   0.580  10.022 -2.1347  0.4034  0.9955
 2389SOL     OW18802   3.332   2.443   0.983  0.3614 -0.2177 -0.3888
 2389SOL    HW118803   3.245   2.410   0.963  0.9795  0.7377 -4.8190
 2389SOL    HW218804   3.320   2.429   1.076 -0.7931 -0.8223 -0.6329
 2390SOL     OW18805   4.510   0.527   3.299 -0.9976  0.3500 -0.3920
 2390SOL    HW118806   4.602   0.521   3.273 -1.0437  0.3042 -0.5429
 2390SOL    HW218807   4.469   0.472   3.233 -0.8302 -0.1330 -0.0901
 2391SOL     OW18808   1.949   2.989   4.529  0.0274  0.2661  0.0174
 2391SOL    HW118809   1.892   2.916   4.555  0.0433  0.5681  0.9111
 2391SOL    HW218810   2.010   2.944   4.471  0.0326  0.3965 -0.0773
 2392SOL     OW18811   1.474   3.533   3.696  0.0826 -0.3018  0.6170
 2392SOL    HW118812   1.561   3.527   3.735  1.2901 -1.4875 -2.2198
 2392SOL    HW218813   1.498   3.573   3.612  3.2714 -0.9958  1.2038
 2393SOL     OW18814   4.606   1.965   4.283 -0.0955 -0.0974 -0.0418
 2393SOL    HW118815   4.546   1.893   4.301  0.6946 -0.3370  1.5744
 2393SOL    HW218816   4.552   2.042   4.302 -2.4903 -1.0368 -3.0932
 2394SOL     OW18817   1.786   0.776   7.630 -0.7147  1.0422 -0.1064
 2394SOL    HW118818   1.882   0.773   7.624 -0.5775  1.3837  1.9154
 2394SOL    HW218819   1.768   0.690   7.666 -1.6667  0.9452 -0.8225
 2395SOL     OW18820   0.066   3.864  16.672 -0.4832 -0.4562 -0.4350
 2395SOL    HW118821   0.076   3.957  16.693 -1.6776 -0.4559  0.1181
 2395SOL    HW218822   0.131   3.822  16.729  0.1878 -2.0973 -2.4062
 2396SOL     OW18823   4.676   3.997   3.294 -0.0813  0.1111  0.1201
 2396SOL    HW118824   4.659   4.089   3.314  0.4736  0.2902 -0.2313
 2396SOL    HW218825   4.604   3.984   3.232  0.4980 -1.2940 -0.2443
 2397SOL     OW18826   2.762   1.748   4.518  0.0244  0.2735  0.3589
 2397SOL    HW118827   2.753   1.740   4.613  2.4477  3.2047  0.8500
 2397SOL    HW218828   2.805   1.834   4.512 -1.3379  1.0158  1.3057
 2398SOL     OW18829   1.476   1.821   3.344 -0.2913  0.4351  0.2173
 2398SOL    HW118830   1.563   1.856   3.365 -1.5043  3.6846 -0.1787
 2398SOL    HW218831   1.484   1.793   3.253 -0.7244  1.3491 -0.0957
 2399SOL     OW18832   2.959   2.464   2.632  0.1444 -0.5689  0.1069
 2399SOL    HW118833   2.918   2.537   2.678  0.0325 -0.3679 -0.3173
 2399SOL    HW218834   3.039   2.461   2.686  0.9387 -0.7605 -1.0706
 2400SOL     OW18835   3.684   4.270   8.080  0.1526  0.1529 -0.1793
 2400SOL    HW118836   3.595   4.270   8.045  1.1525 -1.6246 -2.7501
 2400SOL    HW218837   3.728   4.327   8.017  3.1387 -1.3217  0.5698
 2401SOL     OW18838   4.047   1.950   1.755 -0.2343  0.1167 -0.4441
 2401SOL    HW118839   4.097   1.912   1.682  0.7255  1.8048 -0.6763
 2401SOL    HW218840   4.062   1.889   1.827 -0.2918 -0.4636 -0.9159
 2402SOL     OW18841   1.977   2.827  11.166  0.2131  0.2616  0.3825
 2402SOL    HW118842   2.013   2.742  11.192  0.8498  0.7587  1.1128
 2402SOL    HW218843   1.959   2.873  11.248 -0.1699  1.0121 -0.1174
 2403SOL     OW18844   1.191   3.122  16.587  0.1724  0.7150 -0.0594
 2403SOL    HW118845   1.252   3.149  16.519 -0.1978  0.3472 -0.5411
 2403SOL    HW218846   1.119   3.068  16.555  0.3454 -0.3808  1.4215
 2404SOL     OW18847   1.867   2.580   2.524 -0.1779 -0.1710  0.1212
 2404SOL    HW118848   1.798   2.620   2.576  0.1276  1.5219 -0.7596
 2404SOL    HW218849   1.854   2.611   2.434  0.8265 -0.9395 -0.2959
 2405SOL     OW18850   1.935   3.023   6.025 -0.0421 -0.2780  0.1078
 2405SOL    HW118851   1.937   3.044   5.931  3.2610 -1.2363 -0.0508
 2405SOL    HW218852   1.871   2.952   6.025  0.7846 -1.0239 -0.1605
 2406SOL     OW18853   0.398   4.259  14.239  0.1434  0.1320  0.2975
 2406SOL    HW118854   0.354   4.192  14.291 -0.1534  1.6561  1.9642
 2406SOL    HW218855   0.333   4.324  14.214  1.2271  1.7945  1.8409
 2407SOL     OW18856   4.515   0.409   6.245  0.4011  0.6899  0.3879
 2407SOL    HW118857   4.569   0.354   6.301  0.3301 -0.3135 -0.5095
 2407SOL    HW218858   4.490   0.346   6.177 -0.1742  0.3738  0.8938
 2408SOL     OW18859   4.217   0.670   2.924  0.1848  0.3292 -0.0440
 2408SOL    HW118860   4.273   0.746   2.911  2.8026 -1.6060  0.0083
 2408SOL    HW218861   4.287   0.605   2.926 -0.2279 -0.0055  2.7045
 2409SOL     OW18862   2.828   2.237  12.267 -1.0144 -0.0349 -0.1364
 2409SOL    HW118863   2.788   2.266  12.349 -1.2086 -0.7112  0.0047
 2409SOL    HW218864   2.916   2.211  12.297 -0.7843 -0.0782 -0.8451
 2410SOL     OW18865   3.174   1.722   5.682 -0.3254 -0.0178 -0.2197
 2410SOL    HW118866   3.131   1.741   5.765 -0.0192  2.0125 -0.5257
 2410SOL    HW218867   3.200   1.805   5.642  0.3594  0.7737  1.9081
 2411SOL     OW18868   1.258   2.204   6.634 -0.5753  0.6129  0.2280
 2411SOL    HW118869   1.272   2.115   6.665  1.3092  1.2547  1.2221
 2411SOL    HW218870   1.317   2.214   6.559  0.4408 -1.2609  0.7772
 2412SOL     OW18871   0.317   0.628   9.298 -0.0077  0.0453  0.0603
 2412SOL    HW118872   0.283   0.581   9.374  1.1814 -2.7658 -1.1400
 2412SOL    HW218873   0.384   0.572   9.260  0.3310 -0.0920  0.8630
 2413SOL     OW18874   0.873   3.996   7.518  0.4170  0.1851  0.7171
 2413SOL    HW118875   0.791   3.963   7.480  0.8577  0.5880 -0.5824
 2413SOL    HW218876   0.853   4.089   7.531  1.6342  0.3999  1.0758
 2414SOL     OW18877   4.707   3.315   8.141  0.2024  0.6643  0.2297
 2414SOL    HW118878   4.712   3.311   8.045  0.0789 -0.8292  0.2789
 2414SOL    HW218879   4.649   3.388   8.163 -1.1678 -0.0082 -1.1451
 2415SOL     OW18880   2.323   0.036   7.949  0.1990  0.6018  0.2456
 2415SOL    HW118881   2.367   4.705   7.895 -1.5543 -0.3904  0.0332
 2415SOL    HW218882   2.335   4.732   8.036  0.3583 -0.3961 -0.2237
 2416SOL     OW18883   2.711   3.226  17.463 -0.1782 -0.3051  0.0666
 2416SOL    HW118884   2.648   3.272  17.518  0.5147  0.1039  0.5251
 2416SOL    HW218885   2.705   3.260  17.374  4.1601  2.0344  0.6789
 2417SOL     OW18886   4.204   3.577   8.759  0.0819 -0.3290  0.4291
 2417SOL    HW118887   4.272   3.548   8.819  0.2142 -0.8420  0.0375
 2417SOL    HW218888   4.190   3.488   8.727  1.2155 -0.8569  1.4314
 2418SOL     OW18889   1.605   3.046   3.024  0.1664  0.0882 -0.4759
 2418SOL    HW118890   1.644   3.017   3.106  0.0904  0.0373 -0.4579
 2418SOL    HW218891   1.677   3.080   2.971  1.2180 -1.1570  0.1517
 2419SOL     OW18892   0.691   0.465  13.459 -0.4151 -0.1209  0.0152
 2419SOL    HW118893   0.612   0.442  13.410 -0.0065  0.0781 -0.7419
 2419SOL    HW218894   0.728   0.378  13.475  0.6215  0.1126 -1.1463
 2420SOL     OW18895   2.124   3.092  12.842 -1.1367  0.5476 -0.3473
 2420SOL    HW118896   2.203   3.144  12.833 -0.6155 -0.5404 -1.9635
 2420SOL    HW218897   2.101   3.076  12.750  0.8233 -0.3966 -0.6766
 2421SOL     OW18898   1.245   2.931   7.103  0.0796 -0.2076  0.4642
 2421SOL    HW118899   1.296   2.907   7.026 -2.2277 -1.2894 -0.7233
 2421SOL    HW218900   1.276   2.863   7.162  0.4916 -1.0921 -0.7729
 2422SOL     OW18901   3.244   0.706   3.183  0.1084 -0.1852 -0.4397
 2422SOL    HW118902   3.245   0.739   3.093  0.9828  0.8598 -0.0285
 2422SOL    HW218903   3.305   0.632   3.182 -0.4078 -0.6116 -1.0239
 2423SOL     OW18904   4.053   2.954   1.820 -0.3933  0.6128 -0.3775
 2423SOL    HW118905   3.964   2.963   1.855  0.4089  0.5946  1.6586
 2423SOL    HW218906   4.097   2.973   1.904  0.5759 -1.6391 -0.3774
 2424SOL     OW18907   4.392   4.454   3.536 -0.4321  0.2643  0.3034
 2424SOL    HW118908   4.361   4.431   3.449 -1.9425 -1.3302  1.2745
 2424SOL    HW218909   4.414   4.367   3.568  0.8359  0.6723  0.5383
 2425SOL     OW18910   4.714   4.437   8.218  0.2385 -0.2845 -0.6673
 2425SOL    HW118911   0.072   4.435   8.197  0.5542 -0.6084  0.7838
 2425SOL    HW218912   4.700   4.343   8.222  1.5221 -0.3434  1.8803
 2426SOL     OW18913   0.021   0.891   2.587 -0.2995 -0.5848 -0.4652
 2426SOL    HW118914   4.661   0.888   2.602 -0.6736  2.8332 -2.2669
 2426SOL    HW218915   0.022   0.855   2.498  1.8017 -1.0285 -0.2487
 2427SOL     OW18916   3.474   2.298   7.680 -0.3044 -0.0834 -0.0739
 2427SOL    HW118917   3.554   2.264   7.719 -0.6300 -1.6182 -0.7437
 2427SOL    HW218918   3.469   2.387   7.714 -0.0407 -0.3221  0.5840
 2428SOL     OW18919   1.868   0.104  13.510  0.1039  0.0517 -0.2296
 2428SOL    HW118920   1.874   0.012  13.485  1.1483 -0.2433  1.0567
 2428SOL    HW218921   1.858   0.096  13.605 -0.1059  0.5778 -0.2130
 2429SOL     OW18922   0.113   3.543  11.576 -0.3611  0.1344 -0.5436
 2429SOL    HW118923   0.075   3.480  11.636  1.0189  0.7274  0.9645
 2429SOL    HW218924   0.169   3.491  11.517  0.1177  2.1728 -1.8991
 2430SOL     OW18925   0.411   3.301   3.698 -0.1148  0.7592  0.4071
 2430SOL    HW118926   0.353   3.234   3.662 -0.0253 -0.0072  1.6570
 2430SOL    HW218927   0.426   3.262   3.785 -2.3167  2.1628  1.4379
 2431SOL     OW18928   3.419   0.889   5.900 -0.6074  0.2003  0.2345
 2431SOL    HW118929   3.428   0.920   5.990  0.2327  2.3334 -0.5896
 2431SOL    HW218930   3.325   0.872   5.892 -0.5001 -1.6729  3.0145
 2432SOL     OW18931   3.553   4.717   4.969  0.5469 -0.3078  0.2847
 2432SOL    HW118932   3.538   0.046   5.039 -1.2148 -0.2254 -0.1674
 2432SOL    HW218933   3.473   4.664   4.976  1.1039 -0.9380  1.7781
 2433SOL     OW18934   1.822   1.374   2.724 -0.0859  0.6208  0.1989
 2433SOL    HW118935   1.837   1.469   2.723 -3.0865  1.0626 -1.1764
 2433SOL    HW218936   1.744   1.369   2.669  1.0300 -2.8206 -0.9986
 2434SOL     OW18937   3.443   1.860   4.011  0.5367 -0.1097  0.2106
 2434SOL    HW118938   3.427   1.861   3.917 -2.1882 -0.7611  0.6645
 2434SOL    HW218939   3.376   1.925   4.034 -1.4413 -3.2562  3.5204
 2435SOL     OW18940   1.874   1.347   5.613  0.2397 -0.0900  0.4084
 2435SOL    HW118941   1.910   1.267   5.573 -0.8509 -0.1902 -0.3927
 2435SOL    HW218942   1.952   1.403   5.613  0.5333 -0.4903 -0.2757
 2436SOL     OW18943   4.589   3.405   2.869 -0.0087 -0.0505 -0.6212
 2436SOL    HW118944   4.673   3.441   2.896 -0.2149  0.4772 -0.6902
 2436SOL    HW218945   4.612   3.388   2.778 -0.5686  0.1106 -0.7886
 2437SOL     OW18946   1.776   2.623   9.004 -0.2424  0.2584 -0.0012
 2437SOL    HW118947   1.715   2.654   9.070  0.0541  3.5930 -1.2789
 2437SOL    HW218948   1.765   2.530   9.022 -1.9422  0.8321  1.8437
 2438SOL     OW18949   0.300   4.049   5.287  0.1893  0.2913 -0.0765
 2438SOL    HW118950   0.228   4.007   5.334 -0.0500  1.1153  0.2950
 2438SOL    HW218951   0.311   4.005   5.202 -2.5646  0.8228 -0.7132
 2439SOL     OW18952   1.024   3.215   9.871  0.0596  0.1179  0.0242
 2439SOL    HW118953   1.014   3.244   9.962 -0.6500 -0.4135  0.1148
 2439SOL    HW218954   0.953   3.262   9.828  2.5316  2.6690 -1.2704
 2440SOL     OW18955   0.215   0.099   1.435  0.6896  0.3400 -0.1766
 2440SOL    HW118956   0.267   0.050   1.372  0.7140  0.2614 -0.0944
 2440SOL    HW218957   0.167   0.028   1.476 -0.3228 -0.3621 -2.5733
 2441SOL     OW18958   2.740   3.344   6.052 -0.2886 -0.0018 -0.1313
 2441SOL    HW118959   2.791   3.280   6.002 -1.3329 -0.3939 -0.6951
 2441SOL    HW218960   2.773   3.312   6.136 -0.8084 -1.9217 -0.6550
 2442SOL     OW18961   1.662   3.571   2.384 -0.3232  0.2157  0.5392
 2442SOL    HW118962   1.591   3.507   2.381 -0.5834  0.3256  4.3042
 2442SOL    HW218963   1.644   3.585   2.477 -0.0660  1.0745  0.4573
 2443SOL     OW18964   3.607   1.271   9.692 -0.0959  0.4724 -0.2391
 2443SOL    HW118965   3.678   1.261   9.628  0.7797  0.2355  0.7790
 2443SOL    HW218966   3.533   1.279   9.631 -1.4598 -1.7581  1.1101
 2444SOL     OW18967   4.303   4.163  14.412 -0.6297 -0.2590 -0.0087
 2444SOL    HW118968   4.226   4.112  14.437 -3.6847  4.3245 -0.0445
 2444SOL    HW218969   4.297   4.149  14.317  0.7359  3.4163 -0.6569
 2445SOL     OW18970   2.240   3.020   8.537 -0.2028  0.5754 -0.0730
 2445SOL    HW118971   2.220   2.992   8.627 -1.0319  1.4368  0.0057
 2445SOL    HW218972   2.333   3.036   8.553  0.0676 -0.3229 -0.7282
 2446SOL     OW18973   3.011   1.974  10.969  0.1471  0.4292  0.0608
 2446SOL    HW118974   3.078   2.010  10.911 -0.8974  2.4543  0.1094
 2446SOL    HW218975   2.977   1.898  10.921  1.3470 -0.7872  1.1440
 2447SOL     OW18976   0.042   3.433  16.054 -0.0517  0.1859  0.6513
 2447SOL    HW118977   0.080   3.409  16.139 -1.4204  2.3526  1.8776
 2447SOL    HW218978   0.086   3.362  16.008  0.5189  1.5499 -0.8909
 2448SOL     OW18979   4.717   1.084  11.860 -0.5926 -0.0627  0.0588
 2448SOL    HW118980   0.072   1.056  11.877 -0.4722  0.3062  0.0259
 2448SOL    HW218981   4.729   1.177  11.841 -0.1137  0.0280  0.8273
 2449SOL     OW18982   4.438   0.044   0.386 -0.1987  0.0885  0.3105
 2449SOL    HW118983   4.357   0.068   0.341  0.4726  1.4979 -0.1468
 2449SOL    HW218984   4.495   0.120   0.369 -1.2423  0.8385  0.1599
 2450SOL     OW18985   1.384   1.484   7.953  0.4823  0.6361 -0.5675
 2450SOL    HW118986   1.372   1.434   7.872 -4.7201  2.1655 -0.7768
 2450SOL    HW218987   1.297   1.489   7.993  0.8184 -0.7205  0.3482
 2451SOL     OW18988   1.868   2.900   0.351  0.2701 -0.3491  0.1884
 2451SOL    HW118989   1.962   2.914   0.347 -0.0162  1.7464  0.4777
 2451SOL    HW218990   1.861   2.804   0.351  2.2019 -0.4863  0.9886
 2452SOL     OW18991   3.865   1.271   5.514 -0.1574  0.2113 -0.4110
 2452SOL    HW118992   3.790   1.220   5.545  1.0339 -1.6882 -0.6479
 2452SOL    HW218993   3.831   1.358   5.494 -1.8246 -0.2267  0.4748
 2453SOL     OW18994   1.710   1.928   3.404 -0.2064 -0.3568 -0.1561
 2453SOL    HW118995   1.722   2.000   3.343 -0.8058  2.5727  3.1777
 2453SOL    HW218996   1.731   1.976   3.484 -0.3476  0.6219 -0.7120
 2454SOL     OW18997   4.173   2.508   0.810 -0.1421 -0.4442 -0.1334
 2454SOL    HW118998   4.154   2.553   0.892 -2.4896 -2.1171  0.2091
 2454SOL    HW218999   4.098   2.528   0.755  0.3023 -0.4579 -0.7478
 2455SOL     OW19000   2.067   1.107   5.185 -0.1172 -0.5377  0.5754
 2455SOL    HW119001   2.060   1.100   5.090  1.0947  1.7334  0.3264
 2455SOL    HW219002   2.135   1.173   5.194  0.5401 -1.1353  0.0160
 2456SOL     OW19003   1.599   3.637   8.477 -0.7878  0.5555  0.5577
 2456SOL    HW119004   1.684   3.682   8.480 -0.2623 -0.1401 -3.8361
 2456SOL    HW219005   1.587   3.627   8.383  0.9168 -2.3167  0.6407
 2457SOL     OW19006   1.863   3.183   0.574 -0.1051 -0.0529 -0.4883
 2457SOL    HW119007   1.953   3.170   0.545 -0.0237  1.6654 -1.0476
 2457SOL    HW219008   1.862   3.279   0.572  1.6955  0.0103  1.8315
 2458SOL     OW19009   3.985   0.013   5.476  0.0844  0.3760  0.3210
 2458SOL    HW119010   4.048   4.680   5.451  0.4136 -0.0601  2.2930
 2458SOL    HW219011   4.041   0.054   5.542  1.3666  0.5591 -0.8771
 2459SOL     OW19012   1.068   1.862   8.008  0.0374  0.4994 -0.2090
 2459SOL    HW119013   1.162   1.849   7.992 -0.1597 -0.5583 -0.4866
 2459SOL    HW219014   1.043   1.782   8.055  0.5090  1.0662  1.0202
 2460SOL     OW19015   0.748   3.971   6.248  0.6592 -0.3540  0.3095
 2460SOL    HW119016   0.678   3.907   6.237  2.7575 -2.4435 -1.0491
 2460SOL    HW219017   0.729   4.029   6.174  0.0290 -0.6226  0.2610
 2461SOL     OW19018   3.473   4.636   3.551 -0.7142 -0.4074 -0.3180
 2461SOL    HW119019   3.443   4.638   3.461 -3.3818  2.3390  0.6134
 2461SOL    HW219020   3.387   4.650   3.591 -0.9351  0.9846 -1.2731
 2462SOL     OW19021   3.880   4.239   2.396  0.1429  0.2855  0.2296
 2462SOL    HW119022   3.806   4.281   2.439 -0.4557  0.0597 -0.5833
 2462SOL    HW219023   3.946   4.258   2.463  0.3759 -0.7475  0.2939
 2463SOL     OW19024   3.209   0.939   9.329 -0.3433 -0.1099 -0.5602
 2463SOL    HW119025   3.251   0.853   9.324 -2.7536 -1.2969 -0.2483
 2463SOL    HW219026   3.120   0.911   9.308 -1.2008  2.7344 -0.7176
 2464SOL     OW19027   1.536   1.003  10.176 -0.1848  0.3689 -0.0911
 2464SOL    HW119028   1.577   0.931  10.224  0.7868  0.8412 -0.2355
 2464SOL    HW219029   1.477   0.950  10.121 -1.7046  0.7179  1.2029
 2465SOL     OW19030   2.574   3.844   2.149 -0.1573 -0.3197 -0.2193
 2465SOL    HW119031   2.581   3.770   2.210 -0.3603  0.1662  0.4004
 2465SOL    HW219032   2.664   3.877   2.146  0.2824 -1.4437  0.3989
 2466SOL     OW19033   3.070   1.000   2.008 -0.1454  0.0263  0.3380
 2466SOL    HW119034   3.153   1.001   2.055 -1.0154  1.6161  1.8135
 2466SOL    HW219035   3.084   1.088   1.972 -1.4960 -0.0990 -0.4932
 2467SOL     OW19036   3.095   4.556   0.032  0.2929 -0.1222 -0.2434
 2467SOL    HW119037   3.058   4.468   0.031  0.2261 -0.0981  0.0040
 2467SOL    HW219038   3.044   4.604   0.098 -0.6230 -1.0709 -0.2602
 2468SOL     OW19039   4.389   3.654  15.264  0.2637  0.0105 -0.4276
 2468SOL    HW119040   4.467   3.653  15.210 -0.3134 -1.3298 -1.2324
 2468SOL    HW219041   4.426   3.653  15.352 -0.4826  0.4385 -0.1111
 2469SOL     OW19042   1.911   2.667   1.956  0.4140  0.5141 -0.6209
 2469SOL    HW119043   1.843   2.642   1.893 -1.2072  0.9314  0.9843
 2469SOL    HW219044   1.905   2.610   2.032  1.2392  0.2404 -0.7562
 2470SOL     OW19045   1.555   3.964   4.990  0.2488 -0.2663 -0.1428
 2470SOL    HW119046   1.595   3.884   5.023  0.6216  1.3565  3.3539
 2470SOL    HW219047   1.632   4.013   4.962 -0.7069  0.9735 -0.6078
 2471SOL     OW19048   1.476   0.653   0.468 -0.1906 -0.1086 -0.1695
 2471SOL    HW119049   1.510   0.722   0.410 -2.0607  2.1295  1.3872
 2471SOL    HW219050   1.499   0.687   0.555  1.1723  0.7742 -0.8695
 2472SOL     OW19051   3.673   3.353   1.212  0.0558  0.2211  0.2935
 2472SOL    HW119052   3.642   3.408   1.140 -1.1653  0.0496  0.6917
 2472SOL    HW219053   3.629   3.268   1.204  1.0678 -0.2952  0.1905
 2473SOL     OW19054   0.545   0.557   9.157  0.3016 -0.0281 -0.0853
 2473SOL    HW119055   0.630   0.514   9.156  0.7167  0.7209  1.7501
 2473SOL    HW219056   0.550   0.608   9.076  0.1604 -1.3173 -0.8933
 2474SOL     OW19057   1.797   0.709   5.616  0.0583  0.1310 -0.1887
 2474SOL    HW119058   1.792   0.728   5.523  0.3927 -1.6566 -0.5722
 2474SOL    HW219059   1.831   0.619   5.613 -0.9146 -0.3350  2.8696
 2475SOL     OW19060   3.794   2.321   4.626  0.5886 -0.3010 -0.1936
 2475SOL    HW119061   3.787   2.404   4.672  0.7036 -0.9458  0.9668
 2475SOL    HW219062   3.774   2.346   4.535  0.8633  0.4305 -0.0541
 2476SOL     OW19063   4.710   2.673   6.322 -0.4837  0.0844  0.4932
 2476SOL    HW119064   4.620   2.690   6.350 -0.8760  0.7739 -1.2197
 2476SOL    HW219065   4.703   2.581   6.298  0.6758  0.0551  0.2715
 2477SOL     OW19066   4.073   1.982  14.586 -0.1039 -0.3116 -0.0400
 2477SOL    HW119067   4.017   1.927  14.531 -0.0760  0.3599 -0.7326
 2477SOL    HW219068   4.156   1.967  14.541 -0.2542  0.4338 -0.5688
 2478SOL     OW19069   2.025   2.758  15.919  0.2933 -0.3092  0.0302
 2478SOL    HW119070   2.059   2.697  15.984  1.6711  2.0466  1.4876
 2478SOL    HW219071   2.047   2.716  15.835 -1.1961 -5.1777  2.0894
 2479SOL     OW19072   3.347   2.690   8.896  0.1297  0.1730  0.2131
 2479SOL    HW119073   3.394   2.690   8.980 -0.4945  0.5528  0.5610
 2479SOL    HW219074   3.284   2.620   8.911 -1.4796  1.1102 -2.2921
 2480SOL     OW19075   0.295   2.261  16.096  0.0626 -0.2968 -0.5052
 2480SOL    HW119076   0.266   2.191  16.037  2.2292 -0.7780 -1.0093
 2480SOL    HW219077   0.247   2.336  16.062  0.3190  0.6408  1.1832
 2481SOL     OW19078   3.925   3.689   2.798 -0.2836 -0.0549 -0.1108
 2481SOL    HW119079   3.909   3.644   2.715 -2.6129  2.2378 -0.8984
 2481SOL    HW219080   3.860   3.758   2.794 -0.9853 -0.7259 -0.3221
 2482SOL     OW19081   4.516   0.088   4.053  0.2889  0.8090 -0.0477
 2482SOL    HW119082   4.444   0.117   4.109  1.0497 -0.0179  1.3376
 2482SOL    HW219083   4.503   0.131   3.968 -1.0120 -0.7038 -0.6099
 2483SOL     OW19084   3.862   3.895   8.937 -0.2348  0.6756 -0.3197
 2483SOL    HW119085   3.783   3.853   8.971  0.8271  0.1472  1.5319
 2483SOL    HW219086   3.919   3.875   9.012  0.1986 -1.8021 -1.3223
 2484SOL     OW19087   0.889   3.286   7.491 -1.0150 -0.2190 -0.1737
 2484SOL    HW119088   0.909   3.380   7.491 -1.1391 -0.1937 -0.6346
 2484SOL    HW219089   0.970   3.245   7.519 -0.7117  0.1313 -0.5463
 2485SOL     OW19090   2.238   3.556   8.998 -0.1350 -0.4551  0.2026
 2485SOL    HW119091   2.223   3.640   8.955  0.6945  0.5177  1.8484
 2485SOL    HW219092   2.289   3.583   9.074 -0.5496 -2.4213  1.1862
 2486SOL     OW19093   0.119   4.041   5.831 -0.6794 -0.3366  0.2031
 2486SOL    HW119094   0.140   3.980   5.902 -1.0371  0.4236  0.9723
 2486SOL    HW219095   0.024   4.032   5.839 -0.9281  1.0243 -1.1242
 2487SOL     OW19096   3.962   0.892   6.823 -0.2313  0.4855 -0.1146
 2487SOL    HW119097   3.967   0.823   6.756 -0.5623 -0.6208  0.9998
 2487SOL    HW219098   3.882   0.859   6.863 -1.4404  0.2401 -2.7113
 2488SOL     OW19099   0.314   1.248   2.687 -0.2834  0.6883 -0.0593
 2488SOL    HW119100   0.270   1.332   2.676  1.9328  2.0963  1.7447
 2488SOL    HW219101   0.407   1.270   2.681 -0.0738  0.8885  3.6277
 2489SOL     OW19102   3.512   2.567   6.945 -0.5227 -0.0286  0.2772
 2489SOL    HW119103   3.575   2.625   6.988 -0.3813 -1.6566  2.3208
 2489SOL    HW219104   3.442   2.619   6.908  0.3884 -0.8817 -2.6436
 2490SOL     OW19105   3.693   4.004  11.018  0.6105 -0.0106 -0.0675
 2490SOL    HW119106   3.678   3.968  10.931  0.1799 -0.1409  0.0598
 2490SOL    HW219107   3.611   4.051  11.031 -0.6103 -1.9353 -0.9121
 2491SOL     OW19108   2.563   1.882  16.505  0.1026  0.7885  0.4139
 2491SOL    HW119109   2.639   1.937  16.525 -0.9606  1.5502  2.3837
 2491SOL    HW219110   2.585   1.807  16.561 -0.4380 -0.2978 -0.8287
 2492SOL     OW19111   1.147   2.400  11.811 -0.0276 -0.1986  0.0684
 2492SOL    HW119112   1.233   2.427  11.781 -0.7954  0.1067 -1.8567
 2492SOL    HW219113   1.101   2.476  11.775  0.1715  0.3652  1.0181
 2493SOL     OW19114   0.483   3.769   9.310 -0.3246  0.2949 -0.1600
 2493SOL    HW119115   0.499   3.711   9.385 -0.2540  2.4754  1.5327
 2493SOL    HW219116   0.457   3.714   9.236 -1.1806  0.1361  0.2483
 2494SOL     OW19117   2.195   2.435   6.154  0.6084 -0.4138 -0.2601
 2494SOL    HW119118   2.121   2.484   6.188  1.1828 -0.1330  0.5765
 2494SOL    HW219119   2.204   2.483   6.071 -0.9338 -1.1859 -0.8729
 2495SOL     OW19120   0.754   1.212   8.378 -0.1260  0.1245  0.1580
 2495SOL    HW119121   0.688   1.235   8.313 -1.9246 -2.4885  1.0731
 2495SOL    HW219122   0.776   1.127   8.340  0.8159  1.3397 -2.0086
 2496SOL     OW19123   2.453   0.200   7.407 -0.0649  0.1528  0.0955
 2496SOL    HW119124   2.459   0.277   7.463 -0.4081  1.0915 -1.1575
 2496SOL    HW219125   2.357   0.197   7.400 -0.1318 -2.9981  2.5358
 2497SOL     OW19126   2.217   2.558   5.163  0.1696  0.8767  0.5605
 2497SOL    HW119127   2.145   2.621   5.174 -1.9497 -1.3963 -0.3965
 2497SOL    HW219128   2.193   2.495   5.230 -1.5279  0.1829 -0.7120
 2498SOL     OW19129   2.411   1.236  17.033 -0.1003  0.1568 -0.0795
 2498SOL    HW119130   2.324   1.276  17.028  0.3156  0.9936 -0.5197
 2498SOL    HW219131   2.434   1.271  17.119  2.9438 -2.1408  0.0353
 2499SOL     OW19132   4.373   4.416   7.804 -0.0299  0.3851  0.3938
 2499SOL    HW119133   4.423   4.483   7.758 -0.9729  1.0536  0.3516
 2499SOL    HW219134   4.285   4.449   7.786  0.1239 -0.0337 -1.1453
 2500SOL     OW19135   3.255   2.618   1.791  0.4856  0.0259  0.3148
 2500SOL    HW119136   3.239   2.642   1.883 -1.1904 -1.4426  0.4215
 2500SOL    HW219137   3.345   2.647   1.777  0.4664  0.1626  0.4733
 2501SOL     OW19138   4.679   1.676   7.792  0.0422 -0.0591  0.0521
 2501SOL    HW119139   4.609   1.713   7.739 -0.4441  0.9869  1.4294
 2501SOL    HW219140   4.676   1.588   7.755 -1.4155 -0.3787  0.9752
 2502SOL     OW19141   4.385   1.650   7.782 -0.0228 -0.2440 -0.1799
 2502SOL    HW119142   4.366   1.737   7.817 -0.9051  0.2983 -1.9934
 2502SOL    HW219143   4.344   1.658   7.696  1.6232  1.1495 -0.8443
 2503SOL     OW19144   1.643   2.295   5.789 -0.0355  0.4051  0.0821
 2503SOL    HW119145   1.572   2.288   5.725 -2.1049  0.4390  2.3690
 2503SOL    HW219146   1.684   2.377   5.763  1.3087 -0.5556 -0.8276
 2504SOL     OW19147   0.155   4.704   8.518 -0.7803 -0.0848 -0.8211
 2504SOL    HW119148   0.065   4.729   8.495 -0.9159 -0.4071 -0.6382
 2504SOL    HW219149   0.151   4.611   8.540  0.7458 -0.5396 -2.4968
 2505SOL     OW19150   1.485   4.413  17.584  0.4679  0.2942 -0.4645
 2505SOL    HW119151   1.475   4.492  17.638 -1.4896  1.7127 -2.9135
 2505SOL    HW219152   1.542   4.357  17.636 -1.9166 -1.1546  0.5693
 2506SOL     OW19153   3.151   4.046   7.397 -0.5266  0.3552  0.4112
 2506SOL    HW119154   3.140   3.987   7.472  1.0495  0.3359  0.6240
 2506SOL    HW219155   3.201   4.107   7.451  0.7959  0.6042 -1.1114
 2507SOL     OW19156   0.978   1.261   4.545  0.1564  0.2479 -1.1451
 2507SOL    HW119157   0.895   1.302   4.520 -0.1738  0.0161 -0.4216
 2507SOL    HW219158   1.014   1.239   4.459  0.7105 -3.0025 -0.0637
 2508SOL     OW19159   3.136   1.541   6.881  0.2614  0.1726 -0.4338
 2508SOL    HW119160   3.109   1.568   6.968  3.2180  1.1927  0.1695
 2508SOL    HW219161   3.059   1.572   6.834  1.1943  1.8904 -0.8158
 2509SOL     OW19162   4.676   1.028   8.799 -0.0615  0.3285  0.2377
 2509SOL    HW119163   0.019   0.993   8.844 -0.7003  0.3115  1.3358
 2509SOL    HW219164   4.610   0.975   8.845  0.4937  1.2842  2.1321
 2510SOL     OW19165   1.336   4.423   9.788 -0.1373  0.1614 -0.3847
 2510SOL    HW119166   1.242   4.431   9.771 -0.4903 -2.1651  0.4833
 2510SOL    HW219167   1.340   4.426   9.884 -0.2765  1.5983 -0.4240
 2511SOL     OW19168   2.903   1.040   6.611 -0.1291  0.5605 -0.5467
 2511SOL    HW119169   2.820   0.996   6.595 -1.0303  2.7554 -2.0969
 2511SOL    HW219170   2.883   1.106   6.677 -0.8705  0.3307 -0.5373
 2512SOL     OW19171   0.737   2.839   6.112 -0.1396 -0.1160  0.3629
 2512SOL    HW119172   0.827   2.805   6.114  0.1836  0.6724 -1.3426
 2512SOL    HW219173   0.684   2.770   6.073  0.5528 -0.6571  0.3889
 2513SOL     OW19174   3.367   2.003   8.960  0.2561  0.2332 -0.0344
 2513SOL    HW119175   3.272   1.993   8.957  0.6745 -3.6840 -0.0056
 2513SOL    HW219176   3.374   2.074   9.023 -0.5803 -0.3638  0.7324
 2514SOL     OW19177   0.848   4.541   8.573  0.4568  0.3905 -0.4281
 2514SOL    HW119178   0.754   4.551   8.582  0.5344  0.8826 -0.1811
 2514SOL    HW219179   0.854   4.498   8.487 -1.3261  1.0905 -0.9015
 2515SOL     OW19180   0.327   3.034  13.627  0.3261  0.1020 -0.2104
 2515SOL    HW119181   0.289   3.073  13.705  0.7048  0.8429 -0.3873
 2515SOL    HW219182   0.275   3.072  13.556  0.6574 -0.5039 -0.7758
 2516SOL     OW19183   2.817   2.976   7.640  0.2614  0.1504  0.6674
 2516SOL    HW119184   2.753   2.915   7.674  0.9672  0.4121  2.4839
 2516SOL    HW219185   2.808   3.060   7.685 -0.2733 -0.0932  1.0112
 2517SOL     OW19186   3.741   2.136   4.796 -0.1992  0.1615  0.2421
 2517SOL    HW119187   3.759   2.198   4.867  0.7506 -1.4609  1.4147
 2517SOL    HW219188   3.770   2.198   4.729 -0.8402 -0.8240 -0.9484
 2518SOL     OW19189   2.783   0.411  16.307  0.0503  0.5401 -0.1290
 2518SOL    HW119190   2.874   0.442  16.305  0.8364 -1.8000 -0.0804
 2518SOL    HW219191   2.759   0.380  16.220  1.1558 -1.5320  0.2946
 2519SOL     OW19192   2.232   0.658  10.912  0.3397  0.5423 -0.1978
 2519SOL    HW119193   2.151   0.655  10.963  0.3025  2.7361 -0.1016
 2519SOL    HW219194   2.290   0.707  10.971 -1.2219  0.6225  1.2593
 2520SOL     OW19195   4.339   1.631   7.123  0.0682 -1.0420  0.3922
 2520SOL    HW119196   4.257   1.637   7.172  1.8467 -1.6598  3.4888
 2520SOL    HW219197   4.384   1.562   7.172 -0.6855 -0.2724  2.1864
 2521SOL     OW19198   0.639   0.358   2.927  0.1971  0.1193 -0.1716
 2521SOL    HW119199   0.722   0.388   2.965  0.2259  1.2898 -1.1682
 2521SOL    HW219200   0.645   0.377   2.833  1.0597 -2.1944 -0.5812
 2522SOL     OW19201   0.072   0.354   1.880  0.5977 -0.3427  0.5853
 2522SOL    HW119202   0.114   0.305   1.810  0.6638  1.4294 -0.6127
 2522SOL    HW219203   0.008   0.412   1.838  1.2560  1.4247  2.0297
 2523SOL     OW19204   1.744   2.467   5.587  0.4505  0.3213  0.2695
 2523SOL    HW119205   1.701   2.551   5.576 -1.3868 -0.5982  0.3723
 2523SOL    HW219206   1.700   2.435   5.507 -0.5229 -0.1427  0.9864
 2524SOL     OW19207   3.002   2.762   8.612  0.6766  0.5318 -0.5401
 2524SOL    HW119208   2.960   2.780   8.696  0.5637  0.4488 -0.5787
 2524SOL    HW219209   3.019   2.670   8.632  1.6619  1.0731  1.1653
 2525SOL     OW19210   2.669   1.866   5.038  0.2720 -0.5140  0.7326
 2525SOL    HW119211   2.588   1.918   5.040 -0.2497 -1.3064  0.2478
 2525SOL    HW219212   2.744   1.921   5.058  0.3025 -0.3321  0.1406
 2526SOL     OW19213   1.123   0.546   8.624 -0.7156  0.1535  0.0397
 2526SOL    HW119214   1.187   0.559   8.694  0.3253 -2.7676 -0.3830
 2526SOL    HW219215   1.090   0.462   8.656 -3.0599  0.3168 -1.9885
 2527SOL     OW19216   0.953   3.877   4.517 -0.4318 -0.3303 -0.1392
 2527SOL    HW119217   0.925   3.937   4.447  0.3893 -0.0399 -0.2175
 2527SOL    HW219218   0.918   3.926   4.591 -0.2017  1.8802 -1.4981
 2528SOL     OW19219   0.684   0.897   4.033  0.2993 -0.0452 -0.2847
 2528SOL    HW119220   0.641   0.976   3.999 -0.2177 -0.1930  0.0215
 2528SOL    HW219221   0.680   0.845   3.953  1.7779  0.5279 -0.7306
 2529SOL     OW19222   3.367   1.820   2.007 -0.0927  0.3974  0.7626
 2529SOL    HW119223   3.451   1.862   2.024 -1.1791  1.9432  2.3857
 2529SOL    HW219224   3.369   1.757   2.078 -0.3101 -1.0539 -0.5168
 2530SOL     OW19225   0.564   4.460  11.192  0.3762 -0.0831 -0.0310
 2530SOL    HW119226   0.503   4.517  11.238  0.6396  0.8556 -0.8453
 2530SOL    HW219227   0.563   4.500  11.105 -0.8861 -1.1338 -0.4949
 2531SOL     OW19228   3.637   0.266  14.334 -0.1579  0.3932 -0.1928
 2531SOL    HW119229   3.652   0.172  14.325 -1.1669  0.0837  1.4345
 2531SOL    HW219230   3.574   0.272  14.406  0.6177  0.2836  0.4923
 2532SOL     OW19231   2.604   2.892   3.204 -0.1491 -0.0121 -0.2641
 2532SOL    HW119232   2.637   2.930   3.122  2.4296  0.6110  1.0609
 2532SOL    HW219233   2.587   2.973   3.252  2.3732 -0.7381  1.8881
 2533SOL     OW19234   4.334   1.709   6.147 -0.1061  0.2479  0.4552
 2533SOL    HW119235   4.400   1.647   6.178 -0.4095 -0.9474 -1.3332
 2533SOL    HW219236   4.265   1.649   6.121 -0.4944 -0.4797  3.1223
 2534SOL     OW19237   0.627   2.272   5.137  0.6689 -0.4139 -0.1617
 2534SOL    HW119238   0.534   2.291   5.127  0.4692 -1.8900 -1.1837
 2534SOL    HW219239   0.641   2.265   5.043  0.8377 -0.3359 -0.1420
 2535SOL     OW19240   0.673   0.807  13.631  0.4066  0.3758  0.5626
 2535SOL    HW119241   0.693   0.716  13.652 -0.2647  0.2142  0.5017
 2535SOL    HW219242   0.675   0.835  13.722  0.4410 -3.4578  1.7513
 2536SOL     OW19243   0.039   0.178   2.450  0.5886 -0.1104  0.0315
 2536SOL    HW119244   4.712   0.232   2.401 -0.7986  0.0828  1.9639
 2536SOL    HW219245   4.723   0.108   2.492  1.2403 -0.5698  0.0541
 2537SOL     OW19246   1.108   2.608   6.244 -0.4565  0.5118  0.1026
 2537SOL    HW119247   1.101   2.694   6.285 -0.4446  1.4632 -1.8580
 2537SOL    HW219248   1.082   2.627   6.154 -1.6702 -1.3376  0.0779
 2538SOL     OW19249   1.160   2.945   2.472  0.5827  0.1568  0.0350
 2538SOL    HW119250   1.119   2.996   2.541 -1.3663  1.5932 -2.1961
 2538SOL    HW219251   1.083   2.925   2.419  0.1608  1.9187  0.0005
 2539SOL     OW19252   1.353   4.577   2.934 -0.0904  0.2705  0.5452
 2539SOL    HW119253   1.330   4.598   2.843  2.1771 -0.3030 -0.1504
 2539SOL    HW219254   1.442   4.610   2.947 -0.6625  0.6538  3.4546
 2540SOL     OW19255   1.916   1.281  14.732  0.2158 -0.2410 -0.3198
 2540SOL    HW119256   1.823   1.258  14.737  0.4405 -0.5987  2.1894
 2540SOL    HW219257   1.940   1.300  14.823 -0.4557 -1.4020  0.1088
 2541SOL     OW19258   1.800   4.104   4.937  0.2447  0.4990  0.0490
 2541SOL    HW119259   1.847   4.177   4.897  1.1635  0.3042  0.7633
 2541SOL    HW219260   1.818   4.124   5.029 -2.4111  2.8761  0.0449
 2542SOL     OW19261   2.680   2.642   9.727  0.1592  0.2739 -0.2469
 2542SOL    HW119262   2.682   2.546   9.729 -1.4928  0.2711  0.6888
 2542SOL    HW219263   2.715   2.656   9.639  3.3101  0.8324  1.0815
 2543SOL     OW19264   2.846   3.264   7.160  0.3387 -0.5346 -0.0983
 2543SOL    HW119265   2.856   3.356   7.134 -0.7227 -0.5448 -0.5305
 2543SOL    HW219266   2.751   3.258   7.168  0.2419  0.5342 -0.3878
 2544SOL     OW19267   3.057   1.882   2.781  0.0295  0.2428  0.2434
 2544SOL    HW119268   3.080   1.807   2.727  0.3810  0.2888  0.3257
 2544SOL    HW219269   3.085   1.843   2.864  1.1001  1.1652  0.3185
 2545SOL     OW19270   3.907   2.346  12.495  0.1944  0.3703 -0.0734
 2545SOL    HW119271   3.920   2.441  12.502 -2.7447  0.6519  1.8039
 2545SOL    HW219272   3.999   2.323  12.511 -0.0556 -0.7554 -0.2937
 2546SOL     OW19273   2.279   2.401   7.147  0.0051 -0.0371  0.4296
 2546SOL    HW119274   2.365   2.442   7.161 -0.2814  0.7512 -0.1576
 2546SOL    HW219275   2.233   2.476   7.109 -0.1322 -0.6655 -0.6234
 2547SOL     OW19276   0.710   3.983  10.611  0.5846 -0.1119  0.8598
 2547SOL    HW119277   0.749   3.896  10.624  2.1851  0.4902  0.0483
 2547SOL    HW219278   0.783   4.025  10.566  2.3029 -3.4809  0.4955
 2548SOL     OW19279   0.461   0.208   4.472  0.5518  0.0979 -0.5512
 2548SOL    HW119280   0.497   0.260   4.400  1.6103  2.3731  1.6250
 2548SOL    HW219281   0.534   0.148   4.485 -0.2589 -0.6937  0.3263
 2549SOL     OW19282   1.850   4.210   6.813 -0.1984  0.2640  0.1927
 2549SOL    HW119283   1.767   4.253   6.835  0.4887  2.0894 -0.7950
 2549SOL    HW219284   1.838   4.118   6.837 -0.6201 -0.1797 -1.7787
 2550SOL     OW19285   1.950   2.346   8.565  0.0697 -0.0783  0.6684
 2550SOL    HW119286   2.019   2.283   8.585  1.8134  1.0280 -1.9291
 2550SOL    HW219287   1.887   2.323   8.634 -0.7176 -2.2520 -0.7866
 2551SOL     OW19288   2.103   3.325   6.649 -0.1414  0.3609 -0.0947
 2551SOL    HW119289   2.120   3.411   6.611  0.5526 -0.3760 -1.4394
 2551SOL    HW219290   2.132   3.264   6.581 -1.4698  0.9927 -1.2116
 2552SOL     OW19291   2.635   3.606   2.264 -0.3794 -0.2176  0.3351
 2552SOL    HW119292   2.679   3.598   2.179 -2.0219 -2.2660 -0.3297
 2552SOL    HW219293   2.616   3.516   2.292 -0.8505 -1.3203 -3.4912
 2553SOL     OW19294   3.467   3.260  10.997  0.5281  0.1608 -0.3864
 2553SOL    HW119295   3.462   3.306  10.914  1.8166  1.7905  0.4362
 2553SOL    HW219296   3.412   3.311  11.057 -0.8156 -0.7823 -0.8184
 2554SOL     OW19297   3.539   2.663   2.448  0.5324 -0.7969 -0.0255
 2554SOL    HW119298   3.488   2.741   2.427  2.5514  0.6428  0.3818
 2554SOL    HW219299   3.472   2.597   2.465 -0.1551  0.5266  2.3539
 2555SOL     OW19300   3.961   3.132   6.942 -0.2245 -0.0053 -0.1473
 2555SOL    HW119301   3.929   3.099   6.858 -0.2802  1.2927 -0.6248
 2555SOL    HW219302   3.954   3.053   6.997 -2.0338 -1.3593 -2.3307
 2556SOL     OW19303   0.601   1.609   6.794 -0.3718  0.1325  0.1643
 2556SOL    HW119304   0.626   1.608   6.701  2.7477  2.5567  0.9605
 2556SOL    HW219305   0.590   1.699   6.824 -1.3463 -0.7253  2.3546
 2557SOL     OW19306   1.082   2.983   9.746  0.2496  0.4448  0.0558
 2557SOL    HW119307   1.041   3.033   9.675 -1.7234  0.5650  1.2708
 2557SOL    HW219308   1.106   3.058   9.801  0.5568 -0.6162  1.3582
 2558SOL     OW19309   4.428   4.288  13.374  0.1930  0.4006 -0.1551
 2558SOL    HW119310   4.398   4.236  13.299  0.1638 -1.0544  0.8739
 2558SOL    HW219311   4.502   4.240  13.412  0.6687  0.9749 -0.3607
 2559SOL     OW19312   3.715   0.256   7.305  0.6634  0.8744 -0.2149
 2559SOL    HW119313   3.633   0.207   7.303  0.6940  0.9281 -2.5754
 2559SOL    HW219314   3.760   0.217   7.230 -1.3745 -4.2296  1.2412
 2560SOL     OW19315   0.363   1.546   4.005 -0.3543 -0.0478  0.1784
 2560SOL    HW119316   0.371   1.522   4.098 -2.2431 -0.2462  0.3031
 2560SOL    HW219317   0.280   1.504   3.982 -1.1354  1.4785  0.1913
 2561SOL     OW19318   2.323   4.344   2.523 -0.1502  0.0390  0.0145
 2561SOL    HW119319   2.332   4.272   2.460  0.3091  1.3255 -1.4046
 2561SOL    HW219320   2.256   4.401   2.484  2.4635  2.1672 -1.3392
 2562SOL     OW19321   3.251   3.538   2.183 -0.1065  0.0145  0.1967
 2562SOL    HW119322   3.214   3.595   2.116 -1.7898 -0.4052  0.7745
 2562SOL    HW219323   3.265   3.461   2.129  1.2277  0.9915 -0.8678
 2563SOL     OW19324   2.973   0.892   8.341  0.4724  0.6071  0.1524
 2563SOL    HW119325   3.021   0.834   8.281  0.2708 -0.4414  1.0148
 2563SOL    HW219326   2.960   0.961   8.276 -0.3571  0.0283 -0.2859
 2564SOL     OW19327   0.869   2.213  11.005  0.1548  0.0613 -0.3949
 2564SOL    HW119328   0.842   2.199  11.096  1.1970 -0.3988 -0.1627
 2564SOL    HW219329   0.937   2.148  10.994 -1.1158 -1.4211  0.4138
 2565SOL     OW19330   4.384   3.604   4.161  1.2846 -0.0479 -0.3798
 2565SOL    HW119331   4.361   3.526   4.211 -0.8941  0.0516 -1.2071
 2565SOL    HW219332   4.426   3.655   4.230  0.2614 -0.8995  0.8417
 2566SOL     OW19333   0.152   3.450   8.765 -0.1767 -0.0907  0.2536
 2566SOL    HW119334   0.189   3.394   8.834  0.3674 -0.8149 -0.6299
 2566SOL    HW219335   0.221   3.423   8.704 -0.5135  2.7499 -1.3590
 2567SOL     OW19336   2.171   3.807   9.293 -0.3735  0.1026  0.3596
 2567SOL    HW119337   2.203   3.893   9.264 -0.7457 -0.5457 -1.8969
 2567SOL    HW219338   2.245   3.751   9.269  1.5311  1.2308  3.5166
 2568SOL     OW19339   1.663   2.697  13.367  0.1215  0.3223  0.0057
 2568SOL    HW119340   1.689   2.785  13.340 -1.2876  0.8763  0.4722
 2568SOL    HW219341   1.725   2.675  13.437 -1.0614 -2.1058  0.2785
 2569SOL     OW19342   0.080   1.722   8.428 -0.1538 -0.1631 -0.1859
 2569SOL    HW119343   0.096   1.708   8.521  1.0080 -0.3968 -0.4257
 2569SOL    HW219344   0.031   1.641   8.410 -0.5041 -0.1464  0.6756
 2570SOL     OW19345   3.197   2.343   5.390  0.4060 -0.9208  0.3057
 2570SOL    HW119346   3.197   2.249   5.372 -2.0259 -1.5800  3.7715
 2570SOL    HW219347   3.165   2.342   5.481  0.1980 -0.5402  0.2370
 2571SOL     OW19348   2.942   1.529  14.529 -0.0821  0.2914  0.3853
 2571SOL    HW119349   2.934   1.434  14.539  1.1250  0.1719  0.2030
 2571SOL    HW219350   2.875   1.556  14.591 -0.1774 -0.1657  0.4813
 2572SOL     OW19351   0.579   0.170   5.902 -0.4229 -0.1482 -0.6804
 2572SOL    HW119352   0.545   0.214   5.824  0.8588 -1.3043 -1.8941
 2572SOL    HW219353   0.500   0.182   5.955  0.4814 -0.0845  0.6523
 2573SOL     OW19354   3.371   3.760   2.633 -0.1858  0.0063 -0.5741
 2573SOL    HW119355   3.451   3.774   2.584 -0.1488  0.9277 -0.2500
 2573SOL    HW219356   3.331   3.683   2.592 -2.6016  0.4213  0.9490
 2574SOL     OW19357   2.871   3.887   5.576  0.0148 -0.1803 -0.5968
 2574SOL    HW119358   2.933   3.822   5.543 -0.1295 -0.3261 -0.5773
 2574SOL    HW219359   2.813   3.833   5.629  0.4971  1.5107  1.6629
 2575SOL     OW19360   1.244   3.567  13.947  0.4282 -0.0531 -0.1080
 2575SOL    HW119361   1.275   3.503  14.011 -0.0157 -1.9944 -1.8340
 2575SOL    HW219362   1.164   3.596  13.992  0.4313  0.5785 -0.5101
 2576SOL     OW19363   4.106   2.901   3.195  0.0688  0.3780 -0.0042
 2576SOL    HW119364   4.135   2.812   3.173 -2.9176 -0.2906 -1.2761
 2576SOL    HW219365   4.175   2.957   3.159  0.4458 -0.8635 -1.1921
 2577SOL     OW19366   2.849   0.161   5.152 -0.6225 -0.6098  0.1627
 2577SOL    HW119367   2.767   0.210   5.145 -0.4642 -0.1958  1.1672
 2577SOL    HW219368   2.870   0.147   5.060 -0.2989  3.5017 -0.4054
 2578SOL     OW19369   2.770   2.692  11.545 -0.0663 -0.1523 -0.3228
 2578SOL    HW119370   2.816   2.642  11.612 -2.1139 -0.6337  0.7275
 2578SOL    HW219371   2.842   2.735  11.500  1.2538 -3.3196 -1.2069
 2579SOL     OW19372   3.446   0.804   1.699  0.2641 -0.1991  0.2170
 2579SOL    HW119373   3.450   0.755   1.617  0.2895  1.6010 -0.8515
 2579SOL    HW219374   3.376   0.864   1.674 -0.2949 -0.5995  0.8173
 2580SOL     OW19375   3.075   2.349   1.046 -0.1720  0.2006 -0.3585
 2580SOL    HW119376   3.036   2.335   1.133  0.1332 -0.5980 -0.3463
 2580SOL    HW219377   3.018   2.422   1.023 -0.9101 -0.9163 -2.0501
 2581SOL     OW19378   2.351   3.677   3.830  0.4823 -0.0431 -0.0214
 2581SOL    HW119379   2.277   3.738   3.818  1.3732  1.1345  0.4711
 2581SOL    HW219380   2.424   3.730   3.798  1.7377 -1.3888  0.6460
 2582SOL     OW19381   2.714   2.292  11.542  0.5142 -0.1865 -0.3763
 2582SOL    HW119382   2.652   2.327  11.478  2.1217  2.0094 -0.7245
 2582SOL    HW219383   2.678   2.207  11.565 -0.6840  0.4558  0.0959
 2583SOL     OW19384   1.175   3.387   6.756  0.0484  0.2419 -0.2690
 2583SOL    HW119385   1.152   3.361   6.667  0.8703  0.6952 -0.6126
 2583SOL    HW219386   1.142   3.476   6.766  3.3477  1.3471  0.9783
 2584SOL     OW19387   1.149   1.361   4.845 -0.2202 -0.2393 -0.1335
 2584SOL    HW119388   1.233   1.341   4.886 -1.6710 -1.6713  2.1588
 2584SOL    HW219389   1.104   1.278   4.830 -2.0384  1.0152 -1.6781
 2585SOL     OW19390   3.990   0.982   4.380 -0.2055 -0.5855  0.4743
 2585SOL    HW119391   3.895   0.978   4.386 -0.3682  0.7795 -1.1495
 2585SOL    HW219392   4.025   0.905   4.424  1.6655  0.5339  0.9402
 2586SOL     OW19393   0.155   2.253  16.360  0.0365 -0.4411  0.3127
 2586SOL    HW119394   0.219   2.281  16.295  0.8007 -0.7737  0.9295
 2586SOL    HW219395   0.157   2.160  16.337  2.2608  0.0918 -1.5985
 2587SOL     OW19396   4.120   0.701  10.150  0.3066  0.4403  0.0486
 2587SOL    HW119397   4.083   0.769  10.206  2.4187 -0.4460  2.4974
 2587SOL    HW219398   4.190   0.746  10.103  0.6067  0.7441  0.7966
 2588SOL     OW19399   4.113   0.401   5.359 -0.0710 -0.3950 -0.2069
 2588SOL    HW119400   4.071   0.358   5.433  0.2260 -1.3925 -0.6147
 2588SOL    HW219401   4.038   0.423   5.305  0.5535 -1.5798 -1.5479
 2589SOL     OW19402   3.273   0.772   9.816 -0.5250 -0.7219 -0.5025
 2589SOL    HW119403   3.309   0.743   9.901 -0.0321  0.5966 -0.2609
 2589SOL    HW219404   3.333   0.841   9.787  0.2934 -1.0331  0.4204
 2590SOL     OW19405   2.570   1.141  16.620  0.1596  0.4738 -0.3881
 2590SOL    HW119406   2.498   1.160  16.560  0.0681  1.4542  0.0297
 2590SOL    HW219407   2.636   1.096  16.566 -0.9949  0.0576 -1.4620
 2591SOL     OW19408   0.606   4.509   4.782  0.1562 -0.3499  0.2934
 2591SOL    HW119409   0.674   4.545   4.725 -1.1159  1.6575  0.0203
 2591SOL    HW219410   0.527   4.525   4.730  0.1516 -3.4909 -0.6644
 2592SOL     OW19411   3.023   1.359   6.627  0.3075 -0.0713  0.4337
 2592SOL    HW119412   2.963   1.345   6.701  0.5501 -1.7091  0.3213
 2592SOL    HW219413   2.994   1.445   6.598  3.8715  1.3788  1.1278
 2593SOL     OW19414   3.379   2.665   2.886 -0.4513  0.3038 -0.1940
 2593SOL    HW119415   3.401   2.738   2.829 -0.4227 -0.1215 -0.7276
 2593SOL    HW219416   3.465   2.649   2.925 -1.2558 -0.5658  1.2399
 2594SOL     OW19417   4.389   3.219   6.604  0.8240 -0.0073  0.8024
 2594SOL    HW119418   4.312   3.192   6.655 -1.2028 -0.9430 -2.7130
 2594SOL    HW219419   4.427   3.289   6.656 -0.1822  0.3593  1.0525
 2595SOL     OW19420   2.693   1.964   2.783 -0.4254  0.2060 -0.2364
 2595SOL    HW119421   2.657   1.976   2.871  0.2550 -0.2827  0.1021
 2595SOL    HW219422   2.770   2.020   2.787  0.2294 -0.7031  0.0299
 2596SOL     OW19423   0.151   1.468   8.067 -0.4503 -0.7227 -0.3402
 2596SOL    HW119424   0.205   1.432   7.997 -0.7837 -1.7530 -0.0637
 2596SOL    HW219425   0.189   1.554   8.084 -0.1167 -0.3290 -3.1130
 2597SOL     OW19426   1.846   2.160   7.358  0.7289 -0.4834  0.1300
 2597SOL    HW119427   1.933   2.155   7.317  0.5431 -1.5017 -0.1381
 2597SOL    HW219428   1.850   2.085   7.417 -0.1849  0.9720  2.0668
 2598SOL     OW19429   1.899   2.312   1.989 -0.1804  0.3037  0.0576
 2598SOL    HW119430   1.876   2.325   2.081 -0.1408 -2.4348  0.4375
 2598SOL    HW219431   1.837   2.242   1.967 -1.4072  1.0845  0.9947
 2599SOL     OW19432   0.164   0.273  17.609  0.7281  0.2983  0.7903
 2599SOL    HW119433   0.139   0.358  17.571  1.9443  0.0291 -0.5866
 2599SOL    HW219434   0.125   0.215  17.544 -1.6007  3.3402 -0.5597
 2600SOL     OW19435   0.629   0.764  11.971  0.0208  0.0526  0.3654
 2600SOL    HW119436   0.717   0.747  11.936  0.7059  2.0044  1.1808
 2600SOL    HW219437   0.635   0.710  12.049  0.8882  0.4358  0.5576
 2601SOL     OW19438   2.368   2.121   9.500 -0.0144  0.2276  0.3217
 2601SOL    HW119439   2.353   2.190   9.565  2.1992  0.2444  0.8151
 2601SOL    HW219440   2.434   2.168   9.449  1.6940 -2.8173 -0.2565
 2602SOL     OW19441   0.687   0.865   6.764 -0.2176 -0.1924  0.0534
 2602SOL    HW119442   0.668   0.851   6.671 -2.3016  1.7011  0.1850
 2602SOL    HW219443   0.733   0.784   6.782  1.8843  1.0866  0.4895
 2603SOL     OW19444   2.883   2.874   8.120  0.5428  0.2551  0.4522
 2603SOL    HW119445   2.886   2.811   8.047 -2.1414 -0.2788  0.7991
 2603SOL    HW219446   2.798   2.917   8.108  0.4117  0.0047  0.4764
 2604SOL     OW19447   4.182   4.362  15.145  0.0635  0.4303  0.1322
 2604SOL    HW119448   4.223   4.426  15.087 -1.6933  1.9367  0.5369
 2604SOL    HW219449   4.109   4.342  15.086  0.4952 -1.8054  0.3792
 2605SOL     OW19450   4.586   4.513   7.310 -0.0338 -0.1420 -0.1859
 2605SOL    HW119451   4.674   4.542   7.286 -0.3117  0.5024 -0.3960
 2605SOL    HW219452   4.534   4.537   7.234  0.2760 -1.8863 -0.9626
 2606SOL     OW19453   0.542   1.289   4.717 -0.2795 -0.0810  0.4958
 2606SOL    HW119454   0.452   1.262   4.699  0.1381 -0.8195 -0.4901
 2606SOL    HW219455   0.526   1.360   4.779  3.0049  0.5917  0.5727
 2607SOL     OW19456   3.290   3.772   3.376 -0.5944  0.4062 -0.2639
 2607SOL    HW119457   3.278   3.681   3.348  0.1483  0.2915 -0.2090
 2607SOL    HW219458   3.352   3.798   3.308  0.0240 -0.1968  0.0739
 2608SOL     OW19459   3.175   1.261   4.674 -0.0506 -0.0363 -0.4528
 2608SOL    HW119460   3.268   1.264   4.698 -0.4349 -2.6586  1.2262
 2608SOL    HW219461   3.134   1.332   4.724 -0.1662  0.3909 -1.1437
 2609SOL     OW19462   2.767   0.317   2.560  0.5989 -0.0343 -0.5072
 2609SOL    HW119463   2.857   0.335   2.533  1.2649 -0.1603  1.6058
 2609SOL    HW219464   2.725   0.383   2.506 -1.5125 -1.6054 -0.8150
 2610SOL     OW19465   4.477   2.097   7.107 -0.2075 -0.5463 -0.1048
 2610SOL    HW119466   4.572   2.098   7.094 -0.2017 -0.3369 -0.0293
 2610SOL    HW219467   4.448   2.139   7.026 -0.5164 -1.2550 -0.3604
 2611SOL     OW19468   1.472   2.346   8.989 -0.5267  0.2079  0.6099
 2611SOL    HW119469   1.525   2.319   8.915  0.7124  2.2716  0.7411
 2611SOL    HW219470   1.415   2.417   8.959 -0.0296 -0.2998 -1.5118
 2612SOL     OW19471   2.130   3.566   3.367 -0.0617  0.0662 -0.6411
 2612SOL    HW119472   2.188   3.642   3.379 -0.7937 -0.0363  3.5490
 2612SOL    HW219473   2.147   3.520   3.449 -2.0180  0.4690 -0.0228
 2613SOL     OW19474   1.740   4.272  14.126  0.8176 -0.4498 -0.3826
 2613SOL    HW119475   1.814   4.223  14.090  0.7457 -1.2254  0.5320
 2613SOL    HW219476   1.676   4.275  14.055  0.0025 -0.5277  0.3498
 2614SOL     OW19477   1.473   1.643   0.166  0.5618  0.0754  0.0571
 2614SOL    HW119478   1.475   1.639   0.071  1.7281 -1.6643  0.1450
 2614SOL    HW219479   1.386   1.683   0.173  0.4991  0.4933 -3.1192
 2615SOL     OW19480   0.288   0.518   1.529 -0.2276 -0.0489 -0.1307
 2615SOL    HW119481   0.199   0.553   1.522  0.1471  0.6064 -1.6105
 2615SOL    HW219482   0.316   0.538   1.440 -1.7900  0.0945 -0.5980
 2616SOL     OW19483   3.858   0.132   5.732  0.2058  0.1857 -0.3254
 2616SOL    HW119484   3.876   0.224   5.712  0.8540  0.5893  2.1640
 2616SOL    HW219485   3.762   0.132   5.733  0.2325 -1.4712  1.2740
 2617SOL     OW19486   3.404   4.493  10.815  0.0826  0.5786 -0.4303
 2617SOL    HW119487   3.352   4.567  10.784 -2.3355  0.3634  3.1539
 2617SOL    HW219488   3.467   4.495  10.743  0.9566 -1.6072  0.2720
 2618SOL     OW19489   4.286   1.431   2.403  0.0233 -0.6443 -0.0168
 2618SOL    HW119490   4.218   1.433   2.336  1.5180  0.3087 -1.5108
 2618SOL    HW219491   4.246   1.471   2.480 -0.2905 -1.4149  0.2280
 2619SOL     OW19492   3.344   4.570   8.486  0.2592  0.0535  0.0556
 2619SOL    HW119493   3.328   4.571   8.580 -0.8204 -0.3906 -0.1205
 2619SOL    HW219494   3.365   4.662   8.474 -0.3752  0.0431 -1.1580
 2620SOL     OW19495   0.840   0.448   1.356  0.8815 -0.2405 -0.0157
 2620SOL    HW119496   0.829   0.354   1.364 -0.1332 -0.2201 -1.2117
 2620SOL    HW219497   0.886   0.456   1.272  1.9107 -2.4128  0.3312
 2621SOL     OW19498   1.719   1.222  15.852  0.4167  0.0284 -0.6887
 2621SOL    HW119499   1.629   1.217  15.883  0.8783 -0.7900  0.5381
 2621SOL    HW219500   1.728   1.312  15.823 -0.7252  0.8085  1.4296
 2622SOL     OW19501   3.732   4.279   3.885 -0.1013 -0.1736 -0.3512
 2622SOL    HW119502   3.684   4.279   3.968 -1.4061 -2.1671 -1.1254
 2622SOL    HW219503   3.820   4.269   3.922 -0.1444  1.3858  0.1996
 2623SOL     OW19504   3.020   0.280   5.629 -0.4431  0.2327 -0.1043
 2623SOL    HW119505   3.040   0.252   5.540  0.9857 -1.6328  0.7957
 2623SOL    HW219506   2.943   0.337   5.621  1.2325  2.5819  0.4525
 2624SOL     OW19507   0.073   2.645   0.060 -0.0854  0.3678 -0.1031
 2624SOL    HW119508   0.018   2.690   0.125  0.0517  1.2451 -0.5877
 2624SOL    HW219509   0.044   2.557   0.083  1.6924 -0.3940 -0.8482
 2625SOL     OW19510   0.849   0.257   9.107 -0.0012 -0.1328 -0.4817
 2625SOL    HW119511   0.889   0.332   9.063  0.8308 -0.0885  0.3532
 2625SOL    HW219512   0.927   0.203   9.109 -0.8879 -1.2966  2.8694
 2626SOL     OW19513   4.430   2.608   5.505  0.7527 -0.0624 -1.1022
 2626SOL    HW119514   4.346   2.644   5.536  1.0098 -0.3379 -0.1044
 2626SOL    HW219515   4.459   2.669   5.436  0.3485  0.3367 -0.9227
 2627SOL     OW19516   3.656   2.941   6.572 -0.0367 -0.4018 -0.3306
 2627SOL    HW119517   3.592   2.949   6.642 -0.1287  1.7581 -0.6700
 2627SOL    HW219518   3.703   2.870   6.615 -0.5408 -0.0928  0.7124
 2628SOL     OW19519   3.609   3.564   6.401  0.0742  0.6872  0.6980
 2628SOL    HW119520   3.583   3.629   6.335  1.2604  2.5927  2.1251
 2628SOL    HW219521   3.653   3.608   6.474  0.8157  1.7269 -0.3653
 2629SOL     OW19522   4.004   3.189  15.257 -0.0395  0.3619  0.1257
 2629SOL    HW119523   3.967   3.101  15.247  2.0314 -0.7443  2.3809
 2629SOL    HW219524   3.951   3.230  15.188  0.1681 -0.1770 -0.3545
 2630SOL     OW19525   0.976   2.603   8.303  0.1565  0.3369  0.3825
 2630SOL    HW119526   1.026   2.529   8.268  0.3801  0.0215  1.3515
 2630SOL    HW219527   0.898   2.558   8.335  1.0776 -1.2422  0.4124
 2631SOL     OW19528   2.855   1.966   1.537  0.4767 -0.5174  0.6293
 2631SOL    HW119529   2.861   2.022   1.460  1.4197  0.8137  1.6833
 2631SOL    HW219530   2.935   1.916   1.518  0.3517 -1.1730  1.7683
 2632SOL     OW19531   2.727   2.296   5.979 -0.3068  0.1127 -0.6448
 2632SOL    HW119532   2.637   2.322   6.000  1.0985  4.3615  0.1795
 2632SOL    HW219533   2.707   2.241   5.904 -1.7854 -0.1835 -0.0230
 2633SOL     OW19534   1.868   1.141   8.326  1.1550  0.5960  0.1550
 2633SOL    HW119535   1.893   1.174   8.239  0.2395 -0.3191 -0.4612
 2633SOL    HW219536   1.944   1.088   8.348  0.0960 -1.4734 -1.1084
 2634SOL     OW19537   0.793   3.422   3.188  0.5143  0.1479 -0.3765
 2634SOL    HW119538   0.875   3.463   3.213 -0.1413  0.8289  0.6789
 2634SOL    HW219539   0.736   3.452   3.259 -2.0837  1.0252 -2.8471
 2635SOL     OW19540   0.896   0.466   7.911  0.1119 -0.1628  0.0261
 2635SOL    HW119541   0.962   0.505   7.968  0.1970  0.3290 -0.4139
 2635SOL    HW219542   0.849   0.547   7.892 -0.7994 -0.4857  0.8876
 2636SOL     OW19543   3.481   2.351   3.848  0.0019  0.0480 -0.1658
 2636SOL    HW119544   3.497   2.309   3.763 -1.5463  1.8122 -1.3261
 2636SOL    HW219545   3.509   2.437   3.816 -0.3216 -0.0681 -0.7670
 2637SOL     OW19546   2.010   3.378   3.579 -0.4645  0.3048 -0.4863
 2637SOL    HW119547   1.953   3.322   3.524 -0.6499 -0.8387  0.8700
 2637SOL    HW219548   2.026   3.317   3.651 -1.8082  2.8627  1.9435
 2638SOL     OW19549   1.798   2.101   6.403  0.1067  0.1708 -0.5923
 2638SOL    HW119550   1.763   2.046   6.332  0.4819 -3.1630  1.7991
 2638SOL    HW219551   1.881   2.129   6.363 -0.0858  0.8515 -0.5080
 2639SOL     OW19552   1.185   1.541  12.430 -0.6364  0.0291  0.0431
 2639SOL    HW119553   1.177   1.617  12.373  1.3393  0.4383  0.3054
 2639SOL    HW219554   1.179   1.574  12.520 -2.6925  0.1950 -0.1524
 2640SOL     OW19555   3.392   4.343   0.239  0.4428  0.0021 -0.1388
 2640SOL    HW119556   3.470   4.360   0.186 -0.9119 -0.2219 -2.1965
 2640SOL    HW219557   3.345   4.299   0.168  0.5749 -0.0403 -0.2014
 2641SOL     OW19558   2.454   4.071   2.697 -0.2711  0.3664 -0.0454
 2641SOL    HW119559   2.545   4.053   2.721 -0.4299  0.9014  0.9983
 2641SOL    HW219560   2.458   4.055   2.603 -0.6727 -0.9804  0.1689
 2642SOL     OW19561   1.127   2.095   5.602 -0.1443 -0.4888  0.0183
 2642SOL    HW119562   1.154   2.181   5.633  0.7319 -0.4016 -0.9872
 2642SOL    HW219563   1.199   2.070   5.544 -1.6623 -2.2931 -1.1095
 2643SOL     OW19564   0.504   4.709   0.001  0.1343 -0.7427 -0.3497
 2643SOL    HW119565   0.563   0.021  17.680 -1.0114 -1.6989 -2.2439
 2643SOL    HW219566   0.463   4.644  17.682  2.4648 -0.6293 -2.1255
 2644SOL     OW19567   0.088   1.389  17.411  0.0019 -0.0027  0.0570
 2644SOL    HW119568   0.053   1.453  17.473 -0.3152 -1.1441  1.0635
 2644SOL    HW219569   0.166   1.358  17.458 -0.2312  0.7904  0.9580
 2645SOL     OW19570   1.992   2.385  12.281 -0.1354 -0.2994  0.1120
 2645SOL    HW119571   1.953   2.327  12.346 -3.1046  0.9268 -0.5957
 2645SOL    HW219572   2.002   2.329  12.204  0.1195  0.7720 -0.6335
 2646SOL     OW19573   2.732   2.375   4.956 -0.3492 -0.0241 -0.6284
 2646SOL    HW119574   2.723   2.454   4.903  1.4537  0.8462  0.3633
 2646SOL    HW219575   2.820   2.393   4.989  0.4129 -0.7341 -2.2810
 2647SOL     OW19576   0.083   3.839   7.872 -0.3750 -0.2268  0.3143
 2647SOL    HW119577   0.107   3.748   7.885  2.6165  0.1500 -2.4621
 2647SOL    HW219578   4.724   3.839   7.890 -0.5120 -0.2229 -0.3851
 2648SOL     OW19579   0.828   0.035  14.658  0.0959  0.2886  0.0859
 2648SOL    HW119580   0.792   0.121  14.637 -2.1575 -0.8328 -0.6190
 2648SOL    HW219581   0.863   0.040  14.747 -2.3656 -2.4327  1.2219
 2649SOL     OW19582   1.630   4.431  12.310 -0.0224  0.0977  0.0937
 2649SOL    HW119583   1.575   4.363  12.272 -0.8814  2.3254 -2.6096
 2649SOL    HW219584   1.574   4.508  12.307 -0.2931 -0.0233  2.1520
 2650SOL     OW19585   3.324   2.166   8.532  0.2008  0.1123  0.6263
 2650SOL    HW119586   3.314   2.253   8.492 -0.6896 -0.6567 -0.8505
 2650SOL    HW219587   3.398   2.190   8.587  1.1995 -1.4900 -0.0004
 2651SOL     OW19588   3.251   3.498   4.322 -0.1044 -0.3967  0.3075
 2651SOL    HW119589   3.262   3.557   4.248 -0.1675 -0.2995  0.3754
 2651SOL    HW219590   3.210   3.427   4.272 -1.8241  0.4480  0.5103
 2652SOL     OW19591   1.757   3.310   6.338 -0.4698  0.5779  0.2197
 2652SOL    HW119592   1.844   3.343   6.315  0.2064  0.5533  2.7308
 2652SOL    HW219593   1.747   3.373   6.410 -2.8740 -0.0602  0.4507
 2653SOL     OW19594   3.560   4.616  15.300  0.0601  0.4750  0.3998
 2653SOL    HW119595   3.624   4.575  15.242 -0.0650 -0.3443  0.8463
 2653SOL    HW219596   3.506   4.539  15.314  0.4516  0.2003  0.4075
 2654SOL     OW19597   0.476   3.831   7.774  0.3209 -0.2322  0.7334
 2654SOL    HW119598   0.552   3.888   7.782  0.1792  0.1771 -1.0340
 2654SOL    HW219599   0.452   3.842   7.866 -0.6968 -0.1099  0.4551
 2655SOL     OW19600   2.298   1.928  11.800 -0.4630  0.7866 -0.3066
 2655SOL    HW119601   2.226   1.981  11.835 -1.0052 -1.1777  1.5204
 2655SOL    HW219602   2.374   1.957  11.851  0.0785 -2.3621  0.6547
 2656SOL     OW19603   0.327   3.385   6.896 -0.2938 -0.3643 -0.1107
 2656SOL    HW119604   0.349   3.354   6.808 -2.2144  2.9015 -1.7440
 2656SOL    HW219605   0.286   3.468   6.870 -0.0887 -0.1741  0.1858
 2657SOL     OW19606   1.311   0.782   8.323 -0.1013  0.0745 -0.4101
 2657SOL    HW119607   1.274   0.694   8.335  0.5963  0.1023  1.9960
 2657SOL    HW219608   1.318   0.797   8.228  0.7242  0.7875 -0.2398
 2658SOL     OW19609   2.613   3.409   3.817  0.2534 -0.2226 -0.2834
 2658SOL    HW119610   2.586   3.474   3.752 -2.1164 -0.3193  0.5775
 2658SOL    HW219611   2.663   3.347   3.765 -0.8895 -0.7058 -0.8152
 2659SOL     OW19612   0.907   0.737  17.160 -0.0705  0.7553  0.1566
 2659SOL    HW119613   0.982   0.797  17.157  1.7524 -1.4722  1.3830
 2659SOL    HW219614   0.939   0.687  17.085 -2.4300 -1.4488  0.6404
 2660SOL     OW19615   0.157   2.474  13.734  0.6974 -0.8822  0.3209
 2660SOL    HW119616   0.140   2.380  13.741 -0.5062 -0.5730  1.5441
 2660SOL    HW219617   0.207   2.497  13.812 -1.8109 -1.4142  2.0840
 2661SOL     OW19618   1.226   2.085  13.183  0.0248 -0.3641  0.0250
 2661SOL    HW119619   1.279   2.164  13.196 -0.1437 -0.2905  0.2757
 2661SOL    HW219620   1.248   2.066  13.092  1.4245  0.2392  0.2385
 2662SOL     OW19621   0.411   3.194   3.005  0.1793  0.9314  0.9742
 2662SOL    HW119622   0.333   3.236   2.968 -1.2785 -1.2417  1.5691
 2662SOL    HW219623   0.476   3.264   2.997  0.5282  0.3720 -0.9366
 2663SOL     OW19624   0.416   0.288   8.177  0.3070  0.1257  0.5934
 2663SOL    HW119625   0.418   0.205   8.225 -0.6034 -1.2118 -1.7148
 2663SOL    HW219626   0.343   0.266   8.120 -0.6674  1.5944  1.2488
 2664SOL     OW19627   2.394   2.861   2.040  0.0474  0.0275 -0.3489
 2664SOL    HW119628   2.379   2.894   2.129  0.4776 -0.0284 -0.2593
 2664SOL    HW219629   2.331   2.789   2.043 -2.1004  1.9607  1.4895
 2665SOL     OW19630   3.644   0.845   7.764  0.6431 -0.0286  0.2755
 2665SOL    HW119631   3.715   0.844   7.828  0.3783  0.1736  0.5653
 2665SOL    HW219632   3.683   0.906   7.701  0.4795 -0.6325 -0.4144
 2666SOL     OW19633   2.324   2.029   7.966 -0.7277  0.5218  0.5025
 2666SOL    HW119634   2.398   2.087   7.984 -0.2556 -0.2954  1.1839
 2666SOL    HW219635   2.278   2.086   7.904  0.5865  0.3721 -0.5969
 2667SOL     OW19636   3.361   2.488   0.163 -0.6025 -0.1284 -0.2987
 2667SOL    HW119637   3.395   2.565   0.210 -0.0700  0.1316 -1.1139
 2667SOL    HW219638   3.435   2.428   0.166 -1.9496 -1.8822 -2.1502
 2668SOL     OW19639   1.228   1.726   6.515 -0.9014 -0.3022 -0.2045
 2668SOL    HW119640   1.268   1.776   6.586 -0.7268 -1.0180  0.2016
 2668SOL    HW219641   1.137   1.734   6.541 -0.7172  0.9983  0.0304
 2669SOL     OW19642   0.345   2.773   5.658  0.0380  0.4739 -0.6492
 2669SOL    HW119643   0.354   2.693   5.607 -0.1756 -0.7333  1.2064
 2669SOL    HW219644   0.275   2.824   5.618 -0.4760  2.9699  3.4144
 2670SOL     OW19645   4.664   0.107   0.851  0.7258 -0.3042  0.9265
 2670SOL    HW119646   4.574   0.110   0.885  0.8097  0.5200  1.0771
 2670SOL    HW219647   4.715   0.169   0.903  2.8488 -1.0973 -0.2311
 2671SOL     OW19648   3.851   1.899   8.693  0.1227  0.1415 -0.1889
 2671SOL    HW119649   3.765   1.871   8.725  1.0527 -2.1430  0.2683
 2671SOL    HW219650   3.879   1.970   8.751 -1.8211  0.0733  0.8492
 2672SOL     OW19651   2.939   1.832   2.107  0.2666 -0.1370 -0.4133
 2672SOL    HW119652   2.923   1.737   2.102 -4.1055  0.6284 -0.8376
 2672SOL    HW219653   2.849   1.861   2.122  0.7785  0.9638  0.4679
 2673SOL     OW19654   0.848   3.509   1.554 -0.1786 -0.1172 -0.1083
 2673SOL    HW119655   0.917   3.488   1.492  0.5714  0.1333  0.6347
 2673SOL    HW219656   0.784   3.443   1.525 -1.4201  0.0670  2.1932
 2674SOL     OW19657   1.321   3.362   7.399  0.4340  0.1052  0.3458
 2674SOL    HW119658   1.247   3.417   7.425 -0.1963  0.6130 -2.5234
 2674SOL    HW219659   1.284   3.274   7.390  1.5633 -0.0655 -2.8283
 2675SOL     OW19660   4.071   0.618   5.071 -0.3082  0.0598 -0.0865
 2675SOL    HW119661   4.161   0.611   5.104 -0.5217 -1.1641  0.2386
 2675SOL    HW219662   4.024   0.551   5.121  0.7343  1.8793  3.3494
 2676SOL     OW19663   4.222   4.206   4.088  0.7526 -0.0137  0.3030
 2676SOL    HW119664   4.249   4.158   4.010  0.6795 -0.2917  0.4442
 2676SOL    HW219665   4.183   4.285   4.053 -1.2040 -1.5812 -1.0581
 2677SOL     OW19666   1.257   3.440  14.443  0.3757  0.4674  0.1765
 2677SOL    HW119667   1.235   3.403  14.529  0.4926  1.5799  0.6838
 2677SOL    HW219668   1.190   3.506  14.424 -0.0721  0.2903  1.1410
 2678SOL     OW19669   3.058   1.841  11.215 -0.5553  0.0070  0.0783
 2678SOL    HW119670   3.044   1.898  11.140  0.4853  2.3029  1.6428
 2678SOL    HW219671   3.146   1.867  11.244  0.3337 -0.9187 -1.7634
 2679SOL     OW19672   2.389   4.213   1.992  0.4747 -0.0304 -0.1521
 2679SOL    HW119673   2.330   4.195   2.066  0.5826  2.1348  0.4390
 2679SOL    HW219674   2.468   4.167   2.018 -0.0651 -1.5242 -1.1553
 2680SOL     OW19675   3.855   1.367  13.245 -0.1590 -0.1766 -0.3655
 2680SOL    HW119676   3.842   1.282  13.204  0.8380 -0.2665 -0.4966
 2680SOL    HW219677   3.882   1.420  13.170 -0.7675  1.8007  0.8143
 2681SOL     OW19678   1.558   2.505   6.816 -0.0720 -0.5301 -0.4443
 2681SOL    HW119679   1.623   2.513   6.886  0.6101  0.0502 -1.1372
 2681SOL    HW219680   1.476   2.511   6.864  0.3084  0.2088  0.1149
 2682SOL     OW19681   3.767   1.188   0.455 -0.0812 -0.1344  0.3952
 2682SOL    HW119682   3.819   1.268   0.456 -0.6835  0.2418  2.1925
 2682SOL    HW219683   3.831   1.123   0.483 -1.1588 -1.5730 -0.4440
 2683SOL     OW19684   3.172   2.058  10.781  0.0299 -0.3795 -0.5082
 2683SOL    HW119685   3.139   1.987  10.727 -1.2978 -0.0924 -0.0790
 2683SOL    HW219686   3.171   2.127  10.714  3.3205  0.6277  0.4584
 2684SOL     OW19687   3.676   1.932   0.188 -0.2040 -0.4606 -0.3660
 2684SOL    HW119688   3.641   1.953   0.101 -1.5519 -0.6483  0.1384
 2684SOL    HW219689   3.770   1.930   0.170 -0.0095  2.0000  0.3736
 2685SOL     OW19690   4.457   2.946  16.788 -0.0928 -0.1479 -0.2924
 2685SOL    HW119691   4.543   2.980  16.813  0.6530 -1.2279 -1.3748
 2685SOL    HW219692   4.404   2.967  16.865 -0.5826  1.8739 -1.1886
 2686SOL     OW19693   0.368   0.437   2.581 -0.0191 -0.2570 -0.2897
 2686SOL    HW119694   0.334   0.424   2.492  1.3658  1.4196 -1.0618
 2686SOL    HW219695   0.297   0.408   2.638 -1.5650  1.0880 -1.5140
 2687SOL     OW19696   1.599   3.319   0.350 -0.0125  0.2626  0.1995
 2687SOL    HW119697   1.680   3.290   0.391 -0.7698  0.8964  2.1395
 2687SOL    HW219698   1.559   3.239   0.316 -0.5252  1.3130 -1.7107
 2688SOL     OW19699   4.686   4.558  15.841  0.1980 -0.3345  0.0077
 2688SOL    HW119700   0.037   4.533  15.875  1.0583  0.6087 -1.5144
 2688SOL    HW219701   4.713   4.599  15.759  1.6825 -0.0360  0.6526
 2689SOL     OW19702   3.036   0.950   7.016 -0.1179  0.1088  0.3755
 2689SOL    HW119703   3.018   0.868   6.969 -0.0626  0.3020  0.0130
 2689SOL    HW219704   2.992   1.012   6.959 -0.4871 -0.6619 -0.1759
 2690SOL     OW19705   0.851   4.242   4.574 -0.2091 -0.2915 -0.0939
 2690SOL    HW119706   0.834   4.177   4.505  0.0212  0.4520 -0.8490
 2690SOL    HW219707   0.883   4.186   4.644 -1.1050  0.5164  0.9629
 2691SOL     OW19708   0.363   3.449   4.879  0.0973  0.1665  0.2316
 2691SOL    HW119709   0.313   3.507   4.822 -1.8023 -1.4938  0.2285
 2691SOL    HW219710   0.377   3.370   4.827  3.9299  1.1752 -0.2625
 2692SOL     OW19711   3.350   2.087   6.023 -0.0315  0.3538  0.2833
 2692SOL    HW119712   3.413   2.023   6.057  0.8964  0.5536 -1.0804
 2692SOL    HW219713   3.268   2.051   6.057 -1.5022  1.4861 -2.0939
 2693SOL     OW19714   1.575   4.387   3.544  0.3062  0.4775 -0.8328
 2693SOL    HW119715   1.528   4.336   3.478  0.4795  0.1850 -0.7304
 2693SOL    HW219716   1.650   4.330   3.528 -0.9364 -1.5710  0.5165
 2694SOL     OW19717   0.082   4.329  15.143  0.4901 -0.1158 -0.0632
 2694SOL    HW119718   0.026   4.254  15.122  0.1341 -0.0979  0.8401
 2694SOL    HW219719   0.042   4.360  15.224  0.8897  0.0973  0.0526
 2695SOL     OW19720   2.126   1.170   3.789  0.6180 -0.3205 -0.6352
 2695SOL    HW119721   2.178   1.099   3.752 -1.0551 -1.1216 -1.4705
 2695SOL    HW219722   2.038   1.165   3.750 -0.3010 -0.7524  1.4762
 2696SOL     OW19723   2.791   1.628   4.033 -0.0823  0.3089 -0.5631
 2696SOL    HW119724   2.876   1.584   4.033  0.4720  1.3853  0.1633
 2696SOL    HW219725   2.769   1.614   4.125 -1.3949 -1.0634 -1.0928
 2697SOL     OW19726   1.294   4.609   3.545 -0.4888  0.6325  0.4580
 2697SOL    HW119727   1.348   4.642   3.474  0.1806 -0.0967  0.6300
 2697SOL    HW219728   1.258   4.692   3.576  1.1378  1.6268 -0.3348
 2698SOL     OW19729   2.132   0.948   1.765 -0.1560  0.6674  0.2160
 2698SOL    HW119730   2.182   1.026   1.740  2.4028 -0.6307  1.3348
 2698SOL    HW219731   2.066   0.992   1.817 -1.2936  0.0613 -0.7099
 2699SOL     OW19732   3.066   1.650   3.392  0.1706 -0.1859  0.1911
 2699SOL    HW119733   3.083   1.633   3.484 -0.2448  0.5817  0.4139
 2699SOL    HW219734   2.988   1.706   3.389  0.3654  0.0096 -1.5770
 2700SOL     OW19735   3.099   3.071   8.157 -0.0641  1.0741 -0.0341
 2700SOL    HW119736   3.079   3.127   8.082 -0.8124  0.5119 -0.2491
 2700SOL    HW219737   3.063   2.984   8.142 -0.0532  0.9530  0.6222
 2701SOL     OW19738   3.145   3.192  15.102 -0.5372 -0.3335 -0.1906
 2701SOL    HW119739   3.123   3.261  15.039 -0.2081 -0.9965 -1.0294
 2701SOL    HW219740   3.073   3.131  15.088 -1.3745  0.2675  1.4329
 2702SOL     OW19741   4.734   0.630  15.211 -0.1559 -0.1035  0.0516
 2702SOL    HW119742   4.668   0.623  15.279 -0.5732  1.4924 -0.2052
 2702SOL    HW219743   0.057   0.557  15.236 -0.3704 -0.2551  0.1020
 2703SOL     OW19744   1.194   1.372   6.510 -0.7435  0.0178  0.2116
 2703SOL    HW119745   1.121   1.427   6.483  0.0766  0.7089 -0.5775
 2703SOL    HW219746   1.208   1.402   6.600 -0.1541 -0.8348  0.4089
 2704SOL     OW19747   3.893   1.251  14.895  0.2040 -0.0325 -0.8350
 2704SOL    HW119748   3.946   1.207  14.829 -0.0150 -1.5200 -0.0121
 2704SOL    HW219749   3.887   1.338  14.857  0.1608  0.6421  0.6964
 2705SOL     OW19750   1.162   3.890   4.134 -0.2561 -0.4685  0.3107
 2705SOL    HW119751   1.180   3.869   4.225 -2.2237  1.0983  1.0571
 2705SOL    HW219752   1.241   3.872   4.083  0.5359  1.4166  0.9108
 2706SOL     OW19753   0.859   3.878   1.808 -0.0963 -0.4202  0.1890
 2706SOL    HW119754   0.841   3.796   1.854 -1.3754 -0.6548 -0.7315
 2706SOL    HW219755   0.844   3.839   1.722 -3.1328 -0.3161  0.6792
 2707SOL     OW19756   3.869   2.740  12.737 -0.3926 -0.4095 -0.4591
 2707SOL    HW119757   3.847   2.782  12.820 -0.7628  0.2752 -0.9102
 2707SOL    HW219758   3.796   2.770  12.683 -0.6889 -2.4951 -1.2482
 2708SOL     OW19759   2.723   3.756   5.746  0.4897 -0.1643  0.3634
 2708SOL    HW119760   2.693   3.671   5.780 -1.9921  0.2616 -0.8037
 2708SOL    HW219761   2.770   3.781   5.825 -1.5243  3.3793  0.4228
 2709SOL     OW19762   1.036   4.254   6.743  0.0389 -0.9440  0.0000
 2709SOL    HW119763   1.006   4.235   6.833 -0.0328  2.0050  0.5978
 2709SOL    HW219764   1.103   4.319   6.760  0.9200 -1.2518 -2.3798
 2710SOL     OW19765   4.225   1.025   5.165 -0.0507 -0.4112  0.1024
 2710SOL    HW119766   4.135   0.997   5.147 -0.3171  1.6380 -1.7989
 2710SOL    HW219767   4.212   1.117   5.142  0.0315 -0.4020  0.0916
 2711SOL     OW19768   1.101   0.546   6.904 -1.0125  0.5567 -0.0474
 2711SOL    HW119769   1.168   0.561   6.971  0.6816  1.7312 -2.0177
 2711SOL    HW219770   1.078   0.454   6.918  0.3651  0.2706  0.3351
 2712SOL     OW19771   0.293   3.328   7.894 -0.0822  0.1496  0.0815
 2712SOL    HW119772   0.339   3.404   7.858 -0.3734  0.6202  0.7137
 2712SOL    HW219773   0.276   3.368   7.979  2.1522 -2.5874  1.8486
 2713SOL     OW19774   4.105   0.413   3.091 -0.2766 -0.0407  0.1198
 2713SOL    HW119775   4.161   0.466   3.147 -2.4312 -0.3582  2.5804
 2713SOL    HW219776   4.152   0.329   3.084 -1.5482 -1.1798  5.0532
 2714SOL     OW19777   3.596   4.607   6.072  0.2469 -0.7468  0.0939
 2714SOL    HW119778   3.582   4.512   6.074 -0.9441 -0.5663  0.0773
 2714SOL    HW219779   3.522   4.636   6.018  1.2501  0.7245 -0.4921
 2715SOL     OW19780   1.454   1.313   0.535 -0.6716 -0.1306 -0.1311
 2715SOL    HW119781   1.531   1.256   0.524  0.4545  0.8377  2.6935
 2715SOL    HW219782   1.503   1.386   0.574  0.1935 -1.5020  1.3656
 2716SOL     OW19783   0.432   0.247   9.430 -0.1488  0.4585  0.1598
 2716SOL    HW119784   0.359   0.245   9.369 -1.1727 -0.3488  1.4046
 2716SOL    HW219785   0.502   0.244   9.365  0.0403  0.8135  0.3468
 2717SOL     OW19786   3.094   0.842  14.496  0.5066  0.3384  0.0746
 2717SOL    HW119787   3.022   0.789  14.531  1.4128 -1.4606 -0.7998
 2717SOL    HW219788   3.076   0.925  14.541  1.3703  0.5451  0.0360
 2718SOL     OW19789   0.115   2.864   7.514 -1.1734  0.1516 -0.1342
 2718SOL    HW119790   0.019   2.862   7.506 -0.8954 -1.2177 -3.1472
 2718SOL    HW219791   0.142   2.933   7.453 -0.5513 -1.1176 -1.2819
 2719SOL     OW19792   2.391   0.686   1.347  0.4664  0.6965 -0.5460
 2719SOL    HW119793   2.388   0.651   1.258 -1.5214  0.3607 -0.3463
 2719SOL    HW219794   2.349   0.611   1.389  1.6220 -0.1112 -0.8239
 2720SOL     OW19795   0.289   3.053   4.493  0.3119 -0.1308  0.3160
 2720SOL    HW119796   0.336   2.973   4.517 -0.7017 -0.8053  0.0648
 2720SOL    HW219797   0.345   3.104   4.435 -0.8660  2.8642  1.8038
 2721SOL     OW19798   2.340   2.066   6.719 -0.2548  0.1803 -0.1119
 2721SOL    HW119799   2.372   2.144   6.764  1.5454 -0.0770 -0.9542
 2721SOL    HW219800   2.322   2.009   6.794  1.7759  1.2136  1.1688
 2722SOL     OW19801   0.830   0.172   7.582  0.5780  0.2670 -0.1908
 2722SOL    HW119802   0.897   0.136   7.524  0.8317  1.6307 -0.7295
 2722SOL    HW219803   0.877   0.248   7.616  0.3458  0.5799 -0.5775
 2723SOL     OW19804   0.804   2.076  12.158  0.5253  0.0944 -0.0364
 2723SOL    HW119805   0.835   2.167  12.166  1.6083 -0.1739 -1.2106
 2723SOL    HW219806   0.715   2.077  12.123  1.8410 -1.4277 -3.3885
 2724SOL     OW19807   0.830   3.534  10.273 -0.0608  0.0485 -0.0436
 2724SOL    HW119808   0.853   3.446  10.303 -0.5670  0.0589  0.3603
 2724SOL    HW219809   0.904   3.551  10.214  1.9445 -3.5409  1.4743
 2725SOL     OW19810   0.934   0.037  12.414  0.0728  0.3173 -0.5785
 2725SOL    HW119811   1.003   0.021  12.478 -0.8933 -0.2368  0.3084
 2725SOL    HW219812   0.902   0.119  12.452 -1.5214 -1.9259  2.8400
 2726SOL     OW19813   2.620   1.682  15.882 -0.0491  0.1602 -0.2523
 2726SOL    HW119814   2.637   1.658  15.973 -0.3382  1.4690  0.1411
 2726SOL    HW219815   2.659   1.770  15.875 -1.2384  0.7032 -0.0099
 2727SOL     OW19816   3.192   0.975   8.952  0.3620  0.0686 -0.5910
 2727SOL    HW119817   3.121   0.915   8.975  1.2962 -0.0118  2.0802
 2727SOL    HW219818   3.232   0.933   8.876 -1.3969 -1.9724 -0.3901
 2728SOL     OW19819   0.943   0.110  11.332 -0.4834  0.4637 -0.2120
 2728SOL    HW119820   0.878   0.097  11.263 -0.7793 -0.4852  0.2523
 2728SOL    HW219821   0.906   0.064  11.407 -1.4875  1.8469  0.1389
 2729SOL     OW19822   3.598   4.479  16.295 -0.3852 -0.0710 -0.4193
 2729SOL    HW119823   3.622   4.538  16.224  2.1990 -0.5935  0.0035
 2729SOL    HW219824   3.504   4.474  16.275 -0.4795 -1.6214  0.4137
 2730SOL     OW19825   0.381   1.356   5.969  0.1798 -0.0688 -0.0275
 2730SOL    HW119826   0.436   1.394   6.039 -0.1903 -0.1691  0.3183
 2730SOL    HW219827   0.326   1.295   6.018 -3.2665  1.8430 -1.5459
 2731SOL     OW19828   1.028   2.701   6.703  0.0718  0.2703  0.5274
 2731SOL    HW119829   1.018   2.611   6.735 -1.6238  0.3475  0.2305
 2731SOL    HW219830   1.120   2.724   6.715  0.9684 -2.8361 -0.2117
 2732SOL     OW19831   3.042   3.637   9.804 -0.0027 -0.5428 -0.1005
 2732SOL    HW119832   3.122   3.677   9.840 -0.3692 -0.7152  0.9169
 2732SOL    HW219833   2.980   3.695   9.848 -0.4394  0.8339 -2.5688
 2733SOL     OW19834   4.068   1.771   9.264  0.4904 -0.0006 -0.2256
 2733SOL    HW119835   4.159   1.792   9.245  0.0252  1.5983 -0.7269
 2733SOL    HW219836   4.093   1.689   9.307  2.4637  1.3031  1.1063
 2734SOL     OW19837   2.704   2.180   3.797 -0.5163 -0.3000 -0.2382
 2734SOL    HW119838   2.645   2.255   3.792 -1.7124 -1.2903 -0.9655
 2734SOL    HW219839   2.732   2.179   3.706 -2.5741 -0.8838 -0.8777
 2735SOL     OW19840   4.373   2.762  11.213 -0.0531  0.3946 -0.0977
 2735SOL    HW119841   4.302   2.768  11.149  2.0964 -1.9674 -2.7362
 2735SOL    HW219842   4.330   2.804  11.287  1.8346  1.1472  0.5594
 2736SOL     OW19843   3.004   1.234   5.850 -0.0815 -0.5637 -0.2445
 2736SOL    HW119844   2.984   1.220   5.758 -1.0974  1.6943 -0.3485
 2736SOL    HW219845   2.917   1.213   5.885 -0.1648 -2.6960 -1.7527
 2737SOL     OW19846   4.242   0.550   1.630  0.8058  0.4730  0.6892
 2737SOL    HW119847   4.214   0.522   1.717  0.5401  1.8611  1.0524
 2737SOL    HW219848   4.257   0.644   1.643  0.4960  0.5918  0.2105
 2738SOL     OW19849   4.491   0.887   0.794  0.1648  0.0419  0.0487
 2738SOL    HW119850   4.521   0.798   0.816  1.5700  0.7688  1.0400
 2738SOL    HW219851   4.408   0.848   0.765 -0.3854  1.5390 -0.3609
 2739SOL     OW19852   0.192   0.848   5.413  0.1110  0.5654 -0.3919
 2739SOL    HW119853   0.259   0.797   5.459  0.3583  0.8719 -0.4073
 2739SOL    HW219854   0.154   0.887   5.491  0.1534  2.8621 -1.5158
 2740SOL     OW19855   4.711   2.107   5.957  0.2934  0.5426 -0.4006
 2740SOL    HW119856   4.619   2.105   5.983 -0.1182 -2.6700 -2.1409
 2740SOL    HW219857   0.019   2.137   6.037  0.0191 -1.8543  0.6240
 2741SOL     OW19858   0.200   0.604   1.944  0.2250 -0.4243 -0.2413
 2741SOL    HW119859   0.175   0.517   1.911  0.5773 -1.0437  1.1457
 2741SOL    HW219860   0.201   0.585   2.038 -5.2312 -0.5558 -0.2151
 2742SOL     OW19861   2.508   1.253   3.064  0.5277 -0.2349  0.0230
 2742SOL    HW119862   2.449   1.289   2.998 -0.4534 -1.1480  0.3995
 2742SOL    HW219863   2.526   1.336   3.109  0.9442  0.6237 -1.7385
 2743SOL     OW19864   4.297   4.574  10.955 -0.2088  0.5746  0.0052
 2743SOL    HW119865   4.295   4.481  10.937  0.4204  0.2662  1.4715
 2743SOL    HW219866   4.224   4.612  10.906  0.7391  0.5618 -1.4018
 2744SOL     OW19867   1.532   2.843   2.469  0.3284  0.2547  0.2730
 2744SOL    HW119868   1.488   2.777   2.523 -0.3067 -1.2518 -2.0673
 2744SOL    HW219869   1.466   2.860   2.402  0.8879 -3.4685 -1.2416
 2745SOL     OW19870   0.841   1.492   4.112  0.3641 -0.5551  0.1769
 2745SOL    HW119871   0.919   1.437   4.108  1.7891  1.4547  0.3856
 2745SOL    HW219872   0.838   1.506   4.018  1.0627 -2.7694 -0.1769
 2746SOL     OW19873   1.504   4.062   9.196  0.1913 -0.3764 -0.4995
 2746SOL    HW119874   1.462   4.011   9.126 -0.3693  1.0447 -1.1869
 2746SOL    HW219875   1.593   4.038   9.173  0.8715  0.6622  1.0648
 2747SOL     OW19876   3.752   0.121   0.860 -0.4452 -0.0797  0.5651
 2747SOL    HW119877   3.775   0.028   0.853 -4.2630 -0.9361 -0.7769
 2747SOL    HW219878   3.759   0.157   0.772  1.8286 -1.4463  0.2015
 2748SOL     OW19879   4.351   1.214   4.949  0.1073  0.0005 -0.1172
 2748SOL    HW119880   4.434   1.249   4.982 -1.4231  1.6887  1.8288
 2748SOL    HW219881   4.375   1.210   4.856  1.4668  0.7394  0.1978
 2749SOL     OW19882   2.227   3.305   5.930  0.1301  0.1486  0.0523
 2749SOL    HW119883   2.238   3.230   5.871 -0.3036  1.0887 -1.2220
 2749SOL    HW219884   2.275   3.286   6.010  0.0900 -2.8556 -0.6289
 2750SOL     OW19885   0.973   4.663  12.159  0.1441 -0.4152 -0.2781
 2750SOL    HW119886   0.883   4.640  12.134 -0.3381 -0.7642  1.7581
 2750SOL    HW219887   0.953   4.699  12.245 -0.6710  0.3534 -0.7880
 2751SOL     OW19888   1.073   1.982   7.448 -0.6120  0.0688 -0.4694
 2751SOL    HW119889   1.013   2.052   7.475  1.3992  1.8733 -0.6063
 2751SOL    HW219890   1.089   1.924   7.523  0.8010  0.3089 -0.5803
 2752SOL     OW19891   0.877   0.203   4.817  0.3063  0.0048 -0.1639
 2752SOL    HW119892   0.786   0.233   4.812 -0.2673 -1.7617 -0.1619
 2752SOL    HW219893   0.908   0.197   4.727 -1.5727 -3.3103 -0.5839
 2753SOL     OW19894   0.284   2.370   7.674 -0.1062  0.3563  0.1061
 2753SOL    HW119895   0.368   2.351   7.633  0.3015  2.5890 -0.0612
 2753SOL    HW219896   0.280   2.465   7.664  2.9740  0.8320  3.5287
 2754SOL     OW19897   3.320   1.321  10.487 -0.2078  0.2903  0.1365
 2754SOL    HW119898   3.299   1.385  10.419  1.6544  0.5676 -0.1594
 2754SOL    HW219899   3.396   1.361  10.529  0.2210 -2.1839  1.6904
 2755SOL     OW19900   1.362   4.647   0.028 -0.4656  0.0265  0.1389
 2755SOL    HW119901   1.340   4.671  17.676  3.0995  2.2231 -0.1545
 2755SOL    HW219902   1.436   4.705   0.045 -1.1841  1.1355 -0.5248
 2756SOL     OW19903   1.036   4.671   8.362  0.1664  0.2376  0.0964
 2756SOL    HW119904   1.101   0.006   8.357  1.4817 -1.0144 -0.2927
 2756SOL    HW219905   0.962   4.709   8.408 -0.8635 -1.0392 -0.5051
 2757SOL     OW19906   1.204   3.439   9.338  0.5738  0.0238  0.0645
 2757SOL    HW119907   1.166   3.380   9.403 -0.6214 -0.6891 -1.2755
 2757SOL    HW219908   1.204   3.387   9.258  2.5184  0.6258 -0.3229
 2758SOL     OW19909   3.503   1.464  11.647 -0.2485 -0.2545  0.5438
 2758SOL    HW119910   3.546   1.549  11.660  2.6323 -1.7396  0.6418
 2758SOL    HW219911   3.412   1.483  11.671 -0.2644 -1.5867  1.4682
 2759SOL     OW19912   2.874   3.609  10.633 -1.0061  0.0899 -0.5519
 2759SOL    HW119913   2.820   3.631  10.709  0.8893  0.7362  0.6284
 2759SOL    HW219914   2.826   3.657  10.565 -1.2133 -1.7931 -1.7206
 2760SOL     OW19915   0.138   2.601   3.908  0.0909  0.5266  0.3038
 2760SOL    HW119916   0.093   2.627   3.988  0.6081 -0.7482  0.9949
 2760SOL    HW219917   0.160   2.509   3.919  2.4897  0.9186 -1.0837
 2761SOL     OW19918   2.146   3.973   8.678 -0.1088 -0.3076 -0.5110
 2761SOL    HW119919   2.138   3.879   8.660 -1.3400  0.0066 -1.6754
 2761SOL    HW219920   2.237   3.996   8.661  0.2684 -2.3341 -1.2382
 2762SOL     OW19921   2.110   2.863   0.820  0.4285  0.8959  0.2551
 2762SOL    HW119922   2.162   2.942   0.810  0.0791  1.1045  0.0851
 2762SOL    HW219923   2.043   2.888   0.884 -0.4963 -0.9327 -0.0073
 2763SOL     OW19924   2.601   3.336   2.992 -0.2383 -0.0660 -0.2380
 2763SOL    HW119925   2.510   3.307   2.993 -0.3767  0.3973  0.0792
 2763SOL    HW219926   2.598   3.425   3.025 -0.3062  0.0560 -0.5746
 2764SOL     OW19927   3.170   0.674  11.636 -0.1328 -0.1953 -0.0927
 2764SOL    HW119928   3.245   0.715  11.594 -1.0545 -0.8014 -2.3047
 2764SOL    HW219929   3.103   0.698  11.573  0.5028 -0.8073 -1.0007
 2765SOL     OW19930   4.443   3.323   7.329 -0.4685  0.8084 -0.1646
 2765SOL    HW119931   4.353   3.349   7.305 -1.3391 -0.3705  1.8629
 2765SOL    HW219932   4.440   3.340   7.423 -1.2235  0.0151 -0.0466
 2766SOL     OW19933   1.913   2.350  15.326 -0.7985 -0.1804  0.4645
 2766SOL    HW119934   1.837   2.370  15.272 -0.3128 -0.3932 -0.3018
 2766SOL    HW219935   1.889   2.380  15.413 -0.1849  2.4145 -0.2339
 2767SOL     OW19936   4.440   0.135   8.700 -0.0156 -0.7755 -0.3016
 2767SOL    HW119937   4.421   0.050   8.741 -1.2109 -0.4290 -0.1359
 2767SOL    HW219938   4.476   0.102   8.618  0.3686  0.6968 -0.7216
 2768SOL     OW19939   3.329   4.647  10.485  0.3928  0.2473 -0.1365
 2768SOL    HW119940   3.276   4.680  10.558 -1.1858 -3.9252  0.5770
 2768SOL    HW219941   3.332   4.553  10.503 -0.3833 -0.0344 -1.5216
 2769SOL     OW19942   0.099   3.201   3.659 -0.2353  0.5963  0.5083
 2769SOL    HW119943   0.063   3.237   3.578  0.5053 -0.8216 -0.4341
 2769SOL    HW219944   0.133   3.115   3.634 -2.1130  0.0218 -0.0587
 2770SOL     OW19945   4.549   3.936  14.969 -0.2419 -0.0091  0.6781
 2770SOL    HW119946   4.578   4.012  15.019  0.6687 -0.2530  0.5203
 2770SOL    HW219947   4.538   3.872  15.039 -0.3346 -0.8564 -0.1086
 2771SOL     OW19948   0.209   2.701   6.817 -0.0747  0.7235 -0.2258
 2771SOL    HW119949   0.187   2.659   6.734  2.3859 -2.1659  0.5702
 2771SOL    HW219950   0.200   2.795   6.800 -0.5312  0.3589 -1.9823
 2772SOL     OW19951   4.255   4.669   3.688 -0.2299 -0.5347 -0.6785
 2772SOL    HW119952   4.317   4.598   3.669  1.2868  0.0289  2.0657
 2772SOL    HW219953   4.169   4.632   3.671 -1.0730  0.5248  1.2816
 2773SOL     OW19954   1.231   3.003   4.931  0.6921 -0.3910 -0.2233
 2773SOL    HW119955   1.289   2.961   4.995  0.6739 -1.8475 -1.1567
 2773SOL    HW219956   1.194   3.081   4.973 -1.5922 -0.6108 -1.8022
 2774SOL     OW19957   4.357   4.152   7.790  0.4604  0.0221  0.7582
 2774SOL    HW119958   4.271   4.145   7.830 -0.4301 -0.0818 -1.1698
 2774SOL    HW219959   4.374   4.246   7.788 -5.1701  1.0187  0.5416
 2775SOL     OW19960   3.898   4.351  14.527 -0.2466  0.0616  0.6909
 2775SOL    HW119961   3.976   4.386  14.483 -0.8872  0.3349 -0.2150
 2775SOL    HW219962   3.858   4.423  14.575 -1.6406 -0.1583 -0.1593
 2776SOL     OW19963   1.392   2.288   7.883  0.6419  0.5525  0.2325
 2776SOL    HW119964   1.309   2.307   7.840  0.3140  0.6170  0.9077
 2776SOL    HW219965   1.399   2.364   7.941  1.7078  0.8624 -0.2946
 2777SOL     OW19966   1.639   2.370   6.119  0.2127  0.1722 -0.0474
 2777SOL    HW119967   1.727   2.331   6.115 -0.9383 -2.7966  2.8588
 2777SOL    HW219968   1.640   2.415   6.204  2.2631  1.8055 -0.9258
 2778SOL     OW19969   3.706   2.914  16.234  0.1551 -0.0686 -0.1077
 2778SOL    HW119970   3.800   2.902  16.246 -0.0985 -0.8492  1.1309
 2778SOL    HW219971   3.708   2.955  16.148  2.7572  0.1028  0.0413
 2779SOL     OW19972   4.507   1.159  11.510 -0.0538  0.5918 -0.2694
 2779SOL    HW119973   4.556   1.093  11.559  0.5544  0.8911 -0.4822
 2779SOL    HW219974   4.438   1.107  11.469  1.3447 -1.3167 -0.1772
 2780SOL     OW19975   3.344   3.790   6.403  0.3035  0.6280  0.1199
 2780SOL    HW119976   3.307   3.861   6.351 -0.8398 -0.7407 -0.9129
 2780SOL    HW219977   3.434   3.792   6.373  0.2103 -1.8483 -0.3544
 2781SOL     OW19978   1.329   2.550   8.910 -0.5037 -0.2975 -0.0453
 2781SOL    HW119979   1.394   2.607   8.869  1.6395 -1.5676  1.5928
 2781SOL    HW219980   1.296   2.604   8.983  3.1848  2.6629 -0.5762
 2782SOL     OW19981   2.418   0.203  15.560 -0.4127 -0.2767  0.4277
 2782SOL    HW119982   2.470   0.273  15.520  0.7313 -1.6675 -0.4948
 2782SOL    HW219983   2.421   0.140  15.488  0.8302  0.3849 -0.1013
 2783SOL     OW19984   3.154   3.360   1.362 -0.2440 -0.0299  0.0578
 2783SOL    HW119985   3.170   3.284   1.305 -0.5944  0.9904 -1.3889
 2783SOL    HW219986   3.167   3.433   1.301  1.4416  1.2235  1.9351
 2784SOL     OW19987   3.152   3.816   5.260  0.6762  0.0648 -0.6770
 2784SOL    HW119988   3.193   3.749   5.205  0.1714 -0.7798 -0.0164
 2784SOL    HW219989   3.118   3.868   5.187  0.6558 -2.5967 -2.6069
 2785SOL     OW19990   4.071   4.604   1.563 -0.1324 -0.1611 -0.1001
 2785SOL    HW119991   3.982   4.584   1.591  0.8034 -1.0674  2.1799
 2785SOL    HW219992   4.123   4.535   1.605  0.8801  0.2368 -0.6856
 2786SOL     OW19993   1.279   1.442   2.367 -0.3872 -0.0367  0.3905
 2786SOL    HW119994   1.363   1.425   2.323  0.1393  1.8492  0.6829
 2786SOL    HW219995   1.268   1.367   2.425  0.6253  2.4767  3.8402
 2787SOL     OW19996   4.473   3.223   1.326 -0.5696 -0.3259 -1.0196
 2787SOL    HW119997   4.515   3.178   1.252  2.1212  0.4083  0.0547
 2787SOL    HW219998   4.470   3.152   1.389  0.1868  0.5145 -0.0250
 2788SOL     OW19999   1.863   0.988   3.854  0.3604 -0.0182  0.4855
 2788SOL    HW120000   1.935   0.994   3.916 -0.4088  1.9961  1.2028
 2788SOL    HW220001   1.890   0.914   3.800  1.3029 -0.1061  1.0862
 2789SOL     OW20002   2.595   3.109  13.893  0.0289  0.0337  0.1391
 2789SOL    HW120003   2.620   3.083  13.981 -2.6835 -0.0767  0.8567
 2789SOL    HW220004   2.662   3.060  13.845  0.4236  0.0392  0.6912
 2790SOL     OW20005   1.087   2.303  12.092  0.8842  0.0192  0.1998
 2790SOL    HW120006   1.119   2.313  12.003 -0.5648  0.4007 -0.2733
 2790SOL    HW220007   1.077   2.396  12.113 -1.0755 -0.1850  0.1614
 2791SOL     OW20008   4.224   3.323   5.073 -0.3199 -0.8676 -0.1863
 2791SOL    HW120009   4.168   3.376   5.130 -1.7542 -2.1955 -0.3533
 2791SOL    HW220010   4.197   3.235   5.100 -0.2864 -0.9140 -0.3052
 2792SOL     OW20011   0.341   3.963   5.628  0.1524  0.0696  0.1726
 2792SOL    HW120012   0.332   4.020   5.704 -3.1065  0.0716 -0.2045
 2792SOL    HW220013   0.251   3.932   5.621 -0.1855  1.2933 -1.1078
 2793SOL     OW20014   4.011   0.121   9.912  0.6554  0.4935  0.2557
 2793SOL    HW120015   3.983   0.207   9.880  0.5985  0.2330 -0.4010
 2793SOL    HW220016   4.088   0.155   9.957 -0.4360 -1.0897  3.3246
 2794SOL     OW20017   3.723   4.658  16.968  0.4381 -0.0726  0.4290
 2794SOL    HW120018   3.671   4.579  16.977 -0.2855  0.3313 -0.1524
 2794SOL    HW220019   3.740   4.661  17.062 -2.1883  2.4135  0.8052
 2795SOL     OW20020   1.819   2.831  17.227  0.1365  0.0314 -0.0570
 2795SOL    HW120021   1.773   2.911  17.252 -0.9607 -1.1590  1.7788
 2795SOL    HW220022   1.804   2.824  17.133 -1.4401  0.4801  0.1592
 2796SOL     OW20023   0.186   0.265   8.562  0.0532 -0.2881 -0.3888
 2796SOL    HW120024   0.191   0.251   8.656 -1.7176 -1.2927 -0.4386
 2796SOL    HW220025   0.197   0.176   8.529 -1.0266 -0.9000  0.8970
 2797SOL     OW20026   3.748   0.921   0.226  0.1951 -0.5225  0.3414
 2797SOL    HW120027   3.834   0.928   0.268  1.6378 -1.4674 -2.4719
 2797SOL    HW220028   3.772   0.958   0.141  1.3232  1.5417  1.5675
 2798SOL     OW20029   1.637   0.039   4.010  0.3343  0.5428 -0.8358
 2798SOL    HW120030   1.600   0.042   3.922 -1.8879  0.1848  0.0903
 2798SOL    HW220031   1.614   0.121   4.054 -2.4078 -0.3012 -0.6770
 2799SOL     OW20032   0.775   2.330   3.815  0.2032  0.5541 -0.0534
 2799SOL    HW120033   0.731   2.364   3.893  0.3550 -0.8152  0.6392
 2799SOL    HW220034   0.863   2.335   3.854  0.6802 -1.3253 -0.9129
 2800SOL     OW20035   3.893   1.722   5.561  0.2310 -0.3979  0.1203
 2800SOL    HW120036   3.918   1.780   5.633 -0.9673  0.4035 -0.0976
 2800SOL    HW220037   3.861   1.645   5.607 -0.5902 -0.2426 -0.1821
 2801SOL     OW20038   3.207   4.653   3.590  0.7626 -0.5456  0.1909
 2801SOL    HW120039   3.215   4.611   3.675 -0.3392 -0.0335  0.5498
 2801SOL    HW220040   3.201   0.011   3.611 -1.4513 -0.7534  0.4717
 2802SOL     OW20041   1.145   1.866   1.351 -0.4990  0.9316 -0.2269
 2802SOL    HW120042   1.125   1.959   1.365 -1.7938  0.4253  1.1909
 2802SOL    HW220043   1.073   1.851   1.289 -1.3051 -0.4965  1.0813
 2803SOL     OW20044   2.902   3.096   2.157 -0.3753  0.6736  0.3542
 2803SOL    HW120045   2.968   3.109   2.225  1.5383  0.2144 -1.4372
 2803SOL    HW220046   2.930   3.009   2.128 -0.9823  0.6801 -0.2524
 2804SOL     OW20047   0.921   3.447   7.116 -0.1370 -0.0079  0.2914
 2804SOL    HW120048   0.841   3.396   7.128 -0.6009  0.3919 -1.0135
 2804SOL    HW220049   0.909   3.505   7.191  0.2548 -2.4906  2.2859
 2805SOL     OW20050   0.493   0.219  15.167 -0.8170  0.2380  0.4671
 2805SOL    HW120051   0.421   0.270  15.205 -1.0178 -0.4770  1.0589
 2805SOL    HW220052   0.556   0.234  15.237  1.0886  0.0690 -1.2028
 2806SOL     OW20053   1.093   0.118  11.086 -0.1502 -0.1894 -0.3448
 2806SOL    HW120054   1.076   0.118  11.181 -1.6670 -0.5053 -0.6213
 2806SOL    HW220055   1.023   0.173  11.050  0.2444  0.7129  0.2650
 2807SOL     OW20056   3.826   4.688   3.183 -1.1448 -0.1048 -0.6058
 2807SOL    HW120057   3.800   4.596   3.171  2.1861 -1.1666  0.1809
 2807SOL    HW220058   3.903   4.675   3.239 -0.2507 -0.8816 -1.9957
 2808SOL     OW20059   1.987   2.404  13.390 -0.4271  0.2366 -0.1973
 2808SOL    HW120060   1.979   2.436  13.300 -0.6259  0.2496 -0.1748
 2808SOL    HW220061   1.943   2.320  13.374  0.5823  0.0539 -2.0167
 2809SOL     OW20062   0.347   2.001   1.541  0.2112  0.6779  0.5051
 2809SOL    HW120063   0.397   1.967   1.466  0.7250  0.0351  1.1347
 2809SOL    HW220064   0.274   1.939   1.548  1.2396 -0.8736 -2.4263
 2810SOL     OW20065   3.975   4.130   7.238  0.3451 -0.0611 -0.4278
 2810SOL    HW120066   3.930   4.075   7.302  0.2160  1.5894  0.9115
 2810SOL    HW220067   4.045   4.155   7.298 -0.4857  2.8016 -0.6716
 2811SOL     OW20068   3.131   1.754   3.951  0.0174  0.5699 -0.2210
 2811SOL    HW120069   3.133   1.717   4.039 -1.1193  0.1779 -0.3625
 2811SOL    HW220070   3.150   1.847   3.963  0.4152  0.5513 -0.6924
 2812SOL     OW20071   0.613   3.993   1.191  0.2049 -0.1359  0.1105
 2812SOL    HW120072   0.689   4.040   1.225  0.2588 -0.7965  0.9164
 2812SOL    HW220073   0.623   3.978   1.097  2.5957  0.4016  0.2838
 2813SOL     OW20074   2.976   0.667   6.897  0.0874 -0.0738  0.5171
 2813SOL    HW120075   2.889   0.657   6.858  0.5452  2.8749 -1.2212
 2813SOL    HW220076   3.011   0.718   6.824  1.1451  1.4328  2.0626
 2814SOL     OW20077   0.044   2.937   3.132 -0.5035  0.1747  0.2853
 2814SOL    HW120078   4.693   2.920   3.094 -0.7826  0.5882  0.7264
 2814SOL    HW220079   0.099   2.866   3.097  0.3943  0.7714  0.4880
 2815SOL     OW20080   0.831   1.832   1.361 -0.1225 -0.5750 -0.0546
 2815SOL    HW120081   0.825   1.923   1.389 -2.4327 -0.7839  0.1082
 2815SOL    HW220082   0.823   1.793   1.447  0.9350 -1.0836 -0.1762
 2816SOL     OW20083   0.566   1.957   1.723 -0.0303  0.5401  0.0148
 2816SOL    HW120084   0.635   2.022   1.708  1.6026 -0.8941  1.2250
 2816SOL    HW220085   0.490   1.990   1.676 -1.6814 -0.8733  1.6704
 2817SOL     OW20086   2.117   0.450   6.645  0.4835 -0.4199 -0.0686
 2817SOL    HW120087   2.073   0.422   6.725 -0.8204 -2.4091 -1.4900
 2817SOL    HW220088   2.166   0.526   6.677 -0.6431 -0.1171  0.9475
 2818SOL     OW20089   3.377   2.766  17.672 -0.5369 -0.3486  0.0065
 2818SOL    HW120090   3.459   2.775  17.721 -1.0231  3.4026  0.1926
 2818SOL    HW220091   3.399   2.834  17.608 -1.2612 -2.0371 -2.0428
 2819SOL     OW20092   4.097   0.747   2.677  0.3629 -0.1855  0.0264
 2819SOL    HW120093   4.017   0.701   2.703 -2.0101  5.0244  1.8772
 2819SOL    HW220094   4.154   0.721   2.749 -0.2828  1.1469  1.0182
 2820SOL     OW20095   3.954   1.699  10.458  0.7298 -0.1899  0.0250
 2820SOL    HW120096   4.014   1.625  10.464  3.2215  1.8416 -0.1819
 2820SOL    HW220097   3.976   1.730  10.370  0.3875 -1.0257 -0.3670
 2821SOL     OW20098   4.599   4.000   8.769  0.1340  0.1244 -0.4874
 2821SOL    HW120099   4.519   3.981   8.818  0.4084 -1.3438 -0.6104
 2821SOL    HW220100   4.638   3.912   8.768 -0.5466 -0.1810  1.2530
 2822SOL     OW20101   3.717   2.492  12.797 -0.3446 -0.2270 -0.0405
 2822SOL    HW120102   3.768   2.572  12.788  1.7353 -1.5891 -0.4164
 2822SOL    HW220103   3.693   2.500  12.889  1.8922 -0.6275  0.5622
 2823SOL     OW20104   1.071   3.839   6.262 -0.1999 -0.1798  0.1550
 2823SOL    HW120105   0.983   3.873   6.251 -0.3838 -0.1022  1.9089
 2823SOL    HW220106   1.086   3.862   6.354 -0.0348  1.8921 -0.4051
 2824SOL     OW20107   3.115   0.930   2.598 -0.1985  0.3382 -0.5876
 2824SOL    HW120108   3.020   0.939   2.591 -0.4018 -0.9077  0.7108
 2824SOL    HW220109   3.130   0.840   2.571 -0.3383  0.3730 -0.7806
 2825SOL     OW20110   4.423   0.897   1.320 -0.6328  0.9303  0.0081
 2825SOL    HW120111   4.427   0.928   1.230 -0.9116  1.6498  0.2445
 2825SOL    HW220112   4.347   0.840   1.314 -0.7072  0.9360  0.8648
 2826SOL     OW20113   0.407   1.301   6.936 -0.8265 -0.1477  0.1655
 2826SOL    HW120114   0.396   1.360   6.862  0.8797  0.5114  0.4518
 2826SOL    HW220115   0.497   1.316   6.964 -0.8931 -0.0211  0.3100
 2827SOL     OW20116   0.422   0.896   4.575 -0.3209 -0.5239 -0.0474
 2827SOL    HW120117   0.482   0.956   4.620 -3.5964 -0.2090  3.9057
 2827SOL    HW220118   0.484   0.832   4.543 -0.5721 -0.0049 -1.5683
 2828SOL     OW20119   2.462   3.891   5.121  0.5135  0.3027  0.1330
 2828SOL    HW120120   2.538   3.947   5.105  0.4788 -0.2446 -2.0534
 2828SOL    HW220121   2.395   3.932   5.066  1.3276  0.7232 -0.5662
 2829SOL     OW20122   3.662   2.783   2.939  0.0266 -0.6483  0.4371
 2829SOL    HW120123   3.696   2.696   2.918 -1.8818 -1.2832 -0.0285
 2829SOL    HW220124   3.721   2.794   3.014  0.1138  0.1670  0.2555
 2830SOL     OW20125   2.205   1.808  10.650  0.5964  1.1710  0.1710
 2830SOL    HW120126   2.267   1.872  10.687  1.4643  0.4026  0.0582
 2830SOL    HW220127   2.119   1.839  10.676  0.0472 -0.5058  0.3105
 2831SOL     OW20128   0.509   4.378   4.474 -0.3491  0.0935 -0.1559
 2831SOL    HW120129   0.477   4.376   4.384 -0.8695  3.0246 -0.0558
 2831SOL    HW220130   0.444   4.426   4.526  0.2960  0.4745  0.2987
 2832SOL     OW20131   0.319   2.769   4.441  0.3216  0.3790 -0.0055
 2832SOL    HW120132   0.223   2.776   4.437  0.3558  0.8522 -0.0179
 2832SOL    HW220133   0.330   2.676   4.419 -1.0478  0.2316 -0.1110
 2833SOL     OW20134   0.510   0.123   4.967 -0.1804  0.7024  0.6926
 2833SOL    HW120135   0.420   0.116   4.936 -0.0773  1.5495  0.1828
 2833SOL    HW220136   0.518   0.048   5.025 -0.3538 -0.9007 -1.3675
 2834SOL     OW20137   2.077   0.166   5.776  0.4847  0.0561 -0.1099
 2834SOL    HW120138   2.119   0.249   5.794  1.2398 -0.8728  2.4313
 2834SOL    HW220139   2.098   0.163   5.683  0.9023 -0.8184  0.0105
 2835SOL     OW20140   3.136   0.719   2.426 -0.2684  0.2318 -1.0410
 2835SOL    HW120141   3.063   0.715   2.364 -0.8446 -0.1530 -0.3384
 2835SOL    HW220142   3.169   0.630   2.433  0.1568  0.5605  1.1574
 2836SOL     OW20143   2.378   3.912   4.115  0.4261  0.0422 -0.5909
 2836SOL    HW120144   2.401   3.931   4.206  0.9917  0.2142 -0.7736
 2836SOL    HW220145   2.399   3.992   4.067 -0.0110  0.1454 -0.6091
 2837SOL     OW20146   1.505   0.895   6.784  0.1047 -0.5012 -0.0228
 2837SOL    HW120147   1.520   0.988   6.797  3.0569 -0.9164 -0.5450
 2837SOL    HW220148   1.521   0.886   6.690  0.3422  0.0557 -0.0324
 2838SOL     OW20149   1.977   3.321   6.018 -0.4263  0.0862 -0.3037
 2838SOL    HW120150   2.071   3.311   6.001 -0.5660  0.1255 -1.1278
 2838SOL    HW220151   1.987   3.337   6.112  1.1432  0.2687 -0.4928
 2839SOL     OW20152   4.560   3.035   6.503 -0.4368  0.0548  0.0546
 2839SOL    HW120153   4.501   3.106   6.528 -1.2041 -0.8623  0.8254
 2839SOL    HW220154   4.612   3.081   6.437 -0.0549  1.7586  1.5213
 2840SOL     OW20155   4.731   4.513   7.922  0.0418 -0.1612 -0.3594
 2840SOL    HW120156   0.001   4.420   7.945  0.7944 -0.6946 -2.6916
 2840SOL    HW220157   4.637   4.522   7.938 -0.0356 -0.8014 -0.4576
 2841SOL     OW20158   0.701   0.258  14.567  0.0263  0.7428 -0.3337
 2841SOL    HW120159   0.728   0.339  14.611 -0.8702  0.3134  1.0076
 2841SOL    HW220160   0.614   0.279  14.532 -0.0842  2.1941  0.7900
 2842SOL     OW20161   3.300   3.232   6.836 -0.4959  0.0214 -0.8820
 2842SOL    HW120162   3.219   3.184   6.853 -0.5872  0.4812 -0.0541
 2842SOL    HW220163   3.358   3.172   6.884 -2.1425 -0.9571 -0.1224
 2843SOL     OW20164   2.834   3.445   0.292 -0.6105 -0.3136 -0.0546
 2843SOL    HW120165   2.899   3.376   0.299 -1.1131 -0.7087  0.8466
 2843SOL    HW220166   2.826   3.451   0.197  0.4867 -1.4627 -0.2210
 2844SOL     OW20167   2.085   0.488   4.945 -0.3315  0.0235 -0.1439
 2844SOL    HW120168   2.174   0.508   4.974 -0.0039 -0.8853 -0.5318
 2844SOL    HW220169   2.039   0.572   4.947 -0.5807 -0.1629  1.6549
 2845SOL     OW20170   2.644   0.312   3.296 -0.5594  0.4800 -0.6477
 2845SOL    HW120171   2.669   0.398   3.261  1.0620  0.7894  1.2818
 2845SOL    HW220172   2.637   0.339   3.388  1.4224 -0.3868 -0.2483
 2846SOL     OW20173   3.498   0.501   0.090 -0.0367 -0.7945  0.3604
 2846SOL    HW120174   3.434   0.535   0.028  0.2204 -3.6746 -1.4844
 2846SOL    HW220175   3.520   0.571   0.152  0.9581 -1.0684  0.3153
 2847SOL     OW20176   3.258   3.125  10.311  0.3372 -0.3621  0.1129
 2847SOL    HW120177   3.353   3.134  10.320  0.2406 -2.4208  3.0255
 2847SOL    HW220178   3.247   3.190  10.241  1.4105 -0.4246 -0.1170
 2848SOL     OW20179   4.390   3.592   5.957  0.0239  0.4720 -0.1775
 2848SOL    HW120180   4.352   3.511   5.923  1.3586 -0.0739 -0.3511
 2848SOL    HW220181   4.370   3.585   6.050  2.8288  0.8467  0.4464
 2849SOL     OW20182   3.964   0.688   3.075 -0.0295 -0.0388  0.2008
 2849SOL    HW120183   4.009   0.750   3.017  0.2591  0.8132  1.3227
 2849SOL    HW220184   4.027   0.616   3.073 -0.4253 -0.3246 -1.4891
 2850SOL     OW20185   1.048   1.563   3.693  0.2234  0.5966  0.6165
 2850SOL    HW120186   1.086   1.608   3.617  1.3157 -1.0108  0.2011
 2850SOL    HW220187   1.091   1.601   3.770 -2.8028  0.6909  2.2625
 2851SOL     OW20188   2.643   4.155   9.533 -0.1692 -0.1299  0.6260
 2851SOL    HW120189   2.564   4.177   9.583  0.4701  0.9721  1.1523
 2851SOL    HW220190   2.670   4.091   9.599 -1.7362 -0.4496  0.9631
 2852SOL     OW20191   3.353   3.486  14.009  0.3603 -0.2654 -0.2682
 2852SOL    HW120192   3.369   3.444  13.924 -0.0382 -1.8546  0.4339
 2852SOL    HW220193   3.346   3.403  14.057  1.5569 -0.3294 -0.2046
 2853SOL     OW20194   0.241   2.700   2.520  1.0863  0.3657 -0.4098
 2853SOL    HW120195   0.250   2.735   2.608  0.4332 -0.5542  0.0347
 2853SOL    HW220196   0.215   2.776   2.468  1.3031 -0.3242 -1.5322
 2854SOL     OW20197   1.550   3.760  16.352  0.2236  0.2846  0.1987
 2854SOL    HW120198   1.574   3.841  16.307 -0.5444  0.1258 -0.4934
 2854SOL    HW220199   1.498   3.802  16.420  0.1012  1.0094 -0.3386
 2855SOL     OW20200   2.006   1.678  10.907  0.1685 -0.1650 -0.2561
 2855SOL    HW120201   2.042   1.766  10.900  1.1927 -0.6908 -1.5892
 2855SOL    HW220202   1.914   1.699  10.925  0.7462  1.4356  0.8316
 2856SOL     OW20203   1.453   4.320   3.778  0.3122 -0.0860  0.1796
 2856SOL    HW120204   1.367   4.300   3.741  1.1009 -0.7474 -1.2787
 2856SOL    HW220205   1.506   4.347   3.703 -0.9575 -1.6933 -1.2912
 2857SOL     OW20206   2.912   3.914   4.994  0.2442 -0.6823 -0.5603
 2857SOL    HW120207   2.897   3.823   5.022  1.4955 -0.5715  0.4483
 2857SOL    HW220208   2.918   3.909   4.898 -0.8633 -2.4272 -0.5517
 2858SOL     OW20209   4.193   4.424  14.443 -0.7023  0.3727 -0.9529
 2858SOL    HW120210   4.265   4.443  14.383 -1.0684  0.6418 -1.3066
 2858SOL    HW220211   4.226   4.342  14.479 -0.1406  0.7629 -0.5739
 2859SOL     OW20212   4.572   4.663   8.220  0.3473  0.2095 -0.3871
 2859SOL    HW120213   4.615   4.577   8.228 -1.7292 -0.7979  0.0379
 2859SOL    HW220214   4.512   4.640   8.149 -2.6543 -0.1314  2.2825
 2860SOL     OW20215   2.634   3.534   2.615  0.2421  0.0252 -0.4267
 2860SOL    HW120216   2.599   3.447   2.599  2.1067 -0.6674 -0.7549
 2860SOL    HW220217   2.729   3.532   2.600  0.6018  3.1847  1.3730
 2861SOL     OW20218   2.570   2.805  11.700  0.5215 -0.0062  0.1451
 2861SOL    HW120219   2.600   2.730  11.751 -1.2588 -1.5942 -1.1467
 2861SOL    HW220220   2.652   2.825  11.655  1.7932 -2.0523  1.5119
 2862SOL     OW20221   0.927   3.424   9.682  0.3482  0.0238 -0.6369
 2862SOL    HW120222   0.998   3.371   9.647 -0.2980 -1.3522  0.1422
 2862SOL    HW220223   0.953   3.513   9.658 -2.1004  1.2635  1.3911
 2863SOL     OW20224   3.652   3.653   4.517  0.3070  0.1708 -0.0219
 2863SOL    HW120225   3.608   3.677   4.598  0.1138  0.0580 -0.0925
 2863SOL    HW220226   3.714   3.726   4.519 -0.4047  0.8028 -0.9278
 2864SOL     OW20227   4.381   3.781   2.426 -0.1431 -0.9068 -0.0768
 2864SOL    HW120228   4.392   3.870   2.460  0.3002 -0.2331 -1.9781
 2864SOL    HW220229   4.471   3.758   2.404 -0.5437 -0.2442 -2.3900
 2865SOL     OW20230   0.118   1.940   6.889 -0.2189  0.0914 -0.4642
 2865SOL    HW120231   0.075   2.015   6.930  1.6136  0.4347  0.8651
 2865SOL    HW220232   0.098   1.875   6.956 -0.6113  0.2438 -0.4362
 2866SOL     OW20233   1.448   4.363   5.190  0.1557  0.1735  0.0349
 2866SOL    HW120234   1.448   4.412   5.272 -0.6917 -1.2200  0.8672
 2866SOL    HW220235   1.534   4.380   5.151  0.8809 -1.8591  0.7349
 2867SOL     OW20236   3.678   3.997  16.713 -0.5610  0.1539 -0.4726
 2867SOL    HW120237   3.697   3.919  16.766 -2.7971 -1.3739 -1.9121
 2867SOL    HW220238   3.612   3.968  16.651 -1.1552 -0.3897  0.4153
 2868SOL     OW20239   1.788   0.868  14.578 -0.7726  0.2657  0.2464
 2868SOL    HW120240   1.852   0.930  14.612 -1.1794  0.1862  1.1617
 2868SOL    HW220241   1.706   0.916  14.565 -0.6878  0.4814  0.5201
 2869SOL     OW20242   4.548   0.349   2.339 -0.1617  0.4001  0.6813
 2869SOL    HW120243   4.634   0.328   2.305 -0.7747 -1.6305  0.3940
 2869SOL    HW220244   4.505   0.377   2.258 -2.6889 -1.5254  1.3610
 2870SOL     OW20245   3.871   3.500   1.895 -0.8974  0.4957 -0.0446
 2870SOL    HW120246   3.822   3.578   1.867  2.0928  2.6930  0.8389
 2870SOL    HW220247   3.962   3.520   1.872 -1.0961  0.1534 -1.1024
 2871SOL     OW20248   1.382   3.840   6.768 -0.1698 -0.5231  0.4720
 2871SOL    HW120249   1.304   3.809   6.814 -0.9154 -0.4195 -0.7422
 2871SOL    HW220250   1.409   3.764   6.716  1.2776 -0.4555  1.1256
 2872SOL     OW20251   0.422   2.846   6.121  0.0269 -0.3163  0.0074
 2872SOL    HW120252   0.365   2.807   6.187 -1.2040  1.0880 -0.2376
 2872SOL    HW220253   0.410   2.783   6.050 -4.2804  0.5625 -0.0218
 2873SOL     OW20254   0.607   1.268   5.810 -0.2581 -0.5512 -0.4659
 2873SOL    HW120255   0.571   1.191   5.767 -2.6001 -0.1085  0.7155
 2873SOL    HW220256   0.532   1.288   5.865  0.2675  0.7131 -0.2163
 2874SOL     OW20257   1.427   1.411   1.918 -0.0255  0.2266  0.1965
 2874SOL    HW120258   1.387   1.372   1.996 -2.4437  0.4799 -0.9133
 2874SOL    HW220259   1.360   1.403   1.849  0.7547 -0.8377 -0.4453
 2875SOL     OW20260   2.929   1.957  12.206 -0.2661  0.3378  0.6387
 2875SOL    HW120261   2.835   1.964  12.222 -0.8311  0.7606 -2.8363
 2875SOL    HW220262   2.958   1.998  12.288  1.5284  1.8676 -0.7558
 2876SOL     OW20263   2.508   2.070  15.938 -0.5457 -0.5894  0.4460
 2876SOL    HW120264   2.510   2.039  15.848  1.7331 -1.1728  0.6805
 2876SOL    HW220265   2.430   2.027  15.974 -1.6559  0.7036 -0.4136
 2877SOL     OW20266   1.944   0.866  16.180 -0.6936  0.0727 -0.8899
 2877SOL    HW120267   1.928   0.866  16.274 -1.5395  1.5259 -1.0335
 2877SOL    HW220268   1.863   0.897  16.140 -0.7583  0.3980 -0.5071
 2878SOL     OW20269   2.402   0.174   3.928 -0.0732 -0.0768 -0.1271
 2878SOL    HW120270   2.388   0.234   4.001  0.7191 -0.5077  0.3694
 2878SOL    HW220271   2.358   0.216   3.854 -0.8468  1.5423  1.2673
 2879SOL     OW20272   1.796   0.003  15.075  0.3676 -0.5465  0.1463
 2879SOL    HW120273   1.738   0.079  15.073  1.1664  0.0586 -0.1647
 2879SOL    HW220274   1.735   4.666  15.091  0.6824 -0.5592  1.2873
 2880SOL     OW20275   0.952   2.547   2.297  0.2093  0.1175  0.2023
 2880SOL    HW120276   0.923   2.635   2.321 -1.0268 -0.6293  1.4162
 2880SOL    HW220277   0.889   2.530   2.228  0.0171 -2.2080  0.9513
 2881SOL     OW20278   2.234   0.367   7.213 -0.2736 -0.0928  0.4801
 2881SOL    HW120279   2.249   0.454   7.251 -0.6634  0.3660 -0.4080
 2881SOL    HW220280   2.256   0.385   7.121  0.2150 -0.1687  0.5815
 2882SOL     OW20281   1.787   2.789   6.007 -0.0208  0.1000  0.0196
 2882SOL    HW120282   1.865   2.739   6.032 -0.5860 -0.5199  0.5323
 2882SOL    HW220283   1.738   2.720   5.961 -1.5536 -0.0296  1.8547
 2883SOL     OW20284   2.787   3.346   4.240  0.2467 -0.1233 -0.9085
 2883SOL    HW120285   2.748   3.401   4.172 -2.0040  1.4965  1.7029
 2883SOL    HW220286   2.872   3.387   4.261 -0.2867  1.9050 -2.7053
 2884SOL     OW20287   3.971   0.812   1.157 -1.0244 -0.1933 -0.5048
 2884SOL    HW120288   3.976   0.729   1.110 -2.0796 -0.0163 -0.9283
 2884SOL    HW220289   3.995   0.879   1.093  1.7228 -1.1621 -0.5003
 2885SOL     OW20290   0.096   4.323   5.596  0.0358  0.1596  0.7430
 2885SOL    HW120291   0.160   4.259   5.627 -0.8864 -1.2195 -0.2089
 2885SOL    HW220292   0.069   4.282   5.514 -0.9307 -2.7846  2.5449
 2886SOL     OW20293   2.179   0.684   2.967  0.1074 -0.1770 -0.1934
 2886SOL    HW120294   2.103   0.722   2.925  1.2749  2.1555 -0.2233
 2886SOL    HW220295   2.140   0.681   3.054  0.1056  2.2491 -0.0927
 2887SOL     OW20296   3.972   2.940  16.237  0.0522  0.2154  0.4414
 2887SOL    HW120297   4.000   2.848  16.241  2.1961  0.8379 -0.3120
 2887SOL    HW220298   4.054   2.979  16.208  0.5984 -0.3125  1.2927
 2888SOL     OW20299   3.170   0.403   4.311  0.1973  0.6695  0.4129
 2888SOL    HW120300   3.155   0.315   4.345 -2.3851  0.7716 -0.4561
 2888SOL    HW220301   3.250   0.377   4.265  0.1607 -0.0992  0.7882
 2889SOL     OW20302   4.189   2.990   2.085  0.6863 -0.1049 -0.2106
 2889SOL    HW120303   4.180   3.029   2.172 -2.2255  0.3806 -0.7405
 2889SOL    HW220304   4.187   2.896   2.103  0.0933  0.7084  3.9135
 2890SOL     OW20305   0.460   4.316   8.346 -0.3446 -0.1387  0.1151
 2890SOL    HW120306   0.442   4.224   8.363 -0.8396  0.0034  0.3607
 2890SOL    HW220307   0.550   4.324   8.377  0.8717  1.1051 -3.8386
 2891SOL     OW20308   2.753   3.681   9.536 -0.6395  0.0242 -0.2315
 2891SOL    HW120309   2.763   3.611   9.600  0.3502  0.7025  0.3694
 2891SOL    HW220310   2.668   3.677   9.493 -1.2359 -1.7072  1.0993
 2892SOL     OW20311   2.769   3.214   2.521 -0.1560  0.8500 -0.2918
 2892SOL    HW120312   2.724   3.179   2.444 -2.9002  1.6263  0.9617
 2892SOL    HW220313   2.696   3.205   2.581 -0.6666 -2.6446 -1.4828
 2893SOL     OW20314   3.622   2.362  15.156 -0.0586  0.5781  0.0790
 2893SOL    HW120315   3.554   2.298  15.137 -0.3722  1.0541 -0.4157
 2893SOL    HW220316   3.573   2.445  15.160 -0.2128  0.5286 -0.7857
 2894SOL     OW20317   1.238   1.731   8.980  0.0105  0.6242  0.0134
 2894SOL    HW120318   1.277   1.759   8.897 -0.3642  1.0917 -0.0063
 2894SOL    HW220319   1.315   1.682   9.007 -0.3745 -1.1345 -2.0791
 2895SOL     OW20320   1.282   4.478   9.321  0.9231  0.6356 -0.4330
 2895SOL    HW120321   1.329   4.440   9.396  0.2557  0.7490  0.0444
 2895SOL    HW220322   1.274   4.391   9.281  1.0725  0.7484 -0.7122
 2896SOL     OW20323   0.858   2.053  16.358  0.3982 -0.1572  0.2824
 2896SOL    HW120324   0.942   2.042  16.402  0.2961 -0.1259  0.4870
 2896SOL    HW220325   0.794   2.014  16.418  0.2781 -0.2579  0.0889
 2897SOL     OW20326   1.534   0.296   5.181  0.1771 -0.3680  0.3426
 2897SOL    HW120327   1.591   0.342   5.120 -0.5493  0.0653 -0.0094
 2897SOL    HW220328   1.563   0.204   5.181 -0.1061 -0.4602  0.9360
 2898SOL     OW20329   4.709   4.037   1.544 -0.3391 -0.1121  0.5256
 2898SOL    HW120330   4.666   4.035   1.459 -1.2861 -0.3625  1.0132
 2898SOL    HW220331   0.005   3.947   1.556 -3.5333 -1.3762 -0.8901
 2899SOL     OW20332   0.296   1.014   1.135 -0.6813  0.0305 -0.0108
 2899SOL    HW120333   0.299   0.929   1.091 -0.0070  0.5139 -0.9056
 2899SOL    HW220334   0.214   0.999   1.182  0.6138  0.4383  2.3801
 2900SOL     OW20335   3.629   0.512  16.734  0.7612  0.4028 -0.1052
 2900SOL    HW120336   3.605   0.571  16.663  0.4400  0.8701  0.3933
 2900SOL    HW220337   3.693   0.452  16.697 -0.5810  1.3237 -3.8703
 2901SOL     OW20338   1.530   4.217   8.315 -0.2952 -0.4094  0.6309
 2901SOL    HW120339   1.602   4.184   8.369 -0.5391 -0.1995  1.0862
 2901SOL    HW220340   1.551   4.155   8.244 -3.1202  1.3740 -1.7888
 2902SOL     OW20341   2.038   4.341   7.483  0.5014  0.2226  0.9886
 2902SOL    HW120342   2.017   4.268   7.542  1.3097 -0.8678 -0.0665
 2902SOL    HW220343   2.000   4.306   7.402 -0.8860  0.1709  1.6531
 2903SOL     OW20344   1.285   3.380   5.757  0.0597 -0.6937  0.1998
 2903SOL    HW120345   1.281   3.475   5.768 -0.6413 -0.9234  1.9639
 2903SOL    HW220346   1.271   3.376   5.663  1.5899  1.1618 -0.1223
 2904SOL     OW20347   0.938   3.562  15.914 -0.1660 -0.3756 -0.4676
 2904SOL    HW120348   0.885   3.553  15.835 -2.5972 -0.8924  1.1884
 2904SOL    HW220349   0.979   3.646  15.896  1.5975 -0.5824  2.4964
 2905SOL     OW20350   2.646   2.587   8.749 -0.2587 -0.2933 -0.0978
 2905SOL    HW120351   2.717   2.525   8.735 -0.6457 -1.0638  1.2753
 2905SOL    HW220352   2.666   2.641   8.825  1.4178 -0.3060 -0.5283
 2906SOL     OW20353   4.544   1.879   6.056  0.2771  0.0029 -0.3403
 2906SOL    HW120354   4.453   1.852   6.071  0.7247 -1.4538 -0.2514
 2906SOL    HW220355   4.595   1.882   6.137 -0.0149  1.0475 -0.1987
 2907SOL     OW20356   4.005   1.894   5.776 -0.0582 -0.3264  0.0572
 2907SOL    HW120357   4.074   1.861   5.833 -0.7257  0.3678  1.2546
 2907SOL    HW220358   4.018   1.988   5.787  1.5657 -0.5803  0.2886
 2908SOL     OW20359   3.470   0.076   0.575  0.6012 -0.2192 -0.1484
 2908SOL    HW120360   3.398   0.131   0.544  0.3515  0.2182  1.2312
 2908SOL    HW220361   3.474   0.009   0.506  0.3758 -1.4494  1.0284
 2909SOL     OW20362   1.351   2.822   5.089  0.2353 -0.5653 -1.2667
 2909SOL    HW120363   1.358   2.749   5.028  2.1964 -1.9913  0.6688
 2909SOL    HW220364   1.435   2.822   5.135 -0.6984  1.5381  0.4485
 2910SOL     OW20365   2.762   2.297   9.498  0.8797 -0.3314  0.2153
 2910SOL    HW120366   2.840   2.270   9.450  1.5906  0.5467  0.8667
 2910SOL    HW220367   2.693   2.298   9.432  0.2635  1.0191  0.8755
 2911SOL     OW20368   0.666   0.232   9.289  0.1021 -0.0867  0.5491
 2911SOL    HW120369   0.720   0.189   9.355  0.2395 -0.4860  0.1709
 2911SOL    HW220370   0.726   0.243   9.216  1.1986  1.0802  1.6095
 2912SOL     OW20371   2.792   0.618   7.196  0.1678 -0.1029 -0.3131
 2912SOL    HW120372   2.737   0.587   7.268 -0.0629  1.8779  0.3600
 2912SOL    HW220373   2.724   0.656   7.140  1.5357  1.7460 -0.7419
 2913SOL     OW20374   4.666   3.633   6.721 -0.3675 -0.7589  0.0992
 2913SOL    HW120375   4.629   3.644   6.633 -0.5890 -1.3376  0.1149
 2913SOL    HW220376   4.682   3.720   6.756 -1.2018  0.3132 -2.1807
 2914SOL     OW20377   1.808   3.277   7.288  0.0272 -0.1417  0.2095
 2914SOL    HW120378   1.842   3.191   7.313 -1.2076  0.0413  2.6225
 2914SOL    HW220379   1.714   3.262   7.274  0.0059 -2.0849  2.3483
 2915SOL     OW20380   0.845   2.905  12.795  0.0303  0.0222 -0.2014
 2915SOL    HW120381   0.899   2.948  12.861 -0.5159  0.6579 -0.1619
 2915SOL    HW220382   0.902   2.906  12.719 -0.4648 -2.9277 -0.6114
 2916SOL     OW20383   1.626   2.018   3.913  0.1599 -0.3975 -0.2102
 2916SOL    HW120384   1.625   1.926   3.886  0.3903 -0.2460 -0.7396
 2916SOL    HW220385   1.720   2.029   3.926  0.0756 -3.2897  2.9067
 2917SOL     OW20386   2.836   3.524  13.435  0.1516  0.0437  0.3359
 2917SOL    HW120387   2.871   3.613  13.436  0.6933 -0.1588 -0.2509
 2917SOL    HW220388   2.749   3.540  13.471 -0.2017 -0.2510 -0.3728
 2918SOL     OW20389   0.684   4.601  11.503  0.9414  0.4145 -0.0076
 2918SOL    HW120390   0.744   4.661  11.546  0.1530  2.8562 -2.3538
 2918SOL    HW220391   0.748   4.538  11.468 -0.3245 -0.7706 -0.1925
 2919SOL     OW20392   2.197   0.556   8.166  0.7543 -0.7268  0.4467
 2919SOL    HW120393   2.175   0.534   8.256  1.7227  0.4816  0.9863
 2919SOL    HW220394   2.214   0.473   8.122  0.8612  0.8055 -2.4619
 2920SOL     OW20395   4.050   2.693  16.268  0.7114  0.2061  0.1848
 2920SOL    HW120396   4.120   2.631  16.246  0.2128  0.0232 -0.8697
 2920SOL    HW220397   4.084   2.724  16.351  1.9697  0.2843 -0.3531
 2921SOL     OW20398   3.900   2.647   7.362 -0.3501  0.5472 -0.2970
 2921SOL    HW120399   3.990   2.625   7.335 -0.4844 -3.1581  2.2372
 2921SOL    HW220400   3.854   2.575   7.320 -2.6453  2.2673 -0.7089
 2922SOL     OW20401   3.695   4.181  15.360 -0.5657  0.2524 -1.0743
 2922SOL    HW120402   3.721   4.094  15.331  2.0324  0.6288  0.1089
 2922SOL    HW220403   3.778   4.224  15.378 -0.6691 -0.0634  0.1688
 2923SOL     OW20404   2.752   4.469   9.227 -0.1592 -0.0326  0.1625
 2923SOL    HW120405   2.744   4.554   9.184  2.1518 -0.1470 -0.4741
 2923SOL    HW220406   2.836   4.437   9.193 -0.7620 -0.2441 -1.1301
 2924SOL     OW20407   2.091   2.124  16.963  0.0157 -0.8171  0.0102
 2924SOL    HW120408   2.068   2.045  17.012  3.5339 -1.4155  0.7439
 2924SOL    HW220409   2.009   2.133  16.916  0.0553  2.4003  0.5279
 2925SOL     OW20410   3.952   2.403   6.792 -0.1678  0.2185 -0.1772
 2925SOL    HW120411   3.938   2.498   6.786  0.1188  0.2744  0.0692
 2925SOL    HW220412   4.006   2.389   6.714 -0.8934  0.0249 -0.6514
 2926SOL     OW20413   3.247   4.515  17.132 -0.6041 -0.1429  0.0810
 2926SOL    HW120414   3.195   4.574  17.187 -0.5333  1.4638 -1.5960
 2926SOL    HW220415   3.235   4.421  17.148 -0.2527 -0.2196 -0.1135
 2927SOL     OW20416   0.610   2.268   3.604  0.3446  0.7297 -0.6054
 2927SOL    HW120417   0.531   2.231   3.644  1.0106  0.5815  0.5615
 2927SOL    HW220418   0.667   2.299   3.675 -1.4999  1.4698  0.5467
 2928SOL     OW20419   4.676   3.506   8.943  0.5627 -0.0796 -0.3093
 2928SOL    HW120420   4.725   3.567   8.998 -1.3195  0.4411  0.7579
 2928SOL    HW220421   0.011   3.457   8.898  1.8225 -0.2952  1.8723
 2929SOL     OW20422   3.602   2.680  15.002 -0.5407  0.2561  0.1022
 2929SOL    HW120423   3.610   2.631  14.920  3.1834 -0.2115  0.7166
 2929SOL    HW220424   3.661   2.754  14.987 -0.9256  0.5998  0.2918
 2930SOL     OW20425   0.959   3.550   5.450  0.0858 -0.2697 -0.1329
 2930SOL    HW120426   0.978   3.543   5.356 -1.0581 -0.3984 -0.3566
 2930SOL    HW220427   0.950   3.644   5.462  1.4403 -0.4847  2.6297
 2931SOL     OW20428   4.353   0.619   2.355  0.1160 -0.3699 -0.2489
 2931SOL    HW120429   4.302   0.635   2.275  0.8528  1.3507 -0.3632
 2931SOL    HW220430   4.412   0.549   2.328  0.7530 -0.5952  1.7271
 2932SOL     OW20431   1.879   3.432   2.283 -0.0793  0.1314 -0.1961
 2932SOL    HW120432   1.904   3.520   2.256  2.1081 -0.4445 -0.0366
 2932SOL    HW220433   1.786   3.442   2.303  0.0014 -0.7469  0.6005
 2933SOL     OW20434   2.898   3.621   8.318  0.6317 -0.2158  0.2590
 2933SOL    HW120435   2.903   3.537   8.363 -0.0577  0.3219  1.3502
 2933SOL    HW220436   2.930   3.597   8.231  0.3432  0.7824 -0.1254
 2934SOL     OW20437   3.322   0.280   0.484  0.4767  0.3409 -0.3738
 2934SOL    HW120438   3.234   0.294   0.519  0.3919 -0.5490 -0.2266
 2934SOL    HW220439   3.354   0.369   0.473  0.4698  0.2444 -1.1752
 2935SOL     OW20440   1.278   0.350   5.211 -0.0108  0.0748 -0.7881
 2935SOL    HW120441   1.276   0.403   5.132 -0.9469 -0.8328 -1.3786
 2935SOL    HW220442   1.373   0.343   5.218  0.1262  1.7354 -1.0034
 2936SOL     OW20443   1.104   3.240   9.543  0.1067  0.0759  0.3611
 2936SOL    HW120444   1.180   3.183   9.554  0.2099  0.5384  2.0155
 2936SOL    HW220445   1.035   3.174   9.554 -1.7225  1.8083 -0.7735
 2937SOL     OW20446   2.105   0.605   6.878 -0.1940  0.6795 -0.5667
 2937SOL    HW120447   2.067   0.530   6.924  0.0738  0.1364 -1.2242
 2937SOL    HW220448   2.094   0.674   6.943 -3.3196 -0.7012  0.3840
 2938SOL     OW20449   3.593   1.948  16.018 -0.2017  0.5264 -1.0533
 2938SOL    HW120450   3.571   1.873  16.072 -0.1112  1.0334 -0.3005
 2938SOL    HW220451   3.620   1.909  15.935 -0.6342 -1.5176 -0.2064
 2939SOL     OW20452   3.189   0.990   4.754 -0.2506  0.2127  0.4751
 2939SOL    HW120453   3.127   0.968   4.823 -0.1841  1.5068  0.9442
 2939SOL    HW220454   3.159   1.076   4.723 -2.3210 -1.3226 -1.8148
 2940SOL     OW20455   4.074   1.102   7.020  0.1089 -0.1341  0.0527
 2940SOL    HW120456   4.006   1.065   7.076 -0.1855  0.3035 -0.0158
 2940SOL    HW220457   4.071   1.048   6.941 -1.0035 -0.8271  0.5752
 2941SOL     OW20458   4.252   3.133   1.693  0.5887  0.4143  0.1960
 2941SOL    HW120459   4.204   3.068   1.743  1.4401 -1.1566 -1.0506
 2941SOL    HW220460   4.315   3.084   1.641  0.1443  0.2115 -0.1587
 2942SOL     OW20461   0.568   4.224  11.625 -0.0422 -0.1879  0.1052
 2942SOL    HW120462   0.651   4.176  11.615 -0.8377 -1.0702 -2.3952
 2942SOL    HW220463   0.513   4.146  11.631  0.8834 -1.2047 -4.2649
 2943SOL     OW20464   1.110   4.027   3.686  0.2383 -0.0812 -0.1974
 2943SOL    HW120465   1.204   4.007   3.680  0.2272 -0.4196  0.7032
 2943SOL    HW220466   1.097   4.036   3.780  1.1642 -3.1012  0.2310
 2944SOL     OW20467   0.666   1.623  16.755  0.3935  0.6140 -0.7322
 2944SOL    HW120468   0.745   1.650  16.708  2.5774 -5.2365 -0.4393
 2944SOL    HW220469   0.620   1.703  16.779 -0.7025 -0.4661  0.7870
 2945SOL     OW20470   1.142   4.419   4.109 -0.5031 -0.2740  0.9086
 2945SOL    HW120471   1.218   4.477   4.118 -0.0260 -0.6231 -0.8274
 2945SOL    HW220472   1.120   4.404   4.200  1.5172  2.3525  1.8519
 2946SOL     OW20473   1.036   2.173  16.869  0.2119 -0.1652  0.3684
 2946SOL    HW120474   0.942   2.172  16.851  0.6591 -3.0214 -1.7936
 2946SOL    HW220475   1.057   2.081  16.883 -1.4605 -0.8323 -1.6211
 2947SOL     OW20476   4.491   3.899   3.577 -0.1803 -0.1342 -0.6131
 2947SOL    HW120477   4.552   3.848   3.632  0.3030  0.0057 -1.0211
 2947SOL    HW220478   4.407   3.853   3.583 -1.1448  1.6619 -0.5456
 2948SOL     OW20479   2.555   2.415   2.507  1.0128  0.4033 -0.3725
 2948SOL    HW120480   2.628   2.454   2.460 -0.0753  0.3157 -2.1356
 2948SOL    HW220481   2.549   2.478   2.579 -1.9503  0.7205 -0.8965
 2949SOL     OW20482   0.891   1.530   2.084  0.0448  0.0569  0.0498
 2949SOL    HW120483   0.869   1.454   2.138 -2.5901  1.0880  0.4391
 2949SOL    HW220484   0.982   1.542   2.113 -0.7652  2.2083  1.7159
 2950SOL     OW20485   4.007   2.635   7.766 -0.0553  0.4585 -0.3334
 2950SOL    HW120486   4.100   2.612   7.758 -0.2781 -1.4164  2.3654
 2950SOL    HW220487   3.963   2.562   7.723  1.5263 -1.2701  0.9633
 2951SOL     OW20488   4.616   4.719   2.559  0.0212  1.1637  0.0655
 2951SOL    HW120489   4.525   0.014   2.551 -0.5540 -0.5697  0.2212
 2951SOL    HW220490   4.636   0.008   2.650  1.2078 -0.6506  0.2764
 2952SOL     OW20491   1.331   2.521   8.578 -0.2522  0.7247  1.0527
 2952SOL    HW120492   1.337   2.459   8.506 -1.2593  1.5392  0.2511
 2952SOL    HW220493   1.417   2.561   8.592 -0.7243  1.7061  1.1682
 2953SOL     OW20494   3.981   0.276   4.982  0.2155 -0.1634  0.1724
 2953SOL    HW120495   3.999   0.230   5.064 -1.2523 -1.3582 -0.1812
 2953SOL    HW220496   3.891   0.263   4.953 -0.4521  2.0597  1.2608
 2954SOL     OW20497   1.325   2.060   5.353 -0.4992  0.2092 -0.0126
 2954SOL    HW120498   1.371   2.131   5.400 -0.1527  1.0658 -1.6451
 2954SOL    HW220499   1.389   2.033   5.288  0.8950  0.4890  1.2354
 2955SOL     OW20500   2.660   3.697   9.036 -0.1121  0.4357 -1.2033
 2955SOL    HW120501   2.737   3.750   9.058 -0.3059 -0.0004  0.4935
 2955SOL    HW220502   2.690   3.613   9.071  1.0160  0.8711 -1.1141
 2956SOL     OW20503   1.477   0.205   3.054 -0.0109 -0.1707  0.1706
 2956SOL    HW120504   1.541   0.257   3.102  2.2836 -3.4500  0.6272
 2956SOL    HW220505   1.392   0.204   3.100 -0.4800 -0.0853 -0.6958
 2957SOL     OW20506   0.432   3.987  11.642  0.0668  0.1985 -0.5292
 2957SOL    HW120507   0.400   3.897  11.649 -2.4927  1.0997 -0.4064
 2957SOL    HW220508   0.351   4.033  11.616 -0.8355 -1.9011 -1.4242
 2958SOL     OW20509   1.056   2.040   3.898 -0.2797  0.3650 -0.2566
 2958SOL    HW120510   0.986   1.980   3.922 -0.4785  0.4102 -0.7196
 2958SOL    HW220511   1.110   1.985   3.841 -1.4676 -0.3036 -0.7278
 2959SOL     OW20512   2.248   3.858   8.015 -0.0706  0.1689 -0.4441
 2959SOL    HW120513   2.167   3.819   8.046  1.1090 -0.7356  1.5531
 2959SOL    HW220514   2.297   3.849   8.097 -1.7897 -1.0080  0.4333
 2960SOL     OW20515   3.399   3.128   7.072  0.5226  0.0224  0.0264
 2960SOL    HW120516   3.477   3.072   7.077 -0.8194 -1.7587  1.2384
 2960SOL    HW220517   3.410   3.199   7.135  2.4870  0.9408 -1.3590
 2961SOL     OW20518   1.702   3.431   5.372 -0.0759  0.2244  0.5649
 2961SOL    HW120519   1.771   3.496   5.358 -0.0908  0.3971  1.2816
 2961SOL    HW220520   1.725   3.416   5.463 -0.6711 -1.8006  0.3765
 2962SOL     OW20521   1.667   1.742   2.085 -0.3910  0.1808  0.2826
 2962SOL    HW120522   1.689   1.657   2.045 -0.5276  1.6316 -2.8756
 2962SOL    HW220523   1.753   1.761   2.122 -0.2097  1.1577 -0.6254
 2963SOL     OW20524   0.390   1.980   7.757  0.0556  0.4317  0.3739
 2963SOL    HW120525   0.315   1.941   7.713  1.5258 -1.0063 -0.8478
 2963SOL    HW220526   0.366   1.952   7.846  0.9089 -2.4412 -0.2912
 2964SOL     OW20527   2.673   1.396   9.382 -0.3166 -0.2469 -0.0884
 2964SOL    HW120528   2.687   1.396   9.288 -0.0636 -0.3726 -0.0527
 2964SOL    HW220529   2.583   1.423   9.397 -0.1589 -0.4255  1.2167
 2965SOL     OW20530   2.550   3.739   6.499 -0.4309 -0.3897  0.2233
 2965SOL    HW120531   2.640   3.744   6.467 -0.5236 -1.4228 -0.1944
 2965SOL    HW220532   2.565   3.655   6.543 -1.9159 -1.4493 -1.2792
 2966SOL     OW20533   2.790   3.073  11.027  0.0674  0.0858 -0.4304
 2966SOL    HW120534   2.753   3.000  10.978  2.3398 -0.9201 -0.6629
 2966SOL    HW220535   2.751   3.061  11.114 -0.2326  0.8264 -0.4667
 2967SOL     OW20536   4.616   4.609   3.514  0.2841 -0.5529 -0.2473
 2967SOL    HW120537   4.614   4.613   3.418 -1.7506 -1.1073 -0.2166
 2967SOL    HW220538   4.537   4.556   3.526  0.8573 -1.1706  0.8322
 2968SOL     OW20539   0.760   2.796  15.123  0.7720 -0.3210 -0.2741
 2968SOL    HW120540   0.685   2.823  15.070 -0.4546  1.0356  2.1501
 2968SOL    HW220541   0.708   2.744  15.185  2.6038  0.8628  2.2319
 2969SOL     OW20542   2.059   0.713   0.082 -0.4062  0.1325  0.1626
 2969SOL    HW120543   2.093   0.654   0.149  0.4998 -0.3931 -0.7612
 2969SOL    HW220544   2.099   0.664   0.010 -0.6498  1.3720 -0.8278
 2970SOL     OW20545   4.442   4.016   7.528 -0.0272 -0.5367  0.1616
 2970SOL    HW120546   4.410   4.013   7.619  2.4310  2.3368  1.1054
 2970SOL    HW220547   4.363   3.994   7.478  0.7829  1.3834 -1.9355
 2971SOL     OW20548   0.394   2.379   7.333  0.1868 -0.1420  0.5251
 2971SOL    HW120549   0.444   2.443   7.282  0.0537  0.3078  0.9553
 2971SOL    HW220550   0.315   2.365   7.281  0.3536 -1.2281  0.5582
 2972SOL     OW20551   4.387   0.924   5.987  0.5742 -0.1611  0.5897
 2972SOL    HW120552   4.311   0.907   5.931  0.4124 -1.1055  1.0839
 2972SOL    HW220553   4.456   0.868   5.952 -0.8282 -0.8349 -1.1088
 2973SOL     OW20554   0.964   2.149   1.943  0.1999  0.4855 -0.1858
 2973SOL    HW120555   0.928   2.117   2.026  0.6869 -2.0706 -0.9883
 2973SOL    HW220556   0.884   2.174   1.897  0.8464  1.4485 -0.7956
 2974SOL     OW20557   0.969   2.823   8.464 -0.5332  0.2332  0.6586
 2974SOL    HW120558   0.997   2.757   8.401 -1.2448 -0.3372  0.9236
 2974SOL    HW220559   1.018   2.785   8.537  2.2425  0.9867 -0.8130
 2975SOL     OW20560   2.695   1.746  13.999  0.2023  0.2275 -0.4471
 2975SOL    HW120561   2.638   1.691  13.945 -0.2481  0.1862  0.0747
 2975SOL    HW220562   2.629   1.775  14.062  0.3413  0.1282 -0.2556
 2976SOL     OW20563   3.405   1.794   1.368  0.3466 -0.3486  0.0610
 2976SOL    HW120564   3.439   1.709   1.397  2.7971  0.6613  0.1899
 2976SOL    HW220565   3.364   1.774   1.284  1.2157  1.4558 -0.8000
 2977SOL     OW20566   0.661   1.363   7.031 -0.0013 -0.0702 -0.0001
 2977SOL    HW120567   0.715   1.436   7.001 -0.4424  0.6528  0.9571
 2977SOL    HW220568   0.694   1.290   6.977  0.7239 -0.0178  0.3702
 2978SOL     OW20569   4.367   0.091   3.345 -0.4645 -0.3154 -0.2366
 2978SOL    HW120570   4.284   0.132   3.368 -0.2713  0.0513 -0.1891
 2978SOL    HW220571   4.380   0.056   3.433 -1.4503 -1.0405 -0.3789
 2979SOL     OW20572   0.877   4.393  12.912  0.0992 -0.0018 -0.4484
 2979SOL    HW120573   0.912   4.430  12.993  0.6782  0.7237 -1.0331
 2979SOL    HW220574   0.914   4.305  12.908  0.1124  0.1293 -2.8487
 2980SOL     OW20575   2.545   3.504   6.311  0.4480 -0.3045 -0.0754
 2980SOL    HW120576   2.603   3.562   6.362  0.6362 -0.7626  0.2291
 2980SOL    HW220577   2.541   3.555   6.230 -0.4810 -0.6047 -0.2178
 2981SOL     OW20578   3.755   2.128  16.696 -0.1421 -0.2811  0.6954
 2981SOL    HW120579   3.794   2.215  16.703 -0.3269 -0.1708  0.3506
 2981SOL    HW220580   3.792   2.107  16.610 -2.5295 -2.0568  0.1130
 2982SOL     OW20581   0.657   4.357   0.034  0.0737 -0.1898  0.2657
 2982SOL    HW120582   0.732   4.378   0.089 -0.1358 -1.8693  1.1962
 2982SOL    HW220583   0.659   4.440  17.725 -0.1313 -0.5692 -0.4193
 2983SOL     OW20584   1.611   3.282   8.193  0.6828 -0.9660  0.2570
 2983SOL    HW120585   1.523   3.253   8.168  1.4714  0.1643 -3.8344
 2983SOL    HW220586   1.617   3.254   8.284  0.3449  1.5441  1.0649
 2984SOL     OW20587   4.060   1.116   3.443 -0.0147  0.2149 -0.0841
 2984SOL    HW120588   4.098   1.088   3.359 -1.9505 -3.4677  0.2633
 2984SOL    HW220589   4.001   1.041   3.451  0.1291  0.0083 -0.8952
 2985SOL     OW20590   2.809   3.089   4.153  0.0413 -0.1088 -0.2822
 2985SOL    HW120591   2.738   3.056   4.098 -0.0472  0.3165 -0.4242
 2985SOL    HW220592   2.784   3.179   4.174  0.6956 -0.2605  1.2003
 2986SOL     OW20593   3.894   2.445   8.765 -0.0062  0.5996  0.1689
 2986SOL    HW120594   3.958   2.501   8.810  1.2611 -1.7107  1.2429
 2986SOL    HW220595   3.851   2.500   8.699 -0.0644  0.4581  0.0892
 2987SOL     OW20596   1.453   0.165   0.712 -0.0002 -0.2826 -0.3793
 2987SOL    HW120597   1.387   0.119   0.763 -0.3195 -2.1876 -2.5399
 2987SOL    HW220598   1.526   0.179   0.772 -0.3931 -1.9169  0.4791
 2988SOL     OW20599   3.041   3.372  14.867  0.9250  0.4580  0.8550
 2988SOL    HW120600   3.079   3.451  14.828 -1.5953  1.4880  0.5320
 2988SOL    HW220601   3.006   3.407  14.948  0.6044 -0.0503  0.9370
 2989SOL     OW20602   3.943   4.017   6.687 -0.3154  0.3614 -0.0668
 2989SOL    HW120603   3.959   3.934   6.642  2.3769  0.5285  0.5535
 2989SOL    HW220604   3.883   3.987   6.755  0.0011 -0.1536 -0.0090
 2990SOL     OW20605   4.663   3.974   2.478  0.2269  0.2776  0.4189
 2990SOL    HW120606   0.005   3.977   2.421  1.2058  0.9367  1.7567
 2990SOL    HW220607   4.707   3.954   2.560 -0.0203 -1.2691  0.1655
 2991SOL     OW20608   2.789   0.212   6.822 -0.0249  0.3168 -0.2929
 2991SOL    HW120609   2.716   0.224   6.883  0.7502 -1.6035  1.0138
 2991SOL    HW220610   2.860   0.224   6.885 -0.3579  0.5228  0.0413
 2992SOL     OW20611   4.654   1.009   4.241  0.6736 -0.5100 -0.0926
 2992SOL    HW120612   4.569   0.997   4.284  1.3423 -2.4928  0.6522
 2992SOL    HW220613   4.675   1.101   4.255  2.2352 -1.1519  1.6985
 2993SOL     OW20614   0.151   2.708  14.332 -0.0572  0.1025 -0.0265
 2993SOL    HW120615   0.132   2.651  14.257 -1.1162 -0.9339  1.0318
 2993SOL    HW220616   0.203   2.644  14.382 -2.3227 -0.3692  1.6953
 2994SOL     OW20617   3.223   0.405   0.120 -0.3150 -0.2073  0.4436
 2994SOL    HW120618   3.212   0.341   0.050  2.3569 -0.9632  0.7046
 2994SOL    HW220619   3.315   0.412   0.147 -0.7585  0.5302  1.7664
 2995SOL     OW20620   2.568   1.933   3.719 -0.2887 -0.1415 -0.2294
 2995SOL    HW120621   2.627   1.865   3.685 -1.6374 -1.6574  0.4650
 2995SOL    HW220622   2.614   2.009   3.755 -1.1491  0.1597  0.2262
 2996SOL     OW20623   2.242   3.377  17.500 -0.1795  0.3308 -0.4632
 2996SOL    HW120624   2.184   3.406  17.570 -1.6881  1.8323 -2.2998
 2996SOL    HW220625   2.193   3.301  17.468 -3.1268  1.5253  1.2023
 2997SOL     OW20626   0.740   1.385  15.230 -0.0276 -0.3936  0.5998
 2997SOL    HW120627   0.737   1.447  15.303 -0.4397 -0.1009  0.3338
 2997SOL    HW220628   0.747   1.305  15.281  2.5655 -1.8677 -2.0628
 2998SOL     OW20629   1.882   1.090   0.503 -0.5254 -0.2193  0.4888
 2998SOL    HW120630   1.845   1.004   0.483  2.5494 -1.3792 -0.3046
 2998SOL    HW220631   1.808   1.145   0.527  0.8973 -0.1983  4.6525
 2999SOL     OW20632   2.615   1.978   4.328  0.7683 -0.0821 -0.1265
 2999SOL    HW120633   2.660   1.894   4.322  1.3092  0.2460 -0.6376
 2999SOL    HW220634   2.550   1.971   4.398 -0.5773  1.3274 -1.2119
 3000SOL     OW20635   2.494   2.173   4.783 -0.3491 -0.3162  0.7232
 3000SOL    HW120636   2.454   2.260   4.779  2.1837  0.9250  2.4353
 3000SOL    HW220637   2.446   2.127   4.852  1.4456 -0.4375  1.8925
 3001SOL     OW20638   0.173   3.107  16.081  0.2730 -0.2402 -0.0560
 3001SOL    HW120639   0.228   3.146  16.149  1.2589  3.0483 -2.7185
 3001SOL    HW220640   0.220   3.029  16.049 -1.2471 -0.7211 -1.0933
 3002SOL     OW20641   4.324   2.646   4.982 -0.2791 -0.1646 -0.0363
 3002SOL    HW120642   4.301   2.710   4.914  0.7373 -2.0211 -2.1194
 3002SOL    HW220643   4.262   2.673   5.049  0.8320 -1.1595  1.3887
 3003SOL     OW20644   4.605   2.075  14.194 -0.5138  0.2446 -0.4624
 3003SOL    HW120645   4.613   2.103  14.103 -0.0599 -0.2443 -0.5743
 3003SOL    HW220646   4.602   2.159  14.239  1.6000 -0.5056  1.0894
 3004SOL     OW20647   0.792   1.059   1.763 -0.4879  0.5671 -0.0102
 3004SOL    HW120648   0.728   1.116   1.806 -0.4764  1.1046 -0.6866
 3004SOL    HW220649   0.854   1.057   1.835  0.0067 -0.1470 -0.4537
 3005SOL     OW20650   2.701   4.435  17.123  0.1966 -0.4092  0.4762
 3005SOL    HW120651   2.627   4.421  17.181 -0.7151  0.7043 -0.4053
 3005SOL    HW220652   2.675   4.369  17.059 -1.5587 -0.7142  1.5251
 3006SOL     OW20653   3.600   3.786   8.206 -0.3787  0.6029 -0.4699
 3006SOL    HW120654   3.551   3.827   8.135 -0.3829  0.2043 -0.6962
 3006SOL    HW220655   3.528   3.784   8.269  0.2595 -0.8876  0.2158
 3007SOL     OW20656   2.909   1.574   9.124 -0.1980 -0.6304 -0.5740
 3007SOL    HW120657   2.911   1.486   9.086  1.5354 -1.7970  2.1922
 3007SOL    HW220658   2.951   1.629   9.059  0.7885 -1.3239 -0.5201
 3008SOL     OW20659   0.496   1.672   1.732  0.3696  0.2228 -0.7958
 3008SOL    HW120660   0.403   1.653   1.747  1.2280 -2.5813  1.1228
 3008SOL    HW220661   0.507   1.766   1.746 -0.9135  0.0325  1.5202
 3009SOL     OW20662   2.613   0.380   0.513 -0.1706 -0.7238 -0.7062
 3009SOL    HW120663   2.698   0.423   0.502  0.1533 -1.6324 -1.7725
 3009SOL    HW220664   2.571   0.407   0.431  1.5592  1.2571 -0.9252
 3010SOL     OW20665   3.168   2.040   7.361  0.0217 -0.7999 -0.0659
 3010SOL    HW120666   3.257   2.039   7.394 -0.1571 -4.1581  0.3898
 3010SOL    HW220667   3.117   2.082   7.430  0.9127 -1.2888  0.8906
 3011SOL     OW20668   4.316   0.891   0.288  0.5256  0.4833 -0.6692
 3011SOL    HW120669   4.319   0.907   0.382 -0.6119  2.1585 -0.9135
 3011SOL    HW220670   4.403   0.855   0.275 -0.6650 -1.7469 -2.5129
 3012SOL     OW20671   0.523   0.156   3.294 -0.1813  0.2010  0.3023
 3012SOL    HW120672   0.605   0.193   3.260  0.4158  0.1536  1.7037
 3012SOL    HW220673   0.494   0.108   3.216  1.6898 -0.8185  0.2203
 3013SOL     OW20674   1.119   3.848   5.200  0.0630  0.8527  0.0207
 3013SOL    HW120675   1.039   3.799   5.221  1.9702 -1.4166  1.9207
 3013SOL    HW220676   1.107   3.922   5.259 -0.3316  2.3655 -1.9643
 3014SOL     OW20677   2.512   1.826   2.602  0.3917  0.2705  0.1856
 3014SOL    HW120678   2.593   1.819   2.552  0.2427  0.3043 -0.0569
 3014SOL    HW220679   2.544   1.890   2.666  0.7440 -0.8884  1.1483
 3015SOL     OW20680   2.323   0.932   7.748 -0.3987  0.4354  0.6899
 3015SOL    HW120681   2.398   0.986   7.724  0.7566  0.1136  3.6105
 3015SOL    HW220682   2.363   0.848   7.773  0.2112  0.4955 -0.0830
 3016SOL     OW20683   3.085   3.680   5.932 -0.4950  0.1893  0.1837
 3016SOL    HW120684   3.025   3.753   5.945 -1.9774 -1.0607  0.3824
 3016SOL    HW220685   3.113   3.652   6.020 -3.9163 -0.5596  1.0422
 3017SOL     OW20686   1.578   1.059   2.072 -0.5893  0.8982 -0.1121
 3017SOL    HW120687   1.621   0.985   2.030  2.1239  3.3408 -1.6029
 3017SOL    HW220688   1.645   1.112   2.114  0.2647  0.4850 -0.9656
 3018SOL     OW20689   4.627   2.008   2.780  0.9938 -0.2085 -0.0942
 3018SOL    HW120690   4.628   1.998   2.875  3.4823  0.3669 -0.0569
 3018SOL    HW220691   4.629   2.103   2.772 -0.4095 -0.2775 -1.2473
 3019SOL     OW20692   2.233   1.909   3.160  0.2277 -0.1412 -0.0081
 3019SOL    HW120693   2.276   1.959   3.230 -1.3598 -2.1041  2.3527
 3019SOL    HW220694   2.215   1.989   3.110 -0.4349  0.1387  0.6846
 3020SOL     OW20695   2.894   0.266   8.214  0.0021 -0.0844 -0.5307
 3020SOL    HW120696   2.811   0.228   8.185 -0.0863 -1.2394  1.2923
 3020SOL    HW220697   2.934   0.267   8.127  2.7236 -0.9966  0.7310
 3021SOL     OW20698   2.531   3.575  11.572  0.1450 -0.0695  0.1728
 3021SOL    HW120699   2.465   3.613  11.629 -1.8254 -0.5243 -1.7929
 3021SOL    HW220700   2.606   3.631  11.591  0.5423 -0.7682  0.6508
 3022SOL     OW20701   0.177   4.277   1.900  0.1227  0.2402  0.0117
 3022SOL    HW120702   0.216   4.362   1.917  0.8121  0.0648 -0.6401
 3022SOL    HW220703   0.092   4.283   1.943  0.3883 -0.4157  0.6431
 3023SOL     OW20704   0.924   2.357   7.178  0.2254 -0.5958  0.0136
 3023SOL    HW120705   0.883   2.278   7.215 -1.3650  0.7254  1.0663
 3023SOL    HW220706   1.007   2.329   7.139  0.7559  0.9504  0.0504
 3024SOL     OW20707   2.102   1.705   8.104 -0.1979 -0.6189 -0.8046
 3024SOL    HW120708   2.181   1.652   8.102  0.0729 -0.2626  1.1622
 3024SOL    HW220709   2.073   1.695   8.194  1.1870  1.0905 -0.1670
 3025SOL     OW20710   4.195   1.330  17.727  0.1166  0.5201  0.3537
 3025SOL    HW120711   4.167   1.242  17.703 -0.8695  0.4258  1.8283
 3025SOL    HW220712   4.140   1.347   0.066  0.2547 -0.4710  0.6695
 3026SOL     OW20713   3.243   1.874  16.373 -0.3308  0.1435  0.0464
 3026SOL    HW120714   3.148   1.863  16.382  0.1663 -2.2283  2.3563
 3026SOL    HW220715   3.264   1.938  16.442 -0.2546 -0.6058  0.7141
 3027SOL     OW20716   3.922   3.257   3.697  0.2452  0.4193  0.1079
 3027SOL    HW120717   3.976   3.183   3.723  1.8267  0.9781 -1.6127
 3027SOL    HW220718   3.960   3.277   3.611  2.5370 -0.6481  0.8766
 3028SOL     OW20719   2.138   1.480   5.142 -0.0160 -0.1612  0.1136
 3028SOL    HW120720   2.174   1.418   5.205 -0.0671  0.1787  0.4806
 3028SOL    HW220721   2.179   1.453   5.060  1.0731  0.4427  0.4589
 3029SOL     OW20722   0.976   3.622   5.914 -0.0043  0.3844 -0.1417
 3029SOL    HW120723   1.066   3.643   5.938 -0.5316 -0.2935  2.4551
 3029SOL    HW220724   0.952   3.566   5.988  0.3235 -1.7682 -1.6361
 3030SOL     OW20725   0.957   0.526   5.051  0.5435  0.2312 -0.0705
 3030SOL    HW120726   1.016   0.555   5.120 -1.6628  0.2539  1.7939
 3030SOL    HW220727   0.929   0.440   5.083 -1.4027  0.7838 -0.3173
 3031SOL     OW20728   2.245   2.522   5.875  0.0933 -0.6124 -0.0206
 3031SOL    HW120729   2.262   2.550   5.785 -3.4823  1.3473 -0.0999
 3031SOL    HW220730   2.149   2.532   5.872  0.1744  0.8357  1.7396
 3032SOL     OW20731   3.808   3.176   4.460  0.5564  0.2771 -0.2521
 3032SOL    HW120732   3.749   3.212   4.526  0.9866 -0.0947  0.3370
 3032SOL    HW220733   3.849   3.254   4.424 -0.2366  0.1588 -1.4249
 3033SOL     OW20734   3.252   1.680   1.166  0.1042  0.0381  0.3719
 3033SOL    HW120735   3.176   1.622   1.168  0.1860 -0.0952 -0.2874
 3033SOL    HW220736   3.326   1.627   1.136  0.6666  0.9302  0.1860
 3034SOL     OW20737   1.419   4.699   2.322  0.1134 -0.1942 -0.4023
 3034SOL    HW120738   1.344   4.690   2.264  0.0262  2.4920 -0.6972
 3034SOL    HW220739   1.409   0.057   2.343  0.2862  0.1362 -1.7805
 3035SOL     OW20740   3.628   1.138   5.563  0.0839  0.0929 -0.1270
 3035SOL    HW120741   3.572   1.189   5.621 -0.2551  0.7754 -1.0433
 3035SOL    HW220742   3.610   1.046   5.585 -0.1123 -0.1615 -1.3388
 3036SOL     OW20743   3.909   4.411   6.135  0.2860  0.1464 -0.0815
 3036SOL    HW120744   3.947   4.433   6.050 -1.9846  0.5450 -0.9945
 3036SOL    HW220745   3.960   4.457   6.201  1.0745 -0.7834 -0.0347
 3037SOL     OW20746   3.822   0.476  17.265  0.1812 -0.2404  0.6572
 3037SOL    HW120747   3.747   0.527  17.232 -0.9603 -3.4656 -1.7484
 3037SOL    HW220748   3.869   0.463  17.182  2.5482  0.3802  1.9175
 3038SOL     OW20749   1.388   3.155   9.881 -0.1768  0.0873  0.0146
 3038SOL    HW120750   1.397   3.136   9.975  0.9210  0.1845 -0.0675
 3038SOL    HW220751   1.362   3.071   9.844 -0.8004  0.0634  0.4975
 3039SOL     OW20752   1.789   0.219   8.627 -0.1203  0.3159  0.2097
 3039SOL    HW120753   1.748   0.194   8.710 -1.3178  2.5604  0.2806
 3039SOL    HW220754   1.744   0.163   8.565  0.8741  0.7543 -0.9104
 3040SOL     OW20755   3.911   2.184  13.423 -0.6341 -0.4645  0.1706
 3040SOL    HW120756   3.984   2.186  13.361 -1.1765 -1.0158 -0.4947
 3040SOL    HW220757   3.963   2.176  13.503  0.9960 -0.4811 -0.8826
 3041SOL     OW20758   4.697   0.488  16.262  0.1193 -0.5791 -0.2703
 3041SOL    HW120759   4.648   0.427  16.317 -0.1030 -0.0914  0.0704
 3041SOL    HW220760   0.029   0.423  16.237  0.8834 -0.4952  1.5491
 3042SOL     OW20761   0.115   1.499   4.570 -0.3002 -0.3571 -0.2761
 3042SOL    HW120762   0.130   1.429   4.507 -1.4335 -0.7271 -0.1335
 3042SOL    HW220763   0.124   1.448   4.650  1.0689  1.5686  0.8102
 3043SOL     OW20764   1.678   4.471   4.661 -0.2121 -0.9960 -0.5639
 3043SOL    HW120765   1.712   4.433   4.742  1.5538  2.4695  0.3203
 3043SOL    HW220766   1.707   4.409   4.594  2.9343 -0.3960  0.2537
 3044SOL     OW20767   1.448   1.275   9.223  0.2540  0.3479  0.0849
 3044SOL    HW120768   1.361   1.305   9.247  0.0729 -0.6357  0.6612
 3044SOL    HW220769   1.439   1.196   9.277  1.8504 -1.5373 -2.4196
 3045SOL     OW20770   2.980   2.860   2.084 -0.2444  0.1361 -0.1282
 3045SOL    HW120771   2.974   2.812   2.166 -0.3580  1.6164  0.7118
 3045SOL    HW220772   3.056   2.820   2.040  2.5337  4.6135  0.6105
 3046SOL     OW20773   3.274   1.089   0.382 -0.5015 -0.1892 -0.1144
 3046SOL    HW120774   3.350   1.110   0.436 -0.6755 -0.4977  0.2502
 3046SOL    HW220775   3.227   1.172   0.380  1.3921  0.8607 -0.6962
 3047SOL     OW20776   1.303   1.940   6.709  0.2176  0.8305  0.5242
 3047SOL    HW120777   1.392   1.931   6.677 -0.2696  2.0857 -1.1756
 3047SOL    HW220778   1.295   1.878   6.782  0.0209 -0.0347 -0.2378
 3048SOL     OW20779   1.256   3.643   5.703  0.3237  0.0175  0.1121
 3048SOL    HW120780   1.172   3.683   5.679  1.1455  1.2574 -0.7346
 3048SOL    HW220781   1.302   3.710   5.755 -0.5825  0.4789  0.3141
 3049SOL     OW20782   0.035   0.346   3.492 -0.4283  0.4578 -0.1456
 3049SOL    HW120783   0.095   0.274   3.475 -1.2959 -0.4786  0.7341
 3049SOL    HW220784   4.712   0.298   3.552 -0.2522 -0.5519 -0.8023
 3050SOL     OW20785   2.905   2.900   9.404 -0.2948  0.3351 -0.7564
 3050SOL    HW120786   2.989   2.864   9.433 -2.4437 -2.5586  1.8440
 3050SOL    HW220787   2.937   2.988   9.383  0.0422  0.4108  0.0430
 3051SOL     OW20788   4.468   1.909  11.541 -0.3258  0.0374 -0.2846
 3051SOL    HW120789   4.499   1.988  11.496 -1.4730  1.7527  1.8992
 3051SOL    HW220790   4.374   1.911  11.524 -0.6749  0.0510  1.5807
 3052SOL     OW20791   1.945   3.616   9.011  0.0134  0.1764 -0.1352
 3052SOL    HW120792   2.041   3.618   9.015 -0.1063  0.8774  2.4203
 3052SOL    HW220793   1.926   3.700   9.053  0.2164  0.5630 -0.8141
 3053SOL     OW20794   3.460   3.281   4.248  0.0883  0.7318 -0.2016
 3053SOL    HW120795   3.522   3.348   4.277  0.9530  0.0614 -0.5416
 3053SOL    HW220796   3.413   3.253   4.327  0.4772 -1.3011 -0.6972
 3054SOL     OW20797   4.467   1.170  16.594 -0.3935 -0.8801  0.0719
 3054SOL    HW120798   4.525   1.106  16.635  0.4226 -0.9020 -1.1077
 3054SOL    HW220799   4.521   1.174  16.515 -0.4822 -1.0232  0.0017
 3055SOL     OW20800   0.512   2.719   6.491  0.1528 -0.0024 -0.1685
 3055SOL    HW120801   0.444   2.652   6.495  0.3898 -0.3524 -2.3470
 3055SOL    HW220802   0.593   2.668   6.485 -0.0606  0.0071 -3.0404
 3056SOL     OW20803   0.829   4.230   3.889  0.6724  0.3956 -0.0108
 3056SOL    HW120804   0.838   4.156   3.829 -0.6727  0.4537 -0.2986
 3056SOL    HW220805   0.897   4.293   3.866  2.0821 -0.0050  3.1153
 3057SOL     OW20806   1.599   1.482  16.257  0.4253  0.2607  0.9650
 3057SOL    HW120807   1.644   1.401  16.283  0.0790 -0.2737 -0.1156
 3057SOL    HW220808   1.670   1.538  16.227  0.2416  0.0152  0.0817
 3058SOL     OW20809   0.797   1.300   2.189 -0.0340 -0.1343  0.4356
 3058SOL    HW120810   0.720   1.273   2.238  0.0948  0.3696  0.9053
 3058SOL    HW220811   0.867   1.246   2.227  0.4086 -0.9331 -1.4900
 3059SOL     OW20812   4.453   1.422   7.281 -0.2647 -0.0194 -0.0935
 3059SOL    HW120813   4.382   1.377   7.326 -1.3167 -1.4787 -3.2341
 3059SOL    HW220814   4.471   1.361   7.210 -0.3489 -0.7199  0.4973
 3060SOL     OW20815   0.082   2.386   6.443  0.4165  0.6435  0.3242
 3060SOL    HW120816   0.106   2.318   6.380  0.5748  1.4415 -0.4739
 3060SOL    HW220817   0.169   2.426   6.448  0.6318  0.5620 -2.8730
 3061SOL     OW20818   0.458   2.124   9.014  0.5260  0.0234 -0.0168
 3061SOL    HW120819   0.396   2.102   9.083 -0.1733  1.8501 -0.0737
 3061SOL    HW220820   0.517   2.187   9.055  0.9589 -0.0634 -0.5063
 3062SOL     OW20821   1.963   1.963   1.412 -0.2212 -0.3070  0.3814
 3062SOL    HW120822   1.930   2.031   1.470  1.0818 -0.7430  1.6130
 3062SOL    HW220823   2.029   1.933   1.474  1.7475  0.4183 -1.3426
 3063SOL     OW20824   2.229   2.676   5.607  0.8308 -0.2950  0.2046
 3063SOL    HW120825   2.166   2.623   5.558  2.7643 -1.2171 -1.3092
 3063SOL    HW220826   2.310   2.665   5.557  0.8566 -0.1233  0.2078
 3064SOL     OW20827   3.035   1.681  10.896 -0.2423  0.3415  0.2835
 3064SOL    HW120828   3.108   1.648  10.844  0.7328 -0.6822  2.3191
 3064SOL    HW220829   2.971   1.665  10.827  0.3829  1.2426 -0.4991
 3065SOL     OW20830   2.568   1.379  16.350 -0.0548  0.3023  0.6126
 3065SOL    HW120831   2.588   1.412  16.438 -0.5756  0.1478  0.7898
 3065SOL    HW220832   2.485   1.337  16.371  0.2745 -0.0267  1.2748
 3066SOL     OW20833   2.611   2.380   9.726  0.2699 -0.0098 -0.3548
 3066SOL    HW120834   2.661   2.340   9.655  1.2819 -0.7664  0.7906
 3066SOL    HW220835   2.588   2.310   9.786  1.4238 -0.7866 -0.8120
 3067SOL     OW20836   4.183   1.807   4.887  0.9681 -0.1991 -0.2086
 3067SOL    HW120837   4.171   1.720   4.847 -1.7308 -0.5959  1.4549
 3067SOL    HW220838   4.267   1.799   4.931  1.6342 -0.5531 -1.5400
 3068SOL     OW20839   3.821   4.536   5.688  0.1385 -0.0396 -0.3846
 3068SOL    HW120840   3.843   4.495   5.604  1.3638 -0.5945  0.2201
 3068SOL    HW220841   3.835   4.628   5.665 -0.1427  0.3204  0.9080
 3069SOL     OW20842   4.110   3.657   3.349 -0.1224 -0.5153 -0.1619
 3069SOL    HW120843   4.110   3.605   3.269  0.5045 -2.7886  1.3241
 3069SOL    HW220844   4.182   3.718   3.334  0.2707 -0.7155  0.9095
 3070SOL     OW20845   4.553   1.207   3.154 -0.6170 -0.4210  0.0132
 3070SOL    HW120846   4.511   1.214   3.068  0.0838  0.0872 -0.2879
 3070SOL    HW220847   4.644   1.201   3.124 -0.1888 -0.6504  1.3305
 3071SOL     OW20848   1.458   2.552  13.285  0.9429 -0.4948 -0.1734
 3071SOL    HW120849   1.408   2.629  13.261 -0.5876 -1.3968  0.1230
 3071SOL    HW220850   1.531   2.592  13.332  0.3766 -0.7531  0.9068
 3072SOL     OW20851   1.447   0.178   4.384  0.0357 -0.3546 -0.3091
 3072SOL    HW120852   1.375   0.119   4.362 -0.9329  0.6992  0.0377
 3072SOL    HW220853   1.445   0.238   4.309  2.1712 -2.0722 -1.7304
 3073SOL     OW20854   0.874   4.512   8.994  0.3630 -0.2789 -0.0050
 3073SOL    HW120855   0.898   4.574   8.925 -0.1380  0.2621  0.3043
 3073SOL    HW220856   0.789   4.543   9.025 -0.0783 -1.2531 -0.2343
 3074SOL     OW20857   1.374   2.501   5.897  0.6467 -0.1354 -0.0848
 3074SOL    HW120858   1.296   2.487   5.952 -1.4844 -0.2385 -3.1410
 3074SOL    HW220859   1.364   2.596   5.899  1.2256 -0.1190  2.2371
 3075SOL     OW20860   4.498   0.913  13.708  0.0954 -0.1591 -0.2333
 3075SOL    HW120861   4.558   0.927  13.782 -0.3144 -1.4506  0.3516
 3075SOL    HW220862   4.535   0.976  13.647 -2.9356  1.4095 -0.4608
 3076SOL     OW20863   2.119   2.006   8.139 -0.5002 -0.3038  0.1547
 3076SOL    HW120864   2.075   1.931   8.099  1.2964 -0.5038 -1.4493
 3076SOL    HW220865   2.200   2.008   8.088 -0.0313 -0.2366  0.8918
 3077SOL     OW20866   3.682   3.612   6.850  0.1182  0.4563  0.0060
 3077SOL    HW120867   3.657   3.628   6.758  1.4470  0.4250 -0.3630
 3077SOL    HW220868   3.752   3.676   6.862  1.2622 -1.1306  1.7172
 3078SOL     OW20869   4.232   3.804   9.938 -0.0189  0.0975  0.3973
 3078SOL    HW120870   4.139   3.821   9.954  0.1095  0.2594  0.9976
 3078SOL    HW220871   4.268   3.755  10.012 -1.3437 -0.3096  0.7801
 3079SOL     OW20872   3.005   3.122   8.967 -0.2338  0.3976 -0.1104
 3079SOL    HW120873   3.049   3.040   8.943 -0.7539  0.5591 -1.5968
 3079SOL    HW220874   2.920   3.120   8.924 -0.5850  0.6468  0.5803
 3080SOL     OW20875   3.191   4.370   6.080  0.1811  0.8956 -0.3454
 3080SOL    HW120876   3.099   4.395   6.067 -0.5570 -0.0440  3.0152
 3080SOL    HW220877   3.226   4.381   5.992  0.1614 -3.7310 -0.9549
 3081SOL     OW20878   2.109   1.033  10.808 -0.2536 -0.7600  0.3182
 3081SOL    HW120879   2.202   1.053  10.824 -0.0518 -0.9337 -0.6576
 3081SOL    HW220880   2.088   0.994  10.893 -1.3626  0.4799  0.6149
 3082SOL     OW20881   4.135   0.173  12.297 -0.0953 -0.4207  0.3831
 3082SOL    HW120882   4.122   0.256  12.343  1.5034  0.7718 -1.3065
 3082SOL    HW220883   4.131   0.117  12.374  1.8550 -1.9195 -0.6079
 3083SOL     OW20884   2.794   4.514   8.136 -0.0821  0.2964 -0.0903
 3083SOL    HW120885   2.704   4.500   8.106  0.5701 -0.7496 -1.5779
 3083SOL    HW220886   2.784   4.545   8.226 -0.1391  1.5694 -0.5350
 3084SOL     OW20887   3.167   2.519   9.038  0.0375  0.2449  0.2678
 3084SOL    HW120888   3.078   2.502   9.071 -0.9776  1.4492 -1.8971
 3084SOL    HW220889   3.192   2.584   9.104  1.7114 -0.3583  0.2242
 3085SOL     OW20890   3.520   1.511   1.359  0.3347 -0.7076  0.0429
 3085SOL    HW120891   3.548   1.521   1.268  0.3329 -0.1293  0.1011
 3085SOL    HW220892   3.468   1.432   1.351  0.2867 -0.6987  0.2692
 3086SOL     OW20893   2.311   3.333   5.417  0.0325 -0.1607 -0.1010
 3086SOL    HW120894   2.285   3.243   5.437 -1.8541 -0.2313 -2.9306
 3086SOL    HW220895   2.402   3.315   5.393 -0.4683 -0.1604 -1.9274
 3087SOL     OW20896   1.339   1.966  16.564  0.4229  0.3729 -0.2989
 3087SOL    HW120897   1.411   1.904  16.551 -0.5959 -0.9802  0.4646
 3087SOL    HW220898   1.311   1.952  16.655 -1.3499  1.5372 -0.6458
 3088SOL     OW20899   0.157   2.171   5.542  0.6787 -0.0034 -0.0266
 3088SOL    HW120900   0.207   2.248   5.516 -0.8948  0.8474 -0.5379
 3088SOL    HW220901   0.215   2.106   5.501  0.4380 -1.1252  1.4114
 3089SOL     OW20902   1.465   2.364  10.633  0.0711  0.2042  0.2742
 3089SOL    HW120903   1.547   2.353  10.681 -1.1709 -1.2641  2.0425
 3089SOL    HW220904   1.424   2.432  10.687 -0.5228  1.2386 -1.4886
 3090SOL     OW20905   1.310   3.744   3.802 -0.0090  0.3588 -0.0055
 3090SOL    HW120906   1.235   3.704   3.845 -0.6683  0.9587 -0.6049
 3090SOL    HW220907   1.349   3.663   3.769 -1.9900  0.1708 -1.8955
 3091SOL     OW20908   0.570   3.287   8.478  0.4559  0.4118  0.1732
 3091SOL    HW120909   0.542   3.248   8.395 -1.0571 -1.0742  1.3954
 3091SOL    HW220910   0.644   3.334   8.440  1.5371  0.1997  2.0147
 3092SOL     OW20911   4.421   0.136   3.772 -0.2106 -0.1004 -0.5014
 3092SOL    HW120912   4.393   0.207   3.715 -2.3866 -1.2441 -0.8703
 3092SOL    HW220913   4.384   0.061   3.725 -1.5936  0.5257 -0.4104
 3093SOL     OW20914   2.374   1.587   8.593  0.5579 -0.0379 -0.3738
 3093SOL    HW120915   2.288   1.627   8.609  0.4370 -0.4186 -0.0614
 3093SOL    HW220916   2.421   1.649   8.537 -0.1183  1.2065  0.4279
 3094SOL     OW20917   0.888   4.486  15.235 -0.8576  0.0949 -0.1087
 3094SOL    HW120918   0.840   4.546  15.291  1.8906  2.7577 -0.6470
 3094SOL    HW220919   0.854   4.525  15.154  0.0741  0.3029 -0.3955
 3095SOL     OW20920   2.641   2.407   7.555  0.8863  0.0452  0.3167
 3095SOL    HW120921   2.697   2.343   7.600 -0.6824 -1.7774 -0.3386
 3095SOL    HW220922   2.550   2.383   7.574  0.6868 -0.8448 -1.6946
 3096SOL     OW20923   2.670   3.352   8.497  0.3323 -0.2148 -0.5595
 3096SOL    HW120924   2.760   3.368   8.524 -0.7996  3.3165  1.0517
 3096SOL    HW220925   2.654   3.421   8.433 -3.0824 -1.2030 -0.7907
 3097SOL     OW20926   0.477   3.229   9.418 -0.4978  0.1958  0.4201
 3097SOL    HW120927   0.550   3.284   9.446 -0.0974 -0.3038  0.3500
 3097SOL    HW220928   0.430   3.281   9.353 -2.1506 -0.4584  1.0738
 3098SOL     OW20929   4.630   3.671   2.369  0.4994 -0.2555 -0.4032
 3098SOL    HW120930   4.717   3.704   2.346  0.0163  0.1747 -1.6604
 3098SOL    HW220931   4.634   3.598   2.306 -0.2203  0.4834 -1.3055
 3099SOL     OW20932   3.429   4.698   1.676 -0.1512 -0.1621 -0.3511
 3099SOL    HW120933   3.513   4.686   1.632  1.0736 -1.0889  2.2637
 3099SOL    HW220934   3.379   4.641   1.619 -2.3242  2.1180 -0.7360
 3100SOL     OW20935   3.108   2.102   2.639  0.4726 -0.2511  0.2900
 3100SOL    HW120936   3.050   2.178   2.636 -0.1612 -0.7882 -1.3023
 3100SOL    HW220937   3.058   2.049   2.701 -0.4140  1.2863  0.8839
 3101SOL     OW20938   4.067   4.270   0.931 -0.3852  0.6806 -0.0627
 3101SOL    HW120939   4.073   4.176   0.948 -1.7674  0.8912  1.5274
 3101SOL    HW220940   4.143   4.280   0.873  0.4142  2.7147  1.3610
 3102SOL     OW20941   2.179   4.247   3.945 -0.0092  0.3438  0.2793
 3102SOL    HW120942   2.116   4.319   3.943 -0.0599  0.2990  0.2916
 3102SOL    HW220943   2.120   4.188   3.992  0.3135 -0.0745  0.1612
 3103SOL     OW20944   3.377   3.367   3.295  0.5107 -0.2424  0.2902
 3103SOL    HW120945   3.284   3.359   3.274  0.4590  1.6533 -0.2453
 3103SOL    HW220946   3.415   3.440   3.246 -2.7251  1.2048 -0.1057
 3104SOL     OW20947   1.091   0.562   8.077 -0.0307 -0.7520 -0.0208
 3104SOL    HW120948   1.088   0.523   8.164 -0.1210  0.9811  0.7493
 3104SOL    HW220949   1.182   0.543   8.055 -0.2036 -1.7758  0.1412
 3105SOL     OW20950   2.555   3.657   6.988 -0.1029 -0.0676  0.1061
 3105SOL    HW120951   2.578   3.727   7.049 -2.4583  1.2980 -0.6028
 3105SOL    HW220952   2.556   3.699   6.902  0.4536  0.4002  0.3375
 3106SOL     OW20953   3.426   0.607  11.261  0.5383 -0.2825 -0.9218
 3106SOL    HW120954   3.510   0.649  11.244 -0.3270  1.2758 -1.3540
 3106SOL    HW220955   3.426   0.528  11.207  1.2158 -0.4714 -0.6496
 3107SOL     OW20956   2.612   4.443  13.736 -0.0063  0.0387  0.7179
 3107SOL    HW120957   2.614   4.517  13.797  0.3674  1.3306 -0.8522
 3107SOL    HW220958   2.700   4.445  13.700  0.0750  1.8635  1.0153
 3108SOL     OW20959   4.381   0.594  16.747  0.0467 -0.5137 -0.1915
 3108SOL    HW120960   4.287   0.581  16.748 -0.2804  2.0821  2.0648
 3108SOL    HW220961   4.394   0.601  16.842 -0.7084  1.2878 -0.2245
 3109SOL     OW20962   2.520   3.036   1.092  0.1737  0.0341  0.5368
 3109SOL    HW120963   2.597   3.012   1.040 -1.0092 -0.8379 -0.8110
 3109SOL    HW220964   2.547   3.112   1.143  1.7645 -1.3090  1.7120
 3110SOL     OW20965   1.859   1.977  15.617 -0.0269  0.4278  0.3130
 3110SOL    HW120966   1.802   1.952  15.545  2.3247  1.4505 -1.9089
 3110SOL    HW220967   1.844   1.910  15.684 -1.6526  1.4868  1.0048
 3111SOL     OW20968   3.419   0.698   5.682 -0.0579 -0.1200 -0.3751
 3111SOL    HW120969   3.415   0.738   5.769  0.6366  2.7064 -1.6322
 3111SOL    HW220970   3.367   0.619   5.696  0.9184 -0.6739  0.1351
 3112SOL     OW20971   3.132   0.255  16.834  0.1098 -0.2256  0.2819
 3112SOL    HW120972   3.172   0.224  16.753 -1.0738  0.5930 -0.6121
 3112SOL    HW220973   3.163   0.194  16.901 -0.2034 -1.2386 -0.4960
 3113SOL     OW20974   1.847   4.681   4.178 -0.2419  0.1407 -0.9093
 3113SOL    HW120975   1.829   4.592   4.208  0.8981  0.7624  1.6151
 3113SOL    HW220976   1.772   4.704   4.123 -0.4243  0.8952 -0.3400
 3114SOL     OW20977   3.430   0.519   8.418 -0.2104  0.1985  0.5100
 3114SOL    HW120978   3.499   0.524   8.484  1.4819  0.1151 -1.2425
 3114SOL    HW220979   3.462   0.444   8.368 -1.5116 -0.9322  1.3817
 3115SOL     OW20980   4.214   3.236   8.985  0.2000 -0.1523  0.1224
 3115SOL    HW120981   4.298   3.231   8.939  0.5017  3.8893  0.2355
 3115SOL    HW220982   4.164   3.286   8.921 -1.0509 -2.7418 -0.9283
 3116SOL     OW20983   0.276   0.221   2.079  0.1498 -0.3172 -0.1115
 3116SOL    HW120984   0.335   0.154   2.043 -0.2897 -0.4695 -0.5477
 3116SOL    HW220985   0.257   0.275   2.003 -0.4027 -1.2967 -0.6659
 3117SOL     OW20986   1.957   3.812   2.907  0.1691 -0.1516 -0.2520
 3117SOL    HW120987   2.049   3.811   2.878 -0.5693 -0.1809 -2.5871
 3117SOL    HW220988   1.942   3.905   2.926  0.5228  0.2872 -2.0688
 3118SOL     OW20989   3.359   2.860   5.041 -0.2633 -0.1339 -0.4795
 3118SOL    HW120990   3.362   2.764   5.034 -1.0618 -0.2747  0.9503
 3118SOL    HW220991   3.419   2.879   4.969  2.0993 -2.5724  0.8280
 3119SOL     OW20992   0.748   3.045   9.124 -0.0513 -0.0025 -0.3903
 3119SOL    HW120993   0.760   2.951   9.138 -0.7582  0.2655  1.9802
 3119SOL    HW220994   0.656   3.043   9.099 -0.6459  0.6278  1.7859
 3120SOL     OW20995   1.059   0.643   6.363  0.2570 -0.1130  1.3309
 3120SOL    HW120996   1.024   0.592   6.436  0.6823  1.6692  2.7800
 3120SOL    HW220997   1.129   0.582   6.338 -0.9697 -1.3776  0.9645
 3121SOL     OW20998   0.686   3.872   4.056 -0.1729 -0.0126  0.3309
 3121SOL    HW120999   0.627   3.883   4.130  0.1081  1.2771  0.3670
 3121SOL    HW221000   0.760   3.846   4.111 -0.3905 -0.2663  0.5034
 3122SOL     OW21001   2.576   0.559  12.148  0.2221  0.1476  0.3242
 3122SOL    HW121002   2.631   0.573  12.226  1.0810 -1.7367  0.0566
 3122SOL    HW221003   2.649   0.570  12.088 -1.7065 -0.9588 -2.2112
 3123SOL     OW21004   1.511   3.832  15.758 -0.0838  0.0791 -0.1308
 3123SOL    HW121005   1.444   3.805  15.820 -0.1700 -0.7509 -0.5775
 3123SOL    HW221006   1.579   3.841  15.825  0.8228 -0.1785 -1.0144
 3124SOL     OW21007   2.371   0.174   9.169 -0.0742 -0.0342  0.1493
 3124SOL    HW121008   2.374   0.221   9.253  0.7468  0.1641  0.0097
 3124SOL    HW221009   2.279   0.192   9.150  0.9302  2.9568 -1.8714
 3125SOL     OW21010   2.888   2.735   1.647  0.3093 -0.6007  0.0442
 3125SOL    HW121011   2.956   2.697   1.702  0.3121 -1.3234 -0.4559
 3125SOL    HW221012   2.824   2.666   1.630 -0.1992 -0.3753  1.0843
 3126SOL     OW21013   0.687   0.546   3.676 -0.3582 -0.4613 -0.4022
 3126SOL    HW121014   0.734   0.507   3.602  0.2857 -1.0702  0.3172
 3126SOL    HW221015   0.611   0.575   3.626 -2.0477 -0.2427  2.3088
 3127SOL     OW21016   0.688   1.861   2.221 -0.1354 -0.4678 -0.2953
 3127SOL    HW121017   0.603   1.906   2.217 -0.4396 -1.1569 -1.6229
 3127SOL    HW221018   0.713   1.832   2.309  0.1683  0.8667  0.0518
 3128SOL     OW21019   3.809   1.325   6.176 -0.0890  0.3859 -0.2454
 3128SOL    HW121020   3.721   1.290   6.166 -0.3377  0.5570  1.4268
 3128SOL    HW221021   3.841   1.249   6.225 -0.2730  0.4608 -0.0099
 3129SOL     OW21022   4.601   4.060   1.227 -0.6370  0.2480  0.3910
 3129SOL    HW121023   4.629   3.969   1.223 -2.2534 -0.2829  0.9201
 3129SOL    HW221024   4.569   4.077   1.138 -2.5252 -2.7216  0.4956
 3130SOL     OW21025   0.761   0.480   8.649 -0.2141  0.0598  0.0268
 3130SOL    HW121026   0.728   0.444   8.567 -0.5521 -0.1690  0.2629
 3130SOL    HW221027   0.786   0.403   8.701  0.1002  0.0615 -0.1212
 3131SOL     OW21028   3.426   0.722   7.394  0.1813  0.6381 -0.2655
 3131SOL    HW121029   3.443   0.636   7.355  1.0084  0.2828  0.8915
 3131SOL    HW221030   3.343   0.743   7.350  0.1824  1.0632 -0.0612
 3132SOL     OW21031   3.124   3.204   2.793 -0.6073  0.2325 -0.2792
 3132SOL    HW121032   3.170   3.132   2.750  2.8690  2.0121  0.4497
 3132SOL    HW221033   3.146   3.273   2.731  0.2331 -0.0898 -0.3401
 3133SOL     OW21034   1.881   1.663   2.770  0.0253  0.4687  0.3164
 3133SOL    HW121035   1.917   1.664   2.858 -0.5643  0.6750  0.5580
 3133SOL    HW221036   1.815   1.731   2.783 -0.1281  0.3086  0.3778
 3134SOL     OW21037   3.559   4.154   2.972 -0.4543  0.4373 -0.1643
 3134SOL    HW121038   3.562   4.142   2.877 -0.0765  0.8056 -0.1964
 3134SOL    HW221039   3.573   4.249   2.972 -1.8704  0.6522 -0.1148
 3135SOL     OW21040   4.022   3.002   3.711  0.1558  0.0118 -0.1804
 3135SOL    HW121041   3.948   2.965   3.759 -1.4742 -0.9089 -3.4281
 3135SOL    HW221042   4.086   2.931   3.715 -1.0752 -1.0914 -0.3876
 3136SOL     OW21043   3.557   3.060   8.120 -0.2081 -0.0978  0.1000
 3136SOL    HW121044   3.573   3.062   8.026  2.2042 -0.0009  0.5076
 3136SOL    HW221045   3.608   3.134   8.153  1.2559 -0.4935 -1.2449
 3137SOL     OW21046   1.890   3.786   3.189  0.4542  0.1283 -0.3752
 3137SOL    HW121047   1.913   3.786   3.096  0.5855  0.1223 -0.3433
 3137SOL    HW221048   1.807   3.739   3.188 -0.3561  1.5816 -2.5231
 3138SOL     OW21049   2.292   4.700   3.482 -0.5385 -0.0138  0.0989
 3138SOL    HW121050   2.296   4.616   3.528  1.3759  0.4335  0.7267
 3138SOL    HW221051   2.356   4.689   3.412 -2.4291 -0.3415 -1.5659
 3139SOL     OW21052   4.462   2.324   9.984  0.6303  0.3045  0.3544
 3139SOL    HW121053   4.443   2.292   9.896  1.2368 -2.2779  1.1372
 3139SOL    HW221054   4.452   2.418   9.971  1.2912  0.2798 -0.2704
 3140SOL     OW21055   1.795   2.306   4.915 -0.3419  0.4608 -0.3500
 3140SOL    HW121056   1.883   2.297   4.951  0.2281 -2.1001 -2.3989
 3140SOL    HW221057   1.793   2.232   4.854  0.5520 -1.4478  1.9297
 3141SOL     OW21058   1.753   4.145   2.712  0.3806  0.1733 -0.4128
 3141SOL    HW121059   1.822   4.210   2.700  2.3661 -1.8497 -0.0232
 3141SOL    HW221060   1.779   4.075   2.652 -3.1474 -3.0571  1.7806
 3142SOL     OW21061   3.651   1.955  12.865 -0.0510 -0.0784 -0.5717
 3142SOL    HW121062   3.608   2.022  12.919 -1.0053 -1.4334  0.3393
 3142SOL    HW221063   3.588   1.937  12.796 -0.6689 -2.5703  0.6285
 3143SOL     OW21064   1.118   2.092  16.466 -0.0460 -0.1314 -0.1582
 3143SOL    HW121065   1.192   2.035  16.483 -0.2782  0.5342  3.1544
 3143SOL    HW221066   1.162   2.177  16.460  2.5155 -1.5632 -1.2370
 3144SOL     OW21067   3.064   1.998  15.995  0.2399  0.3007  0.1998
 3144SOL    HW121068   3.053   1.942  15.918  1.2126  0.5588 -0.1256
 3144SOL    HW221069   3.057   2.079  15.944  0.2363  0.4055  0.3681
 3145SOL     OW21070   2.402   3.185  13.702 -0.6762  0.1868 -0.1054
 3145SOL    HW121071   2.478   3.183  13.761 -1.3504  1.4499  0.8091
 3145SOL    HW221072   2.416   3.107  13.647  1.3504  1.4154 -1.3147
 3146SOL     OW21073   0.163   2.337   7.913 -0.7231 -0.2019  0.1434
 3146SOL    HW121074   0.219   2.413   7.925  1.4319 -2.0063  1.5603
 3146SOL    HW221075   0.190   2.332   7.822  0.0593  0.5620  0.3315
 3147SOL     OW21076   3.379   1.472   2.081  0.0625 -0.0010  0.0856
 3147SOL    HW121077   3.358   1.537   2.149  3.1929 -0.4589  1.5342
 3147SOL    HW221078   3.423   1.406   2.135 -1.6520 -0.8393  0.4386
 3148SOL     OW21079   0.633   2.840   2.426 -0.0352  0.5034 -0.3325
 3148SOL    HW121080   0.627   2.747   2.406 -2.1009  0.1104  2.0835
 3148SOL    HW221081   0.726   2.856   2.411 -0.1429  0.5130 -0.9580
 3149SOL     OW21082   3.490   0.427   6.229 -0.4126  0.3693 -0.0168
 3149SOL    HW121083   3.470   0.340   6.194 -0.3189  0.7559 -1.0419
 3149SOL    HW221084   3.443   0.486   6.171 -0.3978  0.8343  0.4496
 3150SOL     OW21085   3.753   1.533   0.599 -0.9067 -0.1688  0.4772
 3150SOL    HW121086   3.673   1.585   0.590 -1.6189 -1.1486  1.1319
 3150SOL    HW221087   3.776   1.510   0.509 -0.2111  0.2499  0.5464
 3151SOL     OW21088   2.336   2.559   2.110 -0.3618 -0.0189 -0.0245
 3151SOL    HW121089   2.282   2.511   2.047  1.6262  0.1962 -1.9131
 3151SOL    HW221090   2.274   2.626   2.140  0.6621 -0.1624  2.3374
 3152SOL     OW21091   1.537   4.275   6.605 -0.5985  0.4827  0.0377
 3152SOL    HW121092   1.473   4.299   6.538 -2.5819 -0.1589  1.7064
 3152SOL    HW221093   1.613   4.284   6.547 -0.3589 -3.5809 -0.2758
 3153SOL     OW21094   1.651   3.904   8.216 -0.2059  0.0626 -0.0946
 3153SOL    HW121095   1.560   3.922   8.192  0.3988 -0.6929 -2.9969
 3153SOL    HW221096   1.692   3.904   8.130 -0.1017  0.9282 -0.0436
 3154SOL     OW21097   3.224   2.720   9.215 -0.0747  0.2776 -0.1615
 3154SOL    HW121098   3.316   2.734   9.191  0.3232 -1.5624  0.2719
 3154SOL    HW221099   3.194   2.807   9.241 -2.2273 -0.4972 -0.1246
 3155SOL     OW21100   4.300   4.416   5.685 -0.0493  0.1685  0.1309
 3155SOL    HW121101   4.257   4.334   5.711  2.2598 -0.7583  0.9886
 3155SOL    HW221102   4.381   4.418   5.736  1.2608  0.3249 -1.9528
 3156SOL     OW21103   2.657   2.796   0.985  0.0306 -0.0847 -0.0364
 3156SOL    HW121104   2.577   2.815   0.936  0.0902  1.7932  0.5778
 3156SOL    HW221105   2.713   2.788   0.907 -1.1350 -0.1166 -0.8822
 3157SOL     OW21106   2.913   1.584   0.878 -0.1164 -0.3146 -0.2189
 3157SOL    HW121107   2.895   1.614   0.967  2.4217  0.9043 -0.1196
 3157SOL    HW221108   2.877   1.657   0.827 -1.2725  0.8971  2.3697
 3158SOL     OW21109   0.157   4.360   8.758  0.3284  0.0177  0.7413
 3158SOL    HW121110   0.184   4.387   8.670 -2.1363  1.0989  0.3244
 3158SOL    HW221111   0.072   4.402   8.755  0.4889  0.2557 -0.3663
 3159SOL     OW21112   0.750   1.852   6.187 -0.1477 -0.2066  0.2912
 3159SOL    HW121113   0.793   1.925   6.232 -1.1807  2.5293 -3.1160
 3159SOL    HW221114   0.789   1.778   6.233 -1.0137  0.1826  1.6644
 3160SOL     OW21115   3.752   1.939   2.449  0.1106  0.4746 -0.0633
 3160SOL    HW121116   3.673   1.990   2.467 -1.1358 -1.1242 -0.9619
 3160SOL    HW221117   3.778   1.916   2.538  0.1559 -1.1048 -0.4723
 3161SOL     OW21118   4.261   2.657   7.029 -0.2669 -0.0150  0.2018
 3161SOL    HW121119   4.298   2.593   6.969  0.6224  1.2994 -0.6555
 3161SOL    HW221120   4.332   2.721   7.020 -0.7592  0.2108 -2.0344
 3162SOL     OW21121   0.517   2.739   0.472 -0.2929  0.4163  0.2523
 3162SOL    HW121122   0.545   2.811   0.415 -3.2975  1.2863 -0.1387
 3162SOL    HW221123   0.428   2.733   0.437 -0.3232 -1.0630  0.5631
 3163SOL     OW21124   0.550   1.874   3.695  0.4385  0.0650  0.1168
 3163SOL    HW121125   0.580   1.784   3.687  1.0466  0.3645 -0.9572
 3163SOL    HW221126   0.621   1.917   3.742  1.4212  0.6047 -1.8652
 3164SOL     OW21127   1.419   4.721   3.317  0.1347  0.1528 -0.2351
 3164SOL    HW121128   1.359   4.690   3.248  0.1021  0.1083 -0.1866
 3164SOL    HW221129   1.371   0.060   3.354  0.0190 -0.2341  0.3847
 3165SOL     OW21130   3.224   1.021   6.187 -0.4048 -0.1613  0.0020
 3165SOL    HW121131   3.150   1.069   6.223  0.3902  0.6008  0.6234
 3165SOL    HW221132   3.244   1.077   6.112  1.7255  1.8002  2.0470
 3166SOL     OW21133   1.099   3.820   4.828 -0.3905  0.0940 -0.3729
 3166SOL    HW121134   1.171   3.820   4.891 -2.2691  1.6350  1.7819
 3166SOL    HW221135   1.142   3.827   4.742  0.5969  2.8693  0.3573
 3167SOL     OW21136   1.577   3.297   7.501 -0.4319  0.8402 -0.6269
 3167SOL    HW121137   1.504   3.313   7.442 -1.1160 -0.6699 -0.1836
 3167SOL    HW221138   1.542   3.342   7.578  1.3376  1.3007 -0.0967
 3168SOL     OW21139   0.599   1.255  12.175 -0.4793 -0.3408  0.2329
 3168SOL    HW121140   0.614   1.184  12.113  2.6625  1.9775 -1.7096
 3168SOL    HW221141   0.617   1.210  12.257  2.3912  0.6714  0.1684
 3169SOL     OW21142   1.188   0.612   1.890  0.6058  0.4752  0.0337
 3169SOL    HW121143   1.139   0.689   1.862 -0.0879 -0.5570 -1.6131
 3169SOL    HW221144   1.275   0.647   1.870  1.2285 -0.2784  1.4107
 3170SOL     OW21145   3.330   4.697   9.502  0.2374 -0.0076  0.7052
 3170SOL    HW121146   3.420   4.709   9.531  0.3525  0.8005  0.0136
 3170SOL    HW221147   3.301   0.051   9.480 -0.3497 -0.6483 -1.1408
 3171SOL     OW21148   1.505   1.443   4.996  0.0325  0.0072  0.5749
 3171SOL    HW121149   1.510   1.531   5.033  0.3967 -0.7464  2.3351
 3171SOL    HW221150   1.465   1.397   5.071 -1.1634  0.8801  0.4731
 3172SOL     OW21151   1.251   0.755   7.544  0.5020 -0.7835 -0.5831
 3172SOL    HW121152   1.345   0.770   7.548  0.3806 -0.7200  1.7545
 3172SOL    HW221153   1.250   0.675   7.492 -0.4566 -1.1473 -0.0117
 3173SOL     OW21154   1.096   3.481   1.771  0.2812 -0.0825  0.2210
 3173SOL    HW121155   1.119   3.566   1.809  0.7565 -1.1617  2.3779
 3173SOL    HW221156   1.027   3.505   1.710  0.6168 -1.9385 -0.8851
 3174SOL     OW21157   1.474   1.216   3.125  0.1066 -0.0127  0.1419
 3174SOL    HW121158   1.422   1.297   3.134  0.9147  0.6842 -1.3624
 3174SOL    HW221159   1.549   1.239   3.069  0.5070 -1.2174  0.1915
 3175SOL     OW21160   1.642   2.638   2.682 -0.8623 -0.8845  0.0562
 3175SOL    HW121161   1.572   2.591   2.637 -0.7817  0.3421 -1.3382
 3175SOL    HW221162   1.602   2.653   2.768  0.9507  3.3450  0.1750
 3176SOL     OW21163   3.223   0.678   8.422 -0.5530 -0.1022 -0.3232
 3176SOL    HW121164   3.303   0.629   8.439 -0.5739  0.2784  0.9149
 3176SOL    HW221165   3.172   0.611   8.377 -0.0602 -0.2718 -0.6270
 3177SOL     OW21166   3.840   3.233   4.150 -0.1227  0.0164 -0.0529
 3177SOL    HW121167   3.923   3.256   4.191 -0.1203  0.6148 -0.3958
 3177SOL    HW221168   3.842   3.294   4.077  0.4427  1.0669  0.8316
 3178SOL     OW21169   2.909   0.022   3.349 -0.9411 -0.3359  0.6795
 3178SOL    HW121170   2.878   0.063   3.268  4.1867  1.8910 -0.1347
 3178SOL    HW221171   2.985   0.072   3.379 -0.1130 -1.5976  0.6490
 3179SOL     OW21172   0.972   3.564   7.705  0.5513  0.3857 -0.1089
 3179SOL    HW121173   0.883   3.570   7.739  0.4267  1.7943 -0.6387
 3179SOL    HW221174   1.002   3.653   7.686  0.7743  0.4780  0.6810
 3180SOL     OW21175   4.055   2.032   9.453  0.0038 -0.2006  0.3771
 3180SOL    HW121176   4.063   1.938   9.439  0.6966 -0.0994  0.0822
 3180SOL    HW221177   4.073   2.067   9.366 -1.8775 -0.9040 -0.2925
 3181SOL     OW21178   4.680   2.322  17.114  0.2719  0.5163  0.2813
 3181SOL    HW121179   4.703   2.262  17.043  0.2068 -0.3043  0.9530
 3181SOL    HW221180   0.029   2.365  17.134  0.5497 -0.5136  1.3490
 3182SOL     OW21181   2.273   2.748   7.897  0.1059  0.6035 -0.1507
 3182SOL    HW121182   2.295   2.703   7.979 -3.0720  0.1685  0.4934
 3182SOL    HW221183   2.226   2.683   7.844 -0.0485  1.0080 -0.5048
 3183SOL     OW21184   4.212   4.381   1.619 -0.2685 -0.1293  0.4809
 3183SOL    HW121185   4.129   4.349   1.653 -0.3813 -0.5041 -0.1524
 3183SOL    HW221186   4.253   4.397   1.704  0.5877  0.6802 -0.0730
 3184SOL     OW21187   3.545   3.260   1.927 -0.0060  0.2848 -0.0238
 3184SOL    HW121188   3.514   3.263   1.837  1.3977 -1.6504 -0.5577
 3184SOL    HW221189   3.465   3.230   1.969  0.1709 -0.4801 -0.2410
 3185SOL     OW21190   2.942   2.536   7.059 -0.0229 -0.0801 -0.1917
 3185SOL    HW121191   3.033   2.511   7.046 -0.3927 -2.1819  1.1903
 3185SOL    HW221192   2.951   2.628   7.037 -1.2513 -0.3775 -1.9835
 3186SOL     OW21193   4.159   2.505  15.035  0.6948  0.0265  0.9205
 3186SOL    HW121194   4.163   2.410  15.041 -1.6849 -0.2427 -1.5972
 3186SOL    HW221195   4.205   2.514  14.952 -1.1260 -1.4626 -0.2470
 3187SOL     OW21196   2.604   1.416   2.641  0.1461 -0.2589 -0.4739
 3187SOL    HW121197   2.535   1.418   2.575 -1.1666 -0.6305  0.8766
 3187SOL    HW221198   2.590   1.498   2.689  0.3463 -0.0126 -0.8405
 3188SOL     OW21199   4.643   1.808   8.804  0.3662  0.0091  0.1068
 3188SOL    HW121200   4.668   1.884   8.752 -0.8730  0.7055  0.5176
 3188SOL    HW221201   4.648   1.851   8.889 -0.0477  0.5100 -0.1162
 3189SOL     OW21202   4.519   0.376  10.221 -0.6411 -0.1045  0.3043
 3189SOL    HW121203   4.471   0.457  10.204 -0.5669  0.1435  1.3016
 3189SOL    HW221204   4.520   0.383  10.316 -0.3969 -0.1505  0.3059
 3190SOL     OW21205   3.411   1.305   4.786  0.1635 -0.3070  0.2402
 3190SOL    HW121206   3.506   1.300   4.778  0.2486  3.2332 -1.2316
 3190SOL    HW221207   3.407   1.399   4.807  0.2593 -0.3025  0.2374
 3191SOL     OW21208   3.351   1.083   5.608 -0.2071  0.0552  0.7819
 3191SOL    HW121209   3.381   1.094   5.518  0.7873  1.4998  1.3072
 3191SOL    HW221210   3.383   1.163   5.649  1.8331 -0.8963  1.0188
 3192SOL     OW21211   3.669   0.862   5.228  0.3183  0.4700 -0.3152
 3192SOL    HW121212   3.650   0.823   5.313 -1.5552  2.4328  0.1535
 3192SOL    HW221213   3.712   0.781   5.201 -1.7393 -1.0769  1.0789
 3193SOL     OW21214   4.258   1.189  16.432 -0.2191  0.1031  0.0645
 3193SOL    HW121215   4.325   1.196  16.500  0.9658 -0.5329 -1.0290
 3193SOL    HW221216   4.204   1.262  16.462  0.9601  1.1127 -0.2700
 3194SOL     OW21217   1.098   3.231   5.057  0.0120  0.4459  0.2350
 3194SOL    HW121218   1.139   3.279   5.129  1.1621 -1.7518  1.0687
 3194SOL    HW221219   1.068   3.305   5.005 -1.0200  0.8908  1.4491
 3195SOL     OW21220   0.482   0.054   3.594 -0.5212  0.0609  0.8678
 3195SOL    HW121221   0.495   4.715   3.534 -1.5171  0.8744 -0.3707
 3195SOL    HW221222   0.424   0.106   3.538 -0.0732  1.7293  1.9543
 3196SOL     OW21223   3.032   2.381   7.428 -0.0127  0.1375  0.4256
 3196SOL    HW121224   3.075   2.425   7.355 -0.6145 -0.8803 -0.5516
 3196SOL    HW221225   3.035   2.444   7.499 -0.6002 -0.7233  1.2155
 3197SOL     OW21226   0.030   2.823  17.465 -0.2516 -0.3547  0.6445
 3197SOL    HW121227   4.674   2.846  17.485 -0.6473  0.8678 -2.6862
 3197SOL    HW221228   0.040   2.849  17.374 -0.1931 -0.9885  0.4689
 3198SOL     OW21229   2.945   3.416   1.582 -0.2396  0.1790 -0.0017
 3198SOL    HW121230   2.871   3.355   1.585  0.4460 -0.7723 -2.0710
 3198SOL    HW221231   2.999   3.381   1.511 -1.0321 -1.6945  0.3211
 3199SOL     OW21232   2.015   2.789   9.166 -0.0472  0.2092 -0.5620
 3199SOL    HW121233   1.997   2.872   9.210 -0.6171 -2.0043  3.3515
 3199SOL    HW221234   1.934   2.745   9.190 -0.0512  0.6522  0.2084
 3200SOL     OW21235   1.312   3.118   5.594  0.0472  0.1332  0.4150
 3200SOL    HW121236   1.256   3.190   5.569  0.0686 -0.2831 -0.7991
 3200SOL    HW221237   1.338   3.143   5.683  0.8968 -0.1676  0.2586
 3201SOL     OW21238   2.867   0.430   1.173  0.1114  0.0168  0.6494
 3201SOL    HW121239   2.856   0.524   1.190 -0.0439  0.4668 -1.8918
 3201SOL    HW221240   2.962   0.432   1.184  0.0206 -1.4675  1.7223
 3202SOL     OW21241   3.097   3.866   9.547  0.6264  0.2033  0.5285
 3202SOL    HW121242   3.187   3.874   9.580  0.9665  0.2717 -0.4194
 3202SOL    HW221243   3.061   3.900   9.629  0.4547  0.8024  0.2068
 3203SOL     OW21244   2.602   1.515   8.764 -0.3794  0.3253 -0.2258
 3203SOL    HW121245   2.548   1.539   8.689  1.1681  0.5698 -1.2452
 3203SOL    HW221246   2.541   1.472   8.825 -1.0399 -0.9284 -1.7817
 3204SOL     OW21247   1.940   1.070   1.911  0.1058 -0.1296  0.0289
 3204SOL    HW121248   1.968   1.089   2.001 -1.2149 -1.4263  0.7128
 3204SOL    HW221249   1.869   1.008   1.927 -0.1867  0.0020 -0.7545
 3205SOL     OW21250   2.784   4.102   6.989  0.0678 -0.3581  0.4085
 3205SOL    HW121251   2.763   4.140   6.904 -0.1397 -1.0174  0.1659
 3205SOL    HW221252   2.766   4.182   7.038 -1.2152 -1.4775  1.7622
 3206SOL     OW21253   1.895   1.448   6.584  0.3475 -0.5188 -0.3990
 3206SOL    HW121254   1.956   1.522   6.589  0.0748 -0.3676  0.6103
 3206SOL    HW221255   1.844   1.467   6.505  1.0434  1.6812 -0.3213
 3207SOL     OW21256   0.456   4.711   5.239  0.2457 -0.7353  0.2223
 3207SOL    HW121257   0.504   4.648   5.186 -0.8628 -0.3523 -1.2454
 3207SOL    HW221258   0.482   4.684   5.327  0.6675  0.3559  0.4439
 3208SOL     OW21259   1.349   3.648   5.443  0.0527  0.6664  0.1593
 3208SOL    HW121260   1.274   3.648   5.501 -1.4419  1.9607 -1.7799
 3208SOL    HW221261   1.417   3.676   5.505  0.7670  0.9303 -0.7480
 3209SOL     OW21262   2.567   1.117  10.256 -0.4744 -0.0480  0.1575
 3209SOL    HW121263   2.547   1.037  10.207 -0.5453  0.5634 -0.8168
 3209SOL    HW221264   2.482   1.138  10.294 -1.0621 -0.1849 -1.0654
 3210SOL     OW21265   4.498   3.278   2.265  0.5972  0.1679  0.1797
 3210SOL    HW121266   4.488   3.227   2.345 -0.6735 -0.8587 -0.6392
 3210SOL    HW221267   4.472   3.206   2.207 -1.0290  2.1537 -1.5544
 3211SOL     OW21268   2.225   3.052   1.810  0.0422 -0.5608 -0.0288
 3211SOL    HW121269   2.265   3.010   1.886  1.5836  1.3028  0.1790
 3211SOL    HW221270   2.221   3.141   1.846 -1.1191 -1.0406  1.0137
 3212SOL     OW21271   2.952   4.654   2.705  0.0959 -0.0633  0.1557
 3212SOL    HW121272   3.031   4.666   2.652 -0.7577  3.2492 -0.3081
 3212SOL    HW221273   2.995   4.617   2.783 -0.4974  2.5706  1.7446
 3213SOL     OW21274   0.709   2.837  16.466 -0.8009 -1.0509  0.4432
 3213SOL    HW121275   0.648   2.824  16.539 -1.7313  0.6409 -0.0286
 3213SOL    HW221276   0.748   2.750  16.455  1.9356  0.5625 -2.6917
 3214SOL     OW21277   2.231   0.895   2.246 -0.0951 -0.0462  0.1646
 3214SOL    HW121278   2.255   0.825   2.307 -1.1842 -0.5883 -0.0238
 3214SOL    HW221279   2.238   0.972   2.302  2.2339  1.3794 -2.0979
 3215SOL     OW21280   1.082   4.650   9.381  0.1624 -0.3173  0.3094
 3215SOL    HW121281   1.154   4.594   9.352  1.9747  2.2536 -0.1564
 3215SOL    HW221282   1.009   4.588   9.382  1.4155 -1.7599  3.4046
 3216SOL     OW21283   1.964   0.757   2.785 -0.4321 -0.0529  0.1199
 3216SOL    HW121284   1.938   0.668   2.808  2.3475 -1.0025 -0.4157
 3216SOL    HW221285   1.878   0.799   2.775 -1.0670 -1.3787  0.0243
 3217SOL     OW21286   2.072   3.245   4.618 -0.1226  0.3171  0.1727
 3217SOL    HW121287   2.023   3.313   4.573 -2.2721 -0.8929  0.6611
 3217SOL    HW221288   2.030   3.165   4.586  0.7210 -0.6721  1.5023
 3218SOL     OW21289   3.931   0.343   2.896  0.0570 -1.0069 -0.5402
 3218SOL    HW121290   3.983   0.377   2.969  0.1079 -1.7600 -0.2178
 3218SOL    HW221291   3.857   0.306   2.945 -0.5846 -1.3670 -1.7832
 3219SOL     OW21292   2.038   0.714   1.637  0.6143 -0.0869 -0.6009
 3219SOL    HW121293   2.069   0.799   1.668  1.0002 -0.4688  0.0454
 3219SOL    HW221294   1.945   0.728   1.621  0.6786  1.2286  0.1720
 3220SOL     OW21295   4.597   4.351   6.981  0.3103  0.7229  0.4914
 3220SOL    HW121296   4.507   4.368   7.011 -0.0261  0.4852 -0.3692
 3220SOL    HW221297   4.592   4.384   6.891 -0.0909 -1.3787 -0.2632
 3221SOL     OW21298   0.069   0.088   0.583 -0.0074  0.5189  0.4658
 3221SOL    HW121299   0.039   0.074   0.673 -0.0792 -0.1611  0.3394
 3221SOL    HW221300   0.017   0.028   0.529  0.6090  0.3454  0.0617
 3222SOL     OW21301   1.624   0.907   4.818 -0.1110 -0.4838 -0.6880
 3222SOL    HW121302   1.660   0.996   4.814 -0.7000 -0.2074  0.0930
 3222SOL    HW221303   1.533   0.912   4.787  0.4288  3.7227 -1.6459
 3223SOL     OW21304   2.767   0.019  12.881 -0.1032  0.2679 -0.3478
 3223SOL    HW121305   2.729   4.694  12.946  0.8575  0.0105 -0.0150
 3223SOL    HW221306   2.757   0.103  12.925  0.0051 -1.1636  2.4044
 3224SOL     OW21307   2.532   3.294   9.548  0.6396  0.4870  0.1951
 3224SOL    HW121308   2.441   3.294   9.577  0.6613 -0.4641  0.2595
 3224SOL    HW221309   2.559   3.209   9.581  0.3219 -0.7334 -2.6912
 3225SOL     OW21310   4.727   1.974  11.713 -0.5663 -0.1433 -0.6731
 3225SOL    HW121311   4.680   1.921  11.649 -0.1783 -2.5325  0.9878
 3225SOL    HW221312   4.730   1.912  11.786  1.3712  1.6576  0.7955
 3226SOL     OW21313   4.353   0.231   8.285 -0.3946 -0.1667  0.3616
 3226SOL    HW121314   4.394   0.145   8.288 -2.4513 -1.2241 -1.7735
 3226SOL    HW221315   4.435   0.279   8.293 -1.4836  1.6704  0.7931
 3227SOL     OW21316   1.439   0.057   8.339  0.0882  0.3516 -0.0845
 3227SOL    HW121317   1.406   4.705   8.318  1.1862 -0.1403  0.2613
 3227SOL    HW221318   1.356   0.101   8.359 -0.9085 -1.8050  0.4129
 3228SOL     OW21319   0.067   3.839   1.267  0.1400  0.3018 -0.0976
 3228SOL    HW121320   0.048   3.776   1.336 -3.4018  0.9549 -0.4886
 3228SOL    HW221321   0.148   3.880   1.300  0.5860 -0.6524 -0.0171
 3229SOL     OW21322   2.962   3.468   4.404 -0.2026  0.0570 -0.2153
 3229SOL    HW121323   3.054   3.460   4.431 -0.2355  1.7599  0.3748
 3229SOL    HW221324   2.954   3.562   4.418  0.5526 -0.2318  2.1977
 3230SOL     OW21325   2.331   4.009  12.702 -0.4079 -0.4634 -0.4566
 3230SOL    HW121326   2.419   4.045  12.701  0.1749 -1.8465  1.2078
 3230SOL    HW221327   2.266   4.077  12.684  0.5116  0.6237  0.3595
 3231SOL     OW21328   0.451   3.046   5.653 -0.3654  0.3856  0.1864
 3231SOL    HW121329   0.441   2.951   5.646  1.4479  0.3247 -1.5289
 3231SOL    HW221330   0.434   3.052   5.747 -0.4633  1.0521  0.1260
 3232SOL     OW21331   2.794   1.115   8.086 -0.2833  0.9482 -0.0775
 3232SOL    HW121332   2.764   1.130   7.997 -0.4364  0.1762 -0.1580
 3232SOL    HW221333   2.889   1.107   8.074  0.0344  0.1898  2.8375
 3233SOL     OW21334   2.850   3.812   1.872  0.1543 -0.2022 -0.3020
 3233SOL    HW121335   2.932   3.763   1.867 -0.1904 -0.8608  0.5829
 3233SOL    HW221336   2.781   3.747   1.885  1.1725 -0.9576  1.3004
 3234SOL     OW21337   2.392   0.786   3.880 -0.3995 -0.0229 -0.9479
 3234SOL    HW121338   2.368   0.694   3.890 -1.0635  0.3601  0.9044
 3234SOL    HW221339   2.474   0.782   3.832 -0.1161  0.9680 -0.5481
 3235SOL     OW21340   1.065   1.517   5.116 -0.1210  0.0655 -0.2253
 3235SOL    HW121341   1.032   1.457   5.049 -0.6080  2.2234 -1.9194
 3235SOL    HW221342   1.001   1.588   5.118 -0.5899 -0.3488 -0.6275
 3236SOL     OW21343   0.159   4.324   1.009  0.0143 -0.4443  0.2033
 3236SOL    HW121344   0.154   4.296   1.100 -3.7051  0.5159  0.3116
 3236SOL    HW221345   0.104   4.402   1.016  0.0809 -0.3637 -0.1377
 3237SOL     OW21346   2.975   0.586   7.736 -0.0008 -0.7098  0.1695
 3237SOL    HW121347   2.905   0.520   7.733 -0.2116 -0.5720  2.3862
 3237SOL    HW221348   3.058   0.537   7.741  0.3430 -0.1768 -0.3648
 3238SOL     OW21349   2.913   1.958   4.883 -0.1296  0.1452 -0.0109
 3238SOL    HW121350   2.870   2.031   4.839  1.1473 -0.6762 -2.5753
 3238SOL    HW221351   2.986   2.008   4.920 -1.3503  0.6053  1.7855
 3239SOL     OW21352   1.750   0.226  15.967  0.4887 -0.4544  0.0213
 3239SOL    HW121353   1.806   0.291  15.924 -1.7921  2.1490  0.9181
 3239SOL    HW221354   1.698   0.269  16.034  0.3398 -0.9113  0.1966
 3240SOL     OW21355   3.455   3.534  11.848 -0.2492  0.0456 -0.0000
 3240SOL    HW121356   3.521   3.601  11.829 -0.9563  0.6965 -0.1581
 3240SOL    HW221357   3.490   3.511  11.934 -1.4635  0.8197  0.7013
 3241SOL     OW21358   3.265   4.521   1.531  0.4375  0.5156 -0.2725
 3241SOL    HW121359   3.182   4.542   1.488  0.7974  1.4473 -0.4998
 3241SOL    HW221360   3.237   4.488   1.617 -0.1066 -1.6370 -1.2757
 3242SOL     OW21361   0.031   4.223  17.538  0.1552 -0.4340  0.6560
 3242SOL    HW121362   0.091   4.239  17.611 -0.9399 -1.0620  1.6994
 3242SOL    HW221363   4.687   4.196  17.586  0.4010  1.2765  2.0361
 3243SOL     OW21364   0.072   3.343   4.247 -0.3698 -0.1170  0.6450
 3243SOL    HW121365   0.157   3.349   4.204 -0.6906  0.4966  0.0948
 3243SOL    HW221366   0.015   3.358   4.171 -2.4906 -1.1916  2.0057
 3244SOL     OW21367   0.211   1.500   7.646 -0.4193 -0.5555 -0.2766
 3244SOL    HW121368   0.123   1.465   7.661 -1.0031  1.1242  0.2242
 3244SOL    HW221369   0.264   1.429   7.683 -0.2078 -1.1523 -1.7119
 3245SOL     OW21370   0.854   1.530   2.933 -0.3913  0.2895 -0.9492
 3245SOL    HW121371   0.870   1.487   2.849  1.0131 -0.4061 -0.3187
 3245SOL    HW221372   0.891   1.616   2.912 -2.2154  1.3163  0.0527
 3246SOL     OW21373   1.681   1.222   8.806 -0.2469 -0.3612 -0.5021
 3246SOL    HW121374   1.632   1.210   8.725  1.1011 -1.0009 -1.2408
 3246SOL    HW221375   1.615   1.227   8.875  0.3454  0.5005  0.0006
 3247SOL     OW21376   2.011   0.490   1.806 -0.1190  0.6610 -0.0818
 3247SOL    HW121377   2.097   0.462   1.838 -1.1725 -0.9675  1.2907
 3247SOL    HW221378   2.033   0.573   1.762  1.6687 -0.2912 -0.9823
 3248SOL     OW21379   0.259   4.449   8.179 -0.0404  0.2562  0.3188
 3248SOL    HW121380   0.323   4.392   8.222  1.1400  0.6817 -0.8717
 3248SOL    HW221381   0.275   4.415   8.091  3.2392  0.9579  0.6298
 3249SOL     OW21382   4.036   3.284   1.060 -0.4186  0.4753  0.2667
 3249SOL    HW121383   4.050   3.268   1.153  0.7363 -0.6719 -0.0918
 3249SOL    HW221384   4.127   3.310   1.046 -0.9426  0.7639 -2.5692
 3250SOL     OW21385   3.935   1.320   4.279 -0.1950 -0.3989 -0.5655
 3250SOL    HW121386   3.992   1.396   4.273  1.2773 -1.6764 -2.5356
 3250SOL    HW221387   3.992   1.247   4.254  0.9060 -0.0052  0.8043
 3251SOL     OW21388   2.525   4.158   6.022  0.2329 -0.2348  0.6805
 3251SOL    HW121389   2.476   4.224   5.973 -1.6414 -1.1677  1.3275
 3251SOL    HW221390   2.503   4.076   5.978 -0.2387  0.8598 -1.1358
 3252SOL     OW21391   2.543   1.641   5.654 -0.5377 -0.2362  0.6396
 3252SOL    HW121392   2.586   1.579   5.595  0.9362 -0.9991  2.4964
 3252SOL    HW221393   2.602   1.716   5.651 -0.6524 -0.0600  2.4812
 3253SOL     OW21394   1.832   3.682   4.417  0.0715 -0.2272  0.0431
 3253SOL    HW121395   1.747   3.647   4.391  0.1308 -0.2320 -0.1452
 3253SOL    HW221396   1.876   3.599   4.436 -1.2476 -1.0808 -0.6491
 3254SOL     OW21397   2.657   2.046   8.082 -0.1910 -0.4876  0.0158
 3254SOL    HW121398   2.734   2.059   8.138  0.6902  1.1284 -1.5820
 3254SOL    HW221399   2.609   2.125   8.106  0.8952 -0.6978  2.9676
 3255SOL     OW21400   4.558   4.549   7.569  0.5929  0.2998  0.3855
 3255SOL    HW121401   4.639   4.502   7.592  0.7680  0.9432  1.0716
 3255SOL    HW221402   4.556   4.531   7.475  0.4908  2.4946 -0.0231
 3256SOL     OW21403   0.949   1.119   7.993 -0.6386  0.1661  0.2181
 3256SOL    HW121404   0.995   1.066   8.057  0.5904 -0.3234 -1.0744
 3256SOL    HW221405   0.868   1.067   7.989 -0.2080 -0.5900  1.4732
 3257SOL     OW21406   2.977   2.166   8.005 -0.7861  0.2255 -0.5379
 3257SOL    HW121407   2.951   2.101   7.940  2.4081 -0.5378 -1.0502
 3257SOL    HW221408   2.984   2.121   8.089  1.6481  0.5466 -0.5658
 3258SOL     OW21409   0.246   0.738   0.389  0.7961 -0.1379  0.1495
 3258SOL    HW121410   0.225   0.648   0.412 -2.3717  0.8917  1.2164
 3258SOL    HW221411   0.228   0.739   0.295  0.7904  1.1263  0.1628
 3259SOL     OW21412   2.604   0.203   9.022 -0.4220  0.1559 -0.0588
 3259SOL    HW121413   2.522   0.179   9.064  0.4770 -2.6192  0.0917
 3259SOL    HW221414   2.596   0.296   9.000  1.4112  1.2018  3.7869
 3260SOL     OW21415   1.863   2.103   1.616 -0.4314  0.2312 -0.3767
 3260SOL    HW121416   1.885   2.058   1.698 -1.3475  0.5278  0.0370
 3260SOL    HW221417   1.769   2.121   1.626 -0.1336  2.1865 -1.0299
 3261SOL     OW21418   4.485   1.502   0.428 -0.2337  0.1401 -0.8600
 3261SOL    HW121419   4.514   1.451   0.503  0.5461  2.7777  0.6166
 3261SOL    HW221420   4.390   1.507   0.435 -0.3680 -1.5167 -1.3615
 3262SOL     OW21421   1.473   1.526  12.919 -0.5545 -0.2562  0.1814
 3262SOL    HW121422   1.389   1.516  12.873  1.3738 -0.8785 -3.1292
 3262SOL    HW221423   1.530   1.510  12.844 -0.1270  1.7970  0.0749
 3263SOL     OW21424   0.372   0.843  16.917  0.2175 -0.5558  0.2027
 3263SOL    HW121425   0.416   0.923  16.947  1.4049 -0.0757 -2.7795
 3263SOL    HW221426   0.330   0.865  16.833  2.3534  2.1187 -0.1881
 3264SOL     OW21427   3.146   2.751   4.101  0.1943  0.3674 -0.2715
 3264SOL    HW121428   3.077   2.803   4.142 -0.6307  0.1579 -1.3946
 3264SOL    HW221429   3.186   2.709   4.177 -0.4154  2.1431  1.0222
 3265SOL     OW21430   4.351   3.787   3.327  0.1068 -0.3137  0.0271
 3265SOL    HW121431   4.440   3.761   3.352 -0.7713 -2.2759  1.0951
 3265SOL    HW221432   4.376   3.851   3.261  0.1846  0.1100  0.4624
 3266SOL     OW21433   4.731   1.180   0.233  0.1726  0.1309 -0.0571
 3266SOL    HW121434   4.673   1.141   0.298  1.9845 -1.8713  0.3691
 3266SOL    HW221435   0.005   1.271   0.260 -0.7622  0.9213 -2.4322
 3267SOL     OW21436   1.793   0.749   1.532 -0.5388 -0.1505  0.3130
 3267SOL    HW121437   1.703   0.766   1.560 -1.8296 -5.0161 -0.7461
 3267SOL    HW221438   1.764   0.682   1.469  0.5470  0.7756 -1.1816
 3268SOL     OW21439   2.934   3.978   1.070  0.1311  0.3126 -0.6407
 3268SOL    HW121440   2.844   3.960   1.097 -0.2734 -1.6064 -3.2466
 3268SOL    HW221441   2.931   3.931   0.987  0.6747  1.6706 -1.4167
 3269SOL     OW21442   4.452   4.718   2.144  0.3888 -0.7002  0.0437
 3269SOL    HW121443   4.525   0.040   2.120 -0.2067  0.0309 -0.0152
 3269SOL    HW221444   4.469   4.694   2.236 -0.3793  0.5627  0.5129
 3270SOL     OW21445   1.324   0.749   4.928 -0.3041 -0.1317 -0.1317
 3270SOL    HW121446   1.344   0.808   4.856  1.4647  0.0533  0.5101
 3270SOL    HW221447   1.249   0.704   4.890 -1.6004  0.6444  1.4989
 3271SOL     OW21448   3.219   2.934   1.929 -0.3613  0.5142 -0.3520
 3271SOL    HW121449   3.253   2.946   1.840  3.0475  0.8131  1.0171
 3271SOL    HW221450   3.268   3.009   1.962 -0.7686  0.2662  0.8117
 3272SOL     OW21451   3.219   1.960   3.652 -0.5687 -0.2202 -0.1406
 3272SOL    HW121452   3.261   1.991   3.572 -1.3745  1.8204  0.2146
 3272SOL    HW221453   3.160   2.035   3.656  1.6789  1.4322  2.6520
 3273SOL     OW21454   0.587   4.040  11.276 -0.1313 -0.1065 -0.7656
 3273SOL    HW121455   0.628   4.121  11.248  1.9507 -1.5904 -1.9590
 3273SOL    HW221456   0.529   4.029  11.201 -0.5498  0.4080 -0.5165
 3274SOL     OW21457   3.161   1.683  13.364  0.1847  0.7133 -0.1414
 3274SOL    HW121458   3.116   1.600  13.350 -1.8805  2.0297 -1.2106
 3274SOL    HW221459   3.201   1.688  13.277 -1.7146 -0.5893 -1.0699
 3275SOL     OW21460   1.088   2.773   7.377  0.1869 -1.0714 -0.3631
 3275SOL    HW121461   1.090   2.867   7.396  1.4292 -0.4819 -3.4179
 3275SOL    HW221462   1.172   2.758   7.334  2.1370 -1.5919  3.6444
 3276SOL     OW21463   3.811   0.455   0.401  0.2494 -0.1595 -0.3062
 3276SOL    HW121464   3.805   0.513   0.325 -0.4379 -0.2135 -0.2892
 3276SOL    HW221465   3.851   0.382   0.353 -1.4723 -0.7083 -0.8935
 3277SOL     OW21466   2.279   0.580   7.659 -0.2690  0.0191 -0.0062
 3277SOL    HW121467   2.300   0.635   7.735 -0.3382 -0.3498  0.2786
 3277SOL    HW221468   2.197   0.540   7.687 -0.0484 -0.4303 -0.0101
 3278SOL     OW21469   2.864   0.696   7.494 -0.0346 -0.5296  0.4389
 3278SOL    HW121470   2.918   0.755   7.443  0.8412 -1.9469 -0.2705
 3278SOL    HW221471   2.918   0.671   7.569  3.4186 -0.7418 -2.1804
 3279SOL     OW21472   2.366   2.477   1.528 -0.2593  0.2632 -0.3348
 3279SOL    HW121473   2.295   2.539   1.511  0.5067  1.0610 -0.6372
 3279SOL    HW221474   2.439   2.508   1.476 -1.7964 -0.0018 -2.6500
 3280SOL     OW21475   2.991   1.848  11.962  0.6706 -0.5123 -0.1137
 3280SOL    HW121476   2.984   1.893  12.046 -1.2616 -1.1952  0.0810
 3280SOL    HW221477   2.987   1.923  11.903  0.5939  0.0006  0.5373
 3281SOL     OW21478   3.031   3.202   3.061 -0.1221  0.5950  0.8310
 3281SOL    HW121479   3.073   3.190   2.976  3.0329 -0.5160  2.5727
 3281SOL    HW221480   2.941   3.223   3.035 -0.2350  2.0966  2.4152
 3282SOL     OW21481   4.639   2.420   6.199  0.3479 -0.0087  0.1833
 3282SOL    HW121482   4.732   2.397   6.192  0.5959  1.3052 -0.9508
 3282SOL    HW221483   4.625   2.471   6.119  1.1883 -0.6978 -0.4057
 3283SOL     OW21484   0.010   4.674   4.030  0.3574  0.1320 -0.4320
 3283SOL    HW121485   0.013   4.619   4.108 -0.8037 -2.1972 -2.0429
 3283SOL    HW221486   4.671   4.732   4.053  1.4833  0.8023  1.5032
 3284SOL     OW21487   2.766   0.733  12.308  0.0918 -0.1766 -0.3458
 3284SOL    HW121488   2.841   0.770  12.263  0.2217 -0.9726 -0.8031
 3284SOL    HW221489   2.700   0.801  12.297 -0.5948 -0.9146 -0.8005
 3285SOL     OW21490   3.154   2.577   2.317  0.4500 -0.2839  0.4163
 3285SOL    HW121491   3.179   2.590   2.226 -0.8503  0.5419  0.1802
 3285SOL    HW221492   3.060   2.597   2.318  0.4527 -0.2975  1.1634
 3286SOL     OW21493   0.613   4.042   9.791  0.3380  1.0854  0.7162
 3286SOL    HW121494   0.630   4.006   9.878  0.8347 -3.0600 -1.0856
 3286SOL    HW221495   0.702   4.069   9.771 -0.1026  3.6974  2.4090
 3287SOL     OW21496   4.349   1.088   0.631 -0.5568  0.0525  0.2580
 3287SOL    HW121497   4.296   1.105   0.709 -1.8892 -1.8130 -0.2527
 3287SOL    HW221498   4.404   1.018   0.666 -0.1693  1.5810  2.6903
 3288SOL     OW21499   3.860   0.243   0.232  0.0909  0.9324  0.1611
 3288SOL    HW121500   3.796   0.264   0.163  1.8427  0.8045 -1.4827
 3288SOL    HW221501   3.821   0.159   0.256  0.4390  0.3992 -1.1714
 3289SOL     OW21502   0.006   2.532   5.111  0.7802  0.4799 -0.3410
 3289SOL    HW121503   4.672   2.496   5.056 -1.9180  2.9439  1.3561
 3289SOL    HW221504   4.719   2.496   5.197  0.2644  1.9202  0.1287
 3290SOL     OW21505   1.965   1.524   4.072 -0.2217 -0.4212 -0.2812
 3290SOL    HW121506   2.003   1.547   4.157 -0.9074  2.1656 -0.6917
 3290SOL    HW221507   1.990   1.604   4.026  0.2937  0.5791  1.7734
 3291SOL     OW21508   0.399   4.711   6.040  0.1030 -0.9326  0.3534
 3291SOL    HW121509   0.412   4.656   5.963  1.1891 -2.9753  1.9592
 3291SOL    HW221510   0.484   4.688   6.080  0.7848 -0.2524 -0.7194
 3292SOL     OW21511   1.277   2.968  13.096 -0.4324 -0.5392  0.4451
 3292SOL    HW121512   1.296   2.908  13.168 -2.2969  0.3193  1.6680
 3292SOL    HW221513   1.339   2.935  13.031  1.6870 -0.0710  2.2366
 3293SOL     OW21514   0.528   3.016   4.785  0.7025  0.3181  0.3600
 3293SOL    HW121515   0.545   2.959   4.710 -0.1736 -0.8519  1.0489
 3293SOL    HW221516   0.463   2.966   4.833  0.4598  1.1279  0.8841
 3294SOL     OW21517   1.913   4.162  13.960 -0.4686  0.5190  0.8092
 3294SOL    HW121518   1.935   4.228  13.895 -2.6708  0.9930  0.5551
 3294SOL    HW221519   1.978   4.091  13.959  0.9208  1.8220 -1.3720
 3295SOL     OW21520   2.519   0.388   6.183  0.2475 -0.1042  0.7400
 3295SOL    HW121521   2.530   0.314   6.242  3.2839 -0.3436 -0.0778
 3295SOL    HW221522   2.501   0.339   6.102  0.1939  2.0098 -0.5266
 3296SOL     OW21523   3.656   2.882   9.007  0.1156 -0.1881  0.0603
 3296SOL    HW121524   3.584   2.844   9.057  1.0558 -0.4794  1.1929
 3296SOL    HW221525   3.701   2.945   9.063 -0.6490  1.4214 -1.1547
 3297SOL     OW21526   4.309   3.102   5.638  0.8196 -0.4013 -0.3258
 3297SOL    HW121527   4.234   3.113   5.579  0.2507 -0.4694  0.3866
 3297SOL    HW221528   4.265   3.083   5.721  1.3321  0.1285  0.0685
 3298SOL     OW21529   2.056   4.429   4.350  0.8249  0.7777 -0.1257
 3298SOL    HW121530   1.972   4.436   4.304  2.1608 -1.7532 -2.9499
 3298SOL    HW221531   2.025   4.369   4.418  3.0646  1.8647  1.8446
 3299SOL     OW21532   0.715   2.035   8.288  0.7801 -0.6516  0.4826
 3299SOL    HW121533   0.807   2.028   8.265  0.7918  0.8731  0.0717
 3299SOL    HW221534   0.709   2.007   8.379 -0.9998 -0.3337  0.4755
 3300SOL     OW21535   2.189   4.292   3.351  0.2956 -0.1117  0.3086
 3300SOL    HW121536   2.217   4.232   3.282  0.3344  2.2267 -1.7025
 3300SOL    HW221537   2.263   4.353   3.351  1.2869 -1.3030 -1.1438
 3301SOL     OW21538   2.812   2.147   1.336  0.3409 -0.0158 -0.2026
 3301SOL    HW121539   2.817   2.086   1.262  0.8707  0.6269 -0.6935
 3301SOL    HW221540   2.727   2.121   1.371  1.1330 -1.2982  0.7631
 3302SOL     OW21541   4.281   1.526  12.071  0.1546  0.6330  0.3046
 3302SOL    HW121542   4.325   1.441  12.081  0.6020  0.7460 -0.6870
 3302SOL    HW221543   4.357   1.578  12.098  1.4743 -0.6918 -0.8614
 3303SOL     OW21544   0.974   1.060   1.955  0.4288  0.3208 -0.3220
 3303SOL    HW121545   1.032   1.134   1.936 -0.0633  1.0000  0.8293
 3303SOL    HW221546   0.964   1.073   2.049 -1.4556  0.4988 -0.5485
 3304SOL     OW21547   0.632   3.441   5.067 -0.6763  0.6060 -0.0776
 3304SOL    HW121548   0.688   3.428   4.989 -1.9379  1.0580 -1.0547
 3304SOL    HW221549   0.593   3.354   5.075  1.2123 -0.4032 -1.6468
 3305SOL     OW21550   4.631   2.375   8.277  0.0562  0.6695 -0.3431
 3305SOL    HW121551   4.668   2.440   8.216 -0.9431  1.7208  0.1660
 3305SOL    HW221552   4.621   2.309   8.208 -0.4260  0.8471 -0.4436
 3306SOL     OW21553   0.808   2.717   7.936  0.5729 -0.3203  0.1596
 3306SOL    HW121554   0.850   2.792   7.894 -4.3643  1.2165 -2.1780
 3306SOL    HW221555   0.803   2.756   8.023  1.6924  0.1488  0.0139
 3307SOL     OW21556   0.597   2.681   5.346 -0.0355  0.2080  0.3540
 3307SOL    HW121557   0.670   2.622   5.366 -1.4513 -1.4695  0.6058
 3307SOL    HW221558   0.565   2.629   5.272  2.1759  1.5494 -1.5083
 3308SOL     OW21559   3.597   3.055   1.246 -0.2481  0.1041  0.0105
 3308SOL    HW121560   3.530   2.989   1.231 -1.0131  1.1400 -1.1128
 3308SOL    HW221561   3.619   3.056   1.339 -0.7881 -0.0431  0.1396
 3309SOL     OW21562   4.030   0.698   3.654 -0.5665 -0.2150  0.3673
 3309SOL    HW121563   4.003   0.784   3.622 -1.7558 -0.4602  0.6991
 3309SOL    HW221564   4.124   0.690   3.644 -0.2795  1.5062  1.6944
 3310SOL     OW21565   0.905   1.216  11.982 -0.0132  0.5523  0.3695
 3310SOL    HW121566   0.888   1.271  12.059 -1.8541  2.4458 -1.3922
 3310SOL    HW221567   0.821   1.170  11.980 -1.3528  3.0427 -1.2294
 3311SOL     OW21568   2.836   0.050   4.885  0.1832  0.3797  0.0194
 3311SOL    HW121569   2.799   0.127   4.842  1.1485 -0.3466 -2.1122
 3311SOL    HW221570   2.819   4.726   4.811 -1.7451 -0.0769  0.8170
 3312SOL     OW21571   3.932   4.169   4.090  0.3012  0.1482 -0.8417
 3312SOL    HW121572   4.028   4.165   4.093  0.2142 -1.0408 -0.1252
 3312SOL    HW221573   3.905   4.224   4.164 -3.0201  1.2088 -2.8404
 3313SOL     OW21574   0.772   1.250   0.270 -0.4606 -0.6263 -0.0080
 3313SOL    HW121575   0.783   1.291   0.356  0.8032  0.7364 -0.8268
 3313SOL    HW221576   0.861   1.229   0.243  0.3865  1.6911  0.9962
 3314SOL     OW21577   3.295   3.255  14.193 -0.2008  0.2117  0.1751
 3314SOL    HW121578   3.237   3.185  14.163 -1.6993  1.7302 -0.5067
 3314SOL    HW221579   3.263   3.269  14.282  0.6638 -1.0094  0.6765
 3315SOL     OW21580   0.889   0.106  16.751 -0.3054 -0.4344  0.6304
 3315SOL    HW121581   0.818   0.166  16.775  1.5337  1.5079  1.2371
 3315SOL    HW221582   0.898   0.118  16.656 -1.4538  0.5855  0.6450
 3316SOL     OW21583   2.035   1.421   8.553  0.1335  0.2044  0.5060
 3316SOL    HW121584   2.016   1.339   8.599  0.5056  0.0956  0.4639
 3316SOL    HW221585   2.018   1.482   8.625  3.2554  2.3096 -0.5765
 3317SOL     OW21586   1.622   0.586   6.095  0.2479 -0.1471 -0.0232
 3317SOL    HW121587   1.661   0.558   6.012  0.8715 -0.4072  0.3587
 3317SOL    HW221588   1.614   0.675   6.061 -1.5281  0.1796  1.2976
 3318SOL     OW21589   0.309   2.657   1.662 -0.0227  0.6857 -0.1999
 3318SOL    HW121590   0.345   2.742   1.635 -0.0182  1.5675  2.4937
 3318SOL    HW221591   0.240   2.636   1.600  0.1637 -0.9774  0.1546
 3319SOL     OW21592   3.827   3.768   7.187 -0.5206  0.2406 -0.1520
 3319SOL    HW121593   3.810   3.805   7.100  1.1245  4.1502  1.1776
 3319SOL    HW221594   3.922   3.774   7.179 -0.4066 -1.8323 -0.4150
 3320SOL     OW21595   0.030   4.030   6.571  0.5994  0.1990  0.4844
 3320SOL    HW121596   4.679   4.006   6.534  0.2410  0.2654  1.2685
 3320SOL    HW221597   0.015   3.992   6.657 -1.1384 -0.0727  0.0686
 3321SOL     OW21598   4.686   0.758   8.526  0.2746  0.1140  0.4643
 3321SOL    HW121599   4.674   0.834   8.469  0.5419  0.0408  0.3098
 3321SOL    HW221600   4.593   0.748   8.548  0.9010 -0.6041  2.7913
 3322SOL     OW21601   0.702   0.927  17.213 -0.5507  0.0584 -0.1904
 3322SOL    HW121602   0.791   0.898  17.194 -1.1022 -0.9483 -1.3445
 3322SOL    HW221603   0.719   0.952  17.303  0.5013 -2.3484  0.2746
 3323SOL     OW21604   1.182   0.724  16.330 -0.4764  0.5648 -0.9631
 3323SOL    HW121605   1.108   0.681  16.373  0.3415  0.7239  0.6199
 3323SOL    HW221606   1.198   0.661  16.260 -0.1229 -0.3514 -0.0582
 3324SOL     OW21607   2.800   0.063   1.446  0.1618 -0.6375  0.0994
 3324SOL    HW121608   2.791   0.148   1.404 -0.2177 -0.0644  1.3255
 3324SOL    HW221609   2.705   0.049   1.441  0.6878 -4.0255 -0.6476
 3325SOL     OW21610   0.022   3.318   4.530 -0.5245 -0.3334  0.3066
 3325SOL    HW121611   0.071   3.331   4.449 -0.1081 -3.1089  0.1059
 3325SOL    HW221612   4.671   3.359   4.524 -0.2968  0.2615  1.0121
 3326SOL     OW21613   2.674   0.139   8.109 -0.2888  0.6427  0.1585
 3326SOL    HW121614   2.624   0.059   8.123 -0.4327  0.6247 -0.4558
 3326SOL    HW221615   2.698   0.128   8.018 -0.4528 -3.4140  0.6332
 3327SOL     OW21616   0.141   4.033   3.623  0.4740 -0.0538 -0.0316
 3327SOL    HW121617   0.097   4.110   3.657  0.2777 -0.2047  0.0595
 3327SOL    HW221618   0.169   4.056   3.534 -0.4672  1.4195  0.0635
 3328SOL     OW21619   0.956   0.303   5.236 -0.1467  0.0739 -0.2249
 3328SOL    HW121620   1.046   0.268   5.238 -0.3226 -0.5322 -2.4989
 3328SOL    HW221621   0.946   0.320   5.329 -0.5911  0.0356 -0.2683
 3329SOL     OW21622   4.721   3.360   5.922 -0.3213 -0.0131  0.4390
 3329SOL    HW121623   0.079   3.335   5.927  0.5964  2.9706 -1.7724
 3329SOL    HW221624   4.692   3.322   5.839 -0.4051 -0.6685  0.7711
 3330SOL     OW21625   2.965   3.193   6.652  0.0110  0.1844  0.2885
 3330SOL    HW121626   3.040   3.139   6.625 -1.4146 -2.9164  2.4734
 3330SOL    HW221627   2.996   3.248   6.724 -1.3960  2.0187 -0.5175
 3331SOL     OW21628   3.559   4.461   7.834 -0.0225  0.1735 -0.6536
 3331SOL    HW121629   3.590   4.425   7.751 -0.1079  1.1898 -1.1237
 3331SOL    HW221630   3.607   4.543   7.831  0.0270  0.0589 -2.8388
 3332SOL     OW21631   2.839   2.966   6.826 -0.4711 -0.4629 -0.0598
 3332SOL    HW121632   2.806   3.001   6.743  1.5403 -0.5036 -0.8814
 3332SOL    HW221633   2.907   3.032   6.840  1.0276 -1.9946 -0.1060
 3333SOL     OW21634   3.983   4.626   7.078 -0.3863  0.0764 -0.8683
 3333SOL    HW121635   3.912   4.563   7.069  0.5839 -0.9818 -1.0584
 3333SOL    HW221636   4.054   4.579   7.035 -0.3970 -1.7272  1.1427
 3334SOL     OW21637   0.544   1.155   7.723 -0.3208  0.3801 -0.5225
 3334SOL    HW121638   0.541   1.080   7.664  0.9597  0.9398 -1.3091
 3334SOL    HW221639   0.611   1.199   7.671  0.8108  0.1219  0.7096
 3335SOL     OW21640   4.542   4.270   3.308  0.3573  0.1630 -0.2362
 3335SOL    HW121641   4.463   4.317   3.281 -1.3066 -1.8759  1.0503
 3335SOL    HW221642   4.510   4.232   3.390  0.5543  1.6442  0.5387
 3336SOL     OW21643   0.157   3.120   2.560  0.3406  0.0856  0.5834
 3336SOL    HW121644   0.153   3.050   2.625 -0.0180  0.9672  1.5175
 3336SOL    HW221645   0.250   3.139   2.546  0.7229 -0.3971  2.5415
 3337SOL     OW21646   3.885   0.441   2.108 -0.5158 -0.5220  0.4734
 3337SOL    HW121647   3.947   0.373   2.081 -0.7678 -0.5365 -0.0527
 3337SOL    HW221648   3.865   0.410   2.197  2.6967 -3.6583  0.1046
 3338SOL     OW21649   2.368   1.389   2.858  0.0245  0.7354 -0.5110
 3338SOL    HW121650   2.286   1.433   2.837 -0.9070  0.8318  3.4171
 3338SOL    HW221651   2.437   1.450   2.830  1.3032 -0.2692  0.4733
 3339SOL     OW21652   2.370   1.944  12.738  0.5151  0.2019 -0.1984
 3339SOL    HW121653   2.422   1.962  12.659  0.2644 -1.1507 -0.6896
 3339SOL    HW221654   2.431   1.977  12.804  0.3007  1.0538 -0.4304
 3340SOL     OW21655   1.699   3.511   3.843 -0.2125 -0.6829 -0.7216
 3340SOL    HW121656   1.778   3.562   3.862 -1.1918  0.4039  0.4670
 3340SOL    HW221657   1.710   3.441   3.908  2.2250  0.1478 -0.2295
 3341SOL     OW21658   2.366   2.486   2.885 -0.1685 -0.5287 -0.1324
 3341SOL    HW121659   2.380   2.438   2.967  2.0463  0.9337  0.3399
 3341SOL    HW221660   2.275   2.461   2.870  0.0335 -1.3326 -0.0456
 3342SOL     OW21661   1.736   1.702  15.084 -0.5261 -0.1468 -0.3319
 3342SOL    HW121662   1.761   1.612  15.103 -2.0345 -0.2043  1.3432
 3342SOL    HW221663   1.719   1.701  14.990 -2.7755 -2.9699  0.1348
 3343SOL     OW21664   2.122   0.137   5.512  0.1101 -0.4500 -0.2635
 3343SOL    HW121665   2.137   0.045   5.489 -1.5036 -0.6278 -0.6220
 3343SOL    HW221666   2.178   0.177   5.446 -1.3899  4.2592  1.3737
 3344SOL     OW21667   0.589   1.583   3.618 -0.2295  0.5876  0.1481
 3344SOL    HW121668   0.580   1.586   3.523  0.0158  0.1938  0.1148
 3344SOL    HW221669   0.583   1.490   3.643 -1.7083  0.8493  0.7604
 3345SOL     OW21670   3.495   2.663   7.280  0.1367  0.5872  0.6841
 3345SOL    HW121671   3.578   2.671   7.232  0.0389 -0.8034  0.2921
 3345SOL    HW221672   3.521   2.642   7.370  3.1977 -4.1441 -1.3381
 3346SOL     OW21673   3.353   1.956   1.614 -0.2443  0.4271  0.4022
 3346SOL    HW121674   3.370   1.945   1.521 -1.3714 -0.2288  0.2746
 3346SOL    HW221675   3.310   1.874   1.638 -0.4416  0.0906 -1.1393
 3347SOL     OW21676   1.749   2.548   3.238 -0.3132 -0.2293  0.4870
 3347SOL    HW121677   1.806   2.567   3.163 -2.0615 -1.6200 -1.1902
 3347SOL    HW221678   1.681   2.615   3.226 -1.5464 -2.0456 -2.7100
 3348SOL     OW21679   4.657   4.104  15.180  0.3260  0.1714  0.1565
 3348SOL    HW121680   4.581   4.155  15.209 -1.3796 -1.8706 -0.7086
 3348SOL    HW221681   4.714   4.097  15.257 -0.2403 -1.0859  0.4585
 3349SOL     OW21682   3.750   2.216  12.010 -0.4048  0.2073  0.0503
 3349SOL    HW121683   3.721   2.295  11.965  0.9251  0.8954  0.4036
 3349SOL    HW221684   3.747   2.236  12.103 -1.6433  0.7082 -0.1097
 3350SOL     OW21685   1.546   1.627  15.601 -1.0761 -0.0407 -0.0890
 3350SOL    HW121686   1.590   1.624  15.516 -2.2158  0.1749 -0.6933
 3350SOL    HW221687   1.542   1.722  15.607  0.9664 -0.0810  1.7168
 3351SOL     OW21688   0.643   4.131   2.708  0.1323  0.1953 -0.6525
 3351SOL    HW121689   0.550   4.121   2.728  0.3173  1.2062  0.6815
 3351SOL    HW221690   0.690   4.182   2.774  0.5980 -2.2249  0.8758
 3352SOL     OW21691   0.519   2.518   4.276  0.0526 -0.0600 -0.0220
 3352SOL    HW121692   0.487   2.540   4.188  1.0022  0.9264 -0.1290
 3352SOL    HW221693   0.438   2.510   4.326 -0.3274 -1.0698 -0.8065
 3353SOL     OW21694   1.862   0.439   9.076  1.2007 -0.9341  0.4997
 3353SOL    HW121695   1.867   0.512   9.138 -0.7080  0.0447 -0.5232
 3353SOL    HW221696   1.865   0.368   9.140 -0.7330 -0.5055  1.0538
 3354SOL     OW21697   1.199   1.151   2.510 -0.6185  0.5162  0.0239
 3354SOL    HW121698   1.114   1.192   2.528 -0.6488  0.2987  0.3754
 3354SOL    HW221699   1.233   1.133   2.597  0.7558  0.2902 -0.5622
 3355SOL     OW21700   1.821   4.494   1.280 -0.1718 -0.1324  0.2537
 3355SOL    HW121701   1.914   4.485   1.262  0.2387  1.4520  1.5483
 3355SOL    HW221702   1.835   4.569   1.338  0.7933 -0.1530  0.0449
 3356SOL     OW21703   0.485   2.270   1.629  0.0231  0.3151 -0.2802
 3356SOL    HW121704   0.408   2.222   1.600  0.6909 -1.6703  1.2058
 3356SOL    HW221705   0.447   2.357   1.638  0.4236  0.6257 -1.5187
 3357SOL     OW21706   1.806   4.215   8.168 -0.1349 -0.6464 -0.5836
 3357SOL    HW121707   1.781   4.281   8.233  2.5093  0.4164 -0.6611
 3357SOL    HW221708   1.869   4.159   8.213  0.7756  1.1030  0.3268
 3358SOL     OW21709   0.686   3.813  12.342  0.2188 -0.1942  0.8327
 3358SOL    HW121710   0.762   3.764  12.376  0.8945  0.7566  0.6766
 3358SOL    HW221711   0.657   3.757  12.270  0.3112  0.8677 -0.0170
 3359SOL     OW21712   2.538   2.585   2.720 -0.5055 -0.1708  0.6414
 3359SOL    HW121713   2.456   2.563   2.765  0.4931  1.2229  3.1104
 3359SOL    HW221714   2.523   2.672   2.683 -0.1542 -0.0783  0.7234
 3360SOL     OW21715   3.365   1.789  15.889  0.2755  1.0178 -0.3444
 3360SOL    HW121716   3.375   1.695  15.871 -1.9660  0.3822  1.6705
 3360SOL    HW221717   3.367   1.784  15.985  0.0646 -0.2384 -0.4011
 3361SOL     OW21718   0.376   0.749   5.141 -0.2596  0.0133 -0.2326
 3361SOL    HW121719   0.314   0.809   5.100  1.4851  1.1042 -1.2830
 3361SOL    HW221720   0.431   0.796   5.204  0.2481 -1.4953  0.4449
 3362SOL     OW21721   4.009   3.211   9.642 -0.8725 -0.5090  0.4726
 3362SOL    HW121722   3.936   3.273   9.635 -0.2778 -0.0778 -1.8739
 3362SOL    HW221723   3.993   3.153   9.568  0.9229  0.8843 -0.9936
 3363SOL     OW21724   4.278   2.341   5.268  0.2332 -0.4440 -0.0017
 3363SOL    HW121725   4.327   2.407   5.220 -2.7556  2.4937  1.0570
 3363SOL    HW221726   4.307   2.266   5.215  0.7930  0.5186 -1.0391
 3364SOL     OW21727   0.334   2.274   5.114  0.0778 -0.0902 -0.4151
 3364SOL    HW121728   0.312   2.181   5.105  0.3688 -0.1642 -0.3604
 3364SOL    HW221729   0.285   2.318   5.045 -2.1646  1.3233  2.0671
 3365SOL     OW21730   0.556   3.496   2.641  0.5438 -0.3856 -0.4607
 3365SOL    HW121731   0.597   3.530   2.561  0.5116  1.0627  0.1420
 3365SOL    HW221732   0.619   3.525   2.706  0.5563 -1.9147  0.2155
 3366SOL     OW21733   2.226   1.307   8.180  0.4127 -0.4715 -0.2727
 3366SOL    HW121734   2.270   1.246   8.239  0.9535  0.4768  0.3139
 3366SOL    HW221735   2.235   1.390   8.228 -1.0046 -0.4180 -0.0944
 3367SOL     OW21736   4.014   3.326   8.495  0.3798 -0.3044 -0.1294
 3367SOL    HW121737   3.949   3.367   8.438  0.8973 -0.3538 -0.7480
 3367SOL    HW221738   4.084   3.307   8.434  0.3828  1.0801 -0.5677
 3368SOL     OW21739   3.354   0.151   1.840 -0.2008  0.2394 -0.5592
 3368SOL    HW121740   3.261   0.152   1.818 -0.1100  0.2286 -0.9408
 3368SOL    HW221741   3.387   0.099   1.767 -0.5753  0.5732 -0.9643
 3369SOL     OW21742   3.645   0.011   8.340  0.0501 -0.1332  0.2471
 3369SOL    HW121743   3.572   4.724   8.283 -0.5562 -0.2774  1.0834
 3369SOL    HW221744   3.636   4.681   8.410 -1.2573 -0.6581 -0.4084
 3370SOL     OW21745   3.176   4.124  13.648  0.6006 -0.0455  0.0286
 3370SOL    HW121746   3.185   4.145  13.741 -1.3198 -2.7372  0.8265
 3370SOL    HW221747   3.152   4.033  13.664 -2.2757  0.0477 -3.9838
 3371SOL     OW21748   2.569   1.089   9.006 -0.0274 -0.1494 -0.0590
 3371SOL    HW121749   2.516   1.117   8.932  3.8536  0.6896 -2.5437
 3371SOL    HW221750   2.540   0.999   9.018 -2.1003  0.8659  2.5283
 3372SOL     OW21751   3.488   4.140   7.474 -0.0567  0.4668  0.6414
 3372SOL    HW121752   3.457   4.134   7.564 -0.0202  1.7674  0.7379
 3372SOL    HW221753   3.478   4.048   7.451 -1.0648  0.7336  0.0038
 3373SOL     OW21754   1.194   3.659   6.106  0.5393 -0.6378 -0.5829
 3373SOL    HW121755   1.279   3.700   6.090 -0.0457  0.8293  0.0546
 3373SOL    HW221756   1.141   3.730   6.142 -0.4286 -2.0818  0.8919
 3374SOL     OW21757   3.812   4.695   1.922 -0.3542 -0.2693  0.1083
 3374SOL    HW121758   3.827   0.031   1.985  0.1980 -0.4026  0.1273
 3374SOL    HW221759   3.731   4.661   1.960 -0.6624  0.7199  0.3321
 3375SOL     OW21760   4.443   2.860   6.995  0.3222 -0.0132 -0.0446
 3375SOL    HW121761   4.523   2.808   6.990 -0.0045 -0.6503  1.3806
 3375SOL    HW221762   4.472   2.945   6.961 -1.7480  0.6742 -0.0994
 3376SOL     OW21763   3.316   0.842   6.532  1.0622 -0.3953  0.1995
 3376SOL    HW121764   3.356   0.921   6.568 -0.1711  0.7353 -0.9206
 3376SOL    HW221765   3.395   0.790   6.516 -0.6774 -2.9953 -0.1064
 3377SOL     OW21766   2.467   1.600   1.923 -0.1379  0.4616  0.1348
 3377SOL    HW121767   2.545   1.640   1.885  0.8646 -2.8760 -1.3271
 3377SOL    HW221768   2.436   1.671   1.979 -0.0099  1.1384 -0.6529
 3378SOL     OW21769   1.499   3.451  14.026  0.1456 -0.4781  0.0446
 3378SOL    HW121770   1.495   3.501  14.108 -1.5360 -0.2676 -0.1742
 3378SOL    HW221771   1.427   3.390  14.040 -0.9650  0.7310 -0.4327
 3379SOL     OW21772   3.695   1.680   3.598 -0.2282 -0.4471 -0.0827
 3379SOL    HW121773   3.651   1.607   3.553  1.2987 -1.3587 -0.0805
 3379SOL    HW221774   3.627   1.686   3.665  0.3413 -1.3469  0.5644
 3380SOL     OW21775   0.615   2.445  11.981  0.0847  0.2931 -0.1531
 3380SOL    HW121776   0.524   2.415  11.982  0.2025 -0.0227  1.0146
 3380SOL    HW221777   0.650   2.425  11.894  3.0888 -2.5336  1.7108
 3381SOL     OW21778   0.327   1.961   2.796  0.1207  0.5963 -0.0728
 3381SOL    HW121779   0.305   1.888   2.738  2.0096 -0.7266  0.8650
 3381SOL    HW221780   0.422   1.954   2.791  0.0912  0.4246 -0.4039
 3382SOL     OW21781   4.145   2.509   8.656 -0.0598  0.0648  0.3453
 3382SOL    HW121782   4.233   2.508   8.693  0.0469  1.3201  0.1303
 3382SOL    HW221783   4.129   2.603   8.653 -2.3005 -0.4110 -2.5170
 3383SOL     OW21784   0.045   3.525   8.496 -0.4223 -0.6411 -0.3465
 3383SOL    HW121785   4.689   3.496   8.494 -0.0193 -1.8111 -1.5984
 3383SOL    HW221786   0.074   3.501   8.584  1.5961  0.6177 -0.6437
 3384SOL     OW21787   1.448   0.090  11.182 -0.2001 -0.0947  0.5312
 3384SOL    HW121788   1.492   0.005  11.186 -2.2174 -1.1328  0.9839
 3384SOL    HW221789   1.385   0.092  11.254 -0.7074  0.1869  0.0829
 3385SOL     OW21790   2.461   1.002  16.892  0.4820  0.2466  0.1726
 3385SOL    HW121791   2.448   1.079  16.947 -0.1423 -0.8397  1.5274
 3385SOL    HW221792   2.429   1.012  16.802 -0.5036 -1.9132  0.2865
 3386SOL     OW21793   2.853   0.339   9.342  0.1380  0.0375 -0.0209
 3386SOL    HW121794   2.844   0.434   9.346 -0.2154  0.0721 -1.7737
 3386SOL    HW221795   2.833   0.316   9.251  1.1100 -0.2883 -0.1530
 3387SOL     OW21796   4.188   1.897   6.010  0.9095  0.2307 -0.0244
 3387SOL    HW121797   4.201   1.821   6.066  1.0152 -1.1481 -1.9311
 3387SOL    HW221798   4.155   1.967   6.067  0.1130 -1.5275  1.6500
 3388SOL     OW21799   3.053   0.092   2.174 -0.1235  0.3135 -0.3063
 3388SOL    HW121800   2.998   0.015   2.155  1.9215 -0.9501 -1.0680
 3388SOL    HW221801   3.135   0.044   2.162 -0.2975  0.1306 -0.7930
 3389SOL     OW21802   1.279   4.180   8.028 -0.2743  0.6821 -0.1318
 3389SOL    HW121803   1.208   4.143   7.977  0.7654 -0.4854 -0.7230
 3389SOL    HW221804   1.326   4.234   7.963 -0.4939  1.3292  0.2443
 3390SOL     OW21805   2.969   4.367  17.159 -0.4930  0.0178 -0.5608
 3390SOL    HW121806   2.892   4.420  17.177 -0.0107 -0.0922  1.8799
 3390SOL    HW221807   2.929   4.280  17.165  3.0171 -1.8223 -3.3196
 3391SOL     OW21808   2.275   2.990   3.567  0.3037 -0.0937 -0.0021
 3391SOL    HW121809   2.292   3.076   3.529  2.8845 -1.0387 -1.0074
 3391SOL    HW221810   2.334   2.936   3.515  0.4044 -1.0768  1.1303
 3392SOL     OW21811   0.133   1.759  10.368  0.0109  0.2079  0.2844
 3392SOL    HW121812   0.145   1.849  10.337  0.4599 -0.5008 -1.5468
 3392SOL    HW221813   0.222   1.742  10.398  0.0802  0.1444  0.0425
 3393SOL     OW21814   4.048   0.979   0.268  0.5114  0.2880 -0.0173
 3393SOL    HW121815   4.057   0.921   0.192  0.3606 -1.9700  1.6609
 3393SOL    HW221816   4.140   0.987   0.292  1.3507 -0.9317 -2.7659
 3394SOL     OW21817   4.491   2.198   4.301 -0.0560 -0.0709  0.1187
 3394SOL    HW121818   4.409   2.245   4.315 -1.8296 -2.6368 -1.5716
 3394SOL    HW221819   4.502   2.223   4.209 -0.1774 -0.1124  0.0931
 3395SOL     OW21820   1.376   3.870   5.820 -0.3238  0.2462  0.3038
 3395SOL    HW121821   1.392   3.916   5.902  0.4621  0.5510 -0.0176
 3395SOL    HW221822   1.328   3.941   5.777 -3.2157 -0.7848  1.8315
 3396SOL     OW21823   1.390   2.751   9.659 -0.0057  0.7776  0.5126
 3396SOL    HW121824   1.467   2.808   9.663  0.4670  0.1890 -0.2744
 3396SOL    HW221825   1.346   2.774   9.741 -0.5725 -0.8029  0.6538
 3397SOL     OW21826   0.810   2.818   9.375 -0.1308 -0.1900  0.7671
 3397SOL    HW121827   0.747   2.889   9.382 -0.2248 -0.1448 -0.5755
 3397SOL    HW221828   0.769   2.763   9.309 -2.7522  2.1700  0.4573
 3398SOL     OW21829   2.456   2.755   6.422  0.2131  0.5744  0.0367
 3398SOL    HW121830   2.421   2.760   6.510  0.8474 -0.4357  0.3419
 3398SOL    HW221831   2.436   2.663   6.405 -0.4209  1.1123 -2.2559
 3399SOL     OW21832   3.243   0.158   4.952  0.8359  0.7852 -0.3202
 3399SOL    HW121833   3.300   0.081   4.948 -0.9015 -0.3811 -2.3980
 3399SOL    HW221834   3.191   0.144   5.030  0.1473  0.1544 -0.8967
 3400SOL     OW21835   3.773   0.583   7.596  0.2619  0.4603 -0.1790
 3400SOL    HW121836   3.846   0.645   7.608  1.0423 -0.7832  1.4865
 3400SOL    HW221837   3.716   0.623   7.661  0.1550  1.1713 -0.7016
 3401SOL     OW21838   2.340   2.881   4.181 -0.2174 -0.0087  0.4570
 3401SOL    HW121839   2.286   2.954   4.151 -1.0170 -0.9200 -0.3419
 3401SOL    HW221840   2.425   2.924   4.178  0.2365 -0.9582 -0.5630
 3402SOL     OW21841   4.616   0.125  11.080  0.0567  0.3036 -0.5567
 3402SOL    HW121842   4.595   0.032  11.081 -2.1792  0.8282  1.9593
 3402SOL    HW221843   4.687   0.131  11.016  2.3531  1.7940  2.1369
 3403SOL     OW21844   4.331   0.397  12.196 -0.2279 -0.2455  0.3621
 3403SOL    HW121845   4.296   0.419  12.283 -0.2325  2.0835 -0.2121
 3403SOL    HW221846   4.396   0.333  12.224 -0.0321  0.5557  1.7634
 3404SOL     OW21847   1.698   3.796   4.072 -0.1634  0.2269 -0.6038
 3404SOL    HW121848   1.726   3.704   4.070  2.0156  0.8250  2.6007
 3404SOL    HW221849   1.603   3.799   4.059 -0.2600  0.6637  0.2731
 3405SOL     OW21850   0.717   4.680   2.818  0.1350 -0.9047 -0.1616
 3405SOL    HW121851   0.653   4.612   2.838  0.0629 -0.7325  0.1927
 3405SOL    HW221852   0.741   4.631   2.739  0.3507  0.8188 -1.1561
 3406SOL     OW21853   3.676   4.501   9.772  0.2495  0.4427 -0.2082
 3406SOL    HW121854   3.712   4.578   9.817 -0.6918  0.8766 -0.2101
 3406SOL    HW221855   3.584   4.516   9.793 -0.0857  0.4662 -1.7018
 3407SOL     OW21856   1.794   0.052   4.446  0.3084  0.4430  0.3796
 3407SOL    HW121857   1.703   0.075   4.465  0.2621  1.3305 -0.9502
 3407SOL    HW221858   1.794   0.012   4.359  1.3388 -2.3786  1.6570
 3408SOL     OW21859   2.286   0.727   8.944  0.1629  0.5507 -0.1428
 3408SOL    HW121860   2.373   0.725   8.904  0.0820  0.1462 -0.2977
 3408SOL    HW221861   2.307   0.781   9.020  0.7258  0.2058 -0.0446
 3409SOL     OW21862   4.280   1.568  14.397  0.2309 -0.9753 -0.7075
 3409SOL    HW121863   4.217   1.503  14.365 -0.8353 -0.7282  0.8904
 3409SOL    HW221864   4.259   1.580  14.489 -1.8681  1.0946 -1.4564
 3410SOL     OW21865   2.324   2.701   8.204 -0.8637 -0.0852 -0.1470
 3410SOL    HW121866   2.307   2.672   8.294  2.9882 -0.4412  0.4417
 3410SOL    HW221867   2.321   2.795   8.225 -0.3835 -0.2615  0.7215
 3411SOL     OW21868   1.783   3.057   3.242 -0.2782 -0.4129  0.1218
 3411SOL    HW121869   1.826   3.119   3.300  1.0653  1.2397 -2.6680
 3411SOL    HW221870   1.721   3.018   3.305 -0.4074 -0.8189 -0.2572
 3412SOL     OW21871   1.515   3.368   5.198 -0.2049 -0.2349  0.2140
 3412SOL    HW121872   1.575   3.385   5.125  0.2313  0.7034  0.7957
 3412SOL    HW221873   1.578   3.390   5.267 -0.2832 -0.2916  0.3028
 3413SOL     OW21874   1.588   3.537  10.858 -0.3041 -0.0339 -0.4638
 3413SOL    HW121875   1.562   3.465  10.916  3.5193  0.3494  1.7559
 3413SOL    HW221876   1.617   3.478  10.789 -0.0042  1.2698 -1.4404
 3414SOL     OW21877   1.370   0.171   7.669 -0.4074 -0.3039 -0.0188
 3414SOL    HW121878   1.308   0.174   7.741 -1.8142 -0.5344 -1.2178
 3414SOL    HW221879   1.441   0.150   7.729 -0.2387  0.7216  0.1522
 3415SOL     OW21880   1.980   0.659  10.465 -0.0070 -0.2332 -0.2441
 3415SOL    HW121881   1.979   0.564  10.473 -0.8368 -0.1658  0.4701
 3415SOL    HW221882   2.048   0.686  10.527 -2.0340 -0.2815  1.9971
 3416SOL     OW21883   0.188   3.417   2.336 -0.1554  0.0212 -0.2153
 3416SOL    HW121884   0.173   3.325   2.355 -0.0405  0.0721  0.1358
 3416SOL    HW221885   0.108   3.434   2.287 -1.4637 -1.0097  1.5415
 3417SOL     OW21886   3.376   2.418   6.500 -0.1283  0.1197  0.3361
 3417SOL    HW121887   3.465   2.421   6.536  0.0019 -3.3246  0.2765
 3417SOL    HW221888   3.367   2.323   6.491  1.3458  0.1573 -1.5485
 3418SOL     OW21889   3.506   1.440   7.805  0.0154 -0.2104  0.1164
 3418SOL    HW121890   3.448   1.369   7.831  0.7286 -0.3446  1.3111
 3418SOL    HW221891   3.589   1.411   7.842  0.2738  0.3269 -0.0495
 3419SOL     OW21892   3.589   2.005   2.009 -0.1538 -0.2053 -0.2948
 3419SOL    HW121893   3.629   1.925   1.975  2.8847  0.7443  1.0721
 3419SOL    HW221894   3.663   2.066   2.009 -1.8927  1.9167  0.5630
 3420SOL     OW21895   1.775   0.064   4.905 -0.2361 -0.4699  0.0872
 3420SOL    HW121896   1.701   0.066   4.965  1.9411  0.6095  2.7415
 3420SOL    HW221897   1.740   0.136   4.852  0.8437 -0.7289 -0.9824
 3421SOL     OW21898   0.672   0.111  14.314  0.3456 -0.1724 -0.2148
 3421SOL    HW121899   0.721   0.152  14.386 -0.0510  1.7679 -1.0642
 3421SOL    HW221900   0.663   0.188  14.259 -3.4686 -0.2758  0.2600
 3422SOL     OW21901   1.599   3.367  10.656 -0.1295  0.6234  0.3866
 3422SOL    HW121902   1.647   3.325  10.585  0.0750  0.2061  0.7695
 3422SOL    HW221903   1.526   3.396  10.601  0.2028 -2.2044 -1.5645
 3423SOL     OW21904   3.921   1.078   6.256  0.1779  0.2736 -0.0107
 3423SOL    HW121905   3.992   1.048   6.199  0.7806  0.7904  0.4652
 3423SOL    HW221906   3.954   1.067   6.345  0.2182  2.6627  0.2693
 3424SOL     OW21907   1.886   2.044   7.907 -0.0529  0.3528  0.5135
 3424SOL    HW121908   1.821   2.025   7.975  0.1959 -2.0381  0.0795
 3424SOL    HW221909   1.907   2.133   7.936  0.5768  0.8274 -1.3511
 3425SOL     OW21910   3.988   3.552   4.176  0.2194 -0.0566 -0.2188
 3425SOL    HW121911   3.970   3.640   4.143 -2.5651  0.1857  1.9421
 3425SOL    HW221912   3.941   3.499   4.112 -1.0476  0.1875  0.5190
 3426SOL     OW21913   3.380   1.742  16.180 -0.8565  0.4247  0.5509
 3426SOL    HW121914   3.321   1.796  16.233 -2.0695 -0.8467  0.4848
 3426SOL    HW221915   3.454   1.727  16.239 -1.5567 -0.1195  1.2827
 3427SOL     OW21916   4.728   1.788   5.061 -0.1374  0.4430  0.1180
 3427SOL    HW121917   0.020   1.716   5.118  1.2400  1.7430  1.1219
 3427SOL    HW221918   0.077   1.812   5.022 -0.1865 -0.1858 -0.3610
 3428SOL     OW21919   1.891   3.627  12.838  0.1695  0.4900  0.4469
 3428SOL    HW121920   1.986   3.617  12.845  0.1594  1.3110  1.9219
 3428SOL    HW221921   1.865   3.600  12.926 -0.5742  0.1982  0.1332
 3429SOL     OW21922   2.388   3.349   7.608 -0.0219 -0.2693  0.8613
 3429SOL    HW121923   2.479   3.367   7.628  0.0781  2.2556 -1.8339
 3429SOL    HW221924   2.393   3.253   7.610 -0.5661 -0.3426 -0.8676
 3430SOL     OW21925   2.816   2.548   4.608  0.2209  0.2599  0.3002
 3430SOL    HW121926   2.895   2.496   4.628  1.2750  1.3972 -0.8810
 3430SOL    HW221927   2.854   2.613   4.549 -0.7896  0.5612 -0.0107
 3431SOL     OW21928   1.335   1.616   2.597 -0.3276 -0.3069  0.1274
 3431SOL    HW121929   1.245   1.646   2.587 -0.5901 -0.3689  2.3208
 3431SOL    HW221930   1.347   1.564   2.518 -1.9829 -0.5670  0.0636
 3432SOL     OW21931   4.381   3.318   5.496 -0.0234 -0.1341 -1.0742
 3432SOL    HW121932   4.366   3.251   5.563  0.1559  1.8788  1.0002
 3432SOL    HW221933   4.324   3.277   5.432 -2.1432  2.0380 -0.5958
 3433SOL     OW21934   4.191   3.222   3.863 -0.3921  0.4814 -0.2472
 3433SOL    HW121935   4.237   3.242   3.781 -2.4716 -0.2080 -1.5928
 3433SOL    HW221936   4.168   3.130   3.852 -1.2720  0.7428 -0.6268
 3434SOL     OW21937   1.602   4.318   8.650 -0.7647 -0.1658  0.2934
 3434SOL    HW121938   1.519   4.363   8.635  0.6682  1.6451 -2.2017
 3434SOL    HW221939   1.577   4.227   8.634 -0.5999 -0.1193 -0.2080
 3435SOL     OW21940   4.542   3.231   3.117  0.3003  0.2720 -0.3538
 3435SOL    HW121941   4.513   3.322   3.121  0.3714  0.2019  1.4636
 3435SOL    HW221942   4.628   3.238   3.077  1.6361  3.2413  3.0981
 3436SOL     OW21943   3.484   2.880   1.464  0.2536  0.6980  0.3943
 3436SOL    HW121944   3.392   2.904   1.463  0.0585 -0.0348  0.4731
 3436SOL    HW221945   3.526   2.944   1.521  0.8650  2.0567 -1.5649
 3437SOL     OW21946   3.443   2.564   7.710  0.9933  0.4942 -0.1500
 3437SOL    HW121947   3.517   2.620   7.686  1.7339 -0.0444  0.8754
 3437SOL    HW221948   3.422   2.607   7.792 -0.2022  1.4209 -0.9400
 3438SOL     OW21949   3.228   2.489   6.255 -0.0945  0.2936  0.0703
 3438SOL    HW121950   3.246   2.482   6.349  1.4794  1.4368 -0.1556
 3438SOL    HW221951   3.318   2.487   6.223  0.1437 -3.1163  0.9076
 3439SOL     OW21952   0.475   2.573  16.687  0.5842  0.0889  0.4327
 3439SOL    HW121953   0.511   2.488  16.712 -2.1155 -0.6167  1.8452
 3439SOL    HW221954   0.383   2.554  16.702  0.3508  1.3116  0.5606
 3440SOL     OW21955   1.834   0.180  17.389 -0.3203  0.4529 -0.4604
 3440SOL    HW121956   1.824   0.259  17.336  1.6777  1.7783  1.1658
 3440SOL    HW221957   1.804   0.211  17.474 -0.0469 -2.5215  0.7328
 3441SOL     OW21958   2.127   2.616   9.017  0.0036 -0.0653  0.0776
 3441SOL    HW121959   2.084   2.674   9.080 -0.4870 -0.7075  0.3263
 3441SOL    HW221960   2.090   2.537   9.057  0.8815 -0.0509  0.9461
 3442SOL     OW21961   3.181   2.084   6.521 -0.7167  0.0976  0.0826
 3442SOL    HW121962   3.276   2.077   6.512 -0.3274  1.8784  2.6818
 3442SOL    HW221963   3.161   2.169   6.481 -0.5434 -0.0572 -0.3344
 3443SOL     OW21964   1.384   3.955   2.549 -0.1240 -0.3148  0.0671
 3443SOL    HW121965   1.365   3.988   2.461 -0.2118 -0.8157 -0.1012
 3443SOL    HW221966   1.465   4.004   2.559  0.4555 -1.1592 -0.4813
 3444SOL     OW21967   3.082   4.042   7.934  0.4526 -0.6014  0.0320
 3444SOL    HW121968   3.087   4.098   8.012  2.9107 -0.7968  0.0250
 3444SOL    HW221969   3.094   4.107   7.865  3.8835 -0.2146  0.9944
 3445SOL     OW21970   1.492   3.082  10.689  0.4902 -0.1827 -0.0381
 3445SOL    HW121971   1.564   3.112  10.744  1.1277 -1.6424 -0.0754
 3445SOL    HW221972   1.498   3.158  10.631 -1.7591 -0.9691 -1.2578
 3446SOL     OW21973   1.403   0.653   3.495  0.0857  0.5611 -0.5350
 3446SOL    HW121974   1.491   0.631   3.463  0.0802 -0.2186  0.0139
 3446SOL    HW221975   1.428   0.646   3.587  3.1217 -0.6058 -1.4295
 3447SOL     OW21976   3.652   1.800   4.905 -0.5745  0.2472 -0.0975
 3447SOL    HW121977   3.726   1.846   4.865 -0.3973 -1.2497 -1.4675
 3447SOL    HW221978   3.597   1.812   4.827 -0.5853  3.5460  0.4060
 3448SOL     OW21979   1.650   0.721   9.530 -0.1264  0.2853  0.6012
 3448SOL    HW121980   1.581   0.778   9.496  0.9411  0.5901 -1.0597
 3448SOL    HW221981   1.625   0.640   9.485  1.2383  0.5071 -0.5552
 3449SOL     OW21982   1.007   2.340   3.164  0.5288  0.2064 -0.2484
 3449SOL    HW121983   1.067   2.374   3.230 -1.3690  2.0188  0.5090
 3449SOL    HW221984   0.929   2.309   3.210 -1.1703  2.1882 -1.8485
 3450SOL     OW21985   3.824   3.718  10.004 -0.2372 -0.3788  0.0695
 3450SOL    HW121986   3.878   3.778   9.951  0.5837 -0.9808  0.2249
 3450SOL    HW221987   3.793   3.669   9.928  1.5486 -0.5484 -0.5719
 3451SOL     OW21988   4.524   3.676   6.437  0.2015 -0.1902  0.0073
 3451SOL    HW121989   4.501   3.599   6.385 -0.3522 -1.3727  2.0078
 3451SOL    HW221990   4.456   3.657   6.502  0.3319  0.5934  0.3757
 3452SOL     OW21991   2.384   1.565   3.947  0.0378  0.6526 -0.4572
 3452SOL    HW121992   2.296   1.529   3.942  1.1758 -2.3550  1.7621
 3452SOL    HW221993   2.391   1.569   4.042  2.1482  0.8162 -0.6105
 3453SOL     OW21994   0.749   4.250   9.037 -0.2295 -0.1727 -0.6853
 3453SOL    HW121995   0.743   4.232   9.131 -0.3738 -2.5824 -1.1654
 3453SOL    HW221996   0.800   4.332   9.038  0.0295 -0.3445  0.1910
 3454SOL     OW21997   3.030   2.188   7.614  0.2299 -0.3816  0.0353
 3454SOL    HW121998   2.956   2.220   7.666  1.6958  2.4636  0.4165
 3454SOL    HW221999   3.044   2.263   7.556 -0.2042 -0.3311 -0.0058
 3455SOL     OW22000   1.966   1.599  12.906 -0.2765  0.2486 -0.1511
 3455SOL    HW122001   2.045   1.556  12.873 -0.4523 -1.9612  2.3096
 3455SOL    HW222002   2.002   1.688  12.902  0.4439 -0.1090 -1.9719
 3456SOL     OW22003   4.283   3.362   1.183 -0.0428 -0.0310  0.2997
 3456SOL    HW122004   4.343   3.384   1.111 -1.1986 -1.3069 -1.0644
 3456SOL    HW222005   4.333   3.303   1.239 -1.2437  0.8853  2.3246
 3457SOL     OW22006   0.989   1.979   7.773 -0.1429  0.2266 -0.5984
 3457SOL    HW122007   1.017   1.959   7.862  1.1244  0.0891 -1.0239
 3457SOL    HW222008   1.067   1.943   7.731 -0.3050  1.1377 -1.7026
 3458SOL     OW22009   1.253   3.721  10.392 -0.4689  0.3506  0.0483
 3458SOL    HW122010   1.191   3.759  10.455  0.1918 -0.2998  1.0941
 3458SOL    HW222011   1.335   3.731  10.441 -0.5404 -0.6639  0.3606
 3459SOL     OW22012   1.633   2.355  10.131  0.3491  0.3029  0.2259
 3459SOL    HW122013   1.587   2.367  10.214  0.2205 -0.4341  0.2642
 3459SOL    HW222014   1.712   2.308  10.160  0.8826  0.4873 -0.9207
 3460SOL     OW22015   0.017   2.439   7.393 -0.0534  0.0805  0.2595
 3460SOL    HW122016   0.030   2.405   7.481  0.8428  2.7182  1.1242
 3460SOL    HW222017   0.084   2.506   7.386  0.2393 -0.3661 -1.1167
 3461SOL     OW22018   3.555   4.657   3.255  0.1842 -0.0805 -0.0762
 3461SOL    HW122019   3.648   4.649   3.236  0.2842  2.0609 -0.4069
 3461SOL    HW222020   3.536   4.565   3.274  0.1704  0.1106  0.8263
 3462SOL     OW22021   0.343   1.646  13.910 -0.4154 -0.1220  0.2144
 3462SOL    HW122022   0.257   1.666  13.873 -1.3665  1.1700  3.1774
 3462SOL    HW222023   0.406   1.677  13.844 -0.6824 -3.7718 -1.8117
 3463SOL     OW22024   1.026   1.751   9.899  0.6097  0.1241  0.7933
 3463SOL    HW122025   0.992   1.679   9.846 -1.2037  0.2608  1.7853
 3463SOL    HW222026   1.064   1.805   9.830  0.8448 -1.9751 -0.7187
 3464SOL     OW22027   4.285   1.661   6.831  0.5159  0.1011  0.5561
 3464SOL    HW122028   4.229   1.718   6.778 -0.4719 -1.1163  0.2794
 3464SOL    HW222029   4.334   1.719   6.890 -0.9881  3.5738 -1.5993
 3465SOL     OW22030   3.768   4.557   4.618  0.0930 -0.0324  0.7327
 3465SOL    HW122031   3.678   4.558   4.584  0.4275  0.0059 -0.1493
 3465SOL    HW222032   3.789   4.464   4.624 -2.7706 -0.7285  0.1137
 3466SOL     OW22033   1.635   0.411   1.703 -0.5007  0.1896 -0.2062
 3466SOL    HW122034   1.684   0.414   1.785  0.4569 -0.6227 -0.7393
 3466SOL    HW222035   1.608   0.503   1.694  1.6543  0.8227 -0.1429
 3467SOL     OW22036   3.559   1.531   2.696  0.2101  0.7508  0.3612
 3467SOL    HW122037   3.523   1.563   2.778 -1.0059 -0.2438  0.2063
 3467SOL    HW222038   3.566   1.436   2.707 -0.5023  0.4532 -1.6575
 3468SOL     OW22039   0.407   2.793  14.214 -0.0830  0.2384 -0.3178
 3468SOL    HW122040   0.380   2.781  14.123  0.1153 -1.4560 -0.1560
 3468SOL    HW222041   0.332   2.796  14.273 -1.1303  1.1774 -1.7149
 3469SOL     OW22042   4.337   3.613   6.614 -0.2119  0.0910  0.1752
 3469SOL    HW122043   4.306   3.580   6.698 -2.1332 -0.9824 -0.9633
 3469SOL    HW222044   4.272   3.584   6.551 -0.7868 -0.7258  1.1365
 3470SOL     OW22045   0.570   0.210   7.596  0.4728 -0.4175  0.0503
 3470SOL    HW122046   0.534   0.129   7.634  1.6660  0.1131  2.3303
 3470SOL    HW222047   0.662   0.184   7.590 -0.0506 -1.5403 -3.0938
 3471SOL     OW22048   1.186   1.170  10.154  0.2069  0.4142 -0.6948
 3471SOL    HW122049   1.183   1.264  10.137 -1.7274  0.5359  0.3133
 3471SOL    HW222050   1.115   1.153  10.217 -0.6393  0.0840 -1.7291
 3472SOL     OW22051   0.847   3.199   5.982  0.3633 -0.6831  0.9432
 3472SOL    HW122052   0.757   3.188   6.013  0.8678  0.8316  2.9412
 3472SOL    HW222053   0.844   3.139   5.907 -0.9945 -1.6099  1.7387
 3473SOL     OW22054   4.308   1.677   5.288 -0.7620 -0.3390 -0.1231
 3473SOL    HW122055   4.322   1.676   5.383  0.8044 -0.1569 -0.3614
 3473SOL    HW222056   4.216   1.705   5.285 -0.7117 -0.1860 -0.2498
 3474SOL     OW22057   2.014   3.461   7.376 -0.4705 -0.2818 -0.6412
 3474SOL    HW122058   1.977   3.374   7.388  1.1306 -0.8784 -0.0158
 3474SOL    HW222059   1.931   3.509   7.370 -0.7052 -0.8992 -2.4850
 3475SOL     OW22060   4.462   2.847   3.258 -0.1283 -0.1342 -0.3693
 3475SOL    HW122061   4.404   2.916   3.227  0.2061  0.5947  0.6347
 3475SOL    HW222062   4.491   2.808   3.176 -1.7169 -0.6905 -0.6674
 3476SOL     OW22063   3.553   1.204  13.192  0.0698 -0.1689  0.3154
 3476SOL    HW122064   3.506   1.132  13.233 -1.6565  0.3509 -0.7879
 3476SOL    HW222065   3.632   1.156  13.168  1.0129  1.6327 -0.2335
 3477SOL     OW22066   1.035   4.397   2.765  0.2272  0.3424  0.1557
 3477SOL    HW122067   1.010   4.429   2.679  1.3019  0.7590  0.0036
 3477SOL    HW222068   1.123   4.364   2.746 -0.6999 -1.3176 -1.3215
 3478SOL     OW22069   3.929   2.088   4.074 -0.1971 -0.2748 -0.1187
 3478SOL    HW122070   3.994   2.158   4.076 -1.3579  0.8258 -0.7456
 3478SOL    HW222071   3.854   2.127   4.029  0.2380  0.9959  0.2444
 3479SOL     OW22072   2.992   1.720   8.077 -0.1853  0.8377  0.1996
 3479SOL    HW122073   2.912   1.719   8.129 -0.7582 -0.5854 -0.7035
 3479SOL    HW222074   2.976   1.780   8.004  0.6130 -1.2575 -1.7020
 3480SOL     OW22075   1.871   3.144   3.488 -0.1623  0.3111 -0.6711
 3480SOL    HW122076   1.789   3.138   3.537  1.3199 -0.6347  1.7233
 3480SOL    HW222077   1.926   3.093   3.547 -0.0950  0.7031 -0.3974
 3481SOL     OW22078   1.608   3.642   2.652  0.0457  0.3174  0.0620
 3481SOL    HW122079   1.562   3.715   2.693 -0.3596  0.4015 -0.5262
 3481SOL    HW222080   1.697   3.650   2.686  0.3300  1.5869 -0.9896
 3482SOL     OW22081   4.708   1.685  14.811  0.2672 -0.0863  0.2629
 3482SOL    HW122082   4.620   1.723  14.806  0.8514  1.0531 -1.5407
 3482SOL    HW222083   0.001   1.701  14.720  1.0741  1.4974  0.7930
 3483SOL     OW22084   3.121   3.328   3.286 -0.4880  0.3715  0.7034
 3483SOL    HW122085   3.040   3.379   3.293  0.5516  2.0199  0.8045
 3483SOL    HW222086   3.102   3.297   3.198  0.6343 -0.6266  0.8102
 3484SOL     OW22087   0.284   2.063   3.403  0.3223 -0.0609  0.6907
 3484SOL    HW122088   0.261   2.127   3.471  0.8678  0.4920  0.3559
 3484SOL    HW222089   0.378   2.073   3.419  0.0954 -0.7121  2.4664
 3485SOL     OW22090   0.463   2.575   1.087 -1.1587 -0.4204 -0.1761
 3485SOL    HW122091   0.479   2.634   1.161 -2.0332  1.4736 -1.4778
 3485SOL    HW222092   0.427   2.643   1.030  1.2250  0.6995 -0.3922
 3486SOL     OW22093   0.665   2.557   2.358  0.3807  0.5196 -0.2190
 3486SOL    HW122094   0.581   2.561   2.311  0.4859 -0.6051 -0.5099
 3486SOL    HW222095   0.713   2.494   2.304  2.2207  1.3409  0.4753
 3487SOL     OW22096   1.831   3.026   0.083 -0.4946 -0.0077  0.0131
 3487SOL    HW122097   1.740   2.996   0.092 -0.5794  0.3492  0.3257
 3487SOL    HW222098   1.853   3.009   0.174 -3.9189  0.2704  0.8913
 3488SOL     OW22099   4.698   1.286   4.197 -0.3699  0.0124 -0.3182
 3488SOL    HW122100   0.036   1.316   4.252 -0.3127 -0.5440 -0.0860
 3488SOL    HW222101   4.632   1.342   4.237  1.9563  2.2502  0.3887
 3489SOL     OW22102   3.015   0.669   8.722 -0.0956 -0.0671  0.0307
 3489SOL    HW122103   3.013   0.573   8.725  0.0991 -0.0807 -0.3073
 3489SOL    HW222104   2.946   0.691   8.659 -0.2462 -0.0093  0.2160
 3490SOL     OW22105   1.806   1.014   5.540  0.0728  0.8276 -0.0923
 3490SOL    HW122106   1.869   0.972   5.482 -1.9805 -2.3602 -0.0291
 3490SOL    HW222107   1.852   1.013   5.624  0.7894 -0.6110 -0.5127
 3491SOL     OW22108   0.814   2.080   6.333  0.0292 -0.1266  0.5275
 3491SOL    HW122109   0.859   2.132   6.267 -0.6364  0.1455  0.2913
 3491SOL    HW222110   0.853   2.108   6.416  0.5002 -0.8973  0.5742
 3492SOL     OW22111   2.497   3.250   9.276  0.0779  0.4483  0.6068
 3492SOL    HW122112   2.471   3.299   9.355  1.1142  1.6146  0.2133
 3492SOL    HW222113   2.413   3.214   9.248  0.6883 -0.1216 -0.4655
 3493SOL     OW22114   3.342   1.188   3.170 -0.5903 -0.2974 -0.4826
 3493SOL    HW122115   3.264   1.193   3.115  0.5575 -0.0675 -2.0824
 3493SOL    HW222116   3.323   1.095   3.188 -1.4993  0.1137  0.6758
 3494SOL     OW22117   3.013   3.515   5.144  0.1918  0.2905  0.4382
 3494SOL    HW122118   2.948   3.524   5.075 -0.5922 -0.7456  1.0271
 3494SOL    HW222119   3.084   3.558   5.097  0.3614 -0.4982 -0.0245
 3495SOL     OW22120   2.402   1.817   6.214 -0.4076  0.0446  0.7792
 3495SOL    HW122121   2.321   1.850   6.253  0.6241  2.4250  0.9029
 3495SOL    HW222122   2.369   1.753   6.152  1.1467 -0.6344  0.6515
 3496SOL     OW22123   0.595   0.003   6.870  0.1301 -0.2665 -0.3244
 3496SOL    HW122124   0.539   0.065   6.917 -0.1605  0.3292 -1.4665
 3496SOL    HW222125   0.543   4.658   6.879  1.3989 -1.2966 -2.2612
 3497SOL     OW22126   1.723   1.479  11.372 -0.0233 -0.1213 -0.0894
 3497SOL    HW122127   1.783   1.404  11.372  0.4742  0.2666 -1.2700
 3497SOL    HW222128   1.668   1.473  11.450 -0.5437  4.1728 -0.1201
 3498SOL     OW22129   2.648   1.101   6.373 -0.5123  0.1500 -0.6761
 3498SOL    HW122130   2.703   1.168   6.332 -0.2603 -0.8772 -2.0151
 3498SOL    HW222131   2.607   1.144   6.447 -0.4918  1.2160 -1.2764
 3499SOL     OW22132   1.010   4.586  16.722  0.4580  0.0222  0.6065
 3499SOL    HW122133   0.964   4.670  16.729 -1.5954 -1.0840  0.3662
 3499SOL    HW222134   0.950   4.528  16.677  0.2270  0.2236  0.6525
 3500SOL     OW22135   2.948   2.982   1.579  0.4161 -0.0763  0.2189
 3500SOL    HW122136   2.877   3.006   1.520  2.3575  1.5068 -1.4609
 3500SOL    HW222137   2.920   2.895   1.605  1.3739 -0.3033  0.5223
 3501SOL     OW22138   2.277   3.150   5.682 -0.2652 -0.0529  0.1607
 3501SOL    HW122139   2.330   3.071   5.673  2.5903  1.9139 -0.4166
 3501SOL    HW222140   2.210   3.129   5.617  0.0171  0.3921 -0.2697
 3502SOL     OW22141   1.852   0.005  17.124  0.7286 -0.3605  0.8072
 3502SOL    HW122142   1.902   0.068  17.175  2.8091 -2.2008  1.0240
 3502SOL    HW222143   1.767   0.050  17.118  1.4598  0.9626  0.3837
 3503SOL     OW22144   1.614   4.321  13.752  1.2444 -0.2688  0.1297
 3503SOL    HW122145   1.566   4.285  13.827  1.3189 -1.7102 -0.5137
 3503SOL    HW222146   1.647   4.400  13.796  0.0314 -0.1463  0.8268
 3504SOL     OW22147   1.758   4.490   7.417  0.1055 -0.3821 -0.5678
 3504SOL    HW122148   1.847   4.523   7.432 -0.5053  0.0226  2.1521
 3504SOL    HW222149   1.780   4.422   7.353  1.0630 -0.1297 -0.5116
 3505SOL     OW22150   2.260   3.977   4.958  0.3643  0.6109  0.1188
 3505SOL    HW122151   2.175   3.975   4.914  2.0257 -2.6294 -2.8746
 3505SOL    HW222152   2.314   3.951   4.884 -2.1518  2.7667 -2.4694
 3506SOL     OW22153   1.966   3.684   3.616  0.0213 -0.2302 -0.0897
 3506SOL    HW122154   1.974   3.589   3.608 -1.0904 -0.4368  1.2204
 3506SOL    HW222155   1.942   3.709   3.527  1.4628  1.6151  0.0423
 3507SOL     OW22156   3.444   2.142   6.446 -0.1106  0.5733 -0.1627
 3507SOL    HW122157   3.469   2.055   6.476  1.7927  1.2383  0.2190
 3507SOL    HW222158   3.500   2.163   6.371 -0.3186 -1.2644 -0.8112
 3508SOL     OW22159   0.027   1.522   5.153  0.0735 -0.0866 -0.1529
 3508SOL    HW122160   4.705   1.468   5.209  0.6851  0.3164  0.8492
 3508SOL    HW222161   0.109   1.474   5.159  0.0888 -0.0812 -0.3349
 3509SOL     OW22162   0.694   1.508   7.784  0.0852  0.7551 -0.0497
 3509SOL    HW122163   0.708   1.602   7.769  1.4219  0.6967  0.8481
 3509SOL    HW222164   0.747   1.472   7.713 -1.0636  1.5415 -1.3189
 3510SOL     OW22165   0.476   4.342   6.151 -0.7107 -0.1408  0.0083
 3510SOL    HW122166   0.496   4.293   6.230 -1.0175 -0.7447 -0.2920
 3510SOL    HW222167   0.463   4.277   6.082  3.3630 -1.5630  0.5919
 3511SOL     OW22168   2.353   3.045   2.240  0.0987 -0.3769  0.0377
 3511SOL    HW122169   2.360   3.057   2.335  0.6106 -2.8604  0.3205
 3511SOL    HW222170   2.257   3.047   2.229 -0.3292  2.5083  4.2517
 3512SOL     OW22171   4.547   4.433   6.656 -0.2181 -0.7297  0.1308
 3512SOL    HW122172   4.501   4.349   6.666  2.3154 -2.0523  0.8236
 3512SOL    HW222173   4.615   4.400   6.596 -0.9489 -0.7004 -0.7084
 3513SOL     OW22174   2.681   3.964   1.746 -0.0671 -0.6685 -0.4607
 3513SOL    HW122175   2.751   3.905   1.773  1.1175  1.2497  0.6404
 3513SOL    HW222176   2.613   3.914   1.702 -0.9236  0.0145  0.0876
 3514SOL     OW22177   2.355   2.754   2.908  0.1543  0.3182 -0.8991
 3514SOL    HW122178   2.391   2.666   2.894 -2.6284 -0.7549 -1.2544
 3514SOL    HW222179   2.442   2.794   2.913  0.1642  0.0501  1.3744
 3515SOL     OW22180   3.757   3.036  13.040  0.1815 -0.2953  0.4133
 3515SOL    HW122181   3.772   3.068  12.951 -2.1811 -0.4685 -0.0559
 3515SOL    HW222182   3.692   2.971  13.013  1.4001 -1.9776  1.5512
 3516SOL     OW22183   2.540   1.424   8.314 -0.7639 -0.2933 -0.0903
 3516SOL    HW122184   2.600   1.452   8.382  0.1670 -0.8492 -0.6781
 3516SOL    HW222185   2.582   1.339   8.300  0.6933  0.3377  0.5044
 3517SOL     OW22186   2.732   0.672   9.067  0.6099 -0.0140 -0.0404
 3517SOL    HW122187   2.663   0.616   9.031 -0.4362  2.0453 -1.2448
 3517SOL    HW222188   2.809   0.619   9.049  0.0694  0.2185 -2.9409
 3518SOL     OW22189   3.911   0.518   8.288 -0.3038 -0.6787 -0.5058
 3518SOL    HW122190   3.991   0.465   8.290 -0.8085 -1.4203 -0.3958
 3518SOL    HW222191   3.942   0.599   8.247 -0.8875  1.2824  2.9455
 3519SOL     OW22192   1.042   0.097   6.180  0.1346  0.0269 -0.2559
 3519SOL    HW122193   0.951   0.096   6.152  0.8618 -0.0625 -2.6040
 3519SOL    HW222194   1.077   0.008   6.185 -2.5561 -0.9290  1.3644
 3520SOL     OW22195   4.519   1.171   0.049  0.3920 -0.5779 -0.5981
 3520SOL    HW122196   4.594   1.153   0.105 -1.1081 -0.5622  1.4034
 3520SOL    HW222197   4.462   1.228   0.101  0.8518 -0.9849  0.3403
 3521SOL     OW22198   3.829   1.037   7.145  0.3305  0.0639  0.0001
 3521SOL    HW122199   3.759   0.990   7.192  1.6610 -1.1325  0.7900
 3521SOL    HW222200   3.773   1.103   7.104  0.6963  0.0402 -0.5409
 3522SOL     OW22201   3.708   1.393   3.821  0.0707 -0.0457  0.1530
 3522SOL    HW122202   3.709   1.443   3.740  0.8847  2.0100  1.4521
 3522SOL    HW222203   3.756   1.314   3.798 -0.7408 -0.0942 -1.3462
 3523SOL     OW22204   0.607   4.693   1.870 -0.0490  0.0040  0.4032
 3523SOL    HW122205   0.546   0.013   1.821 -0.1536  1.6530  2.3707
 3523SOL    HW222206   0.690   4.733   1.844 -1.3541 -0.2756 -4.1930
 3524SOL     OW22207   1.372   4.074   4.346 -0.1580 -0.2913  0.1709
 3524SOL    HW122208   1.430   3.999   4.361  0.9272  1.0570  2.7619
 3524SOL    HW222209   1.377   4.084   4.251 -2.4721  0.6211  0.1386
 3525SOL     OW22210   2.408   4.110   0.211 -0.4304 -0.2381 -0.1452
 3525SOL    HW122211   2.434   4.191   0.169 -1.6872  0.9227  1.3139
 3525SOL    HW222212   2.484   4.081   0.262 -0.8958  1.0751  1.2804
 3526SOL     OW22213   2.224   0.183  11.773  0.9679 -0.3779 -0.3337
 3526SOL    HW122214   2.151   0.128  11.800  0.5204  1.2300  1.7308
 3526SOL    HW222215   2.287   0.160  11.842  1.6791  0.5371 -0.6819
 3527SOL     OW22216   3.673   1.789   9.311 -0.8944  0.3976  0.2287
 3527SOL    HW122217   3.598   1.775   9.253  1.0037  0.4675 -2.2438
 3527SOL    HW222218   3.691   1.698   9.334 -1.1877  0.1936 -0.3516
 3528SOL     OW22219   1.423   0.143   9.152  0.0976  0.4565 -0.1383
 3528SOL    HW122220   1.443   0.186   9.235 -1.6016  1.1289 -0.0878
 3528SOL    HW222221   1.443   0.054   9.179 -0.0208  0.7036  0.7788
 3529SOL     OW22222   1.764   3.876   7.964 -0.3166 -0.2733 -0.2431
 3529SOL    HW122223   1.693   3.930   7.929 -0.6215  0.0102  0.7991
 3529SOL    HW222224   1.821   3.875   7.888  0.4284 -0.2261  0.3123
 3530SOL     OW22225   3.530   1.769  11.901  0.2595  0.5047  0.5770
 3530SOL    HW122226   3.573   1.844  11.940  0.5980  0.2799  0.6364
 3530SOL    HW222227   3.582   1.757  11.822 -1.1827 -1.5479 -0.0751
 3531SOL     OW22228   0.715   2.785  12.311 -0.1198  0.2931 -0.1473
 3531SOL    HW122229   0.724   2.773  12.216  1.4684  1.6961 -0.1822
 3531SOL    HW222230   0.675   2.706  12.347 -0.9970  0.7297 -0.1708
 3532SOL     OW22231   1.785   0.010   2.811 -0.2192  0.2097 -0.4736
 3532SOL    HW122232   1.738   4.695   2.878  0.2544 -0.2684 -0.4926
 3532SOL    HW222233   1.736   0.090   2.794 -0.2749  0.6107  1.4896
 3533SOL     OW22234   4.672   3.999   9.412 -0.1630 -0.4364 -0.8620
 3533SOL    HW122235   4.614   3.951   9.353 -0.2842  0.5727 -1.5535
 3533SOL    HW222236   4.645   3.955   9.492 -0.4392  0.4355 -0.4747
 3534SOL     OW22237   2.731   0.385  16.035  0.6614  0.0647  0.1114
 3534SOL    HW122238   2.709   0.339  15.954  1.4240 -1.0946  0.5706
 3534SOL    HW222239   2.648   0.433  16.045  0.6936  0.1069  0.1751
 3535SOL     OW22240   3.701   3.435  14.716  0.1133  0.5462 -0.3458
 3535SOL    HW122241   3.790   3.414  14.687 -0.0068 -1.2476  0.5219
 3535SOL    HW222242   3.693   3.364  14.781  0.5980 -0.0339 -0.9205
 3536SOL     OW22243   2.558   1.094   2.523 -0.2372  0.7660 -0.4482
 3536SOL    HW122244   2.536   1.155   2.453 -3.3975 -1.1213 -1.0860
 3536SOL    HW222245   2.486   1.099   2.585 -0.5949  2.7018 -1.0270
 3537SOL     OW22246   3.164   3.847   4.794 -0.0155  0.2285  0.0999
 3537SOL    HW122247   3.237   3.909   4.788  0.7667 -0.8589 -1.5149
 3537SOL    HW222248   3.092   3.893   4.750  1.3317  1.2031 -1.0854
 3538SOL     OW22249   1.344   4.055   7.696  0.6055  0.9926 -0.0137
 3538SOL    HW122250   1.368   4.028   7.608 -0.8166 -1.0387  0.2259
 3538SOL    HW222251   1.249   4.040   7.697  0.8336 -0.3160  1.7951
 3539SOL     OW22252   4.383   1.387   2.031  0.1405  0.9227 -0.0064
 3539SOL    HW122253   4.295   1.416   2.052  0.2124  1.0695  0.0889
 3539SOL    HW222254   4.398   1.302   2.072 -2.7784  0.9877  1.1750
 3540SOL     OW22255   2.193   1.107   2.402  0.1197 -0.4578  0.5068
 3540SOL    HW122256   2.268   1.136   2.454  1.9512 -1.7800 -1.3968
 3540SOL    HW222257   2.123   1.118   2.466 -0.8161 -0.7543 -0.4893
 3541SOL     OW22258   0.269   0.935   2.161 -0.0008 -0.1571  0.8006
 3541SOL    HW122259   0.317   0.970   2.086  0.5471 -3.6925 -0.5096
 3541SOL    HW222260   0.330   0.946   2.234  1.9128 -1.8772 -0.5174
 3542SOL     OW22261   0.185   2.436   6.136  0.0371  0.6780 -0.3063
 3542SOL    HW122262   0.202   2.507   6.074 -1.1312  0.2542 -1.1018
 3542SOL    HW222263   0.258   2.376   6.125  0.7027  1.1062  1.6990
 3543SOL     OW22264   0.734   3.585   8.635 -0.1321 -0.3052 -0.1829
 3543SOL    HW122265   0.819   3.562   8.598  0.0911  1.2647 -0.6287
 3543SOL    HW222266   0.758   3.673   8.664 -1.0757 -0.1681  0.1623
 3544SOL     OW22267   3.354   4.655   7.890  0.3438 -0.0611 -0.1449
 3544SOL    HW122268   3.436   4.607   7.878  0.6107  1.4517 -4.4305
 3544SOL    HW222269   3.383   4.723   7.951 -0.6139  1.8338 -1.8018
 3545SOL     OW22270   3.139   2.502   7.667  0.8174  0.6533  0.3554
 3545SOL    HW122271   3.117   2.468   7.753  0.4692  0.3687  0.1571
 3545SOL    HW222272   3.233   2.514   7.675  1.0564 -0.8077 -0.2865
 3546SOL     OW22273   1.181   4.104   6.399 -0.9074 -0.1813  0.6847
 3546SOL    HW122274   1.098   4.061   6.417 -2.0194  1.8679  0.4116
 3546SOL    HW222275   1.246   4.073   6.463 -0.1743  1.6526  0.8202
 3547SOL     OW22276   0.026   0.810   3.171  0.3232  0.2770  0.1187
 3547SOL    HW122277   0.006   0.792   3.263 -0.4257 -1.6856 -0.4220
 3547SOL    HW222278   0.073   0.893   3.180  1.4235 -0.1259 -1.8956
 3548SOL     OW22279   1.876   0.166   5.341 -0.1017  0.0668  0.7419
 3548SOL    HW122280   1.876   0.182   5.435 -1.3843 -1.1028  0.9499
 3548SOL    HW222281   1.912   0.077   5.341 -1.7844 -0.6063 -1.0325
 3549SOL     OW22282   4.150   3.961  13.973 -0.1889  0.0041  0.2565
 3549SOL    HW122283   4.079   4.025  13.971 -0.3874 -0.2495 -0.9200
 3549SOL    HW222284   4.219   3.997  14.030  0.7977  0.3814 -1.1698
 3550SOL     OW22285   2.524   3.634   8.372  0.5777  0.1227  0.0401
 3550SOL    HW122286   2.454   3.588   8.419 -0.5307  1.5132 -0.2698
 3550SOL    HW222287   2.575   3.659   8.449  2.5868  3.4456 -2.4098
 3551SOL     OW22288   4.339   4.475   9.691 -0.4480 -0.5983  0.1310
 3551SOL    HW122289   4.337   4.407   9.758 -0.8847  1.3773  2.1224
 3551SOL    HW222290   4.266   4.449   9.635 -0.7086  1.3164 -0.4368
 3552SOL     OW22291   1.803   2.190  13.351 -0.2504  0.0321  0.4819
 3552SOL    HW122292   1.712   2.199  13.322 -0.1752 -0.5247  0.0722
 3552SOL    HW222293   1.790   2.216  13.442  1.1288  0.8016  0.4617
 3553SOL     OW22294   4.614   0.057   7.323  0.3169  0.4780 -0.1351
 3553SOL    HW122295   4.705   0.030   7.309  0.6149  0.9395  0.9512
 3553SOL    HW222296   4.586   0.041   7.233 -1.7516  1.2535  0.3792
 3554SOL     OW22297   3.270   0.454  11.968  0.3034  0.4628  0.0701
 3554SOL    HW122298   3.323   0.460  12.047 -0.0800 -1.9269  0.5200
 3554SOL    HW222299   3.330   0.417  11.903 -0.9741  3.0952 -2.5775
 3555SOL     OW22300   3.295   4.516   4.240 -0.2244  0.5635  0.1421
 3555SOL    HW122301   3.331   4.544   4.155  0.2189  0.5597  0.3266
 3555SOL    HW222302   3.231   4.586   4.251  1.4694  1.9975  0.9863
 3556SOL     OW22303   4.272   2.440  17.583  0.3911 -0.0868 -0.0562
 3556SOL    HW122304   4.360   2.406  17.592  1.5523  2.0907 -2.8767
 3556SOL    HW222305   4.295   2.533  17.582 -1.3594  0.3573 -0.2766
 3557SOL     OW22306   4.675   3.705   5.352  0.1899 -0.1960 -0.4367
 3557SOL    HW122307   0.034   3.686   5.358  0.1282 -0.0906  0.9660
 3557SOL    HW222308   4.639   3.635   5.407 -0.5734  1.8218  1.6713
 3558SOL     OW22309   1.292   2.487   4.216  0.1361  0.2203 -0.0679
 3558SOL    HW122310   1.201   2.500   4.190  0.3763  1.7281 -0.1609
 3558SOL    HW222311   1.343   2.513   4.140  0.5081 -0.1903  0.0443
 3559SOL     OW22312   2.941   3.581   1.053 -0.0217 -0.4549 -0.2698
 3559SOL    HW122313   3.013   3.600   1.113  2.3400 -1.4547 -2.8059
 3559SOL    HW222314   2.939   3.667   1.011 -0.4486  0.1610  1.0109
 3560SOL     OW22315   0.702   0.625   5.950  0.2271  0.4394  0.2939
 3560SOL    HW122316   0.610   0.601   5.964 -0.2292  1.2935 -1.1500
 3560SOL    HW222317   0.733   0.662   6.032 -1.3456 -1.7186  1.8663
 3561SOL     OW22318   1.025   4.035   3.930 -0.5593 -0.0511  0.0258
 3561SOL    HW122319   0.989   4.101   3.988  1.1609 -1.1198  2.3088
 3561SOL    HW222320   1.101   3.994   3.972 -1.2423 -1.0076  0.3383
 3562SOL     OW22321   2.034   0.015   2.702  0.1354  0.5394  0.1917
 3562SOL    HW122322   2.061   4.680   2.761  1.7117 -0.0930 -1.2756
 3562SOL    HW222323   1.946   0.027   2.737  0.5572  3.4150  0.2847
 3563SOL     OW22324   1.930   0.738   8.349  0.8727 -0.1163 -0.4088
 3563SOL    HW122325   1.916   0.702   8.436  0.4231  1.0878  0.0050
 3563SOL    HW222326   1.942   0.830   8.369  1.3282 -0.1442 -0.5523
 3564SOL     OW22327   4.299   4.514   2.398  0.1749  0.3905  0.2958
 3564SOL    HW122328   4.305   4.588   2.459  0.3243  1.4960 -1.0442
 3564SOL    HW222329   4.215   4.533   2.356  1.5731  0.5530 -2.4395
 3565SOL     OW22330   2.757   1.842   7.653  0.1418 -0.1449  0.1627
 3565SOL    HW122331   2.748   1.906   7.582  2.1448 -1.3513 -1.1765
 3565SOL    HW222332   2.787   1.765   7.606  0.9343  0.5723 -0.5230
 3566SOL     OW22333   2.138   0.160   4.181 -0.0022 -0.7430  0.2988
 3566SOL    HW122334   2.087   0.176   4.260 -0.0699  2.1350 -0.3187
 3566SOL    HW222335   2.127   0.067   4.164 -3.2965  0.1953 -2.6903
 3567SOL     OW22336   3.191   3.960   6.225 -0.1487  0.2309  0.2202
 3567SOL    HW122337   3.249   4.036   6.230  0.0750  0.0039  1.0025
 3567SOL    HW222338   3.154   3.961   6.137  1.2406 -0.5530 -0.3622
 3568SOL     OW22339   0.097   2.994   4.859  0.3226  0.1952 -0.4508
 3568SOL    HW122340   0.132   3.071   4.903  1.0894 -0.9298  0.8748
 3568SOL    HW222341   0.084   3.023   4.768  3.9776 -0.5415 -1.1882
 3569SOL     OW22342   0.250   3.988   6.371 -0.6865 -0.1683 -0.0738
 3569SOL    HW122343   0.334   4.033   6.371 -1.1378  0.6809 -2.0652
 3569SOL    HW222344   0.217   4.025   6.453  3.1978  1.0813  0.9473
 3570SOL     OW22345   4.436   0.380   5.614  0.2740 -0.0742  0.4228
 3570SOL    HW122346   4.407   0.464   5.579  2.2033  0.7707  0.8179
 3570SOL    HW222347   4.366   0.356   5.674 -1.2102 -2.1739 -2.1466
 3571SOL     OW22348   3.223   0.708   5.467 -0.5033  0.3200  0.0103
 3571SOL    HW122349   3.144   0.685   5.516  0.5467 -2.2932  0.4388
 3571SOL    HW222350   3.252   0.787   5.513 -2.7493  0.9579  0.3481
 3572SOL     OW22351   4.619   4.214   6.033  0.1445 -0.3625 -0.2198
 3572SOL    HW122352   4.565   4.210   6.112 -1.4254  2.3633 -1.1500
 3572SOL    HW222353   4.679   4.151   6.073 -0.6001 -0.9510 -0.0278
 3573SOL     OW22354   1.987   0.230   4.413  0.0273  0.2879 -0.1165
 3573SOL    HW122355   1.924   0.162   4.437  0.1393 -0.7765 -2.8089
 3573SOL    HW222356   1.937   0.311   4.422 -1.4500 -0.9179  2.5611
 3574SOL     OW22357   2.336   2.446   7.850 -0.2255  0.5014 -0.0446
 3574SOL    HW122358   2.357   2.387   7.778  1.8030  1.0722  0.0793
 3574SOL    HW222359   2.246   2.469   7.825 -0.1000 -0.5239 -1.4203
 3575SOL     OW22360   1.479   1.308   8.238 -0.2263 -0.3035 -0.2332
 3575SOL    HW122361   1.458   1.386   8.289 -3.0160 -1.0426 -0.2418
 3575SOL    HW222362   1.440   1.238   8.291  0.1516 -0.7524 -0.5484
 3576SOL     OW22363   1.975   3.454   4.406  0.2420  0.1847 -0.7781
 3576SOL    HW122364   1.976   3.436   4.312  0.3672  1.2341 -0.9706
 3576SOL    HW222365   2.067   3.457   4.430 -1.0364 -0.0867  4.2068
 3577SOL     OW22366   3.302   0.468   2.240  0.1009  0.3620  0.0002
 3577SOL    HW122367   3.245   0.496   2.168  0.1395 -2.5849 -1.1919
 3577SOL    HW222368   3.359   0.402   2.200 -0.0429  0.5912 -0.5953
 3578SOL     OW22369   4.393   3.471   1.580 -0.5460 -0.3522 -0.2890
 3578SOL    HW122370   4.371   3.440   1.668  2.4164 -3.4689 -0.6484
 3578SOL    HW222371   4.308   3.470   1.536  0.6649 -2.2349 -2.6305
 3579SOL     OW22372   4.059   0.618   6.729 -0.2163 -0.5232  0.2221
 3579SOL    HW122373   4.131   0.633   6.668  0.8105  1.3426  1.9043
 3579SOL    HW222374   3.981   0.614   6.673  1.7179  2.4895 -2.6675
 3580SOL     OW22375   3.461   0.803   8.556 -0.5128  0.1085 -0.2899
 3580SOL    HW122376   3.371   0.787   8.585 -1.3661 -1.1019 -3.6406
 3580SOL    HW222377   3.451   0.814   8.462  3.5632 -2.0733 -0.9682
 3581SOL     OW22378   0.119   2.755  13.707  0.0266 -0.7191  0.6616
 3581SOL    HW122379   0.098   2.780  13.617  0.7091 -1.0096  0.4233
 3581SOL    HW222380   0.095   2.662  13.710 -0.5468 -0.7419 -3.7355
 3582SOL     OW22381   0.917   2.709   3.101  0.2807 -0.1678  0.4217
 3582SOL    HW122382   0.967   2.642   3.054 -0.3621  0.4996 -1.1813
 3582SOL    HW222383   0.881   2.772   3.038 -0.7545  0.0511  1.2205
 3583SOL     OW22384   0.948   0.606  16.383 -0.2978  0.3313 -0.0056
 3583SOL    HW122385   0.884   0.675  16.402  1.6018  1.8931  0.7733
 3583SOL    HW222386   0.953   0.566  16.470 -1.0844  1.3153  0.4950
 3584SOL     OW22387   4.097   2.458   4.525  0.0555 -0.0204 -0.3451
 3584SOL    HW122388   4.125   2.388   4.584  0.3403 -0.0127 -0.4672
 3584SOL    HW222389   4.002   2.454   4.518 -0.1514  0.8562  2.3686
 3585SOL     OW22390   2.103   0.229   9.124  0.3357 -0.2171 -0.3342
 3585SOL    HW122391   2.067   0.238   9.036 -0.5272 -2.2576 -0.1786
 3585SOL    HW222392   2.022   0.223   9.173  0.8138  0.0669  0.4947
 3586SOL     OW22393   0.923   0.441  15.050  0.6448 -0.1312 -0.1252
 3586SOL    HW122394   0.840   0.468  15.011  0.4309  1.8878  1.7890
 3586SOL    HW222395   0.923   0.354  15.010  2.1308 -1.6934  3.2485
 3587SOL     OW22396   2.852   1.791  11.466 -0.2885  0.1971 -0.1964
 3587SOL    HW122397   2.912   1.796  11.540  1.9774  3.0564 -2.2309
 3587SOL    HW222398   2.912   1.797  11.391  1.2730  0.6884  1.1079
 3588SOL     OW22399   4.067   0.131   2.745  0.1126 -0.0600 -0.2957
 3588SOL    HW122400   4.048   0.128   2.651  0.3189 -1.7101 -0.2819
 3588SOL    HW222401   4.007   0.201   2.770 -1.5707 -1.3426 -0.7388
 3589SOL     OW22402   1.067   3.117   6.138  0.0065 -0.2455  0.1972
 3589SOL    HW122403   1.157   3.108   6.107 -0.4896 -0.6081 -1.1487
 3589SOL    HW222404   1.015   3.098   6.060 -0.2767 -0.0048  0.3259
 3590SOL     OW22405   0.428   4.389   7.918 -0.7108  1.0289 -0.2994
 3590SOL    HW122406   0.505   4.333   7.910 -1.5848 -0.4655  1.5638
 3590SOL    HW222407   0.465   4.464   7.964 -0.5928 -0.6566  2.3991
 3591SOL     OW22408   2.580   3.569   7.460  0.0127  0.5689 -0.1442
 3591SOL    HW122409   2.573   3.665   7.460  2.1321  0.7134 -1.4382
 3591SOL    HW222410   2.533   3.557   7.378  0.9946  0.7703 -0.7389
 3592SOL     OW22411   3.172   3.826   1.282  0.3023 -0.2148 -0.0781
 3592SOL    HW122412   3.186   3.915   1.252 -0.7237 -0.6044 -1.7216
 3592SOL    HW222413   3.230   3.834   1.357 -0.5266 -0.6745  0.6211
 3593SOL     OW22414   2.867   3.882   7.471 -0.3337 -0.2519  0.7824
 3593SOL    HW122415   2.874   3.977   7.479 -0.7379 -0.1050 -0.5667
 3593SOL    HW222416   2.909   3.870   7.386  1.5641  2.0587  1.4198
 3594SOL     OW22417   4.614   4.215   2.787  0.5372  0.0263 -0.5601
 3594SOL    HW122418   4.584   4.256   2.705  1.6641 -1.0146 -1.4872
 3594SOL    HW222419   4.694   4.261   2.812  0.7286 -1.0116  0.7454
 3595SOL     OW22420   1.537   1.325  16.646 -0.1070 -0.2378  0.1406
 3595SOL    HW122421   1.543   1.304  16.553 -0.9589 -2.9261  0.7001
 3595SOL    HW222422   1.612   1.282  16.687 -1.4571 -1.0730  1.7486
 3596SOL     OW22423   0.227   2.404   5.781 -0.1655  0.6111 -0.1114
 3596SOL    HW122424   0.293   2.384   5.714 -0.2484 -3.3529  0.9618
 3596SOL    HW222425   0.272   2.382   5.863  1.2957  2.2537 -0.4806
 3597SOL     OW22426   1.299   0.391   0.477  0.1209 -0.1479 -0.5381
 3597SOL    HW122427   1.332   0.454   0.542 -0.7456 -0.0235 -0.2161
 3597SOL    HW222428   1.272   0.450   0.406  0.9788  1.4557  0.4581
 3598SOL     OW22429   3.625   2.981   2.495 -0.0629  0.1082  0.0980
 3598SOL    HW122430   3.599   3.072   2.508  1.0213  0.4359 -0.0183
 3598SOL    HW222431   3.665   2.990   2.408  1.7504  0.1791  0.9285
 3599SOL     OW22432   3.868   0.625  12.632 -0.2135  0.4096  0.4150
 3599SOL    HW122433   3.777   0.620  12.659  0.7048 -2.3980  3.0665
 3599SOL    HW222434   3.904   0.659  12.714 -0.5230  0.6017  0.4695
 3600SOL     OW22435   1.962   0.019   4.637 -0.4622 -1.0874 -0.3414
 3600SOL    HW122436   1.882   0.022   4.585  0.7591 -0.9894 -2.2220
 3600SOL    HW222437   1.975   0.107   4.670 -2.7988 -1.5892  1.9502
 3601SOL     OW22438   1.069   3.341   7.815  0.3351 -0.4213 -0.2224
 3601SOL    HW122439   1.049   3.433   7.799 -1.3484 -0.4619  1.6289
 3601SOL    HW222440   1.161   3.350   7.842  0.8194  0.9432 -2.3160
 3602SOL     OW22441   3.272   3.083   3.337  0.1201 -0.3897  0.0556
 3602SOL    HW122442   3.319   3.149   3.285  0.1726 -0.0673  0.5076
 3602SOL    HW222443   3.193   3.134   3.358  0.8155  1.2577 -1.2967
 3603SOL     OW22444   1.747   1.829   8.364 -0.3455 -0.2829 -0.0644
 3603SOL    HW122445   1.770   1.742   8.332 -0.8148 -0.2676 -0.4460
 3603SOL    HW222446   1.815   1.850   8.428 -0.2054 -1.8601  0.3058
 3604SOL     OW22447   1.303   2.191   1.452 -0.2217 -0.2914  0.2237
 3604SOL    HW122448   1.302   2.244   1.532 -2.6552 -1.5467  1.0135
 3604SOL    HW222449   1.347   2.259   1.401  2.0131 -0.7964  1.4540
 3605SOL     OW22450   3.770   2.189  16.054  0.0551  0.3962  0.6604
 3605SOL    HW122451   3.812   2.208  15.970 -1.6703  0.6021 -0.1522
 3605SOL    HW222452   3.726   2.105  16.042 -0.4232  0.8749 -0.8957
 3606SOL     OW22453   1.334   3.115   6.078 -0.3502 -0.2028 -0.1994
 3606SOL    HW122454   1.368   3.115   5.989  2.3752  0.7253  0.8436
 3606SOL    HW222455   1.417   3.134   6.122  0.1161  0.0217 -1.1736
 3607SOL     OW22456   4.253   1.073   1.469  0.1677 -0.3538 -0.1755
 3607SOL    HW122457   4.279   1.015   1.398 -1.9915 -1.0551 -0.3920
 3607SOL    HW222458   4.329   1.130   1.458 -1.0898  1.8122  2.2294
 3608SOL     OW22459   0.201   4.382   3.476 -0.1699  0.6181  0.3120
 3608SOL    HW122460   0.211   4.314   3.410 -0.3301  2.2710 -1.4200
 3608SOL    HW222461   0.235   4.336   3.553 -3.7327 -1.0641  0.8867
 3609SOL     OW22462   1.406   3.321   8.813  0.5988  0.2571  0.0971
 3609SOL    HW122463   1.449   3.257   8.871  0.7487 -2.1155 -2.6565
 3609SOL    HW222464   1.481   3.369   8.777  1.3826 -0.9185  0.1518
 3610SOL     OW22465   2.361   2.452   9.594  0.0446  0.3918 -0.0409
 3610SOL    HW122466   2.443   2.417   9.628  0.0868 -0.3752 -0.9177
 3610SOL    HW222467   2.386   2.498   9.514 -0.7431 -2.0187 -1.6983
 3611SOL     OW22468   0.447   3.289   1.944  0.2578 -0.0192 -0.3825
 3611SOL    HW122469   0.451   3.275   1.850 -1.3623  1.2173 -0.6340
 3611SOL    HW222470   0.355   3.275   1.965  0.1008 -0.5041 -1.4121
 3612SOL     OW22471   0.797   2.066  16.004 -0.2950  0.1196  0.0065
 3612SOL    HW122472   0.736   2.139  15.990  2.4016  2.5646  0.8742
 3612SOL    HW222473   0.883   2.109  15.997  0.2596 -1.1105 -0.5908
 3613SOL     OW22474   3.589   2.503   6.688  0.3275 -0.2899 -0.4426
 3613SOL    HW122475   3.658   2.564   6.663 -1.9484  2.9017  1.0431
 3613SOL    HW222476   3.588   2.501   6.784  0.6319 -1.1027 -0.4628
 3614SOL     OW22477   2.473   1.863   4.762  0.0276  0.0717 -0.5555
 3614SOL    HW122478   2.426   1.914   4.696  1.7948  2.9683  0.4388
 3614SOL    HW222479   2.507   1.931   4.820 -0.1863  0.1399 -0.5100
 3615SOL     OW22480   2.737   3.202   9.164 -0.1583 -0.3826 -0.5306
 3615SOL    HW122481   2.751   3.126   9.107  1.8930 -1.0016  0.8241
 3615SOL    HW222482   2.649   3.197   9.201 -0.2961 -0.0731 -0.8200
 3616SOL     OW22483   3.175   1.941  13.909  0.0206 -0.0463 -0.6661
 3616SOL    HW122484   3.122   1.927  13.988  1.2142 -0.0926  0.1253
 3616SOL    HW222485   3.173   2.036  13.896  2.6747  0.0195 -0.5633
 3617SOL     OW22486   1.912   1.958  14.444  0.1552  0.4439  0.2665
 3617SOL    HW122487   1.992   1.991  14.484 -1.3815  2.8066  1.4635
 3617SOL    HW222488   1.938   1.974  14.353  1.3464 -0.9102  0.3730
 3618SOL     OW22489   3.303   1.327   6.326 -0.3774 -0.4869  0.1787
 3618SOL    HW122490   3.294   1.259   6.393 -0.1793 -0.2351  0.4615
 3618SOL    HW222491   3.360   1.286   6.261 -1.3665 -1.4233 -0.0907
 3619SOL     OW22492   4.260   0.188  15.883 -0.2096  0.2995  0.2048
 3619SOL    HW122493   4.351   0.207  15.860 -0.3653 -0.8249 -1.3799
 3619SOL    HW222494   4.208   0.219  15.809 -0.6523 -0.3345  0.2525
 3620SOL     OW22495   1.565   1.163   6.776  0.5243 -0.7574  0.1204
 3620SOL    HW122496   1.590   1.236   6.832 -0.2953  0.3604 -0.9739
 3620SOL    HW222497   1.499   1.204   6.720 -1.1771 -2.7216  0.7050
 3621SOL     OW22498   1.616   0.531  16.338 -0.0579 -0.0225 -0.1674
 3621SOL    HW122499   1.636   0.450  16.290 -0.6780  0.0748 -0.5873
 3621SOL    HW222500   1.592   0.590  16.266  0.2962  0.6700  0.2827
 3622SOL     OW22501   0.890   3.845   5.357  0.7797 -0.5642  0.3526
 3622SOL    HW122502   0.823   3.812   5.417 -0.1044  2.3368  0.9226
 3622SOL    HW222503   0.849   3.911   5.302  1.5736 -0.4921 -0.1421
 3623SOL     OW22504   2.964   1.870   9.112 -0.0882  0.7382 -0.0448
 3623SOL    HW122505   3.052   1.853   9.145 -0.4456 -0.5525  0.2618
 3623SOL    HW222506   2.986   1.944   9.056  0.4454 -0.4360 -1.4022
 3624SOL     OW22507   0.198   3.786   1.978 -0.8545 -0.1185 -0.2084
 3624SOL    HW122508   0.247   3.867   1.965  0.5568 -1.0273 -0.5501
 3624SOL    HW222509   0.258   3.723   1.938 -1.4988  0.2824 -1.7671
 3625SOL     OW22510   2.199   1.772  12.843 -0.1409  0.0916  0.1873
 3625SOL    HW122511   2.250   1.695  12.867  0.6836  0.4718 -0.3177
 3625SOL    HW222512   2.265   1.842  12.838 -1.7104  1.6537  1.2542
 3626SOL     OW22513   0.313   0.914   7.707  0.1692  0.1351  0.3966
 3626SOL    HW122514   0.364   0.846   7.664  0.7680 -0.8004  2.6211
 3626SOL    HW222515   0.379   0.924   7.776 -2.2305  1.8371  2.4487
 3627SOL     OW22516   1.763   0.627   5.121 -0.3042 -0.1865  0.6007
 3627SOL    HW122517   1.683   0.606   5.075  0.0802  0.3760 -0.3321
 3627SOL    HW222518   1.789   0.544   5.160 -1.4818 -0.0029  1.7810
 3628SOL     OW22519   4.183   2.995   1.252  0.1112 -0.1502 -0.0293
 3628SOL    HW122520   4.152   3.079   1.286  1.9045  1.0157 -1.2887
 3628SOL    HW222521   4.104   2.964   1.206 -0.4940 -1.2182  1.7405
 3629SOL     OW22522   2.035   4.131   2.966  0.1588  0.1845 -0.2790
 3629SOL    HW122523   2.088   4.112   3.043  0.1399 -0.6576 -0.4759
 3629SOL    HW222524   2.103   4.152   2.902  0.9930  2.0511  1.2321
 3630SOL     OW22525   1.325   3.213  16.350  0.0895 -0.1862 -0.0124
 3630SOL    HW122526   1.374   3.214  16.267  1.1376 -1.5733  0.5950
 3630SOL    HW222527   1.385   3.261  16.407  0.4560  0.5765 -1.0391
 3631SOL     OW22528   2.131   4.435   6.521 -0.3449  0.0632 -0.1912
 3631SOL    HW122529   2.082   4.353   6.526 -0.0565 -0.1198 -0.3855
 3631SOL    HW222530   2.213   4.413   6.476 -0.8514 -1.8919 -0.1620
 3632SOL     OW22531   2.378   1.548   5.868 -0.2771 -0.5704 -0.0848
 3632SOL    HW122532   2.417   1.585   5.789  0.4469  3.2540  2.0506
 3632SOL    HW222533   2.458   1.506   5.898 -0.1116  2.2393  3.4591
 3633SOL     OW22534   2.507   2.736   8.569 -0.0025  0.1930 -0.1263
 3633SOL    HW122535   2.555   2.734   8.486  0.2026  1.8178 -0.0398
 3633SOL    HW222536   2.568   2.679   8.615 -0.7117 -1.9249 -1.7899
 3634SOL     OW22537   2.994   1.564   8.489 -0.0368  0.0327  0.3290
 3634SOL    HW122538   3.039   1.502   8.546  2.4531  0.3776 -1.2653
 3634SOL    HW222539   3.035   1.643   8.525  0.8351 -0.7569  1.0568
 3635SOL     OW22540   0.894   2.350   1.494  0.0635  0.1679  0.0844
 3635SOL    HW122541   0.821   2.395   1.452  1.7140  0.0550 -2.8992
 3635SOL    HW222542   0.941   2.433   1.501 -0.1671  0.4160 -1.3804
 3636SOL     OW22543   3.116   0.148   0.974 -0.0847 -0.4514  0.0811
 3636SOL    HW122544   3.066   0.225   0.946 -0.9040 -1.2094 -0.5111
 3636SOL    HW222545   3.155   0.124   0.890  0.0507 -0.0340  0.0214
 3637SOL     OW22546   3.311   2.774   6.831  0.5230 -0.0036  0.5717
 3637SOL    HW122547   3.246   2.789   6.900  1.4476  1.1485  1.1875
 3637SOL    HW222548   3.250   2.753   6.760  0.5750 -0.2730  0.6058
 3638SOL     OW22549   4.346   4.277   9.860  0.0489 -0.7000  0.3948
 3638SOL    HW122550   4.338   4.188   9.827  0.6895 -0.4256 -0.4828
 3638SOL    HW222551   4.415   4.261   9.924 -0.3798 -0.9031  0.8135
 3639SOL     OW22552   2.687   3.033  13.444 -0.7241  0.3535 -0.2874
 3639SOL    HW122553   2.637   2.993  13.373 -1.6845 -0.2384  0.7141
 3639SOL    HW222554   2.617   3.019  13.508 -0.5921  3.4028  0.5252
 3640SOL     OW22555   3.164   0.560  14.637 -0.1965 -0.1978 -0.5861
 3640SOL    HW122556   3.176   0.550  14.543  0.6543  1.0988 -0.6229
 3640SOL    HW222557   3.116   0.643  14.634 -0.0004 -0.1924 -3.9540
 3641SOL     OW22558   2.382   0.061   7.077 -0.2575 -0.2741 -0.2087
 3641SOL    HW122559   2.371   4.717   7.022  1.0160 -0.6544  0.0705
 3641SOL    HW222560   2.358   0.032   7.165 -2.5836  0.1918 -0.7088
 3642SOL     OW22561   4.472   3.832   3.896 -0.2706  0.4698  0.6194
 3642SOL    HW122562   4.481   3.865   3.986  0.3726 -1.1090  1.1333
 3642SOL    HW222563   4.546   3.772   3.904 -0.4026  0.3382  0.8644
 3643SOL     OW22564   1.560   3.631   9.795 -0.0080 -0.0446 -0.2579
 3643SOL    HW122565   1.555   3.541   9.764 -1.2062  0.4850 -1.6126
 3643SOL    HW222566   1.532   3.678   9.716 -0.0152  0.7067  0.1847
 3644SOL     OW22567   1.704   1.620   5.423 -0.0521 -0.9987 -0.0373
 3644SOL    HW122568   1.779   1.567   5.400 -0.3690 -1.4440 -0.0471
 3644SOL    HW222569   1.730   1.689   5.484  0.4348 -0.1388 -1.2212
 3645SOL     OW22570   4.132   1.466   7.635  0.0759  0.0249 -0.5032
 3645SOL    HW122571   4.065   1.419   7.684  0.7044  1.7650  2.0566
 3645SOL    HW222572   4.215   1.441   7.676  0.3557  1.2434 -0.3040
 3646SOL     OW22573   4.107   4.733   0.803 -0.2445 -0.2037  0.4172
 3646SOL    HW122574   4.048   4.726   0.878 -1.5033  2.4777 -0.3270
 3646SOL    HW222575   4.081   4.657   0.751 -0.7379 -0.2592  0.7526
 3647SOL     OW22576   2.635   2.062  10.674  0.5573  0.0740 -0.7716
 3647SOL    HW122577   2.616   2.005  10.600 -1.9779  2.7130 -2.1693
 3647SOL    HW222578   2.691   2.131  10.638  1.9815  0.0682  1.3943
 3648SOL     OW22579   1.575   0.624   6.930  0.4220 -0.0965 -0.0857
 3648SOL    HW122580   1.557   0.715   6.906  0.1931  0.3921  1.9355
 3648SOL    HW222581   1.656   0.629   6.980  1.0078 -1.8682 -0.8560
 3649SOL     OW22582   2.509   0.299  16.321  0.6618  0.2881  0.1215
 3649SOL    HW122583   2.553   0.310  16.405 -3.0820  1.9090  1.8758
 3649SOL    HW222584   2.520   0.376  16.266  1.1346 -0.0621 -0.2757
 3650SOL     OW22585   0.855   4.293  15.453 -0.1255  0.5525  0.2367
 3650SOL    HW122586   0.945   4.264  15.465 -0.5701 -1.2467 -0.7562
 3650SOL    HW222587   0.881   4.333  15.370  0.4038  0.8592  0.5475
 3651SOL     OW22588   1.360   3.708   7.977  0.4548  0.3135  0.4853
 3651SOL    HW122589   1.304   3.646   8.024  0.9313 -0.8799 -0.5179
 3651SOL    HW222590   1.304   3.732   7.903  0.4749 -1.1473 -0.0101
 3652SOL     OW22591   3.099   1.501  10.173  0.7295 -0.0758  0.4425
 3652SOL    HW122592   3.059   1.427  10.218 -2.0244  0.4311 -1.1335
 3652SOL    HW222593   3.173   1.512  10.233  1.6173 -1.1656 -0.4633
 3653SOL     OW22594   4.596   4.466   0.761 -0.8455  0.2700 -0.5186
 3653SOL    HW122595   4.654   4.507   0.825 -2.1500  1.8377 -0.3574
 3653SOL    HW222596   4.616   4.372   0.768 -1.3118  0.1826 -0.3763
 3654SOL     OW22597   2.491   1.567  13.927  0.3977 -0.5836  0.2671
 3654SOL    HW122598   2.516   1.483  13.966 -1.6615 -1.0663  0.5671
 3654SOL    HW222599   2.417   1.597  13.980 -0.2477  0.6601 -1.3697
 3655SOL     OW22600   2.804   2.864   7.065  0.2472  0.3485 -0.1865
 3655SOL    HW122601   2.787   2.919   7.142 -2.9024 -0.7870 -0.0760
 3655SOL    HW222602   2.791   2.924   6.992 -0.7256 -1.2427 -1.2906
 3656SOL     OW22603   0.335   1.546   9.995  0.0118 -0.1605  0.2022
 3656SOL    HW122604   0.422   1.530   9.958 -0.3856 -0.6432 -0.5278
 3656SOL    HW222605   0.317   1.636   9.967  0.3250 -0.3964 -0.7472
 3657SOL     OW22606   0.418   1.304   3.155  0.0102  0.3340 -0.1561
 3657SOL    HW122607   0.372   1.332   3.077  0.1479 -1.5463 -0.9021
 3657SOL    HW222608   0.350   1.259   3.204  0.1219 -0.0103 -0.3233
 3658SOL     OW22609   0.638   1.007   0.263 -0.1130  0.5484 -0.5598
 3658SOL    HW122610   0.698   1.081   0.281  0.4642  0.2968 -1.4530
 3658SOL    HW222611   0.554   1.048   0.282 -0.1266  0.5676 -0.6613
 3659SOL     OW22612   1.237   0.097   5.611  0.5662  0.0504 -0.3282
 3659SOL    HW122613   1.258   0.131   5.524 -0.0123 -0.5475 -0.6979
 3659SOL    HW222614   1.143   0.103   5.593  0.4320 -0.3430  0.2254
 3660SOL     OW22615   1.030   1.635  11.871  0.2473  0.2337 -0.6114
 3660SOL    HW122616   1.093   1.661  11.939  1.1773  0.4478 -1.5636
 3660SOL    HW222617   0.949   1.651  11.919  1.1694  3.0162  0.0477
 3661SOL     OW22618   0.516   4.469   2.845  0.2969  0.5292  0.2514
 3661SOL    HW122619   0.515   4.474   2.940 -0.8637  0.2446  0.2597
 3661SOL    HW222620   0.426   4.439   2.831  1.6424 -2.9739 -0.8882
 3662SOL     OW22621   2.895   2.988   3.180  0.5262  0.1346  0.2603
 3662SOL    HW122622   2.901   2.897   3.150  0.3417 -0.0963  0.9190
 3662SOL    HW222623   2.960   3.034   3.127 -1.0044 -1.8805 -3.2955
 3663SOL     OW22624   3.342   0.561   8.863 -0.0673 -0.6252  0.9053
 3663SOL    HW122625   3.309   0.483   8.818  1.2035 -0.8109  0.2792
 3663SOL    HW222626   3.282   0.630   8.836 -0.0594 -0.5582  1.0564
 3664SOL     OW22627   3.481   0.636   7.695  0.2131 -0.2502  0.1030
 3664SOL    HW122628   3.516   0.716   7.734  0.8360 -2.0992  3.2459
 3664SOL    HW222629   3.430   0.667   7.620 -0.4267 -1.1585  0.1627
 3665SOL     OW22630   4.327   0.202   1.181  0.6844 -0.1978 -0.1078
 3665SOL    HW122631   4.330   0.202   1.277  1.0978 -1.8768 -0.1150
 3665SOL    HW222632   4.235   0.227   1.173  1.2958  1.0311 -2.9733
 3666SOL     OW22633   0.676   3.896   4.813  0.1882 -0.1235 -0.1209
 3666SOL    HW122634   0.604   3.956   4.831 -0.7442 -1.4374  0.5738
 3666SOL    HW222635   0.631   3.811   4.814 -1.8730  0.9938  1.1439
 3667SOL     OW22636   3.847   2.727  14.055  0.0917 -0.3694  0.2190
 3667SOL    HW122637   3.929   2.740  14.006  0.4290  0.3339  0.9688
 3667SOL    HW222638   3.875   2.684  14.135 -0.6552 -2.3628 -0.6110
 3668SOL     OW22639   3.967   0.117   5.203  0.4099 -0.2693 -0.3118
 3668SOL    HW122640   3.966   0.093   5.296 -0.7593 -0.6521 -0.4310
 3668SOL    HW222641   3.935   0.033   5.172 -0.4754  0.3174 -0.9554
 3669SOL     OW22642   1.069   1.498  16.651 -0.0262 -0.0882 -0.3110
 3669SOL    HW122643   1.134   1.558  16.615 -0.6843  0.0276 -1.3176
 3669SOL    HW222644   1.118   1.415  16.646  1.4768  0.9647 -3.1430
 3670SOL     OW22645   4.139   3.881   1.982 -0.7847  0.1615 -0.2882
 3670SOL    HW122646   4.130   3.861   2.075 -0.5692 -1.6962 -0.6560
 3670SOL    HW222647   4.069   3.940   1.956 -1.5747 -0.3945  0.5580
 3671SOL     OW22648   1.761   2.733   7.367 -0.3439 -0.1417  0.3475
 3671SOL    HW122649   1.709   2.678   7.309  2.7016 -0.1725 -2.3686
 3671SOL    HW222650   1.782   2.666   7.432  0.2633  0.5704  0.8870
 3672SOL     OW22651   4.246   2.738   2.279  0.0365 -0.7362 -0.2055
 3672SOL    HW122652   4.302   2.733   2.357  0.5265 -0.9590 -0.5768
 3672SOL    HW222653   4.166   2.777   2.315 -0.2115 -0.4795 -1.0290
 3673SOL     OW22654   4.443   0.607   5.430  0.6275  0.5781 -0.0187
 3673SOL    HW122655   4.516   0.567   5.382  1.2980 -1.4348  2.6510
 3673SOL    HW222656   4.389   0.631   5.355  2.1383  1.8663 -0.6983
 3674SOL     OW22657   1.140   0.401  10.154 -0.0384 -0.0504  0.5161
 3674SOL    HW122658   1.062   0.402  10.211  0.3263  4.0763  0.9608
 3674SOL    HW222659   1.200   0.339  10.196 -0.4653 -1.5004 -1.0072
 3675SOL     OW22660   3.734   3.994   4.163  0.3147 -0.0873 -0.4732
 3675SOL    HW122661   3.786   3.913   4.166 -0.8430 -0.7925  0.4283
 3675SOL    HW222662   3.806   4.051   4.135 -0.4953  0.1451 -2.0714
 3676SOL     OW22663   0.678   2.944   1.386  0.0303 -0.2065  0.0570
 3676SOL    HW122664   0.717   3.031   1.382 -0.8579  0.3253  3.3813
 3676SOL    HW222665   0.592   2.975   1.415 -0.4700 -0.1347 -1.4990
 3677SOL     OW22666   0.977   1.766   1.869 -0.1845 -0.2090  0.4818
 3677SOL    HW122667   0.884   1.764   1.895 -0.4387 -0.5205 -0.4429
 3677SOL    HW222668   1.015   1.704   1.931  0.4839  1.1888  1.4498
 3678SOL     OW22669   1.101   0.578   0.816  0.3374  0.5504 -0.5389
 3678SOL    HW122670   1.093   0.535   0.901  0.4840 -0.0138 -0.8148
 3678SOL    HW222671   1.135   0.510   0.757 -0.2020 -1.0753  1.0304
 3679SOL     OW22672   2.553   2.756   1.230 -0.1948  0.1510 -0.4097
 3679SOL    HW122673   2.604   2.759   1.149 -1.5829  1.8527 -1.2218
 3679SOL    HW222674   2.529   2.849   1.233 -2.4373 -0.4885  0.6219
 3680SOL     OW22675   4.516   1.902  14.646 -0.1249 -0.2655  0.1418
 3680SOL    HW122676   4.608   1.926  14.639  0.5455 -2.6350  0.9575
 3680SOL    HW222677   4.510   1.826  14.588  2.6062 -0.9101  0.7056
 3681SOL     OW22678   4.376   0.902   7.041  0.0018 -0.5771 -0.1890
 3681SOL    HW122679   4.362   0.985   7.085 -0.9554 -0.7863 -0.1077
 3681SOL    HW222680   4.450   0.922   6.984  0.2922 -2.1700 -0.3841
 3682SOL     OW22681   4.724   0.087  17.442  0.3325 -0.5392 -0.0032
 3682SOL    HW122682   4.636   0.124  17.432  0.1193 -1.5398 -1.8194
 3682SOL    HW222683   0.005   0.062  17.351  0.1213 -0.2646 -0.1177
 3683SOL     OW22684   0.382   4.679   9.882  0.3628 -0.6968  0.8227
 3683SOL    HW122685   0.443   0.007   9.923  0.0960 -0.0563  0.2318
 3683SOL    HW222686   0.410   4.686   9.791 -1.3607  1.4816  0.4483
 3684SOL     OW22687   2.997   2.716   8.301  0.5962 -0.5232 -0.1856
 3684SOL    HW122688   2.987   2.739   8.393  0.9645  0.4870 -0.4036
 3684SOL    HW222689   2.951   2.787   8.257 -1.4223 -3.3524 -2.7182
 3685SOL     OW22690   1.501   4.243  13.988 -0.4390  0.4094 -0.7016
 3685SOL    HW122691   1.465   4.246  14.076 -0.2304 -1.4628 -0.5514
 3685SOL    HW222692   1.431   4.189  13.951  0.1901 -0.9833  0.1340
 3686SOL     OW22693   2.988   3.647   3.648  0.1977 -0.0873  0.2256
 3686SOL    HW122694   3.075   3.679   3.673 -0.3291  1.5194  0.0103
 3686SOL    HW222695   2.936   3.667   3.726  0.6474  3.0214 -0.2567
 3687SOL     OW22696   1.016   3.112   8.941 -0.1548 -0.2429  0.0248
 3687SOL    HW122697   0.933   3.081   8.978  0.2425 -0.6333  0.5774
 3687SOL    HW222698   1.066   3.031   8.934  0.3070  0.1220 -0.8619
 3688SOL     OW22699   4.418   1.740   5.040  0.0592 -0.3655  0.0216
 3688SOL    HW122700   4.385   1.710   5.125 -0.1687 -0.2389 -0.0235
 3688SOL    HW222701   4.469   1.816   5.069  0.3100  0.1263 -1.7044
 3689SOL     OW22702   2.406   1.344   4.293  0.0923  0.0885 -0.4397
 3689SOL    HW122703   2.314   1.318   4.302  0.0652  0.4924  0.4343
 3689SOL    HW222704   2.435   1.258   4.261  0.5838 -0.9988  2.9449
 3690SOL     OW22705   2.532   0.663   2.182 -0.0594 -0.4849 -0.3266
 3690SOL    HW122706   2.538   0.749   2.223  1.3977  0.1009 -1.7745
 3690SOL    HW222707   2.609   0.647   2.128 -0.8686 -2.0114 -1.0345
 3691SOL     OW22708   1.995   3.212   3.795 -0.1054  0.5520 -0.2704
 3691SOL    HW122709   2.008   3.120   3.770 -0.1600  0.4265  0.1728
 3691SOL    HW222710   1.934   3.202   3.867  0.7098  1.6228  0.5614
 3692SOL     OW22711   2.565   0.590   1.854  0.2262 -0.3844 -0.1029
 3692SOL    HW122712   2.509   0.663   1.827 -2.2425 -1.2321  2.6632
 3692SOL    HW222713   2.583   0.550   1.769  1.5129  0.1998 -0.1007
 3693SOL     OW22714   0.772   3.516  16.137  0.5711  0.2814  0.8388
 3693SOL    HW122715   0.689   3.516  16.090  0.4378 -0.9402  1.0799
 3693SOL    HW222716   0.821   3.525  16.055  0.7096  0.3805  0.9320
 3694SOL     OW22717   3.321   3.827   9.122  0.2069  0.2577  0.4881
 3694SOL    HW122718   3.273   3.811   9.040 -0.1683  0.1190  0.7353
 3694SOL    HW222719   3.283   3.762   9.181 -2.0392  1.7117  0.6332
 3695SOL     OW22720   3.775   1.259  13.493  0.1644  0.2672 -0.0798
 3695SOL    HW122721   3.692   1.301  13.472 -0.5150 -1.8862 -1.8157
 3695SOL    HW222722   3.834   1.297  13.428  0.8903 -2.2123 -0.8914
 3696SOL     OW22723   4.428   4.589   3.057 -1.1031 -0.2912  0.3835
 3696SOL    HW122724   4.439   4.497   3.032 -0.3028 -0.1913  0.3806
 3696SOL    HW222725   4.380   4.627   2.983 -0.4108  0.1066  0.1329
 3697SOL     OW22726   1.242   2.756   9.435 -0.3506  0.0212  0.8528
 3697SOL    HW122727   1.293   2.751   9.516  0.0304 -0.7485  0.5649
 3697SOL    HW222728   1.153   2.757   9.470 -0.7626  0.2582 -0.1900
 3698SOL     OW22729   1.190   0.156   8.962  0.5695 -0.2067 -0.9447
 3698SOL    HW122730   1.257   0.169   9.029 -1.0682 -1.2574  0.8917
 3698SOL    HW222731   1.119   0.110   9.007  2.8765 -0.5668  2.3850
 3699SOL     OW22732   2.685   0.849   8.694  0.5085  0.5312 -1.2250
 3699SOL    HW122733   2.627   0.920   8.667 -0.2851 -0.0020 -0.9509
 3699SOL    HW222734   2.733   0.878   8.771 -0.4565 -0.9849 -0.0500
 3700SOL     OW22735   2.336   2.391   2.324  0.0720  0.3161 -0.0617
 3700SOL    HW122736   2.424   2.386   2.362 -0.3941 -1.1535  0.8426
 3700SOL    HW222737   2.349   2.443   2.245  0.3560  1.2515  0.5998
 3701SOL     OW22738   2.008   3.977   4.813 -0.1245 -0.2607 -0.3564
 3701SOL    HW122739   1.926   4.003   4.854  0.6675 -1.3833  1.9324
 3701SOL    HW222740   1.982   3.914   4.746 -2.3838  0.0795  0.2241
 3702SOL     OW22741   0.769   1.753  14.647 -0.8437  0.0494 -0.3140
 3702SOL    HW122742   0.778   1.697  14.569  1.9868 -0.8136  0.6268
 3702SOL    HW222743   0.768   1.689  14.718 -0.2589 -0.0387 -0.3888
 3703SOL     OW22744   4.562   2.740   3.035 -0.0582  0.0136  0.4261
 3703SOL    HW122745   4.645   2.703   3.005  0.8201  0.4294  2.3570
 3703SOL    HW222746   4.506   2.725   2.958  1.9426 -1.2637 -0.7842
 3704SOL     OW22747   3.343   3.912  13.447  0.2886 -0.2101  0.3902
 3704SOL    HW122748   3.309   3.927  13.536 -0.8114  2.3451 -0.4590
 3704SOL    HW222749   3.269   3.860  13.414  1.2889 -0.9134 -0.7572
 3705SOL     OW22750   4.045   0.476   0.575 -0.4628 -0.0090 -0.1867
 3705SOL    HW122751   4.094   0.398   0.548  0.7295  1.0089 -0.9488
 3705SOL    HW222752   3.959   0.454   0.538 -0.8020 -1.1646  1.2573
 3706SOL     OW22753   1.436   1.651   4.345  0.4171  0.8759  0.1562
 3706SOL    HW122754   1.532   1.649   4.342  0.3727 -1.0800  0.2740
 3706SOL    HW222755   1.426   1.721   4.410  2.2057  1.3354 -0.0566
 3707SOL     OW22756   1.759   2.837  10.393  0.2902  0.2823 -0.3199
 3707SOL    HW122757   1.781   2.868  10.481 -0.3460 -1.1684  0.3541
 3707SOL    HW222758   1.815   2.886  10.333 -2.2901  1.4828 -1.7295
 3708SOL     OW22759   1.906   2.513   9.406  0.2085 -0.8569 -0.1778
 3708SOL    HW122760   1.852   2.433   9.407 -1.4738  0.2672 -0.8417
 3708SOL    HW222761   1.985   2.484   9.450  2.3331  2.6851 -1.6639
 3709SOL     OW22762   2.895   3.367   5.617  0.2676  0.3643  0.1319
 3709SOL    HW122763   2.939   3.448   5.641  0.5611 -0.2919  1.8055
 3709SOL    HW222764   2.870   3.383   5.526  2.2501  1.7031 -0.1721
 3710SOL     OW22765   3.935   2.066  12.498 -0.5419  0.4313 -0.2242
 3710SOL    HW122766   3.868   2.107  12.552 -1.3251  1.2084 -1.7884
 3710SOL    HW222767   3.911   2.075  12.406 -0.2834 -1.3290 -0.4735
 3711SOL     OW22768   0.223   3.594   4.682 -0.4606 -0.4591  0.3605
 3711SOL    HW122769   0.160   3.543   4.632 -0.9258  0.7660 -0.2835
 3711SOL    HW222770   0.187   3.682   4.688 -0.9795 -0.7367  1.3142
 3712SOL     OW22771   0.808   1.301   3.585 -0.2969 -0.3967  0.0328
 3712SOL    HW122772   0.896   1.309   3.548 -0.0666 -1.7248  0.2865
 3712SOL    HW222773   0.764   1.276   3.504  1.3626  0.3759 -1.1085
 3713SOL     OW22774   1.283   3.302  14.079  0.2577 -0.4413  0.3941
 3713SOL    HW122775   1.189   3.293  14.097 -0.1538 -2.5997 -2.7327
 3713SOL    HW222776   1.304   3.219  14.036  0.7633 -1.2732  2.2225
 3714SOL     OW22777   3.136   0.858   4.999 -0.2210  0.3520  0.2470
 3714SOL    HW122778   3.127   0.837   5.092 -0.0493  0.1220  0.2125
 3714SOL    HW222779   3.229   0.838   4.988 -0.3716 -0.3150  0.1937
 3715SOL     OW22780   2.630   2.737  17.634 -0.0413 -0.5107 -0.0224
 3715SOL    HW122781   2.613   2.829  17.614 -0.5475 -0.4535  0.6440
 3715SOL    HW222782   2.571   2.685  17.579  2.1044 -0.3018 -2.5148
 3716SOL     OW22783   3.638   1.682   9.628 -0.3773  0.1419 -0.3688
 3716SOL    HW122784   3.543   1.680   9.619 -0.3173 -0.8565 -0.7371
 3716SOL    HW222785   3.662   1.618   9.561 -1.0144 -0.7633  0.2667
 3717SOL     OW22786   0.729   2.851  16.901  0.4623 -0.0326  0.8371
 3717SOL    HW122787   0.787   2.774  16.899  0.0358 -0.3521  0.7978
 3717SOL    HW222788   0.782   2.922  16.865 -1.2424  1.2788  0.9268
 3718SOL     OW22789   1.673   3.350  15.368  0.0835  0.4055  0.7314
 3718SOL    HW122790   1.660   3.337  15.274 -1.9236 -0.2840  1.1032
 3718SOL    HW222791   1.766   3.369  15.363 -0.4902  2.9827 -0.4717
 3719SOL     OW22792   2.594   0.555   5.743  0.2939 -0.1920 -0.0530
 3719SOL    HW122793   2.531   0.626   5.749 -2.0045 -2.0649 -1.8497
 3719SOL    HW222794   2.644   0.569   5.824  1.3704 -0.7740 -0.6107
 3720SOL     OW22795   1.834   0.832   7.340 -1.1330  0.4865  0.0115
 3720SOL    HW122796   1.866   0.917   7.311  2.0251 -1.1623 -1.3410
 3720SOL    HW222797   1.893   0.817   7.414  1.3011  4.1557 -1.2115
 3721SOL     OW22798   2.539   3.831   3.698 -0.1058 -0.6216  0.1804
 3721SOL    HW122799   2.623   3.874   3.684  0.0356 -1.2455 -0.9335
 3721SOL    HW222800   2.472   3.892   3.668  1.2993 -0.4452 -2.6500
 3722SOL     OW22801   0.454   0.910  11.821 -0.3026 -0.1999  0.4611
 3722SOL    HW122802   0.530   0.865  11.859 -0.8825 -1.1827  0.4599
 3722SOL    HW222803   0.382   0.849  11.834 -1.2999  0.9752  0.4050
 3723SOL     OW22804   0.307   2.574   7.923  0.5983 -0.0002 -0.1251
 3723SOL    HW122805   0.391   2.530   7.904 -2.3135 -4.8599 -1.8120
 3723SOL    HW222806   0.293   2.604   7.833 -1.3040  2.2063  0.9316
 3724SOL     OW22807   4.325   3.365   9.509 -0.2583 -0.5279 -0.2427
 3724SOL    HW122808   4.255   3.309   9.542  1.3887 -1.6434  1.3497
 3724SOL    HW222809   4.380   3.306   9.457 -1.0259 -0.4566 -1.1405
 3725SOL     OW22810   1.090   1.072   4.719  0.7021  0.1076 -0.1145
 3725SOL    HW122811   1.041   1.121   4.653 -0.2943 -3.0496 -1.7285
 3725SOL    HW222812   1.179   1.077   4.685  0.9180  2.4907  0.7930
 3726SOL     OW22813   2.115   1.830  13.187 -0.6293  0.3772  0.1542
 3726SOL    HW122814   2.160   1.897  13.135 -0.0646  2.1414  2.9174
 3726SOL    HW222815   2.032   1.876  13.203 -2.0218 -2.0067 -0.2835
 3727SOL     OW22816   2.397   3.870   1.907 -0.6662  0.8510  0.5952
 3727SOL    HW122817   2.371   3.959   1.883 -0.7948  0.0828 -2.1657
 3727SOL    HW222818   2.431   3.889   1.994 -1.1917  1.5088  0.6559
 3728SOL     OW22819   2.923   4.655   5.257  0.3011  0.6116  0.0770
 3728SOL    HW122820   2.956   4.620   5.175 -1.8282  0.0367 -0.5365
 3728SOL    HW222821   2.891   0.006   5.228  3.5422  1.3688 -1.3029
 3729SOL     OW22822   4.240   3.915  15.532  0.1242 -0.1995  0.2661
 3729SOL    HW122823   4.146   3.905  15.543  0.1209 -0.2056  0.2315
 3729SOL    HW222824   4.247   4.009  15.549 -1.2299 -0.0202 -0.2121
 3730SOL     OW22825   3.885   2.288   6.215  0.2429 -0.5045 -0.3820
 3730SOL    HW122826   3.925   2.202   6.206 -1.1511 -1.1710 -0.2836
 3730SOL    HW222827   3.961   2.346   6.209 -0.2981  0.4456  1.7614
 3731SOL     OW22828   4.570   2.278  11.658  0.1480  0.3145 -0.2985
 3731SOL    HW122829   4.493   2.235  11.696  1.1785 -0.3073  1.0909
 3731SOL    HW222830   4.598   2.210  11.596  0.8868  0.3545 -0.0116
 3732SOL     OW22831   3.885   1.931   7.577  0.2194 -0.2061 -0.0822
 3732SOL    HW122832   3.937   1.863   7.533 -0.2485  0.2740 -1.3608
 3732SOL    HW222833   3.922   1.934   7.665 -0.2812  0.2612  0.1098
 3733SOL     OW22834   3.605   4.469  10.588 -0.1737  0.8578 -0.1479
 3733SOL    HW122835   3.631   4.554  10.623  1.0326  0.2956  0.2910
 3733SOL    HW222836   3.637   4.406  10.652 -2.7170 -0.3784 -0.0768
 3734SOL     OW22837   1.271   4.046  13.027 -0.3686  0.3551 -0.0266
 3734SOL    HW122838   1.251   4.025  13.118 -0.0841  0.1575 -0.0095
 3734SOL    HW222839   1.366   4.033  13.027 -0.1983  1.6441  0.5841
 3735SOL     OW22840   2.396   0.278   8.318 -0.4775  0.2095  0.0277
 3735SOL    HW122841   2.470   0.308   8.371 -2.1409 -0.9471  3.0223
 3735SOL    HW222842   2.407   0.324   8.235  0.4687 -0.4270 -0.1945
 3736SOL     OW22843   2.206   1.426   7.780 -0.2209 -0.5865 -0.1373
 3736SOL    HW122844   2.156   1.502   7.811  1.7853  0.9787 -0.7628
 3736SOL    HW222845   2.296   1.458   7.782  0.4074 -2.3067 -1.3043
 3737SOL     OW22846   4.001   2.730  17.293 -0.0481 -0.0878  0.0280
 3737SOL    HW122847   4.019   2.643  17.329  1.5417  0.4816  0.5939
 3737SOL    HW222848   3.928   2.759  17.347  0.0014  1.1560 -0.5694
 3738SOL     OW22849   4.475   2.905   8.510 -0.0387  0.2865 -0.0992
 3738SOL    HW122850   4.523   2.963   8.569 -3.0626 -0.5024  3.1080
 3738SOL    HW222851   4.551   2.855   8.480  0.5660  0.6231  0.9064
 3739SOL     OW22852   4.188   2.292   0.606  0.3266 -0.0183 -0.4907
 3739SOL    HW122853   4.215   2.345   0.681  1.0052  1.9914 -2.1528
 3739SOL    HW222854   4.231   2.337   0.532  0.9535 -0.9300 -0.6837
 3740SOL     OW22855   0.956   2.887   3.887  0.1781  0.1876 -0.3952
 3740SOL    HW122856   0.983   2.878   3.796  2.5358 -1.3772  0.4612
 3740SOL    HW222857   1.036   2.925   3.923 -0.8672  0.6553  1.4472
 3741SOL     OW22858   4.445   2.362   5.645  0.0805  0.5076 -0.6855
 3741SOL    HW122859   4.419   2.454   5.643  0.0143  0.4616 -1.9360
 3741SOL    HW222860   4.503   2.355   5.721  0.1332 -2.7787 -1.0253
 3742SOL     OW22861   3.287   4.347   6.502  0.0331  0.0719 -0.4620
 3742SOL    HW122862   3.353   4.402   6.544 -1.2569  2.5128 -1.6103
 3742SOL    HW222863   3.285   4.278   6.567  3.3692 -1.0479 -1.5595
 3743SOL     OW22864   1.575   3.403   6.976 -0.0282 -0.1314 -0.9553
 3743SOL    HW122865   1.490   3.447   6.966 -0.1343 -0.3197 -0.8865
 3743SOL    HW222866   1.555   3.320   6.932 -0.3329 -0.5906  0.0528
 3744SOL     OW22867   0.931   1.853  12.304 -0.2871  0.2057 -0.5428
 3744SOL    HW122868   0.885   1.934  12.281  0.4059  1.1177  1.2959
 3744SOL    HW222869   0.877   1.813  12.373 -0.4064 -0.3970 -0.9875
 3745SOL     OW22870   2.065   1.902   5.246  0.0699 -0.3709  0.3410
 3745SOL    HW122871   2.075   1.898   5.151  1.6205  1.8111  0.4069
 3745SOL    HW222872   2.003   1.973   5.260 -2.0892 -2.6087  2.0249
 3746SOL     OW22873   2.600   2.408   1.100 -0.1721  0.0697 -0.2335
 3746SOL    HW122874   2.622   2.362   1.018  0.4019 -0.6570  0.3180
 3746SOL    HW222875   2.514   2.442   1.077 -0.6821 -0.3540  1.0399
 3747SOL     OW22876   0.713   0.215   7.291  0.1927 -0.4380  0.1261
 3747SOL    HW122877   0.756   0.252   7.368 -0.6165  1.8705 -0.5267
 3747SOL    HW222878   0.667   0.291   7.256  0.1480 -0.3997  0.2698
 3748SOL     OW22879   0.343   2.317   5.414 -0.8871  0.5535  0.2741
 3748SOL    HW122880   0.422   2.267   5.435 -1.2417  0.0040  0.2933
 3748SOL    HW222881   0.355   2.322   5.319 -0.0778 -0.2993  0.3255
 3749SOL     OW22882   3.236   0.458   2.497  0.7841 -0.4155 -0.8162
 3749SOL    HW122883   3.271   0.480   2.411  0.4365 -0.9565 -1.0942
 3749SOL    HW222884   3.293   0.383   2.517  0.6842  0.2831  2.0699
 3750SOL     OW22885   2.300   2.476   6.711 -0.3395  0.3042 -0.0996
 3750SOL    HW122886   2.319   2.567   6.687  1.3578 -0.4838 -1.7313
 3750SOL    HW222887   2.207   2.467   6.730  0.3408  1.7781  3.7965
 3751SOL     OW22888   2.158   4.159   5.740 -0.5228  0.2988  0.1312
 3751SOL    HW122889   2.196   4.071   5.736 -2.2573 -0.3920 -1.1481
 3751SOL    HW222890   2.082   4.147   5.796 -0.4109 -2.7988 -0.3558
 3752SOL     OW22891   0.152   1.258   2.991  0.5148 -0.0286  0.0474
 3752SOL    HW122892   0.202   1.334   2.961  0.8340 -0.3886 -0.3515
 3752SOL    HW222893   0.121   1.220   2.909  1.2207  0.1036 -0.2856
 3753SOL     OW22894   2.971   3.968  10.357 -1.0931  0.0587  0.3434
 3753SOL    HW122895   2.931   4.046  10.318  0.2274  0.9315  0.7460
 3753SOL    HW222896   2.990   3.912  10.281 -1.2509  1.7527 -0.9618
 3754SOL     OW22897   2.839   4.188   5.819 -0.1069  0.8237 -0.4118
 3754SOL    HW122898   2.909   4.164   5.757  0.9309 -2.2447  1.9334
 3754SOL    HW222899   2.757   4.150   5.788  0.8897 -1.2090 -0.5862
 3755SOL     OW22900   2.515   1.814  12.970  0.0155 -0.3725  0.6389
 3755SOL    HW122901   2.586   1.873  12.946 -0.2717 -0.6689 -0.8939
 3755SOL    HW222902   2.512   1.766  12.888 -2.4243  0.4542  0.2670
 3756SOL     OW22903   0.147   2.900   2.764 -0.1460 -0.1950  0.0364
 3756SOL    HW122904   0.090   2.823   2.757  0.8875 -0.7992 -1.6496
 3756SOL    HW222905   0.214   2.857   2.818 -0.6994 -2.3815 -0.9897
 3757SOL     OW22906   0.718   2.540   2.651  0.9948  0.5946  0.3876
 3757SOL    HW122907   0.705   2.555   2.557  0.4617 -1.6784  0.1109
 3757SOL    HW222908   0.756   2.625   2.671 -0.9243  1.4131  0.5792
 3758SOL     OW22909   1.443   1.980   1.634  0.2546 -0.0478  0.2011
 3758SOL    HW122910   1.384   1.911   1.665 -1.5303  1.1453 -0.4768
 3758SOL    HW222911   1.389   2.021   1.566  0.4480  0.1107  0.1449
 3759SOL     OW22912   1.295   0.394   3.696 -0.4213 -0.4818  0.2467
 3759SOL    HW122913   1.244   0.322   3.733 -0.6268 -0.8841 -0.8216
 3759SOL    HW222914   1.375   0.346   3.673 -0.4862  0.0258 -1.0321
 3760SOL     OW22915   0.828   2.553  11.333 -0.5132  0.6953 -0.4630
 3760SOL    HW122916   0.767   2.479  11.335 -0.7495  0.9182  0.3588
 3760SOL    HW222917   0.782   2.633  11.308  0.8687  1.5436 -0.3099
 3761SOL     OW22918   4.032   1.814  12.598 -0.0330 -0.1834 -0.2122
 3761SOL    HW122919   3.945   1.777  12.581 -0.0357  0.5991 -1.9131
 3761SOL    HW222920   4.002   1.899  12.565  2.5402  0.4738 -0.8120
 3762SOL     OW22921   3.317   2.082  14.481 -0.2113 -0.3032  0.5736
 3762SOL    HW122922   3.395   2.056  14.531 -0.2228 -0.4999  0.4884
 3762SOL    HW222923   3.336   2.031  14.403  0.2698  0.9382 -0.1160
 3763SOL     OW22924   0.401   1.766   5.637  0.0305 -0.1923 -0.8780
 3763SOL    HW122925   0.450   1.692   5.603  1.3939 -0.2535  1.2531
 3763SOL    HW222926   0.315   1.732   5.663 -1.5056  3.9530 -0.4617
 3764SOL     OW22927   2.150   3.473  14.978  0.0042 -0.2966 -0.2993
 3764SOL    HW122928   2.153   3.567  14.999 -1.1344  0.0073 -1.5247
 3764SOL    HW222929   2.088   3.482  14.907  1.0336  0.8733 -1.0509
 3765SOL     OW22930   2.522   4.080   4.630  0.6266  0.2421  0.0593
 3765SOL    HW122931   2.532   3.985   4.627  1.0795  0.3407 -2.0493
 3765SOL    HW222932   2.514   4.093   4.724 -1.1298 -1.6412  0.1615
 3766SOL     OW22933   0.742   0.774   5.709  0.4334 -0.2314  0.4588
 3766SOL    HW122934   0.790   0.826   5.774  1.3544  1.8414 -1.8889
 3766SOL    HW222935   0.698   0.707   5.761  0.3142 -1.0248 -0.6597
 3767SOL     OW22936   2.939   4.508  12.489  0.1037 -0.6759  0.5227
 3767SOL    HW122937   2.893   4.591  12.479  0.2532 -0.5342  1.0631
 3767SOL    HW222938   2.874   4.438  12.481 -1.4421  0.6878  1.3205
 3768SOL     OW22939   1.082   0.626   0.493  0.7936  0.3856 -0.6372
 3768SOL    HW122940   1.015   0.694   0.498  0.1992 -0.1789 -0.8732
 3768SOL    HW222941   1.025   0.550   0.480  0.9469  0.6802 -3.0540
 3769SOL     OW22942   2.684   3.474   3.220  0.2185 -0.1035  0.8059
 3769SOL    HW122943   2.756   3.479   3.283  0.2351  3.7729  0.4902
 3769SOL    HW222944   2.730   3.453   3.138 -1.8158  0.1035 -0.3782
 3770SOL     OW22945   3.958   1.177   2.437  0.1522 -0.0198  0.4183
 3770SOL    HW122946   3.958   1.116   2.363  0.8132  0.5200 -0.0330
 3770SOL    HW222947   3.869   1.173   2.471  0.2636  0.7734  0.8105
 3771SOL     OW22948   0.243   3.216   5.646 -0.1273 -0.0587  0.2635
 3771SOL    HW122949   0.334   3.189   5.659 -0.1196 -0.2509 -0.1989
 3771SOL    HW222950   0.239   3.311   5.637 -0.2814 -0.0694  0.2035
 3772SOL     OW22951   2.007   2.988   6.578  0.5340 -0.2247 -0.8241
 3772SOL    HW122952   2.043   3.074   6.556 -2.4012  1.2132 -0.0463
 3772SOL    HW222953   1.919   2.999   6.541 -0.6009  1.6288  2.4740
 3773SOL     OW22954   1.991   0.960   4.876 -0.7598 -0.4429  0.1390
 3773SOL    HW122955   2.067   1.017   4.884 -0.9078 -0.4211  1.3873
 3773SOL    HW222956   1.920   1.019   4.847 -0.4029  0.1644  0.4970
 3774SOL     OW22957   0.721   0.597   7.625  0.2161 -0.2144  0.0971
 3774SOL    HW122958   0.706   0.604   7.531  1.7052  1.8692  0.0182
 3774SOL    HW222959   0.803   0.547   7.622  0.0361 -0.5267  0.3824
 3775SOL     OW22960   0.097   0.823  11.036 -0.3359  0.1505  0.1724
 3775SOL    HW122961   0.043   0.793  11.110 -1.2587  0.9961 -0.1626
 3775SOL    HW222962   0.095   0.918  11.047 -0.3655  0.1074  0.5667
 3776SOL     OW22963   2.093   1.115  14.168  0.1897 -0.1566 -0.0944
 3776SOL    HW122964   2.112   1.195  14.120 -1.7379 -0.1451 -0.8207
 3776SOL    HW222965   2.075   1.045  14.106 -2.2779 -0.3358  0.8126
 3777SOL     OW22966   4.007   3.484  16.760  0.2174 -0.0803  0.2058
 3777SOL    HW122967   4.072   3.550  16.785  1.7764 -1.2349 -0.7745
 3777SOL    HW222968   4.073   3.414  16.765  0.3129 -0.0616 -0.7770
 3778SOL     OW22969   2.357   4.288   4.269  0.4934  0.1298  0.5204
 3778SOL    HW122970   2.344   4.378   4.239  0.9435 -0.0480 -0.2115
 3778SOL    HW222971   2.295   4.283   4.342 -1.0372  1.3732 -0.6780
 3779SOL     OW22972   1.819   3.436  11.125 -0.5545  0.0793 -0.3333
 3779SOL    HW122973   1.862   3.518  11.151 -2.5535  0.4777  1.6981
 3779SOL    HW222974   1.874   3.415  11.049 -1.3469 -2.6252 -0.1571
 3780SOL     OW22975   2.514   1.488   3.209  0.2523 -0.5950  0.4079
 3780SOL    HW122976   2.503   1.571   3.256 -2.0039  0.4846 -1.9940
 3780SOL    HW222977   2.430   1.454   3.241  1.4527 -0.9705  3.1754
 3781SOL     OW22978   3.043   2.356   9.417  0.2204 -0.0646 -0.1934
 3781SOL    HW122979   3.119   2.403   9.382 -1.1828  2.9052  0.8204
 3781SOL    HW222980   3.084   2.284   9.466  0.3223  1.1173  1.4671
 3782SOL     OW22981   0.066   0.248   7.185 -0.0814 -0.0898  0.6605
 3782SOL    HW122982   0.039   0.300   7.261 -2.6826 -1.8077  0.9151
 3782SOL    HW222983   0.093   0.163   7.220 -2.4242 -1.3195 -0.4788
 3783SOL     OW22984   0.426   0.372   8.782 -0.3571  0.3528  0.0498
 3783SOL    HW122985   0.457   0.457   8.814  0.8720  0.2048 -0.7726
 3783SOL    HW222986   0.332   0.385   8.796 -0.1363  2.5941 -0.5211
 3784SOL     OW22987   2.688   3.899   1.120  0.3571 -0.2886 -0.1051
 3784SOL    HW122988   2.708   3.879   1.212 -1.0119 -0.3052  0.1809
 3784SOL    HW222989   2.669   3.810   1.093  1.1647 -0.1798 -1.0191
 3785SOL     OW22990   0.021   1.440   0.346  0.5819  0.0770 -0.0999
 3785SOL    HW122991   0.076   1.470   0.419 -0.1457 -0.2497  0.5903
 3785SOL    HW222992   4.671   1.481   0.364 -0.3968 -1.8626 -0.3679
 3786SOL     OW22993   3.758   2.759   7.871 -0.0986 -0.3873  0.3525
 3786SOL    HW122994   3.733   2.732   7.783 -0.0365 -0.2173  0.2823
 3786SOL    HW222995   3.848   2.727   7.866  1.0551  3.2499 -2.3977
 3787SOL     OW22996   4.389   4.076   0.182  0.4394 -0.5012  0.3094
 3787SOL    HW122997   4.381   3.989   0.144 -0.4235  1.0635 -3.0987
 3787SOL    HW222998   4.467   4.072   0.238  0.2757  1.8343  0.7199
 3788SOL     OW22999   2.024   2.077  16.110 -0.5103 -0.1185 -0.3938
 3788SOL    HW123000   2.090   2.071  16.041 -0.1303  2.9155 -0.2825
 3788SOL    HW223001   2.020   2.172  16.121  1.3241 -0.2650  1.5530
 3789SOL     OW23002   2.553   1.964  17.302  0.0560  0.0053  0.2215
 3789SOL    HW123003   2.564   1.873  17.330 -2.7172 -0.1883  0.6928
 3789SOL    HW223004   2.548   1.943  17.208  3.6467 -0.0511  0.0602
 3790SOL     OW23005   2.679   0.274   0.741 -0.5981  0.2126 -0.0880
 3790SOL    HW123006   2.719   0.191   0.716  1.6590  0.4423  2.8272
 3790SOL    HW223007   2.651   0.303   0.654  2.8878 -0.0263 -1.2717
 3791SOL     OW23008   1.743   3.165   8.458  0.0265  0.4677  0.2764
 3791SOL    HW123009   1.773   3.153   8.549  0.8744  0.7863  0.0376
 3791SOL    HW223010   1.785   3.249   8.440  2.2136 -0.3460  1.4878
 3792SOL     OW23011   2.435   0.008   6.196 -0.3473 -0.3133  0.1264
 3792SOL    HW123012   2.506   4.701   6.148 -0.8913 -0.0100 -0.9477
 3792SOL    HW223013   2.488   0.066   6.250 -0.5942  0.4249 -0.4165
 3793SOL     OW23014   0.347   1.682   3.299 -0.0154  0.0065 -0.3552
 3793SOL    HW123015   0.268   1.731   3.322  0.9132  1.7267 -0.8471
 3793SOL    HW223016   0.410   1.746   3.267 -0.4621  0.4561 -0.3294
 3794SOL     OW23017   3.199   0.345   9.211  0.0203  0.0020  0.1921
 3794SOL    HW123018   3.128   0.281   9.202 -0.6550  0.6213  1.1719
 3794SOL    HW223019   3.147   0.421   9.237 -0.2293 -0.0564 -0.1424
 3795SOL     OW23020   0.219   0.165   6.856  0.0892  0.2070 -0.0286
 3795SOL    HW123021   0.202   0.087   6.909  0.1874  1.2932  1.5831
 3795SOL    HW223022   0.191   0.135   6.769  1.2739  0.8921 -0.6443
 3796SOL     OW23023   1.597   4.415   7.983 -0.2424  0.2515  0.2548
 3796SOL    HW123024   1.620   4.324   8.000 -0.0643  0.3532  0.5423
 3796SOL    HW223025   1.504   4.406   7.959  0.3581 -2.4992 -1.1078
 3797SOL     OW23026   0.529   0.428   7.161 -0.5567  0.4272  0.0478
 3797SOL    HW123027   0.475   0.370   7.216 -2.8378 -0.7174 -3.3557
 3797SOL    HW223028   0.513   0.378   7.081  2.1098  0.1572 -0.3024
 3798SOL     OW23029   0.568   3.420   4.199  0.2179 -0.3455 -0.4130
 3798SOL    HW123030   0.605   3.500   4.234  0.9779 -1.4221  1.2534
 3798SOL    HW223031   0.646   3.386   4.155 -0.4602 -0.5312 -1.4808
 3799SOL     OW23032   4.200   1.601  17.348  0.5373  0.6538 -0.5812
 3799SOL    HW123033   4.240   1.586  17.434  0.2720 -3.0883 -1.1012
 3799SOL    HW223034   4.179   1.694  17.347 -1.9290  0.0888  0.0767
 3800SOL     OW23035   0.985   4.357   3.485 -0.1178  0.4308 -0.0314
 3800SOL    HW123036   1.026   4.356   3.398 -0.2525 -0.3572 -0.0934
 3800SOL    HW223037   0.989   4.263   3.503  0.4429  0.2366 -1.1951
 3801SOL     OW23038   4.700   0.661   1.292 -0.5034 -0.5005 -0.1369
 3801SOL    HW123039   4.626   0.611   1.258  0.6507 -3.7181  2.0551
 3801SOL    HW223040   4.733   0.590   1.347 -0.5615 -2.7347 -3.0165
 3802SOL     OW23041   1.946   2.257  12.037 -0.3253 -0.7280  0.0979
 3802SOL    HW123042   1.890   2.258  11.960 -1.1017 -1.1403  0.6625
 3802SOL    HW223043   2.007   2.327  12.011  1.4303 -1.5710  1.9240
 3803SOL     OW23044   3.003   4.659   6.036  0.5661 -0.2980 -0.1638
 3803SOL    HW123045   2.917   4.620   6.021  0.4502 -0.7266  1.6331
 3803SOL    HW223046   2.978   0.016   6.047 -1.5020 -0.8323 -0.4872
 3804SOL     OW23047   0.995   3.619   2.415 -1.1935 -0.3461  0.1776
 3804SOL    HW123048   1.009   3.707   2.380  0.6148 -0.4043  0.7518
 3804SOL    HW223049   1.055   3.602   2.487  0.4713  1.6171 -0.7526
 3805SOL     OW23050   0.226   3.598   7.451  0.2660  0.8702 -0.7977
 3805SOL    HW123051   0.310   3.628   7.416  1.9202 -2.0632  0.6201
 3805SOL    HW223052   0.212   3.514   7.407 -2.3374  0.3378  0.9861
 3806SOL     OW23053   4.223   0.920  12.233 -0.2377  0.0910 -0.3927
 3806SOL    HW123054   4.298   0.880  12.276 -1.2623  0.1227  1.4135
 3806SOL    HW223055   4.232   0.885  12.145 -0.5381  0.3469 -0.5259
 3807SOL     OW23056   0.660   2.047   6.655 -0.1875 -0.2189  0.5077
 3807SOL    HW123057   0.663   2.132   6.697 -0.4448  0.3845 -0.7019
 3807SOL    HW223058   0.676   1.994   6.733  1.1013  0.9386  1.0244
 3808SOL     OW23059   0.909   0.699   8.554 -0.5603  0.0670  0.3190
 3808SOL    HW123060   0.867   0.633   8.609 -0.6301 -0.4072 -0.2983
 3808SOL    HW223061   1.000   0.691   8.581 -1.0451 -1.9410  1.3711
 3809SOL     OW23062   3.878   3.868   4.577 -0.0622 -0.0633  0.1364
 3809SOL    HW123063   3.886   3.781   4.616  0.4828 -0.4266 -0.7913
 3809SOL    HW223064   3.898   3.912   4.659  2.6543 -3.3327  1.2458
 3810SOL     OW23065   1.565   1.300  15.595 -0.6609  0.1326 -0.0603
 3810SOL    HW123066   1.490   1.348  15.630 -0.4453  0.7573 -0.4540
 3810SOL    HW223067   1.633   1.353  15.637  0.2595 -1.3063  0.2861
 3811SOL     OW23068   3.688   3.394  11.253  0.0782 -0.7111 -0.6770
 3811SOL    HW123069   3.710   3.447  11.176 -0.5155  0.7615  0.1667
 3811SOL    HW223070   3.768   3.352  11.285 -0.7694  0.8065  3.4196
 3812SOL     OW23071   2.824   2.009  16.530 -0.8721 -0.0683 -0.1325
 3812SOL    HW123072   2.828   1.985  16.437  0.3537 -2.3955  0.5180
 3812SOL    HW223073   2.913   2.045  16.540 -0.2613 -1.6647  0.1028
 3813SOL     OW23074   1.499   1.500   6.798 -0.2469 -0.4892 -0.0600
 3813SOL    HW123075   1.509   1.444   6.722  1.6748  0.4979 -0.5318
 3813SOL    HW223076   1.500   1.588   6.759 -2.2753  0.1697  1.2922
 3814SOL     OW23077   2.497   1.430   7.567 -0.2537 -0.4388  0.0412
 3814SOL    HW123078   2.483   1.465   7.655 -0.2339  0.6334 -0.3793
 3814SOL    HW223079   2.498   1.335   7.582  3.4386 -0.3735  0.0425
 3815SOL     OW23080   2.103   0.945   6.251 -0.7740  1.0519 -0.0166
 3815SOL    HW123081   2.151   0.870   6.284  1.7674  1.8339 -1.8918
 3815SOL    HW223082   2.117   0.934   6.157  0.0804  0.4191  0.1924
 3816SOL     OW23083   1.207   1.820   7.653  0.0804  0.6805 -0.5505
 3816SOL    HW123084   1.248   1.761   7.716 -1.9281  1.3234  1.3315
 3816SOL    HW223085   1.278   1.816   7.589  2.4268 -2.0850  2.2235
 3817SOL     OW23086   1.520   0.811   7.530  0.2558  0.4237  0.2323
 3817SOL    HW123087   1.590   0.787   7.591  0.9209 -1.4052 -1.2378
 3817SOL    HW223088   1.561   0.807   7.443 -0.9493 -0.9577 -0.2863
 3818SOL     OW23089   4.582   4.430   5.383 -0.3145  0.0530  0.0174
 3818SOL    HW123090   4.524   4.399   5.452 -2.3398  0.4776 -1.5008
 3818SOL    HW223091   4.532   4.496   5.334  1.9069  1.5684 -0.2075
 3819SOL     OW23092   3.117   1.697   3.017 -0.0745  0.5513 -0.1476
 3819SOL    HW123093   3.171   1.621   2.998 -1.4542 -0.1569 -1.1683
 3819SOL    HW223094   3.170   1.744   3.082  0.0650  2.6240 -1.7562
 3820SOL     OW23095   0.711   2.443   1.333 -0.5270 -0.5400  0.4879
 3820SOL    HW123096   0.707   2.399   1.247 -1.0421  0.1406  0.1639
 3820SOL    HW223097   0.663   2.525   1.322 -0.7581 -0.9354 -1.5667
 3821SOL     OW23098   2.662   0.656   3.475  0.3255  0.0041  0.0682
 3821SOL    HW123099   2.751   0.691   3.461 -1.3810  2.8465 -3.6181
 3821SOL    HW223100   2.636   0.640   3.384  0.0506  1.7046 -0.1491
 3822SOL     OW23101   4.133   2.485   3.327  0.3606 -0.4321  0.4781
 3822SOL    HW123102   4.176   2.401   3.338  0.2118 -0.9801 -3.0313
 3822SOL    HW223103   4.171   2.532   3.401 -1.3166  1.4203  0.2000
 3823SOL     OW23104   2.889   3.844   9.094 -0.0577 -0.2016 -0.2260
 3823SOL    HW123105   2.909   3.850   9.187 -4.3071 -0.4061  0.7061
 3823SOL    HW223106   2.876   3.937   9.074 -1.8503 -1.0832 -3.2458
 3824SOL     OW23107   0.420   3.673   3.695 -0.1395 -0.1979 -0.3646
 3824SOL    HW123108   0.428   3.763   3.663  0.3424  0.3519  1.2665
 3824SOL    HW223109   0.472   3.617   3.638  0.4447 -1.2100  1.1449
 3825SOL     OW23110   4.539   4.155  17.659  0.2636  0.5343  0.3380
 3825SOL    HW123111   4.485   4.080  17.634 -0.4337  1.3295 -0.5740
 3825SOL    HW223112   4.504   4.169   0.009 -1.9273  1.1195 -0.6175
 3826SOL     OW23113   4.688   0.458   4.610  0.1580 -0.0100  0.2696
 3826SOL    HW123114   4.719   0.530   4.665  0.2566  0.1946 -0.0575
 3826SOL    HW223115   4.703   0.494   4.523  0.1133 -1.0993 -0.1898
 3827SOL     OW23116   0.036   0.819   2.084 -0.4814  0.3355 -0.2986
 3827SOL    HW123117   0.068   0.748   2.029 -0.9393  0.6931 -1.0333
 3827SOL    HW223118   0.118   0.864   2.101  0.1437  0.2545 -3.0752
 3828SOL     OW23119   3.699   3.529   1.015 -0.4972  0.3023 -0.1934
 3828SOL    HW123120   3.712   3.547   0.922 -0.8411  0.1767 -0.2650
 3828SOL    HW223121   3.708   3.615   1.056  0.9129  1.2916 -2.5659
 3829SOL     OW23122   4.344   2.546   7.496 -0.3758 -0.1031  0.4715
 3829SOL    HW123123   4.419   2.502   7.535  0.5019 -1.1454 -2.4411
 3829SOL    HW223124   4.312   2.484   7.431  0.5553  2.9937 -2.9327
 3830SOL     OW23125   0.388   0.619  14.450 -0.4584  0.8841  1.1629
 3830SOL    HW123126   0.300   0.651  14.472 -1.1849  1.1961 -2.1430
 3830SOL    HW223127   0.409   0.660  14.366 -0.5740 -0.2042  0.6082
 3831SOL     OW23128   2.339   1.584   8.219 -0.2781 -0.3528 -0.3942
 3831SOL    HW123129   2.399   1.520   8.258  3.0064  1.5190 -2.3780
 3831SOL    HW223130   2.363   1.656   8.277 -2.1578  0.9869 -1.2952
 3832SOL     OW23131   3.958   4.306  15.390  0.3976  0.0819  0.2033
 3832SOL    HW123132   4.042   4.295  15.434 -0.1204  0.8315  1.3886
 3832SOL    HW223133   3.927   4.372  15.452 -0.9135 -0.6188  0.3029
 3833SOL     OW23134   4.266   1.115   2.928  0.1448  0.0066  0.1006
 3833SOL    HW123135   4.239   1.143   2.841  0.7622  2.8796  0.8192
 3833SOL    HW223136   4.286   1.022   2.920 -0.9026 -0.2325  0.2864
 3834SOL     OW23137   3.669   4.318   4.941  0.5820 -0.6611 -0.1038
 3834SOL    HW123138   3.758   4.285   4.935  0.2353 -1.0932 -2.8581
 3834SOL    HW223139   3.667   4.374   5.019 -0.7737  0.7544 -1.1484
 3835SOL     OW23140   0.342   0.432   4.128 -0.3763 -0.4516  0.7300
 3835SOL    HW123141   0.370   0.475   4.048 -3.3590 -0.4521 -0.3220
 3835SOL    HW223142   0.393   0.350   4.127  0.0468 -0.1796  0.1185
 3836SOL     OW23143   4.442   1.195   4.017 -0.4014 -0.7053 -0.5594
 3836SOL    HW123144   4.400   1.181   4.102 -0.4087  1.8097 -0.1524
 3836SOL    HW223145   4.509   1.261   4.032  0.4670 -1.6927 -0.1706
 3837SOL     OW23146   3.604   0.923   7.348 -0.0946 -0.3609  0.1931
 3837SOL    HW123147   3.547   0.865   7.398 -0.7452 -1.0689 -1.3688
 3837SOL    HW223148   3.638   0.972   7.423  0.1434  0.9465 -0.7557
 3838SOL     OW23149   2.842   2.998   2.800  0.3675 -0.1999 -0.3360
 3838SOL    HW123150   2.821   3.090   2.814  0.7035 -0.2756  0.6597
 3838SOL    HW223151   2.933   3.004   2.827 -0.9269  1.0075  3.8304
 3839SOL     OW23152   0.602   2.133   7.850 -0.3500  0.0082 -0.8693
 3839SOL    HW123153   0.606   2.051   7.898 -0.4725  0.8532  0.5639
 3839SOL    HW223154   0.531   2.116   7.788  0.5051 -1.8064 -1.3430
 3840SOL     OW23155   4.533   3.736   3.032  0.5398 -0.6797 -0.5355
 3840SOL    HW123156   4.508   3.747   2.941 -1.7858  0.0805  0.1955
 3840SOL    HW223157   4.486   3.657   3.060 -2.0529  1.0711 -0.0075
 3841SOL     OW23158   4.018   1.609   0.578  0.5382  0.0468  0.4757
 3841SOL    HW123159   4.006   1.669   0.505  1.0982 -0.7378 -0.2727
 3841SOL    HW223160   3.928   1.580   0.594  1.1904 -1.2562  1.7822
 3842SOL     OW23161   2.925   1.938   6.597 -0.2904  0.0263 -0.0315
 3842SOL    HW123162   2.926   1.973   6.687 -2.7080  0.0732 -0.0233
 3842SOL    HW223163   3.003   1.993   6.584  0.1805 -0.7457 -0.4664
 3843SOL     OW23164   0.650   2.056   4.047  0.0929 -0.2703 -0.1472
 3843SOL    HW123165   0.644   1.975   4.098 -0.8891 -0.2087 -0.1693
 3843SOL    HW223166   0.633   2.121   4.116 -0.3350 -0.2310 -0.2885
 3844SOL     OW23167   1.525   1.689  14.474 -0.0691  0.2206 -0.0051
 3844SOL    HW123168   1.501   1.619  14.535 -1.7733  0.8416  0.0329
 3844SOL    HW223169   1.439   1.726  14.456 -0.8132 -1.9250 -0.8446
 3845SOL     OW23170   0.557   4.021   2.166 -0.6717  0.6731  0.5310
 3845SOL    HW123171   0.579   4.111   2.191 -2.0295  0.6539  1.8379
 3845SOL    HW223172   0.560   4.041   2.073  2.8283 -0.3659  0.4155
 3846SOL     OW23173   3.658   0.999   8.621  0.1455  0.0305  0.2483
 3846SOL    HW123174   3.596   0.927   8.616  0.9171 -0.4952 -1.9514
 3846SOL    HW223175   3.716   0.976   8.548  2.0039  0.1570  1.6820
 3847SOL     OW23176   0.118   1.673   8.704 -0.1713 -0.2229 -0.3600
 3847SOL    HW123177   0.038   1.717   8.734  1.3515  2.3320 -0.0896
 3847SOL    HW223178   0.185   1.706   8.764 -0.5450 -0.2509  0.0732
 3848SOL     OW23179   4.419   2.161   3.422 -0.4139  0.3317  0.1481
 3848SOL    HW123180   4.429   2.067   3.405 -0.0169  0.3785  0.1223
 3848SOL    HW223181   4.481   2.194   3.356 -0.5940  0.3223 -0.0272
 3849SOL     OW23182   2.450   1.921   8.969  0.2496  0.5518  0.2644
 3849SOL    HW123183   2.456   2.015   8.987  1.4991  0.6978 -0.9248
 3849SOL    HW223184   2.536   1.885   8.991  0.8738  3.2268  2.2481
 3850SOL     OW23185   1.379   0.332  16.099 -0.2926 -0.1958  0.5235
 3850SOL    HW123186   1.459   0.362  16.141  1.7155 -1.7569 -2.2463
 3850SOL    HW223187   1.384   0.368  16.010 -2.6159 -1.5259 -0.1440
 3851SOL     OW23188   3.887   3.440   6.336  0.5227 -0.4549  0.1206
 3851SOL    HW123189   3.849   3.454   6.249  3.0595  1.5702 -0.6683
 3851SOL    HW223190   3.839   3.496   6.397  0.4922  1.7658 -1.9226
 3852SOL     OW23191   2.211   4.028  14.012 -0.2838 -0.0652 -0.4288
 3852SOL    HW123192   2.180   4.040  14.102 -0.8387 -2.4632 -0.3150
 3852SOL    HW223193   2.286   3.970  14.023  0.3922  1.0797  1.0052
 3853SOL     OW23194   0.314   3.947   1.251  0.1463 -0.1979 -0.2005
 3853SOL    HW123195   0.383   3.952   1.185  0.2058  1.8582  0.0092
 3853SOL    HW223196   0.297   4.040   1.261  0.5860 -0.1514  0.1177
 3854SOL     OW23197   2.113   0.830   5.920 -0.0469  0.1450 -0.0209
 3854SOL    HW123198   2.114   0.775   5.842  0.9773 -0.5368  0.4657
 3854SOL    HW223199   2.018   0.825   5.932  0.1309  0.9604  1.7536
 3855SOL     OW23200   4.522   3.708   4.386 -0.5405 -0.2269 -0.3167
 3855SOL    HW123201   4.470   3.774   4.432 -1.7120 -0.8241 -0.7676
 3855SOL    HW223202   4.588   3.770   4.356 -0.3054 -1.2919 -2.0231
 3856SOL     OW23203   0.276   4.519   1.915 -0.1370  0.1325  0.3823
 3856SOL    HW123204   0.269   4.558   2.002  1.4131  0.2835  0.4470
 3856SOL    HW223205   0.222   4.583   1.869  1.0762 -0.3394 -1.7077
 3857SOL     OW23206   0.113   3.273  15.855  0.0988  0.0744 -0.5874
 3857SOL    HW123207   0.134   3.204  15.918 -3.6914  0.8375  1.5441
 3857SOL    HW223208   0.035   3.238  15.812  2.1776 -0.9366 -3.5183
 3858SOL     OW23209   0.185   2.494   0.904  0.2076 -0.0492 -0.0970
 3858SOL    HW123210   0.241   2.564   0.937  0.7862 -0.3696 -0.3950
 3858SOL    HW223211   0.239   2.460   0.833 -0.8459 -2.7313  0.3992
 3859SOL     OW23212   4.731   2.065   1.877  0.7957  0.4158 -0.0313
 3859SOL    HW123213   0.056   2.007   1.830 -0.5842 -0.0073 -1.2693
 3859SOL    HW223214   4.654   2.055   1.821 -0.4874  0.2607  1.7593
 3860SOL     OW23215   3.937   4.130  13.973  0.5809  0.1760 -0.5777
 3860SOL    HW123216   3.893   4.103  13.893  1.6044  0.4319 -1.2248
 3860SOL    HW223217   3.878   4.092  14.039 -0.4491  0.8519 -1.1131
 3861SOL     OW23218   2.948   1.142  15.921  0.1867 -0.1877 -0.4017
 3861SOL    HW123219   3.027   1.133  15.868  1.4577  0.0520  1.4750
 3861SOL    HW223220   2.914   1.215  15.870 -0.9733  0.3459  1.1297
 3862SOL     OW23221   0.100   4.115   7.424 -0.2814 -0.2069 -0.3079
 3862SOL    HW123222   0.114   4.107   7.518  1.3341  0.3360 -0.5028
 3862SOL    HW223223   0.010   4.147   7.417 -1.3559 -2.7468  1.8807
 3863SOL     OW23224   1.641   3.189   2.392  0.3126 -0.5322  0.7210
 3863SOL    HW123225   1.664   3.136   2.317 -1.4861 -1.8101  1.0696
 3863SOL    HW223226   1.547   3.172   2.393 -0.3262  2.7953  0.3973
 3864SOL     OW23227   3.596   0.819   6.372 -0.1250  0.1713  0.3969
 3864SOL    HW123228   3.635   0.757   6.311  2.4251 -1.3349  3.5854
 3864SOL    HW223229   3.662   0.820   6.442  0.7980  0.0949 -0.4720
 3865SOL     OW23230   3.768   3.464   5.813 -0.6641 -0.1994  0.4618
 3865SOL    HW123231   3.723   3.395   5.861  0.6838  0.1111  2.1714
 3865SOL    HW223232   3.692   3.486   5.759  0.6611  1.8217 -0.5775
 3866SOL     OW23233   1.775   1.620   7.001 -0.8193  0.3362 -0.0368
 3866SOL    HW123234   1.815   1.632   6.915  0.2324 -3.5210 -0.0587
 3866SOL    HW223235   1.716   1.695   6.998 -0.1614  0.8927  0.8279
 3867SOL     OW23236   0.950   0.786   4.967  0.7955 -0.2468 -0.3655
 3867SOL    HW123237   0.929   0.701   5.005  0.7351  0.2712  0.7558
 3867SOL    HW223238   0.868   0.794   4.919  0.5085  0.7199  0.2976
 3868SOL     OW23239   4.046   1.534  17.103 -0.6159  0.3408  0.4126
 3868SOL    HW123240   4.130   1.529  17.059 -0.5643 -0.0247  0.5493
 3868SOL    HW223241   4.068   1.572  17.189  0.4001  0.6752  0.0029
 3869SOL     OW23242   2.315   4.515   5.502 -0.2402 -0.2109 -0.3388
 3869SOL    HW123243   2.349   4.430   5.531 -0.4117  0.2418  1.1793
 3869SOL    HW223244   2.344   4.576   5.570  1.7258 -2.0537  0.4866
 3870SOL     OW23245   1.877   2.436   7.375  0.7429 -0.1924  0.2963
 3870SOL    HW123246   1.836   2.358   7.338 -0.0599 -0.4990  1.8492
 3870SOL    HW223247   1.831   2.444   7.458  1.7344  1.1748  0.7164
 3871SOL     OW23248   0.541   4.328   2.450 -0.6399 -0.5177  0.0525
 3871SOL    HW123249   0.564   4.314   2.359 -0.9757 -1.0564  0.0562
 3871SOL    HW223250   0.589   4.253   2.486 -0.7619 -0.9248 -0.6589
 3872SOL     OW23251   0.203   3.281   8.958 -0.5520 -0.4285  0.1680
 3872SOL    HW123252   0.254   3.207   8.925  1.4885  1.4605 -0.8539
 3872SOL    HW223253   0.259   3.340   9.008 -3.0126  2.1613 -0.1135
 3873SOL     OW23254   0.741   2.983   8.391 -0.5356  0.2084 -0.2887
 3873SOL    HW123255   0.707   3.004   8.478  1.6601 -0.3354  0.6853
 3873SOL    HW223256   0.802   2.913   8.415  0.4251  0.9060 -0.6974
 3874SOL     OW23257   3.095   1.518   7.502 -0.2225 -0.1650  0.0631
 3874SOL    HW123258   3.185   1.500   7.528 -0.5540 -1.9210  0.0243
 3874SOL    HW223259   3.111   1.600   7.457  0.8226 -1.4522 -1.8928
 3875SOL     OW23260   3.642   1.041   2.385 -0.5106  0.0633  0.2380
 3875SOL    HW123261   3.713   1.004   2.332 -1.1631  0.4660 -0.9156
 3875SOL    HW223262   3.597   1.093   2.319 -1.7614 -1.7175 -0.3033
 3876SOL     OW23263   0.264   1.515   6.356  0.3124 -0.6295  0.0757
 3876SOL    HW123264   0.220   1.576   6.415  0.7433 -0.3373  0.0997
 3876SOL    HW223265   0.202   1.443   6.362 -0.8936  0.1739 -2.5282
 3877SOL     OW23266   4.687   4.081   7.017 -0.0176 -0.0994  0.7028
 3877SOL    HW123267   4.665   4.172   6.997  1.3869  0.6291  2.4532
 3877SOL    HW223268   4.646   4.061   7.101  0.1582  0.9091  1.0327
 3878SOL     OW23269   4.237   3.490   4.364  0.1503 -0.1904  0.3416
 3878SOL    HW123270   4.228   3.559   4.429 -0.1924  0.5199 -0.4583
 3878SOL    HW223271   4.163   3.511   4.307  0.0201  0.8124  0.8842
 3879SOL     OW23272   4.011   4.627   3.395 -0.0648  0.0440  0.1859
 3879SOL    HW123273   4.027   4.591   3.482  3.4833  0.2162 -0.3973
 3879SOL    HW223274   4.052   4.714   3.399  0.7560 -0.3435  0.0891
 3880SOL     OW23275   1.939   1.068  15.848 -0.2444  0.4808  0.5037
 3880SOL    HW123276   1.858   1.120  15.848 -0.9637 -0.6262  0.8719
 3880SOL    HW223277   1.943   1.033  15.759 -2.6129 -1.7854  1.2678
 3881SOL     OW23278   1.519   0.339   6.241  0.0293 -0.5846 -0.2041
 3881SOL    HW123279   1.543   0.409   6.181  3.8287 -0.5213  1.3454
 3881SOL    HW223280   1.464   0.281   6.188  2.3031  0.0512 -3.3075
 3882SOL     OW23281   1.564   4.630  16.598 -0.5689 -0.2981 -0.2465
 3882SOL    HW123282   1.626   4.583  16.542  1.3324  0.6526  1.0569
 3882SOL    HW223283   1.553   4.715  16.555  0.2546 -1.1023 -2.0621
 3883SOL     OW23284   3.721   0.789   2.893 -0.1448  0.0974 -0.2827
 3883SOL    HW123285   3.747   0.745   2.812 -0.8433  2.3458 -1.7085
 3883SOL    HW223286   3.751   0.736   2.967 -0.7905  0.2977  0.1276
 3884SOL     OW23287   4.103   0.152   3.413 -0.1828  0.3948  0.0839
 3884SOL    HW123288   4.107   0.224   3.476 -0.3768  0.6386 -0.1825
 3884SOL    HW223289   4.013   0.157   3.382  0.3565 -0.3122 -1.6151
 3885SOL     OW23290   4.213   3.715   6.180 -0.3136  0.6403 -0.2559
 3885SOL    HW123291   4.299   3.755   6.171  0.8550 -0.8768  4.0654
 3885SOL    HW223292   4.162   3.752   6.108  0.7098  0.0105 -1.3134
 3886SOL     OW23293   0.508   2.958   6.345 -0.3256 -0.2445  0.5951
 3886SOL    HW123294   0.488   2.919   6.260 -1.2370  2.2301 -0.3399
 3886SOL    HW223295   0.511   2.881   6.402 -0.3198  1.0829  2.3940
 3887SOL     OW23296   1.877   2.672  17.433 -0.0714  0.0312 -0.4591
 3887SOL    HW123297   1.826   2.711  17.362 -0.5067  4.3148  2.2065
 3887SOL    HW223298   1.963   2.713  17.427 -0.4135  1.2484  2.7859
 3888SOL     OW23299   0.745   0.519  14.694  0.4876  0.1299 -0.0310
 3888SOL    HW123300   0.825   0.513  14.747  1.4664 -0.4147 -1.5594
 3888SOL    HW223301   0.752   0.594  14.634 -0.6546 -1.1148 -1.6978
 3889SOL     OW23302   0.064   1.963   6.607 -0.0454 -0.2380 -0.2027
 3889SOL    HW123303   0.047   2.057   6.612  2.0501  0.2190 -1.6979
 3889SOL    HW223304   0.092   1.956   6.698 -1.1594  1.6070  0.2863
 3890SOL     OW23305   3.640   2.510   1.364 -0.6119  0.5123  0.2805
 3890SOL    HW123306   3.674   2.439   1.419 -2.2057  1.4655  2.5022
 3890SOL    HW223307   3.683   2.490   1.281 -0.1715 -0.7877  0.8287
 3891SOL     OW23308   1.914   0.735   3.756 -0.2601  0.3754  0.0886
 3891SOL    HW123309   1.995   0.690   3.782 -0.8725  0.4823  2.1027
 3891SOL    HW223310   1.872   0.663   3.709 -0.2375  0.2279  0.2944
 3892SOL     OW23311   0.205   2.672   0.416  0.0430 -0.2521  0.7930
 3892SOL    HW123312   0.116   2.692   0.389 -0.7529 -1.8410  2.2903
 3892SOL    HW223313   0.243   2.665   0.328 -2.8499  0.2632 -0.4841
 3893SOL     OW23314   0.331   3.888   3.299 -0.0520 -0.1772 -0.2067
 3893SOL    HW123315   0.275   3.828   3.348 -2.3861  1.4608 -0.8699
 3893SOL    HW223316   0.389   3.916   3.369  0.8951 -0.1439 -0.9985
 3894SOL     OW23317   2.397   0.691  12.483  0.3465 -0.3454 -0.2559
 3894SOL    HW123318   2.473   0.637  12.502 -0.7531 -1.2906  1.4472
 3894SOL    HW223319   2.411   0.719  12.392 -2.2816 -1.7850 -1.1113
 3895SOL     OW23320   4.266   0.528  10.292 -0.3534 -0.4736 -0.6480
 3895SOL    HW123321   4.285   0.605  10.347  1.6748 -1.5140  0.1209
 3895SOL    HW223322   4.216   0.575  10.225 -2.7714 -0.4337  1.1769
 3896SOL     OW23323   3.288   2.477   1.520 -0.1038 -0.6381  0.2840
 3896SOL    HW123324   3.225   2.515   1.458  0.2141  1.3605  1.1994
 3896SOL    HW223325   3.292   2.534   1.596  0.9217 -1.5853  0.9353
 3897SOL     OW23326   0.085   0.935   3.450  0.2699  0.2815  0.8611
 3897SOL    HW123327   0.055   0.982   3.527 -0.6840  0.1365  0.5783
 3897SOL    HW223328   0.125   1.004   3.396 -0.8786  0.5423  0.3525
 3898SOL     OW23329   0.806   4.281   2.876  0.0409 -0.4048  0.1349
 3898SOL    HW123330   0.775   4.342   2.942  0.1034 -1.5835  1.2463
 3898SOL    HW223331   0.890   4.320   2.854  1.1235 -1.5009  2.3305
 3899SOL     OW23332   2.854   4.141   7.487  0.0017  0.0795 -0.5836
 3899SOL    HW123333   2.866   4.194   7.408  2.1880 -1.1082 -1.0534
 3899SOL    HW223334   2.827   4.209   7.548  0.8102 -1.6929  1.7249
 3900SOL     OW23335   2.660   0.918   6.619 -0.8755 -0.1944 -0.2752
 3900SOL    HW123336   2.594   0.893   6.554 -0.2235  0.2565 -1.1175
 3900SOL    HW223337   2.603   0.966   6.679  0.7506  1.9638 -0.4295
 3901SOL     OW23338   2.184   4.711   7.269  0.1126  0.3401 -0.3004
 3901SOL    HW123339   2.125   0.033   7.319  2.5291  2.0496  0.6295
 3901SOL    HW223340   2.123   4.663   7.213  0.2332  0.9674 -0.9787
 3902SOL     OW23341   4.677   0.102   8.025  0.4633 -0.5065 -0.2205
 3902SOL    HW123342   0.012   0.132   8.083 -0.8844  1.4974  0.3542
 3902SOL    HW223343   4.641   0.040   8.088 -0.4514  3.8853  3.5831
 3903SOL     OW23344   1.738   4.036   4.181  0.1339  0.2733  0.6495
 3903SOL    HW123345   1.737   3.941   4.169 -0.6632  0.3547  0.0785
 3903SOL    HW223346   1.678   4.074   4.117  0.9368 -0.5992 -0.6108
 3904SOL     OW23347   3.843   2.789   3.148 -0.0460  0.0706 -0.3232
 3904SOL    HW123348   3.825   2.695   3.150 -0.7946  0.2415  0.9419
 3904SOL    HW223349   3.927   2.791   3.194 -0.6860  2.1587  0.7535
 3905SOL     OW23350   2.733   1.444   8.510  0.0795  0.0038  0.2652
 3905SOL    HW123351   2.707   1.456   8.601  0.7216 -0.7750  0.5583
 3905SOL    HW223352   2.817   1.490   8.514  0.7661 -1.2071 -0.2769
 3906SOL     OW23353   1.107   1.401   4.077 -0.2963 -0.8408 -0.2068
 3906SOL    HW123354   1.099   1.488   4.038 -0.6101 -0.5051  0.6118
 3906SOL    HW223355   1.132   1.358   3.995  0.6527  1.1962 -0.9920
 3907SOL     OW23356   0.912   3.863   8.534  0.1355 -0.4452  0.0509
 3907SOL    HW123357   0.828   3.908   8.532  0.3816  0.0808  1.4287
 3907SOL    HW223358   0.968   3.931   8.496  0.1071 -0.2119  0.4329
 3908SOL     OW23359   2.304   2.214   4.034  0.3316  0.1000  0.8590
 3908SOL    HW123360   2.389   2.171   4.048 -1.8462 -3.6997  2.4403
 3908SOL    HW223361   2.255   2.212   4.116 -0.5411  1.5056  0.3640
 3909SOL     OW23362   2.534   0.687   2.582  0.0039  0.2874 -0.1551
 3909SOL    HW123363   2.528   0.601   2.623 -1.1775 -0.1110 -1.1792
 3909SOL    HW223364   2.461   0.731   2.627 -0.6215  0.6568 -1.5347
 3910SOL     OW23365   2.157   1.589   4.262 -0.3762  0.6779 -0.1278
 3910SOL    HW123366   2.246   1.621   4.278  0.0064 -0.3009 -0.2967
 3910SOL    HW223367   2.143   1.531   4.336 -0.0836  0.5914 -0.1412
 3911SOL     OW23368   1.146   0.214   4.055  0.3176 -0.1616 -0.2146
 3911SOL    HW123369   1.093   0.288   4.085  1.1218  0.6773 -0.8821
 3911SOL    HW223370   1.083   0.147   4.027 -0.9484  0.8127  0.2979
 3912SOL     OW23371   2.889   1.009   6.134  0.0625  0.1477  0.0329
 3912SOL    HW123372   2.871   0.985   6.043  1.2826 -0.1869 -0.1155
 3912SOL    HW223373   2.843   0.936   6.174 -0.3333  0.8237  0.8161
 3913SOL     OW23374   0.280   2.553   8.238  0.0695  0.2098  0.4519
 3913SOL    HW123375   0.369   2.519   8.230  0.0700  0.2233  0.3993
 3913SOL    HW223376   0.259   2.581   8.149 -1.8460 -0.5527  0.6680
 3914SOL     OW23377   2.255   1.950   9.302 -0.3461 -0.0075  0.2337
 3914SOL    HW123378   2.308   2.015   9.348  3.2238 -2.5129 -0.3524
 3914SOL    HW223379   2.166   1.964   9.334 -0.5169  1.0953 -0.7216
 3915SOL     OW23380   3.805   4.453   4.158  0.3854  0.3491 -0.4803
 3915SOL    HW123381   3.738   4.513   4.190 -0.0086  0.7144 -1.9916
 3915SOL    HW223382   3.846   4.419   4.238 -1.9757  2.7938  1.7556
 3916SOL     OW23383   4.488   4.412   4.469 -0.3940  0.0633  0.4659
 3916SOL    HW123384   4.478   4.367   4.553 -0.2869 -0.5747  0.1353
 3916SOL    HW223385   4.448   4.497   4.487  1.2948  1.2468 -1.2596
 3917SOL     OW23386   0.461   2.596   5.135 -0.6754  0.2049 -0.3316
 3917SOL    HW123387   0.366   2.599   5.130 -0.6847  2.9356  1.5203
 3917SOL    HW223388   0.483   2.627   5.047 -0.9022 -1.5111 -1.0030
 3918SOL     OW23389   2.803   0.480   5.621 -0.0845  0.5072 -0.2348
 3918SOL    HW123390   2.748   0.438   5.556 -0.2277  0.0881  0.1520
 3918SOL    HW223391   2.732   0.524   5.667 -1.0554 -1.3852  0.0709
 3919SOL     OW23392   3.882   4.528   0.285 -0.1531 -0.5142 -0.5792
 3919SOL    HW123393   3.971   4.520   0.320 -0.3797  2.4854  0.6853
 3919SOL    HW223394   3.900   4.580   0.206 -1.7883  0.7846 -0.0949
 3920SOL     OW23395   1.556   1.852  17.607 -0.1305  0.6300 -0.2136
 3920SOL    HW123396   1.521   1.903  17.680  1.2473  0.7236  0.3755
 3920SOL    HW223397   1.532   1.893  17.524  0.0132 -1.6638 -1.3784
 3921SOL     OW23398   2.671   0.262   2.925 -0.0602  0.1000 -0.2223
 3921SOL    HW123399   2.757   0.242   2.888  0.1045  2.5586 -1.1457
 3921SOL    HW223400   2.670   0.357   2.911 -1.6809  0.4622  2.4476
 3922SOL     OW23401   4.185   4.515   5.385 -0.1183 -0.1964 -0.0672
 3922SOL    HW123402   4.208   4.432   5.342 -1.5849 -0.5725 -0.1474
 3922SOL    HW223403   4.222   4.503   5.472 -2.3302 -1.3837  0.7237
 3923SOL     OW23404   1.259   2.124   4.120  0.4396 -0.3053  0.0362
 3923SOL    HW123405   1.350   2.141   4.094  0.3742 -0.1878 -0.1119
 3923SOL    HW223406   1.263   2.028   4.117  1.5378 -0.3105  1.8376
 3924SOL     OW23407   0.876   2.480  17.000  0.4413 -0.7618 -0.0908
 3924SOL    HW123408   0.846   2.413  16.938 -1.0452 -0.7512  0.6219
 3924SOL    HW223409   0.915   2.547  16.945  2.9374 -1.4455  0.8100
 3925SOL     OW23410   3.331   2.121   2.505 -0.0793 -0.4493 -0.5182
 3925SOL    HW123411   3.260   2.098   2.565 -1.0262 -0.4013 -1.6233
 3925SOL    HW223412   3.274   2.106   2.430  0.0299  2.7756 -1.2421
 3926SOL     OW23413   0.650   2.659   8.323 -0.4060 -0.1278  0.3052
 3926SOL    HW123414   0.694   2.600   8.384  2.3824  1.5958  0.0045
 3926SOL    HW223415   0.622   2.608   8.248 -1.9354  1.1502  0.0027
 3927SOL     OW23416   2.880   2.930  17.475 -0.1185  0.1974  0.4508
 3927SOL    HW123417   2.871   2.835  17.470  0.3114  0.1189  1.1507
 3927SOL    HW223418   2.965   2.939  17.518  0.3139 -1.4808 -0.0536
 3928SOL     OW23419   2.420   0.977   4.562  0.4268 -0.6419  0.0461
 3928SOL    HW123420   2.443   1.060   4.605  0.2664 -0.3536 -0.4282
 3928SOL    HW223421   2.450   0.989   4.472 -0.1152  1.0203  0.0798
 3929SOL     OW23422   3.747   1.549   7.686  0.0793 -0.1161 -0.4851
 3929SOL    HW123423   3.688   1.559   7.611  2.5578  1.1839 -2.2198
 3929SOL    HW223424   3.673   1.561   7.746  0.2302 -0.7586 -0.1581
 3930SOL     OW23425   3.287   3.673  14.205  0.1851 -0.0373  0.1386
 3930SOL    HW123426   3.223   3.652  14.273  0.0073 -1.4843 -0.4765
 3930SOL    HW223427   3.280   3.594  14.152  1.6154  0.3975 -0.6946
 3931SOL     OW23428   0.713   1.960   5.715 -0.6483  0.1696  0.3044
 3931SOL    HW123429   0.740   1.868   5.715  2.0357  0.9424  2.5523
 3931SOL    HW223430   0.643   1.949   5.779 -1.1682  2.1091  0.0503
 3932SOL     OW23431   2.101   2.046  11.929 -0.2465 -0.3497  0.2105
 3932SOL    HW123432   2.121   2.085  12.015 -1.4133 -1.4124  0.9628
 3932SOL    HW223433   2.018   2.090  11.912 -0.1317  0.3740  1.5034
 3933SOL     OW23434   3.494   1.960   3.733 -0.2488  0.1254 -0.1071
 3933SOL    HW123435   3.474   1.868   3.750 -2.8150  1.1497  2.5425
 3933SOL    HW223436   3.402   1.978   3.713  0.0763  0.2484 -1.5101
 3934SOL     OW23437   1.319   1.728   5.099 -0.0254 -0.6688 -0.4770
 3934SOL    HW123438   1.371   1.723   5.179 -1.0493 -1.0689  0.1657
 3934SOL    HW223439   1.292   1.637   5.093  0.7997 -0.8413 -1.6125
 3935SOL     OW23440   0.487   3.952   3.597 -0.6320 -0.4556 -0.8112
 3935SOL    HW123441   0.569   3.979   3.556 -1.6964  0.2087 -2.5375
 3935SOL    HW223442   0.481   3.982   3.687  1.6323 -0.7654 -0.5705
 3936SOL     OW23443   0.644   2.928   5.417  0.1312 -0.2231  0.4080
 3936SOL    HW123444   0.732   2.919   5.454  0.5369 -1.5600 -0.8891
 3936SOL    HW223445   0.609   2.840   5.408 -2.2012  0.6533  0.9059
 3937SOL     OW23446   0.898   0.400   4.153  0.1222  0.0432  0.1342
 3937SOL    HW123447   0.836   0.471   4.173  1.7599  1.9061 -1.3647
 3937SOL    HW223448   0.878   0.381   4.062  1.1377 -0.0813 -0.0598
 3938SOL     OW23449   0.140   0.217   5.975 -0.2472 -0.5056  0.2148
 3938SOL    HW123450   0.068   0.168   5.935 -0.0091 -1.8761  1.4492
 3938SOL    HW223451   0.153   0.176   6.060  1.3566  1.6541  0.9878
 3939SOL     OW23452   1.199   1.259   5.522  0.1361 -0.7579  0.3231
 3939SOL    HW123453   1.237   1.190   5.576  0.3665 -1.5436 -0.8295
 3939SOL    HW223454   1.193   1.329   5.586  2.5050 -1.0302  0.8477
 3940SOL     OW23455   1.961   3.919   5.284 -0.4594 -0.6691 -0.2172
 3940SOL    HW123456   1.869   3.947   5.289 -0.4509 -0.3708 -1.6909
 3940SOL    HW223457   2.010   3.990   5.324  1.6267 -1.0853 -2.0613
 3941SOL     OW23458   0.307   1.014   0.337 -0.8332 -0.5689 -0.4669
 3941SOL    HW123459   0.289   0.922   0.356  0.2584 -0.6628  0.1228
 3941SOL    HW223460   0.254   1.050   0.408 -0.5862 -2.3777  0.6543
 3942SOL     OW23461   1.619   4.716   5.983 -0.4085  0.0636  0.3372
 3942SOL    HW123462   1.550   0.027   5.935  0.4467 -0.9720 -1.8763
 3942SOL    HW223463   1.563   4.656   6.033  2.1263 -2.7321 -0.1909
 3943SOL     OW23464   4.339   0.912   2.316 -0.2394  0.3777 -0.1457
 3943SOL    HW123465   4.331   0.948   2.404  2.1410  1.4234 -0.3782
 3943SOL    HW223466   4.401   0.841   2.329 -0.9524 -0.2947 -0.3750
 3944SOL     OW23467   4.576   1.119  13.565 -0.1114  0.2077 -0.2016
 3944SOL    HW123468   4.521   1.195  13.546 -0.5597 -0.3374 -1.0894
 3944SOL    HW223469   4.667   1.142  13.546 -0.5931 -0.4656 -3.3270
 3945SOL     OW23470   1.157   1.902   3.705  0.1815  0.5266  0.3381
 3945SOL    HW123471   1.237   1.869   3.744 -0.2714  0.0199  0.8312
 3945SOL    HW223472   1.191   1.909   3.615  1.6833 -2.5111  0.6636
 3946SOL     OW23473   0.255   1.760   9.859  0.2826 -0.3504  0.4252
 3946SOL    HW123474   0.178   1.806   9.893  1.0879  1.1129  0.2470
 3946SOL    HW223475   0.270   1.811   9.780 -1.3451  0.3609  0.5713
 3947SOL     OW23476   1.236   1.731   4.628 -0.4607  0.0878  0.5283
 3947SOL    HW123477   1.196   1.645   4.616  3.8415 -1.9357  0.5372
 3947SOL    HW223478   1.179   1.776   4.690 -0.8010 -0.3011  0.4895
 3948SOL     OW23479   3.438   2.904   2.209  0.0606 -0.2912 -0.0835
 3948SOL    HW123480   3.384   2.888   2.287 -1.3101  0.0672 -0.9463
 3948SOL    HW223481   3.432   3.000   2.205 -0.1625 -0.2987  0.0557
 3949SOL     OW23482   2.851   4.534   3.812 -1.1104 -0.1009 -0.1515
 3949SOL    HW123483   2.772   4.587   3.806 -1.0378  0.3547  2.9092
 3949SOL    HW223484   2.840   4.471   3.741  0.4992 -1.2403  0.5995
 3950SOL     OW23485   0.642   3.064  13.559  0.1496  0.2744  0.0219
 3950SOL    HW123486   0.552   3.035  13.576 -1.0874  4.1022  0.0190
 3950SOL    HW223487   0.628   3.156  13.538 -1.0239  0.0686 -0.0914
 3951SOL     OW23488   3.042   2.428   3.151 -0.4283  0.3840 -0.5706
 3951SOL    HW123489   3.074   2.444   3.062 -2.1253 -0.1491 -1.2715
 3951SOL    HW223490   3.036   2.521   3.173 -2.0009 -0.4312  2.4041
 3952SOL     OW23491   0.231   3.611   3.117  0.5222 -0.5410 -0.8524
 3952SOL    HW123492   0.320   3.615   3.082  0.4287 -0.4489 -1.0759
 3952SOL    HW223493   0.263   3.563   3.193 -1.3247  0.5913  0.6631
 3953SOL     OW23494   3.076   1.718   9.301 -0.2938  0.1122 -0.1571
 3953SOL    HW123495   3.011   1.654   9.271 -3.1280  2.1961  1.5166
 3953SOL    HW223496   3.021   1.785   9.341  1.0525 -0.2248  2.2191
 3954SOL     OW23497   0.020   1.951   8.321  0.5762  0.1389  0.1353
 3954SOL    HW123498   4.690   1.897   8.276 -0.7772  1.1082  0.9504
 3954SOL    HW223499   0.065   1.881   8.369  2.2252  0.3162 -1.1685
 3955SOL     OW23500   4.160   3.047   6.058 -0.2548 -0.0657  0.5746
 3955SOL    HW123501   4.205   3.033   6.141  0.4184  0.2194  0.2613
 3955SOL    HW223502   4.068   3.051   6.083 -0.6519 -1.7356 -0.6219
 3956SOL     OW23503   1.120   1.803  16.757  0.0693  0.2394  0.0840
 3956SOL    HW123504   1.184   1.860  16.799  1.6148 -0.4777 -1.2997
 3956SOL    HW223505   1.174   1.768  16.686 -1.1419  4.0054 -2.6754
 3957SOL     OW23506   0.848   2.110   4.906  0.2860 -0.0997 -0.1353
 3957SOL    HW123507   0.801   2.193   4.899 -1.4866 -1.1743 -0.8863
 3957SOL    HW223508   0.863   2.093   4.813  0.7303  1.5775 -0.3706
 3958SOL     OW23509   2.287   0.749   5.437  0.1154 -0.4469  0.1636
 3958SOL    HW123510   2.355   0.695   5.396  1.2528  0.8003  0.4016
 3958SOL    HW223511   2.214   0.689   5.418  1.1972 -1.6941 -0.0674
 3959SOL     OW23512   0.230   3.642   5.359 -0.5223  0.1150 -0.3066
 3959SOL    HW123513   0.260   3.608   5.275 -2.3695 -1.1572 -0.4581
 3959SOL    HW223514   0.193   3.565   5.402  0.1586 -0.8059 -1.3613
 3960SOL     OW23515   0.092   1.237   6.832  0.3099  0.0226  0.0967
 3960SOL    HW123516   0.124   1.151   6.857  1.8571  0.7135  0.4418
 3960SOL    HW223517   0.094   1.289   6.912 -0.6627  0.3734 -0.0976
 3961SOL     OW23518   1.160   0.841   5.558 -0.2672  0.7387  0.0972
 3961SOL    HW123519   1.157   0.926   5.602  0.1484  0.9159 -0.2089
 3961SOL    HW223520   1.225   0.857   5.489 -2.0641 -0.5540 -1.9044
 3962SOL     OW23521   1.541   3.495   4.601 -0.0495  0.0048  0.3923
 3962SOL    HW123522   1.628   3.496   4.639  0.0864  1.3095  0.0122
 3962SOL    HW223523   1.487   3.569   4.629 -1.9756 -0.4880 -1.9469
 3963SOL     OW23524   3.580   2.238   7.273  0.4004 -0.5857  0.2700
 3963SOL    HW123525   3.659   2.186   7.284 -0.7432 -2.2424  0.5751
 3963SOL    HW223526   3.514   2.170   7.257 -1.4249  1.0168  0.9897
 3964SOL     OW23527   1.655   2.548   5.923  0.2500  0.1593  0.1702
 3964SOL    HW123528   1.574   2.523   5.878  0.2161  0.3555  0.1191
 3964SOL    HW223529   1.661   2.479   5.989  1.2414  1.0172  0.9833
 3965SOL     OW23530   3.373   1.564  13.499  0.6772 -0.0975 -0.2301
 3965SOL    HW123531   3.309   1.617  13.452  0.4649 -1.0222 -0.9700
 3965SOL    HW223532   3.309   1.521  13.556  1.5409 -0.6926  0.3007
 3966SOL     OW23533   2.018   3.641   2.149 -0.5416 -0.2804 -0.0201
 3966SOL    HW123534   2.109   3.628   2.122 -0.3248  0.4497  0.3476
 3966SOL    HW223535   1.978   3.668   2.066  1.9240 -1.7665 -1.7171
 3967SOL     OW23536   4.624   0.424   0.822  0.4525 -0.2051  0.4895
 3967SOL    HW123537   4.664   0.378   0.896  2.0236  0.7989  0.2784
 3967SOL    HW223538   4.694   0.415   0.757  1.3757 -0.0192  1.4418
 3968SOL     OW23539   1.018   0.458  17.732  0.5645  0.0480  0.2328
 3968SOL    HW123540   1.110   0.483  17.724  1.1506 -2.7524 -1.6397
 3968SOL    HW223541   0.997   0.417  17.649 -1.3311 -0.6613  1.0713
 3969SOL     OW23542   4.331   3.671   1.257  0.5757 -0.3441  0.0856
 3969SOL    HW123543   4.273   3.618   1.312  2.1655 -1.5336  0.6246
 3969SOL    HW223544   4.262   3.711   1.204  1.7378  0.3649 -0.8998
 3970SOL     OW23545   0.439   4.022   7.152 -0.2715 -0.1571 -1.0509
 3970SOL    HW123546   0.362   3.972   7.125  0.1785 -2.5702  2.1672
 3970SOL    HW223547   0.423   4.037   7.245 -0.2904  2.9815 -1.5723
 3971SOL     OW23548   2.465   4.353   1.759 -0.6082  0.2757  0.1639
 3971SOL    HW123549   2.376   4.388   1.762 -0.0360  1.6674  0.8592
 3971SOL    HW223550   2.462   4.291   1.832 -0.9069  3.0221  2.4760
 3972SOL     OW23551   2.139   1.988   9.640 -0.1219 -0.0486 -0.4791
 3972SOL    HW123552   2.089   2.064   9.612  0.8032  1.6992  2.5643
 3972SOL    HW223553   2.228   2.023   9.641 -0.1749  0.0408  0.9750
 3973SOL     OW23554   4.185   4.525   6.922  0.2643  0.2349  0.5209
 3973SOL    HW123555   4.166   4.602   6.868 -0.2447 -0.3643 -0.1565
 3973SOL    HW223556   4.214   4.459   6.859 -0.4640 -1.5809  2.0741
 3974SOL     OW23557   3.087   0.006   6.669 -0.0069 -0.0314 -0.9319
 3974SOL    HW123558   3.083   4.721   6.762 -2.1506 -0.3126 -1.0867
 3974SOL    HW223559   3.129   0.091   6.680 -0.6250  0.1703 -0.0973
 3975SOL     OW23560   2.291   3.415   8.459  0.5364 -0.0854  0.2717
 3975SOL    HW123561   2.243   3.343   8.501  1.1448 -1.2824 -1.0788
 3975SOL    HW223562   2.295   3.387   8.367 -0.7755 -1.0300  0.5034
 3976SOL     OW23563   4.357   2.381   1.589 -0.1427  0.3759 -0.0722
 3976SOL    HW123564   4.312   2.298   1.606 -1.0677  0.7714 -0.6092
 3976SOL    HW223565   4.437   2.340   1.556  1.8337  1.4612  3.3295
 3977SOL     OW23566   3.081   0.081   7.998 -0.5948  0.8185  0.4449
 3977SOL    HW123567   3.175   0.104   7.996 -0.9115  2.0027 -1.2635
 3977SOL    HW223568   3.055   0.078   7.906 -0.6441  1.6244  0.4260
 3978SOL     OW23569   1.993   4.428   3.900  0.5571  0.1991 -0.0595
 3978SOL    HW123570   1.921   4.371   3.873  0.1316  0.6050  0.2217
 3978SOL    HW223571   1.963   4.503   3.848  0.0774  0.2272  0.2599
 3979SOL     OW23572   4.615   2.706   7.944  0.5643  0.5890  0.2510
 3979SOL    HW123573   4.549   2.763   7.904  1.4865  0.7451 -1.0585
 3979SOL    HW223574   4.592   2.630   7.891  2.4737 -0.5513  1.0508
 3980SOL     OW23575   2.254   0.788   8.323  0.1944 -0.1882  0.5738
 3980SOL    HW123576   2.240   0.729   8.249 -0.6833 -0.5276  1.0173
 3980SOL    HW223577   2.337   0.835   8.309 -0.2302  1.1697  2.5849
 3981SOL     OW23578   2.015   1.813  16.990 -0.1253 -0.0832  0.2688
 3981SOL    HW123579   2.088   1.813  16.928  0.4297 -0.2738  0.9212
 3981SOL    HW223580   2.012   1.718  16.998  0.6625 -0.0566  0.9189
 3982SOL     OW23581   1.832   3.423   8.396  0.4720  0.0750 -0.2514
 3982SOL    HW123582   1.769   3.423   8.324  0.6941  2.5710 -0.4482
 3982SOL    HW223583   1.907   3.438   8.339 -1.0969  0.2086 -2.2794
 3983SOL     OW23584   0.978   2.066   8.511  0.2199 -0.7936 -0.5429
 3983SOL    HW123585   0.937   1.981   8.524 -2.0399  0.8669  3.2079
 3983SOL    HW223586   0.972   2.068   8.416 -0.9353  0.2840 -0.4523
 3984SOL     OW23587   3.885   1.122  13.081  0.3162 -0.2442 -0.2467
 3984SOL    HW123588   3.889   1.029  13.106 -2.6644 -0.2399  0.2731
 3984SOL    HW223589   3.970   1.134  13.041  0.5177 -1.2940 -0.1236
 3985SOL     OW23590   1.461   0.773   4.469  0.1579  0.3274  0.0511
 3985SOL    HW123591   1.552   0.761   4.440  0.0224 -3.0018  1.0227
 3985SOL    HW223592   1.412   0.791   4.389  0.6132  1.7043  0.0888
 3986SOL     OW23593   2.747   3.750  12.656  0.5294  0.3398 -0.5874
 3986SOL    HW123594   2.758   3.735  12.750 -3.0791  1.9561  0.0908
 3986SOL    HW223595   2.759   3.845  12.658 -0.7021  0.5213 -1.4900
 3987SOL     OW23596   3.428   2.748   0.336 -0.0770 -0.0931 -0.3952
 3987SOL    HW123597   3.454   2.686   0.404  0.9531 -1.3537 -1.9392
 3987SOL    HW223598   3.338   2.757   0.366 -0.1274  1.1727 -0.9037
 3988SOL     OW23599   3.788   4.641   2.878  0.2370 -0.0420  0.7980
 3988SOL    HW123600   3.828   4.567   2.924 -0.3490 -0.4173  0.7034
 3988SOL    HW223601   3.783   4.714   2.941  1.4250  0.1999  0.6146
 3989SOL     OW23602   3.906   2.954  15.213 -0.3695 -0.2300 -0.5322
 3989SOL    HW123603   3.901   2.880  15.273  1.5569  0.6105  0.6817
 3989SOL    HW223604   3.840   2.930  15.148 -0.8766  1.3932 -0.6165
 3990SOL     OW23605   4.477   0.671   6.771  0.3935 -0.2108  0.2222
 3990SOL    HW123606   4.458   0.611   6.843 -1.0460  1.3651  1.1495
 3990SOL    HW223607   4.572   0.667   6.756  0.2896 -0.0393 -0.4898
 3991SOL     OW23608   2.908   3.873   8.694  0.3533 -0.0758  0.4282
 3991SOL    HW123609   2.876   3.865   8.604 -2.0212 -1.3192  1.3862
 3991SOL    HW223610   2.841   3.921   8.743 -1.1038  1.5974 -3.1576
 3992SOL     OW23611   0.060   1.118  11.020 -0.8488  0.9375  0.0393
 3992SOL    HW123612   0.082   1.211  11.021 -0.0693  0.7249  2.3655
 3992SOL    HW223613   0.076   1.091  10.930 -0.1600 -0.9059  0.7053
 3993SOL     OW23614   3.340   3.987   5.436  0.5002 -0.2969 -0.7017
 3993SOL    HW123615   3.342   3.934   5.516 -1.8191  1.4803  0.5433
 3993SOL    HW223616   3.268   3.949   5.385  1.3746 -0.7653 -1.5992
 3994SOL     OW23617   2.183   0.492   1.505 -0.0403 -0.7936  0.4639
 3994SOL    HW123618   2.215   0.493   1.595 -0.2182  1.4028  0.5013
 3994SOL    HW223619   2.127   0.567   1.522  1.2097  0.2081  0.1291
 3995SOL     OW23620   1.331   2.299   6.150  0.0729 -0.6525 -0.1005
 3995SOL    HW123621   1.400   2.353   6.111  0.1424 -0.3392  0.4598
 3995SOL    HW223622   1.257   2.326   6.096  0.2086  1.9821  1.0673
 3996SOL     OW23623   1.738   1.998   8.117 -0.4812 -0.3459  0.2241
 3996SOL    HW123624   1.715   1.921   8.169  1.0122 -0.6911  0.3584
 3996SOL    HW223625   1.802   2.029   8.181 -0.5451 -0.2667  0.2489
 3997SOL     OW23626   2.972   2.738   5.864  0.0268 -0.5034 -0.2591
 3997SOL    HW123627   2.888   2.781   5.878  0.6086  0.2148  1.0532
 3997SOL    HW223628   2.946   2.658   5.910 -0.3508 -0.3040 -0.1227
 3998SOL     OW23629   3.605   0.666  15.738 -0.6401  0.0507 -0.0109
 3998SOL    HW123630   3.555   0.628  15.666  0.4672 -2.5708  0.6178
 3998SOL    HW223631   3.537   0.718  15.782 -0.0118  1.6023 -0.8602
 3999SOL     OW23632   4.582   0.191   4.338 -0.4143  0.6761 -0.1049
 3999SOL    HW123633   4.546   0.210   4.251  0.5930 -2.1477 -1.1676
 3999SOL    HW223634   4.674   0.215   4.326 -0.4200 -0.3982 -2.3927
 4000SOL     OW23635   1.413   3.976  10.598 -0.3177  0.5887 -0.4926
 4000SOL    HW123636   1.402   3.916  10.672  1.4549  0.2611 -0.5031
 4000SOL    HW223637   1.498   3.956  10.560  0.5116  0.6985  1.3411
 4001SOL     OW23638   1.365   4.578   4.139  0.1154 -0.3036  0.6322
 4001SOL    HW123639   1.436   4.559   4.201  1.0596  0.8456 -0.1229
 4001SOL    HW223640   1.336   4.663   4.170  0.7421 -0.2366  1.0344
 4002SOL     OW23641   1.268   1.719  12.043 -1.1644  0.3437 -0.1758
 4002SOL    HW123642   1.273   1.804  12.001  0.6506  0.2172 -0.2373
 4002SOL    HW223643   1.234   1.747  12.128  0.5259  0.7412  0.3796
 4003SOL     OW23644   3.016   2.266   6.378 -0.4908  0.4474 -0.9471
 4003SOL    HW123645   2.945   2.262   6.314 -0.3126 -1.5836 -1.0094
 4003SOL    HW223646   3.029   2.360   6.394 -0.9500  0.2818  0.4024
 4004SOL     OW23647   1.399   4.428   2.423 -0.1802 -0.3695 -0.3621
 4004SOL    HW123648   1.487   4.398   2.446  0.2765  1.8366  0.8510
 4004SOL    HW223649   1.436   4.508   2.385  0.7566  0.0713  1.4209
 4005SOL     OW23650   1.064   2.308   4.716  0.1237 -0.0660 -0.0898
 4005SOL    HW123651   1.123   2.331   4.645  0.7002 -0.6406  0.1956
 4005SOL    HW223652   1.026   2.228   4.681  3.2027 -1.0964 -1.0993
 4006SOL     OW23653   0.535   3.945  14.168 -0.1210 -0.7369 -0.1650
 4006SOL    HW123654   0.565   3.913  14.253  2.5686  1.4513 -0.2914
 4006SOL    HW223655   0.569   4.035  14.165 -3.1241  0.5199  2.2753
 4007SOL     OW23656   4.704   1.958   3.866  0.3308 -0.3053 -0.3490
 4007SOL    HW123657   4.611   1.934   3.859 -0.6024  3.2898 -0.2382
 4007SOL    HW223658   0.010   1.871   3.874 -0.5332 -0.8406 -1.8182
 4008SOL     OW23659   2.623   3.839   8.015 -0.6829 -0.3424  0.2307
 4008SOL    HW123660   2.568   3.869   7.943 -0.0755  1.7520  0.6282
 4008SOL    HW223661   2.706   3.826   7.970  0.3542  2.6336  1.2599
 4009SOL     OW23662   0.629   2.684   3.257 -0.3317  0.1233  0.3272
 4009SOL    HW123663   0.591   2.658   3.173 -1.1749 -0.3219  0.8487
 4009SOL    HW223664   0.707   2.730   3.224  0.2940 -0.5288  0.8872
 4010SOL     OW23665   2.259   0.311   5.347  0.0644 -0.4056  0.9903
 4010SOL    HW123666   2.273   0.272   5.262  1.8042  0.5813  0.8348
 4010SOL    HW223667   2.308   0.391   5.329  0.2835 -0.1102  2.8588
 4011SOL     OW23668   1.383   4.626   5.687  0.0594 -0.0825 -0.3332
 4011SOL    HW123669   1.392   4.630   5.782  3.2178 -2.4045 -0.5301
 4011SOL    HW223670   1.327   4.703   5.670  0.9292  1.0234  1.8532
 4012SOL     OW23671   1.137   1.676   4.292  0.0855  0.2139 -0.0547
 4012SOL    HW123672   1.150   1.745   4.357 -1.7361 -0.5889  1.1671
 4012SOL    HW223673   1.225   1.637   4.295 -0.2992 -0.5726  1.1341
 4013SOL     OW23674   2.780   0.881   5.565 -0.1933  0.2648 -0.6588
 4013SOL    HW123675   2.752   0.922   5.648 -0.8127 -5.2020  1.8091
 4013SOL    HW223676   2.713   0.908   5.502  0.8873  2.0231 -1.0499
 4014SOL     OW23677   3.331   1.986   5.622  0.7877  0.3448  0.4975
 4014SOL    HW123678   3.348   2.058   5.682  1.9397  0.4567  0.0365
 4014SOL    HW223679   3.417   1.969   5.586  0.2876  1.9409 -1.4272
 4015SOL     OW23680   3.204   0.920   1.320  0.6066 -0.5193 -0.1699
 4015SOL    HW123681   3.118   0.934   1.279 -0.2512 -1.5022  1.2788
 4015SOL    HW223682   3.261   0.923   1.244  0.8707  0.2687  0.0486
 4016SOL     OW23683   2.515   0.609  16.692  0.3790 -0.2387 -0.2766
 4016SOL    HW123684   2.573   0.542  16.655 -0.1027  0.2236 -1.8577
 4016SOL    HW223685   2.573   0.653  16.755 -0.2696  0.2041  0.0094
 4017SOL     OW23686   2.943   0.702  16.381  1.1718  0.5972  0.4145
 4017SOL    HW123687   2.970   0.618  16.344  2.4074  0.9186  0.5885
 4017SOL    HW223688   2.903   0.669  16.461  1.0969  0.5056  0.3392
 4018SOL     OW23689   4.601   1.623   5.702  0.4249 -0.4010  0.0061
 4018SOL    HW123690   4.585   1.715   5.722  1.2202 -0.1476 -0.5283
 4018SOL    HW223691   4.614   1.590   5.791  1.8750 -1.8533 -0.7297
 4019SOL     OW23692   3.800   3.746  11.144 -0.2707 -0.0438  0.2040
 4019SOL    HW123693   3.754   3.820  11.103 -1.2365 -1.4779 -1.2883
 4019SOL    HW223694   3.785   3.679  11.077 -1.6481  1.1021 -0.6381
 4020SOL     OW23695   4.545   0.264  14.712 -0.2049  0.1546  0.2349
 4020SOL    HW123696   4.596   0.336  14.675 -1.0954 -0.0777 -1.4264
 4020SOL    HW223697   4.453   0.286  14.694  0.3258  3.0443  0.9809
 4021SOL     OW23698   1.030   0.110   0.765  0.1905  0.4169  0.1294
 4021SOL    HW123699   1.100   0.054   0.800 -0.2277 -1.1431 -1.5036
 4021SOL    HW223700   0.978   0.117   0.845 -0.3315 -2.3077  0.0342
 4022SOL     OW23701   4.529   0.617  13.372  0.0752 -0.3570  0.1793
 4022SOL    HW123702   4.459   0.642  13.432 -1.6520 -0.1503 -1.9372
 4022SOL    HW223703   4.591   0.603  13.444 -0.9092  0.7646  1.2681
 4023SOL     OW23704   0.077   2.005   8.016  0.0798  0.1011  0.3856
 4023SOL    HW123705   0.173   2.000   8.022  0.0443 -0.6035  0.3640
 4023SOL    HW223706   0.043   1.919   8.039 -0.5522  0.3597  0.4035
 4024SOL     OW23707   1.599   0.361   6.859  0.2077  0.0094  0.1568
 4024SOL    HW123708   1.603   0.456   6.851 -2.4842  0.0352 -0.8140
 4024SOL    HW223709   1.510   0.341   6.830  0.8293  0.1968 -1.8296
 4025SOL     OW23710   0.875   0.653   6.827 -0.9358 -0.1721 -0.2930
 4025SOL    HW123711   0.800   0.594   6.819  0.4828 -2.3148  2.5950
 4025SOL    HW223712   0.943   0.596   6.860  0.4255  0.8279 -1.3608
 4026SOL     OW23713   3.498   0.832   0.569  0.6882 -0.9659 -0.0902
 4026SOL    HW123714   3.443   0.774   0.516 -0.0535 -0.7918  0.4771
 4026SOL    HW223715   3.513   0.904   0.508  2.4537 -0.3783  1.0516
 4027SOL     OW23716   3.093   3.615   8.996 -0.6258 -0.3188 -0.3398
 4027SOL    HW123717   3.115   3.608   9.089  1.6595 -0.3163 -0.8826
 4027SOL    HW223718   2.997   3.609   8.997 -0.6500  0.1600  0.0163
 4028SOL     OW23719   3.944   2.489  11.921 -0.4130 -0.0419  0.0948
 4028SOL    HW123720   3.981   2.441  11.847  0.2045  0.9107 -0.2209
 4028SOL    HW223721   3.851   2.471  11.905  0.0171 -1.5962 -0.6858
 4029SOL     OW23722   1.554   3.363  16.367  0.1938  0.3583 -0.5935
 4029SOL    HW123723   1.641   3.401  16.379 -0.2660  1.1981  0.0377
 4029SOL    HW223724   1.499   3.440  16.356 -0.0379  0.1160 -1.1224
 4030SOL     OW23725   3.411   0.710  11.830  0.0091 -0.4259  0.0440
 4030SOL    HW123726   3.376   0.785  11.781  0.8931 -1.2193 -1.7885
 4030SOL    HW223727   3.442   0.761  11.906 -1.0739  2.2123 -1.2848
 4031SOL     OW23728   2.902   4.344   2.480  0.1445  0.2140 -1.1478
 4031SOL    HW123729   2.859   4.370   2.399  1.0216  3.1646 -0.6997
 4031SOL    HW223730   2.914   4.253   2.454  0.9137 -0.2616  0.8751
 4032SOL     OW23731   2.925   3.717   6.602  0.3287 -1.3199  0.5854
 4032SOL    HW123732   2.857   3.704   6.535  0.9344 -0.8509 -0.1194
 4032SOL    HW223733   2.889   3.787   6.656  0.1973  0.0633 -1.3039
 4033SOL     OW23734   3.487   3.924   1.413 -0.1442 -0.1210  0.0603
 4033SOL    HW123735   3.483   3.902   1.506  0.9205  2.1111  0.6350
 4033SOL    HW223736   3.418   3.991   1.415 -0.3098 -0.3121  0.6246
 4034SOL     OW23737   1.999   2.345   4.592  0.7370  0.4138 -0.1621
 4034SOL    HW123738   1.932   2.413   4.588 -0.0174 -0.3917 -1.2169
 4034SOL    HW223739   1.940   2.273   4.616  0.4104  0.2850 -1.3083
 4035SOL     OW23740   0.305   4.216   1.295  0.1997  0.0540 -0.0901
 4035SOL    HW123741   0.382   4.273   1.290 -0.5655  1.3192  2.3059
 4035SOL    HW223742   0.234   4.279   1.307 -1.5725 -1.4393 -3.0231
 4036SOL     OW23743   2.158   2.747   2.168 -0.3073  0.4987 -0.1807
 4036SOL    HW123744   2.073   2.710   2.142  0.5361 -1.1417 -0.6030
 4036SOL    HW223745   2.131   2.832   2.204  0.1578 -0.1770  1.7508
 4037SOL     OW23746   2.884   3.824   9.905  0.5494  0.2906  1.2309
 4037SOL    HW123747   2.927   3.885   9.845  2.9481 -1.7411  0.8890
 4037SOL    HW223748   2.805   3.876   9.921  1.2750  1.6056  0.5668
 4038SOL     OW23749   0.008   1.380  13.706  0.1878  0.5533 -0.0839
 4038SOL    HW123750   0.041   1.375  13.617 -0.5087  0.7784 -0.3568
 4038SOL    HW223751   4.679   1.450  13.691 -1.2026 -1.2705 -2.6600
 4039SOL     OW23752   1.923   2.144   8.284  0.2885 -0.3723 -0.2438
 4039SOL    HW123753   1.937   2.239   8.288 -3.5546  0.2700 -1.6414
 4039SOL    HW223754   1.999   2.101   8.246 -0.1880 -0.0664 -1.5502
 4040SOL     OW23755   0.029   4.310   6.531 -0.6665 -0.0296  0.2222
 4040SOL    HW123756   0.110   4.324   6.580  0.9439 -1.4767 -2.0402
 4040SOL    HW223757   0.027   4.215   6.538  1.7276 -0.0396  0.6621
 4041SOL     OW23758   3.948   0.729   0.495  0.4329 -0.0000 -0.0770
 4041SOL    HW123759   3.886   0.737   0.567 -0.7021 -1.5876 -0.8780
 4041SOL    HW223760   3.992   0.649   0.524 -0.3191 -0.9093 -1.4373
 4042SOL     OW23761   2.242   0.487  15.887 -0.1958 -0.0895 -0.8636
 4042SOL    HW123762   2.290   0.411  15.855 -1.2572 -0.6642 -1.0804
 4042SOL    HW223763   2.257   0.547  15.813 -1.8579 -1.1184 -2.0367
 4043SOL     OW23764   1.852   4.449  10.070  0.2137  0.2242 -0.1264
 4043SOL    HW123765   1.775   4.483  10.026  1.7301 -1.6559 -4.2384
 4043SOL    HW223766   1.867   4.368  10.022 -1.4785 -0.6954  0.8766
 4044SOL     OW23767   4.159   1.203   2.631 -0.1159 -0.1343  0.2289
 4044SOL    HW123768   4.108   1.222   2.552 -0.1666 -1.0585  0.0359
 4044SOL    HW223769   4.109   1.249   2.698 -3.0770 -1.0838 -1.3169
 4045SOL     OW23770   3.383   3.165   0.150  0.3931  0.3820  0.1066
 4045SOL    HW123771   3.304   3.127   0.112  0.0278  1.3269 -0.0724
 4045SOL    HW223772   3.438   3.088   0.164 -0.1648  0.7608  4.3749
 4046SOL     OW23773   0.292   1.069   4.362  1.1218 -0.0288 -0.2591
 4046SOL    HW123774   0.312   1.008   4.291 -2.4573  0.0619 -1.3543
 4046SOL    HW223775   0.330   1.024   4.438 -0.6045 -2.5561 -0.8923
 4047SOL     OW23776   3.380   0.978   2.608  0.4324  0.1178  0.5679
 4047SOL    HW123777   3.289   0.965   2.582  0.7814  0.4228 -0.7943
 4047SOL    HW223778   3.423   0.974   2.522 -0.3116  3.8802  0.0054
 4048SOL     OW23779   0.409   1.084   5.459 -0.0390 -0.5487  0.0355
 4048SOL    HW123780   0.462   1.021   5.410  1.1774 -0.0578  0.7366
 4048SOL    HW223781   0.330   1.086   5.405 -0.4871  2.0970  0.8055
 4049SOL     OW23782   2.259   0.369   5.793  0.1679  0.9550 -0.8281
 4049SOL    HW123783   2.332   0.342   5.848  0.0755 -0.5143 -1.4337
 4049SOL    HW223784   2.304   0.350   5.711 -1.1499 -1.0348 -1.0888
 4050SOL     OW23785   1.928   4.323   4.844 -0.0313 -0.0373  0.6141
 4050SOL    HW123786   2.010   4.302   4.888  0.6154  1.8091  0.2990
 4050SOL    HW223787   1.905   4.410   4.877  0.8464  0.0060  1.1031
 4051SOL     OW23788   0.379   0.007   7.721  0.3021 -0.1489  0.1099
 4051SOL    HW123789   0.369   4.659   7.674 -1.1091 -0.1005  0.3215
 4051SOL    HW223790   0.325   4.725   7.799 -1.7749 -0.5927 -1.4255
 4052SOL     OW23791   4.601   3.097   5.150 -0.0758 -0.1564  0.6322
 4052SOL    HW123792   4.599   3.001   5.144 -1.1376 -0.1911  1.5880
 4052SOL    HW223793   4.690   3.113   5.180  0.7822 -3.8569  0.1401
 4053SOL     OW23794   2.640   4.107   1.949  0.1922 -0.3678 -0.7067
 4053SOL    HW123795   2.655   4.064   1.865 -1.1156 -1.0762 -0.5696
 4053SOL    HW223796   2.656   4.039   2.015 -1.6085  0.4736  0.5859
 4054SOL     OW23797   1.717   4.177  12.758  0.3428 -0.1480 -0.5144
 4054SOL    HW123798   1.684   4.139  12.676 -2.3085 -0.2796  0.6298
 4054SOL    HW223799   1.749   4.265  12.740  0.4655 -0.0785  0.0632
 4055SOL     OW23800   0.019   4.571  12.234 -0.0636  0.2950 -0.2321
 4055SOL    HW123801   0.110   4.541  12.242 -1.2648 -2.9689  1.3240
 4055SOL    HW223802   0.019   4.610  12.146 -1.3490 -0.1108 -0.4100
 4056SOL     OW23803   4.719   0.753   2.351 -0.9394 -0.4048 -0.3320
 4056SOL    HW123804   4.728   0.796   2.266  0.2503 -0.6351 -0.3220
 4056SOL    HW223805   4.652   0.686   2.338  0.1248 -1.3627 -0.9023
 4057SOL     OW23806   3.439   3.882   7.362 -0.1047 -0.3171 -0.3315
 4057SOL    HW123807   3.361   3.827   7.348 -0.8492  0.9293 -1.0672
 4057SOL    HW223808   3.498   3.807   7.368  0.3197  0.0081 -0.5233
 4058SOL     OW23809   3.210   3.676   5.017  0.1843 -0.0122 -0.8444
 4058SOL    HW123810   3.212   3.595   4.965 -1.0720 -0.0529 -0.8085
 4058SOL    HW223811   3.186   3.738   4.948  1.4799  0.3805 -0.9578
 4059SOL     OW23812   2.762   0.680   5.959  0.2205  0.2059 -0.6257
 4059SOL    HW123813   2.750   0.712   6.048 -1.4901 -1.8206 -0.1018
 4059SOL    HW223814   2.856   0.666   5.955  0.3601  0.8083  0.6434
 4060SOL     OW23815   2.511   0.284   0.945  0.0996  0.1624 -0.6517
 4060SOL    HW123816   2.576   0.292   0.875  0.3575  1.2553 -0.2923
 4060SOL    HW223817   2.509   0.189   0.945 -0.1821  0.1716  0.9634
 4061SOL     OW23818   3.049   2.779   6.972 -0.0474 -0.2379  0.0672
 4061SOL    HW123819   3.078   2.822   7.052  0.7558 -0.6458 -0.0027
 4061SOL    HW223820   2.958   2.809   6.963 -0.8711 -2.7413 -0.0149
 4062SOL     OW23821   3.291   2.447   9.315 -0.2523  0.5748 -0.2949
 4062SOL    HW123822   3.252   2.526   9.280 -1.0390  0.5746  0.5633
 4062SOL    HW223823   3.383   2.470   9.328  0.2776 -1.2081 -0.8780
 4063SOL     OW23824   3.032   2.094  12.402 -0.5980 -0.0013 -0.4680
 4063SOL    HW123825   3.074   2.064  12.483 -3.2051 -0.0230  0.8689
 4063SOL    HW223826   3.112   2.128  12.362  0.3265  0.1436  1.5355
 4064SOL     OW23827   0.781   1.988   8.986 -0.1003 -0.0048 -0.5684
 4064SOL    HW123828   0.840   1.921   8.952 -0.2796 -0.2381 -0.4203
 4064SOL    HW223829   0.810   1.988   9.077 -0.5839 -0.1352 -0.4130
 4065SOL     OW23830   2.122   2.567  14.204 -0.1040  0.2919 -0.0758
 4065SOL    HW123831   2.048   2.549  14.262  0.8170 -1.4694  0.5416
 4065SOL    HW223832   2.202   2.543  14.250 -0.3106  0.0658  0.1619
 4066SOL     OW23833   0.417   3.099   7.929  0.3390 -0.2401  0.5363
 4066SOL    HW123834   0.440   3.064   7.843 -0.1830  1.9581 -0.5017
 4066SOL    HW223835   0.372   3.180   7.904 -0.4037 -0.4943  1.0609
 4067SOL     OW23836   4.309   0.214   3.107 -0.2935  0.0444 -0.3855
 4067SOL    HW123837   4.398   0.249   3.100  0.4233 -1.9868 -1.2773
 4067SOL    HW223838   4.316   0.176   3.194  1.1378 -1.1989 -1.0374
 4068SOL     OW23839   0.127   4.484   1.439 -0.7205 -0.4969 -0.0543
 4068SOL    HW123840   0.174   4.416   1.488 -1.2115 -0.5504  0.3397
 4068SOL    HW223841   0.089   4.438   1.365  1.6053 -0.8710 -1.0391
 4069SOL     OW23842   0.698   0.910   0.022  0.1480 -0.3557  0.5657
 4069SOL    HW123843   0.735   0.868   0.100  1.5654 -1.9330 -0.9580
 4069SOL    HW223844   0.670   0.990   0.067 -1.7774 -0.1405 -0.9794
 4070SOL     OW23845   3.555   1.735   6.898 -0.3330  0.1845 -0.1528
 4070SOL    HW123846   3.490   1.674   6.863  0.7146  0.3314 -2.3520
 4070SOL    HW223847   3.612   1.754   6.824  0.9745 -0.0112  0.8186
 4071SOL     OW23848   1.866   2.078   5.323 -0.2766 -0.0140 -0.5782
 4071SOL    HW123849   1.876   2.165   5.284 -0.5791  0.8390  1.2761
 4071SOL    HW223850   1.806   2.102   5.393  0.5645  0.1847  0.0760
 4072SOL     OW23851   4.508   4.538  14.430 -0.6681 -0.0308 -0.1092
 4072SOL    HW123852   4.499   4.510  14.521  0.1832  0.5388  0.1509
 4072SOL    HW223853   4.555   4.621  14.426 -1.0275  0.2804  2.1519
 4073SOL     OW23854   0.615   3.680   9.025 -0.0955 -0.1010 -0.7388
 4073SOL    HW123855   0.620   3.597   9.072 -1.6504  0.6062  0.7225
 4073SOL    HW223856   0.667   3.733   9.085 -0.1698 -3.3365  2.1951
 4074SOL     OW23857   1.095   1.486   4.623 -0.3640 -0.0127 -0.3813
 4074SOL    HW123858   1.036   1.415   4.599 -1.5065  0.8321 -0.1228
 4074SOL    HW223859   1.135   1.447   4.701  0.0078  0.4267 -0.3508
 4075SOL     OW23860   0.698   2.987   3.238  0.1940 -0.0139 -0.3610
 4075SOL    HW123861   0.677   3.029   3.322 -0.1594 -0.1764 -0.3660
 4075SOL    HW223862   0.616   2.963   3.193 -0.0009 -0.4931  0.2421
 4076SOL     OW23863   0.447   2.242   2.948 -0.4731  0.3686  0.3477
 4076SOL    HW123864   0.429   2.158   2.989  2.7339  0.1358  1.2784
 4076SOL    HW223865   0.528   2.264   2.994  0.2828  0.9317 -1.2523
 4077SOL     OW23866   1.453   4.327   2.892 -0.0888 -0.5587 -0.0055
 4077SOL    HW123867   1.418   4.415   2.898  2.8932  0.8052 -2.7348
 4077SOL    HW223868   1.488   4.313   2.980  0.4511 -3.3488 -0.6342
 4078SOL     OW23869   4.676   1.973  13.046  0.9584  0.4001 -0.0976
 4078SOL    HW123870   4.682   1.885  13.083 -1.1061  0.5116  0.4680
 4078SOL    HW223871   0.031   1.992  13.017  1.0984  1.3633  1.0051
 4079SOL     OW23872   3.438   1.557   8.973  0.4957 -0.0350  0.4075
 4079SOL    HW123873   3.379   1.517   9.037 -0.4875 -1.3338 -1.3140
 4079SOL    HW223874   3.525   1.521   8.992  0.0018 -0.8448  1.1162
 4080SOL     OW23875   1.577   4.134   9.444  0.1355  0.3131  0.2282
 4080SOL    HW123876   1.554   4.093   9.361 -1.5958  1.0082  0.3764
 4080SOL    HW223877   1.533   4.078   9.508 -2.6209  2.0140 -0.2163
 4081SOL     OW23878   1.273   2.338   1.671 -0.1942  0.6458 -0.6430
 4081SOL    HW123879   1.297   2.427   1.696 -0.4231  0.5114  0.0376
 4081SOL    HW223880   1.221   2.327   1.750  1.7050 -1.5126  0.2796
 4082SOL     OW23881   4.252   1.650   3.624  0.0913 -0.2499  0.1537
 4082SOL    HW123882   4.193   1.672   3.696 -0.4764  2.0458 -1.0249
 4082SOL    HW223883   4.241   1.726   3.566  1.3724 -0.0770  0.1381
 4083SOL     OW23884   0.017   3.567   6.073  0.1000 -0.1557  0.6390
 4083SOL    HW123885   0.102   3.540   6.110  0.5975  1.3835  0.6237
 4083SOL    HW223886   4.714   3.484   6.042 -1.3660  1.0075 -0.6709
 4084SOL     OW23887   0.448   0.622   3.556 -0.1000 -0.4628  0.2252
 4084SOL    HW123888   0.442   0.542   3.504 -0.8586 -1.0400  1.1966
 4084SOL    HW223889   0.363   0.667   3.551 -0.1558 -0.7923 -1.7101
 4085SOL     OW23890   2.162   0.399   8.420  0.1898 -0.2053 -0.0807
 4085SOL    HW123891   2.236   0.340   8.402 -1.0286 -1.7582 -0.0284
 4085SOL    HW223892   2.178   0.432   8.508 -0.5786  0.4032 -0.1746
 4086SOL     OW23893   1.248   0.605   7.300 -0.3369 -0.4241 -0.4578
 4086SOL    HW123894   1.272   0.555   7.222 -1.1228 -1.1001 -0.2656
 4086SOL    HW223895   1.212   0.535   7.356  0.2234  1.0320  1.7175
 4087SOL     OW23896   0.668   2.497   2.971 -0.0507  0.3972 -0.6698
 4087SOL    HW123897   0.593   2.555   2.959 -0.5805 -0.2380 -0.4480
 4087SOL    HW223898   0.744   2.554   2.961  0.0434  0.1632 -1.2508
 4088SOL     OW23899   3.733   3.932   5.025 -0.2432 -0.4452 -0.6044
 4088SOL    HW123900   3.645   3.954   5.055 -0.0316  0.0138 -0.3226
 4088SOL    HW223901   3.752   3.843   5.054 -0.9778 -0.6522 -0.7645
 4089SOL     OW23902   3.341   1.682   7.994 -0.0199 -0.2730 -0.1135
 4089SOL    HW123903   3.329   1.706   7.902  2.0435 -2.0602 -0.8401
 4089SOL    HW223904   3.281   1.608   7.987 -0.4093  0.2057 -1.8588
 4090SOL     OW23905   3.797   2.725   6.655  0.5017 -0.4888  0.5016
 4090SOL    HW123906   3.872   2.729   6.715  1.4924  0.5885 -0.7916
 4090SOL    HW223907   3.841   2.701   6.573 -0.6845  0.3588 -0.3858
 4091SOL     OW23908   1.446   2.932   8.579 -0.5434  0.5510 -0.2318
 4091SOL    HW123909   1.366   2.985   8.579 -0.0849  1.2414 -0.8744
 4091SOL    HW223910   1.468   2.925   8.486 -0.8182  0.7504 -0.3128
 4092SOL     OW23911   3.688   0.362   9.398  0.0677 -0.0101 -0.0429
 4092SOL    HW123912   3.700   0.273   9.365  2.9983  1.2554 -2.3188
 4092SOL    HW223913   3.658   0.398   9.315  2.3984  1.8400 -0.0642
 4093SOL     OW23914   2.054   2.854  15.216 -0.0622 -0.2723 -0.1913
 4093SOL    HW123915   2.132   2.909  15.209  0.0912 -0.5488 -0.7117
 4093SOL    HW223916   2.065   2.805  15.297 -0.1279  0.4194  0.2373
 4094SOL     OW23917   4.555   1.105   0.403  0.7767 -0.4357 -0.2326
 4094SOL    HW123918   4.537   1.017   0.369 -0.3601 -0.0278 -0.6736
 4094SOL    HW223919   4.476   1.119   0.455  0.6071  0.8363 -0.8064
 4095SOL     OW23920   2.957   3.284  12.773 -0.6901  0.0539 -0.4047
 4095SOL    HW123921   2.935   3.281  12.680 -0.2700 -2.1665 -0.4236
 4095SOL    HW223922   2.913   3.367  12.795  1.0068  0.4535  1.4697
 4096SOL     OW23923   1.567   4.157   3.370  0.2306 -0.3073  0.5962
 4096SOL    HW123924   1.621   4.083   3.397  1.2397  0.3922  0.5361
 4096SOL    HW223925   1.483   4.114   3.362  0.4379 -0.3921 -1.1092
 4097SOL     OW23926   2.250   1.182   0.175  0.0216  0.9787  0.0529
 4097SOL    HW123927   2.193   1.219   0.108 -0.1216  0.1264 -0.3043
 4097SOL    HW223928   2.179   1.162   0.236  0.8188  1.0204  0.9924
 4098SOL     OW23929   1.924   0.498   4.438 -0.2233  0.2912 -0.2755
 4098SOL    HW123930   1.866   0.574   4.433 -1.4573 -0.6064  0.0243
 4098SOL    HW223931   2.000   0.531   4.486 -0.9474  1.8829 -0.2090
 4099SOL     OW23932   3.693   1.182   6.984 -0.0486 -0.5738 -0.2622
 4099SOL    HW123933   3.598   1.188   6.972 -0.0068 -3.6577 -2.0993
 4099SOL    HW223934   3.722   1.194   6.894 -0.3158 -0.7859 -0.3753
 4100SOL     OW23935   3.928   3.125   7.782  0.3390  0.4023  0.3255
 4100SOL    HW123936   3.999   3.090   7.728 -0.9259  0.8078 -1.6088
 4100SOL    HW223937   3.905   3.208   7.741  0.8022  1.9647  3.2670
 4101SOL     OW23938   1.092   2.820   5.147  0.1819 -0.0842 -0.3751
 4101SOL    HW123939   1.188   2.824   5.150  0.1209  0.3490  0.7894
 4101SOL    HW223940   1.083   2.809   5.052 -1.2968  0.3294 -0.2850
 4102SOL     OW23941   4.184   3.912   4.675 -0.6520  0.0802  0.5018
 4102SOL    HW123942   4.249   3.917   4.745 -0.9053  0.7489  0.6990
 4102SOL    HW223943   4.137   3.995   4.686  0.4557  0.4869  2.0437
 4103SOL     OW23944   0.430   0.831   6.950  0.0528 -0.0785  0.0190
 4103SOL    HW123945   0.396   0.917   6.977 -0.4863 -0.9423  2.0683
 4103SOL    HW223946   0.524   0.851   6.943 -0.0636 -0.0093 -1.2523
 4104SOL     OW23947   2.839   2.511   2.097 -0.1772  0.7459  0.3383
 4104SOL    HW123948   2.768   2.546   2.044 -0.8669  0.6137  1.1813
 4104SOL    HW223949   2.821   2.536   2.188 -0.7598 -1.0321  0.6949
 4105SOL     OW23950   3.122   1.889  10.329 -0.3715 -0.3990 -0.1829
 4105SOL    HW123951   3.152   1.959  10.271  1.4847 -1.7302 -0.8445
 4105SOL    HW223952   3.037   1.873  10.288 -0.4573 -1.5859  0.4668
 4106SOL     OW23953   0.474   1.502   5.635  0.2657  0.2174 -0.1428
 4106SOL    HW123954   0.541   1.497   5.567 -0.1920 -1.0542 -0.4918
 4106SOL    HW223955   0.517   1.450   5.703 -1.7240 -2.8130 -1.2114
 4107SOL     OW23956   0.853   1.158   6.340 -0.3103  0.4183  0.1838
 4107SOL    HW123957   0.927   1.147   6.280  0.3890  0.0779  1.0982
 4107SOL    HW223958   0.786   1.111   6.290  1.0153 -1.5672  0.2519
 4108SOL     OW23959   4.657   1.514   6.232  0.1814 -0.3062  0.4902
 4108SOL    HW123960   4.717   1.440   6.242 -0.8130 -0.9136  1.9325
 4108SOL    HW223961   4.652   1.545   6.322 -1.1382 -0.9271  0.6196
 4109SOL     OW23962   4.719   1.682  12.158  0.7687  0.5177  0.1103
 4109SOL    HW123963   4.705   1.588  12.171 -1.7090  0.7729 -0.7482
 4109SOL    HW223964   0.075   1.693  12.188  1.1751 -0.2462 -0.8071
 4110SOL     OW23965   3.273   2.306  16.848  0.1458  0.9507  0.0122
 4110SOL    HW123966   3.200   2.302  16.787 -1.3070 -0.9931  1.8738
 4110SOL    HW223967   3.304   2.217  16.861 -3.2897  0.0062  1.6731
 4111SOL     OW23968   1.678   4.062   5.635  0.4580 -0.0814  0.3440
 4111SOL    HW123969   1.656   4.037   5.725  0.6277 -1.3312  0.0297
 4111SOL    HW223970   1.705   4.154   5.641  2.0551 -0.4734 -0.7892
 4112SOL     OW23971   3.587   1.630  10.266 -0.0298  0.8477 -0.2003
 4112SOL    HW123972   3.582   1.717  10.227  1.6361  0.4097 -1.4048
 4112SOL    HW223973   3.674   1.605  10.234 -0.0453  1.7245 -0.9307
 4113SOL     OW23974   1.789   4.558   7.776 -0.2322  0.3116 -0.2142
 4113SOL    HW123975   1.858   4.499   7.806 -0.9093  0.8046  2.3017
 4113SOL    HW223976   1.716   4.526   7.830  0.3005 -1.3495 -0.4646
 4114SOL     OW23977   0.045   2.208   2.093  0.0618 -0.9553  0.4740
 4114SOL    HW123978   0.028   2.158   2.013 -2.1901 -1.2808  1.1470
 4114SOL    HW223979   0.141   2.210   2.093 -0.0404  3.7012 -0.3809
 4115SOL     OW23980   1.900   0.961   6.448  0.0130 -0.1563 -0.7038
 4115SOL    HW123981   1.913   0.885   6.505  2.4614  1.0559  0.3773
 4115SOL    HW223982   1.980   0.962   6.395 -0.2438  1.8433 -1.0502
 4116SOL     OW23983   3.390   0.217   2.844  0.3368 -0.3915 -0.2473
 4116SOL    HW123984   3.303   0.257   2.846  1.5306  2.0573  2.1375
 4116SOL    HW223985   3.390   0.180   2.932  2.1041 -2.8765 -1.2964
 4117SOL     OW23986   0.284   3.793   6.199 -0.2625  0.3124  0.6630
 4117SOL    HW123987   0.229   3.804   6.122  0.3915 -1.5727 -0.0626
 4117SOL    HW223988   0.264   3.872   6.250 -0.0461 -0.7868  2.4465
 4118SOL     OW23989   0.050   0.455   7.728 -0.0725 -0.3195  0.9125
 4118SOL    HW123990   0.120   0.498   7.678 -1.2048 -0.0026 -0.4041
 4118SOL    HW223991   0.026   0.378   7.676  0.5397 -1.1379  1.8280
 4119SOL     OW23992   4.235   0.352  10.759  0.5102 -0.1998  0.1795
 4119SOL    HW123993   4.302   0.347  10.827 -2.0452 -2.5213  2.5431
 4119SOL    HW223994   4.274   0.283  10.704  0.7346 -0.5439  0.7636
 4120SOL     OW23995   3.782   4.395  16.665  0.0948  0.1773 -0.1534
 4120SOL    HW123996   3.699   4.350  16.681  0.0321  0.8966  1.5425
 4120SOL    HW223997   3.782   4.390  16.570 -0.1003 -1.8005 -0.0394
 4121SOL     OW23998   1.471   1.468   8.465 -0.4297 -0.3540 -0.2794
 4121SOL    HW123999   1.564   1.486   8.480 -0.5154 -0.1783  0.0316
 4121SOL    HW224000   1.439   1.510   8.545  0.1321 -0.9989  0.2875
 4122SOL     OW24001   2.353   2.960   8.251  0.4571  0.5298  0.5513
 4122SOL    HW124002   2.344   3.021   8.324 -0.6303  0.0403  0.8219
 4122SOL    HW224003   2.403   3.018   8.193 -0.3811  0.6276 -0.0778
 4123SOL     OW24004   4.518   3.946   6.471 -0.4227 -0.2080  0.1961
 4123SOL    HW124005   4.504   3.854   6.450 -0.4126 -0.6273  2.0726
 4123SOL    HW224006   4.428   3.979   6.472 -0.6006 -0.6464 -0.8333
 4124SOL     OW24007   1.072   2.489   8.821  0.1475  0.6398  0.3107
 4124SOL    HW124008   1.074   2.397   8.798  1.3022  0.8236 -0.3490
 4124SOL    HW224009   1.158   2.521   8.848  1.4402 -1.1801 -1.7324
 4125SOL     OW24010   3.268   3.580   8.325 -0.2776  0.0038 -0.5122
 4125SOL    HW124011   3.191   3.534   8.293 -0.7882  2.4599 -2.8663
 4125SOL    HW224012   3.319   3.504   8.351  1.3268  1.6340  1.0848
 4126SOL     OW24013   0.550   1.879   8.933 -0.0860 -0.3889 -0.3783
 4126SOL    HW124014   0.641   1.907   8.934 -0.6173  1.2745  1.0319
 4126SOL    HW224015   0.512   1.965   8.953  0.5425 -0.6177  1.7102
 4127SOL     OW24016   2.646   2.146   7.176 -0.0275 -0.6120 -0.4086
 4127SOL    HW124017   2.588   2.145   7.253  2.8744 -1.9604  1.7694
 4127SOL    HW224018   2.695   2.228   7.186 -1.2872  0.5749 -4.1131
 4128SOL     OW24019   1.302   2.465  10.283  0.0780 -0.9377 -0.3233
 4128SOL    HW124020   1.248   2.476  10.362 -1.1936 -0.4496 -1.2753
 4128SOL    HW224021   1.303   2.369  10.289  1.4889 -0.8470  0.9859
 4129SOL     OW24022   3.317   3.317   1.748 -0.1690  0.0020  0.3950
 4129SOL    HW124023   3.232   3.359   1.758  0.7622  2.0369 -0.2021
 4129SOL    HW224024   3.341   3.340   1.658 -2.0204  0.1340 -0.0733
 4130SOL     OW24025   4.142   1.479   8.061 -0.1408  0.4552 -0.1335
 4130SOL    HW124026   4.156   1.567   8.026 -0.9220 -0.4560 -2.7380
 4130SOL    HW224027   4.159   1.495   8.154 -2.5761 -0.1932  0.4141
 4131SOL     OW24028   1.858   3.800   6.085 -0.6310 -0.0018  0.1906
 4131SOL    HW124029   1.805   3.878   6.069  2.3680  1.3374 -3.1176
 4131SOL    HW224030   1.937   3.826   6.132 -0.0701 -0.4571 -0.5190
 4132SOL     OW24031   1.315   2.213   8.738 -0.3771  0.2151  0.6922
 4132SOL    HW124032   1.303   2.231   8.645  1.2450  0.4205  0.5074
 4132SOL    HW224033   1.339   2.300   8.771 -1.5815  1.1606 -0.9451
 4133SOL     OW24034   4.333   2.489   3.929  0.1875  0.2045  0.7894
 4133SOL    HW124035   4.323   2.573   3.974  0.0095 -0.4851  2.0193
 4133SOL    HW224036   4.243   2.469   3.903  0.2786  1.2231 -0.3129
 4134SOL     OW24037   3.484   0.064   8.578  0.2016 -0.0725 -0.0324
 4134SOL    HW124038   3.567   0.111   8.576 -0.4569  1.0588 -0.6632
 4134SOL    HW224039   3.469   0.058   8.672 -2.5004 -0.1888 -0.4757
 4135SOL     OW24040   1.190   1.777  12.311 -0.9434  0.0537 -0.2224
 4135SOL    HW124041   1.106   1.822  12.301 -0.4833  1.1297  0.8590
 4135SOL    HW224042   1.224   1.817  12.390 -1.9485 -1.3503  0.9143
 4136SOL     OW24043   3.482   4.383   1.774  0.2348  0.1246  0.1519
 4136SOL    HW124044   3.452   4.395   1.864  0.3318 -0.9632  0.3300
 4136SOL    HW224045   3.430   4.449   1.731  0.1379  0.2145  0.4077
 4137SOL     OW24046   0.776   3.928   0.913  0.1813  0.7874  0.0297
 4137SOL    HW124047   0.802   3.896   0.826 -0.1461  1.1403 -0.2027
 4137SOL    HW224048   0.744   3.844   0.945  1.1952 -0.4152 -2.0835
 4138SOL     OW24049   2.677   3.991   6.179  0.1008 -0.1438  0.2095
 4138SOL    HW124050   2.722   4.032   6.253  1.5462  0.1703 -0.8455
 4138SOL    HW224051   2.630   4.063   6.137 -1.6862  0.6418  3.5926
 4139SOL     OW24052   4.248   3.178  15.412  0.5509 -0.3527 -0.3000
 4139SOL    HW124053   4.172   3.187  15.353  0.9657 -0.5193 -0.8519
 4139SOL    HW224054   4.220   3.244  15.476  0.7259 -0.3921 -0.1839
 4140SOL     OW24055   2.324   2.092   3.336  0.5129 -0.2419  0.4046
 4140SOL    HW124056   2.385   2.084   3.409  0.6492  0.1018  0.3254
 4140SOL    HW224057   2.238   2.106   3.376 -0.3661 -1.5596 -0.9983
 4141SOL     OW24058   1.904   2.806   8.841  0.1816  0.0754  0.3037
 4141SOL    HW124059   1.847   2.736   8.871  0.3208 -1.2124 -2.3887
 4141SOL    HW224060   1.966   2.817   8.913  1.6805  1.9487 -1.2782
 4142SOL     OW24061   3.986   4.178   5.657  0.5905 -0.1085 -0.5696
 4142SOL    HW124062   4.003   4.198   5.750  0.5656 -0.9882 -0.3751
 4142SOL    HW224063   3.944   4.092   5.666 -0.2648  0.3106 -0.6096
 4143SOL     OW24064   1.850   4.353   0.942  0.1742 -0.5094  0.6092
 4143SOL    HW124065   1.922   4.308   0.986  1.9501  0.6427 -1.1280
 4143SOL    HW224066   1.874   4.445   0.940  0.1657 -0.5363 -1.0572
 4144SOL     OW24067   2.668   4.669   4.324  0.6438  0.0397  0.1353
 4144SOL    HW124068   2.673   4.658   4.229  1.3366 -0.1495  0.1921
 4144SOL    HW224069   2.585   4.712   4.343  1.2426  1.5723 -0.7029
 4145SOL     OW24070   3.977   1.456   3.665 -0.2943 -0.6592  0.3682
 4145SOL    HW124071   4.046   1.395   3.690  0.2232 -0.0477  0.4466
 4145SOL    HW224072   4.012   1.545   3.677 -0.6641 -1.0241  3.9524
 4146SOL     OW24073   4.691   1.488   7.382  0.1499  0.1984  0.0115
 4146SOL    HW124074   4.603   1.499   7.345 -0.3260  0.3308  1.1760
 4146SOL    HW224075   4.678   1.420   7.448  0.1025  2.1065  1.9773
 4147SOL     OW24076   2.916   0.645  17.458  0.1291 -0.1166 -0.1473
 4147SOL    HW124077   2.899   0.735  17.484  1.9205  0.9077 -2.4383
 4147SOL    HW224078   2.831   0.602  17.471 -1.3109  3.0565  0.7716
 4148SOL     OW24079   1.822   2.909  11.915  0.0990 -0.0843 -0.0521
 4148SOL    HW124080   1.734   2.923  11.880 -0.3277  0.2232  1.1094
 4148SOL    HW224081   1.803   2.899  12.009 -2.2002 -0.0156 -0.4939
 4149SOL     OW24082   1.077   3.887  13.810 -0.2572 -0.2726  0.4585
 4149SOL    HW124083   1.163   3.853  13.833 -0.1668 -0.8852 -0.7909
 4149SOL    HW224084   1.062   3.840  13.728  0.9489 -0.3142  0.2628
 4150SOL     OW24085   3.871   2.167   5.872  0.1231 -0.2252 -0.3709
 4150SOL    HW124086   3.961   2.200   5.879  0.5513 -1.1940 -1.2044
 4150SOL    HW224087   3.863   2.125   5.958 -1.4081 -1.6019 -1.1933
 4151SOL     OW24088   4.359   1.057  15.114 -0.0208 -0.3409  0.9208
 4151SOL    HW124089   4.321   1.086  15.197  1.5054 -0.6728  1.7323
 4151SOL    HW224090   4.279   1.021  15.075 -0.0258  0.3337  0.3168
 4152SOL     OW24091   2.232   4.227   4.511 -0.1190 -0.0239  0.3796
 4152SOL    HW124092   2.143   4.222   4.548 -0.5129 -2.2617 -0.8908
 4152SOL    HW224093   2.281   4.255   4.589  0.4271 -0.1190  0.0683
 4153SOL     OW24094   0.166   1.799   5.324  0.0784  0.2478  0.1741
 4153SOL    HW124095   0.199   1.732   5.385  2.1395 -0.1315 -1.3592
 4153SOL    HW224096   0.078   1.812   5.358 -0.2897 -1.6808 -0.0433
 4154SOL     OW24097   3.440   0.693   2.723 -0.0755  0.5408  0.2802
 4154SOL    HW124098   3.493   0.636   2.666 -0.2470  0.2960  0.3649
 4154SOL    HW224099   3.445   0.771   2.667 -0.2514  0.5721  0.3097
 4155SOL     OW24100   0.646   0.540   6.779  0.2267  0.1609 -0.6605
 4155SOL    HW124101   0.567   0.533   6.832  0.4524 -0.0890 -0.3572
 4155SOL    HW224102   0.610   0.591   6.706  3.9857  0.1950 -2.5059
 4156SOL     OW24103   1.781   0.680  17.691  0.4063  0.0906 -0.5680
 4156SOL    HW124104   1.780   0.593  17.733  0.4326 -0.3130 -1.4076
 4156SOL    HW224105   1.856   0.721  17.732  2.0840  0.1666 -3.7636
 4157SOL     OW24106   2.655   4.595  13.050  0.1398  0.0172  0.5201
 4157SOL    HW124107   2.653   4.500  13.064  2.6657  0.2487  2.5530
 4157SOL    HW224108   2.612   4.627  13.130  1.0294  1.1234  0.5615
 4158SOL     OW24109   0.337   2.177   3.646 -0.1647  0.3546  0.2854
 4158SOL    HW124110   0.284   2.234   3.700  0.3538  0.5228  0.6221
 4158SOL    HW224111   0.355   2.112   3.714  1.3784  0.2233 -0.2438
 4159SOL     OW24112   2.149   0.718   0.609 -0.6024 -0.2743  0.2272
 4159SOL    HW124113   2.159   0.812   0.623 -0.8435 -0.3045  0.5876
 4159SOL    HW224114   2.055   0.706   0.619 -0.2782 -2.3111  0.8956
 4160SOL     OW24115   3.082   2.201   4.947 -0.6875 -0.4987  0.6238
 4160SOL    HW124116   3.158   2.230   4.997 -0.5022  0.8884 -0.4568
 4160SOL    HW224117   3.046   2.288   4.928  1.1820 -0.3997 -2.3633
 4161SOL     OW24118   3.033   1.176   5.110  0.4218 -0.0215  0.0746
 4161SOL    HW124119   3.032   1.271   5.118  1.3350  0.0327 -0.5175
 4161SOL    HW224120   3.083   1.163   5.030  1.0474 -0.4726  0.5348
 4162SOL     OW24121   2.243   1.215  11.052 -0.1445  0.2815 -0.1387
 4162SOL    HW124122   2.293   1.153  10.999  1.0558  0.8008  0.3876
 4162SOL    HW224123   2.152   1.189  11.035  0.0213  1.5248 -2.9037
 4163SOL     OW24124   0.789   0.958  17.493 -0.1275  0.2587 -0.2672
 4163SOL    HW124125   0.872   0.917  17.470  0.1719  0.4753  0.4008
 4163SOL    HW224126   0.769   0.930  17.583 -3.6712  0.6679 -0.9211
 4164SOL     OW24127   0.890   2.205   7.437 -0.1908 -0.2208 -0.0588
 4164SOL    HW124128   0.843   2.126   7.410 -1.2429  0.4276 -0.1450
 4164SOL    HW224129   0.869   2.212   7.531 -2.8289  2.1937 -0.8016
 4165SOL     OW24130   2.234   4.119   2.200  0.2363 -0.0510 -0.0279
 4165SOL    HW124131   2.156   4.167   2.230 -0.0002  0.2652 -1.1461
 4165SOL    HW224132   2.205   4.030   2.181  0.4237  0.1351 -1.1836
 4166SOL     OW24133   2.643   1.499   5.999 -0.0098 -0.4059 -0.4963
 4166SOL    HW124134   2.636   1.559   6.074  1.0111 -1.3458  0.3491
 4166SOL    HW224135   2.674   1.421   6.044 -1.9100 -0.0648  1.3736
 4167SOL     OW24136   3.722   1.600   2.372 -0.3815 -0.0640  0.5514
 4167SOL    HW124137   3.637   1.644   2.382  0.4597  1.6837 -0.0718
 4167SOL    HW224138   3.757   1.652   2.299  0.4401  0.5906  1.4156
 4168SOL     OW24139   2.063   0.358  16.061 -0.5868  0.0076 -0.1523
 4168SOL    HW124140   2.014   0.435  16.090 -1.9348  0.3215 -3.2803
 4168SOL    HW224141   2.130   0.405  16.011 -0.4774  2.5317  2.3536
 4169SOL     OW24142   3.834   0.167  12.063 -0.4389  0.0802  0.0165
 4169SOL    HW124143   3.781   0.216  12.126 -0.6127 -0.7135  0.4781
 4169SOL    HW224144   3.916   0.217  12.058  0.6486 -1.5622  1.4061
 4170SOL     OW24145   0.574   1.822   0.777 -0.0920  0.6682 -0.1162
 4170SOL    HW124146   0.633   1.816   0.853  0.9427 -1.3720 -1.0807
 4170SOL    HW224147   0.613   1.897   0.734  0.3440  0.8553  0.5936
 4171SOL     OW24148   0.135   0.488   0.364  0.1126  0.9104 -0.3011
 4171SOL    HW124149   0.132   0.524   0.275 -1.9032 -4.7161 -2.5253
 4171SOL    HW224150   0.186   0.408   0.355 -1.1214  0.1665 -0.7731
 4172SOL     OW24151   0.154   1.682   6.997  0.1812 -0.1347 -0.3074
 4172SOL    HW124152   0.073   1.633   6.990 -0.2110  0.0575  3.0069
 4172SOL    HW224153   0.214   1.641   6.935  4.1231  0.5182  3.0842
 4173SOL     OW24154   0.987   3.837  16.261  0.7189 -0.0654 -0.4563
 4173SOL    HW124155   0.934   3.915  16.275 -0.7739 -1.6928  2.9160
 4173SOL    HW224156   0.993   3.845  16.166 -1.7359  1.0301 -0.5015
 4174SOL     OW24157   3.402   0.565   5.115 -0.1333 -0.3994  0.2732
 4174SOL    HW124158   3.375   0.523   5.033  1.9797 -1.9038  0.3579
 4174SOL    HW224159   3.417   0.650   5.075  0.8848 -0.6985  0.0381
 4175SOL     OW24160   4.313   4.150   8.173  0.6338 -0.1071 -0.1321
 4175SOL    HW124161   4.306   4.107   8.087  1.5028 -2.2594  0.8707
 4175SOL    HW224162   4.231   4.197   8.188  0.3697 -0.7605  0.4762
 4176SOL     OW24163   0.213   2.792  13.998  0.3753 -0.2419  0.1303
 4176SOL    HW124164   0.236   2.821  13.909  2.0621  0.1222  0.6865
 4176SOL    HW224165   0.155   2.866  14.021 -1.1890 -1.6715  0.7733
 4177SOL     OW24166   0.520   2.084  16.631  0.0342  0.0671 -0.3794
 4177SOL    HW124167   0.465   2.057  16.557 -0.2541  0.6768 -0.3832
 4177SOL    HW224168   0.600   2.097  16.580 -0.9780 -1.5765 -2.3890
 4178SOL     OW24169   3.345   1.729  11.692 -0.4397 -0.1992 -0.2638
 4178SOL    HW124170   3.407   1.730  11.620  0.0964 -3.0319  0.1359
 4178SOL    HW224171   3.392   1.752  11.772 -0.0723  0.9437 -0.8082
 4179SOL     OW24172   1.041   4.626   6.901 -0.3614 -0.4772 -0.1837
 4179SOL    HW124173   0.963   4.662   6.859 -1.5410 -0.6550  1.8491
 4179SOL    HW224174   1.110   4.666   6.848  0.5968 -1.1577  0.5392
 4180SOL     OW24175   1.393   0.128   7.377  0.7214  0.5516 -0.0251
 4180SOL    HW124176   1.394   0.141   7.472 -2.2893 -0.7725  0.2099
 4180SOL    HW224177   1.451   0.052   7.372  0.9892  0.6263  2.0651
 4181SOL     OW24178   3.785   0.181   3.434 -0.0354  0.4140  0.2925
 4181SOL    HW124179   3.822   0.182   3.522  0.0908  0.7249  0.2365
 4181SOL    HW224180   3.759   0.090   3.425  0.4454  0.1976  1.0744
 4182SOL     OW24181   4.632   2.463   5.380  0.5387  0.4575  0.8189
 4182SOL    HW124182   4.612   2.370   5.390 -1.2105  0.7134 -0.3846
 4182SOL    HW224183   4.558   2.498   5.430  0.9989  0.0316  1.7987
 4183SOL     OW24184   3.635   4.727   7.846 -0.9145 -0.1681 -0.5597
 4183SOL    HW124185   3.610   0.079   7.812  0.5215  0.2937 -0.4548
 4183SOL    HW224186   3.720   0.013   7.885 -0.6440 -1.2472 -0.5756
 4184SOL     OW24187   1.680   1.775   3.796  0.0128 -0.2393  0.1561
 4184SOL    HW124188   1.755   1.765   3.738 -0.2500 -0.0905 -0.2064
 4184SOL    HW224189   1.687   1.699   3.854  2.5735  0.0972  0.2653
 4185SOL     OW24190   1.902   1.920  11.168  0.0914  0.2150  0.8034
 4185SOL    HW124191   1.898   2.008  11.203  0.1520 -0.1913  1.8278
 4185SOL    HW224192   1.818   1.880  11.192 -0.6526  1.9690  1.0861
 4186SOL     OW24193   3.624   0.206   2.105 -0.0496  0.0506 -0.5784
 4186SOL    HW124194   3.699   0.263   2.087  0.7860 -0.4099  1.5268
 4186SOL    HW224195   3.547   0.261   2.096 -1.2981 -1.8830 -1.7251
 4187SOL     OW24196   2.226   4.046  13.628 -0.2092 -0.1715 -0.3661
 4187SOL    HW124197   2.281   4.031  13.551  1.3183  1.0408  0.4925
 4187SOL    HW224198   2.147   4.069  13.578 -1.3305  0.7464  1.8285
 4188SOL     OW24199   2.417   4.280  10.562 -0.3641  0.9436 -0.3159
 4188SOL    HW124200   2.479   4.226  10.611 -0.7940  2.9296  2.4579
 4188SOL    HW224201   2.336   4.230  10.574  0.0483  0.2325 -0.4680
 4189SOL     OW24202   4.031   1.430   5.321  0.2267  0.5604  0.3224
 4189SOL    HW124203   3.940   1.428   5.291  0.2012 -0.9768  0.4921
 4189SOL    HW224204   4.052   1.522   5.307 -1.1487  0.7258 -0.5953
 4190SOL     OW24205   4.323   2.978   3.686  0.1791  0.0037  0.2134
 4190SOL    HW124206   4.418   2.987   3.681  0.3506 -2.0222 -0.1466
 4190SOL    HW224207   4.319   2.913   3.756  1.1945 -0.7475 -0.4231
 4191SOL     OW24208   3.791   1.279   7.630  0.0933 -0.1442  0.0183
 4191SOL    HW124209   3.772   1.372   7.641  0.1143 -0.2860  1.2455
 4191SOL    HW224210   3.813   1.291   7.538  3.4502 -0.6447  0.7503
 4192SOL     OW24211   0.128   2.412   2.572  0.1998 -0.2230 -0.7948
 4192SOL    HW124212   0.179   2.490   2.594  0.3840 -0.4670 -0.3503
 4192SOL    HW224213   0.065   2.452   2.514 -0.3579 -1.3055 -0.9385
 4193SOL     OW24214   1.126   1.415   6.079  0.0601  0.0466 -0.0487
 4193SOL    HW124215   1.184   1.491   6.076  1.0734 -0.7292 -0.2333
 4193SOL    HW224216   1.177   1.344   6.040 -1.3330 -1.3815  0.7252
 4194SOL     OW24217   3.059   3.044   3.617 -0.3863 -0.2277  0.1569
 4194SOL    HW124218   2.993   3.063   3.550  0.1982  1.4347  0.0667
 4194SOL    HW224219   2.999   3.028   3.690  2.4474 -0.8839  2.3214
 4195SOL     OW24220   4.203   0.869   0.844  0.3058  0.4286 -0.2137
 4195SOL    HW124221   4.219   0.791   0.897  1.6945  1.4909  0.9279
 4195SOL    HW224222   4.119   0.905   0.872  0.9320 -0.6963  3.0628
 4196SOL     OW24223   4.703   3.217   5.697  0.3117  0.3704 -0.5142
 4196SOL    HW124224   0.058   3.191   5.679  0.1652 -0.9617  0.6830
 4196SOL    HW224225   4.693   3.222   5.602  1.8049  0.2796 -0.6662
 4197SOL     OW24226   0.968   4.673   8.771  0.1837 -0.3955  0.1054
 4197SOL    HW124227   0.907   0.013   8.773 -0.2571 -0.7447 -0.2964
 4197SOL    HW224228   0.914   4.621   8.711 -0.4231  1.0706 -0.6266
 4198SOL     OW24229   1.161   1.287   3.825  0.0629 -0.1020  0.2076
 4198SOL    HW124230   1.132   1.316   3.739  0.8879  0.5522  0.1528
 4198SOL    HW224231   1.092   1.224   3.845  0.1834 -0.4490 -0.4695
 4199SOL     OW24232   0.780   1.342  17.686 -0.0916  0.2892  0.7142
 4199SOL    HW124233   0.765   1.318   0.040  1.2085 -0.4138  0.7525
 4199SOL    HW224234   0.706   1.299  17.643  0.4217  0.4581 -0.3472
 4200SOL     OW24235   3.344   1.458   6.027  0.3299  0.2977 -0.0393
 4200SOL    HW124236   3.409   1.474   5.959  0.6960  0.6199  0.3864
 4200SOL    HW224237   3.397   1.451   6.106  0.0916 -3.4234 -0.2269
 4201SOL     OW24238   2.768   1.754   4.780  0.3600 -0.6632  0.2888
 4201SOL    HW124239   2.833   1.814   4.816  0.6727  0.2456 -1.7856
 4201SOL    HW224240   2.692   1.786   4.827  0.0031 -1.9085  0.5757
 4202SOL     OW24241   0.531   2.192  10.962  0.3556  0.1425 -0.3090
 4202SOL    HW124242   0.551   2.271  11.012  0.8527 -1.4209  1.9375
 4202SOL    HW224243   0.607   2.141  10.989 -0.5137 -1.6298 -1.1573
 4203SOL     OW24244   1.210   0.463   5.475 -0.3599  0.2793  0.3395
 4203SOL    HW124245   1.132   0.408   5.484 -0.7039  0.4048 -1.8285
 4203SOL    HW224246   1.217   0.490   5.567 -1.5541  0.9513  0.2346
 4204SOL     OW24247   1.133   4.494  16.973  0.8324  0.1173 -0.2600
 4204SOL    HW124248   1.128   4.570  17.031  2.8085  0.1741 -0.1666
 4204SOL    HW224249   1.073   4.510  16.901 -1.4774  1.6087  2.0043
 4205SOL     OW24250   3.236   0.531  16.848 -0.2258  0.3456  0.0670
 4205SOL    HW124251   3.312   0.522  16.905  0.2483  0.1498 -0.5877
 4205SOL    HW224252   3.211   0.441  16.824  1.2355  0.3860 -1.5761
 4206SOL     OW24253   4.665   2.959   2.232  0.3246 -0.4021 -0.3720
 4206SOL    HW124254   0.002   3.008   2.273 -1.3568  0.3572  1.6588
 4206SOL    HW224255   4.697   2.899   2.164  1.0347 -0.2746 -0.1505
 4207SOL     OW24256   3.299   0.350   5.957 -0.2540  0.0776 -0.1947
 4207SOL    HW124257   3.300   0.272   6.014 -1.2083  0.3382  0.1869
 4207SOL    HW224258   3.228   0.404   5.992 -0.6411  0.3715 -1.4381
 4208SOL     OW24259   3.178   3.321   5.822 -0.1391 -0.0454 -0.1986
 4208SOL    HW124260   3.186   3.363   5.908 -2.9155 -0.1978  0.1536
 4208SOL    HW224261   3.223   3.243   5.852  2.1169  0.7931 -1.4472
 4209SOL     OW24262   0.579   3.961   8.207 -0.1333 -0.4477 -0.3073
 4209SOL    HW124263   0.559   3.953   8.300 -3.1358  0.0822 -0.9125
 4209SOL    HW224264   0.560   4.052   8.183  0.3252 -0.5175 -0.9336
 4210SOL     OW24265   0.538   2.635   1.983  0.0836  0.2553 -0.0056
 4210SOL    HW124266   0.559   2.629   1.890 -0.4501 -0.1573 -0.0972
 4210SOL    HW224267   0.501   2.548   1.997 -0.4984 -0.0307 -3.4638
 4211SOL     OW24268   1.954   3.192   8.133 -0.5971  0.4021 -0.0479
 4211SOL    HW124269   1.997   3.162   8.213 -0.6394 -0.8248 -0.4712
 4211SOL    HW224270   2.032   3.191   8.077 -0.2491 -0.4835  0.4525
 4212SOL     OW24271   2.223   0.709   6.152 -0.4918 -0.4310  0.2982
 4212SOL    HW124272   2.181   0.751   6.077  1.1334 -0.9219 -0.8860
 4212SOL    HW224273   2.186   0.621   6.145  1.2738 -1.0923 -0.7305
 4213SOL     OW24274   4.578   3.797  11.213  0.1632 -0.2214 -0.2697
 4213SOL    HW124275   4.631   3.762  11.285 -0.4471  1.5136  1.0183
 4213SOL    HW224276   4.609   3.887  11.212  1.6148 -0.6983  0.5587
 4214SOL     OW24277   2.574   3.808   4.558  0.1874  0.2317 -0.2740
 4214SOL    HW124278   2.668   3.812   4.540 -0.1636 -1.7308 -2.4993
 4214SOL    HW224279   2.557   3.740   4.493  1.3528  0.3816 -0.7347
 4215SOL     OW24280   0.779   1.551   7.365 -0.3915 -0.1065  0.3121
 4215SOL    HW124281   0.694   1.507   7.361 -0.9399  0.9889 -0.1188
 4215SOL    HW224282   0.835   1.479   7.336 -1.7999 -0.7337 -0.8393
 4216SOL     OW24283   1.143   1.969   6.249 -0.4011 -0.3154  0.0558
 4216SOL    HW124284   1.219   2.006   6.204 -1.3711  0.5634 -0.8466
 4216SOL    HW224285   1.174   1.983   6.339 -0.8520  0.4160  0.0973
 4217SOL     OW24286   0.089   1.927   1.424  0.4907  0.0085  0.0131
 4217SOL    HW124287   0.020   1.887   1.371  1.1155  1.8645 -2.2094
 4217SOL    HW224288   0.097   2.008   1.374  0.8248 -0.3875 -0.5835
 4218SOL     OW24289   0.051   2.766   4.410  0.2000  0.1578  0.1945
 4218SOL    HW124290   4.714   2.825   4.435 -0.0175 -0.2001  0.4129
 4218SOL    HW224291   0.031   2.686   4.459 -0.7778  0.9494  1.0754
 4219SOL     OW24292   0.965   1.203   2.642  0.5657 -0.0467 -0.5498
 4219SOL    HW124293   0.938   1.113   2.659 -0.3033  0.0491 -1.3918
 4219SOL    HW224294   1.007   1.223   2.725 -0.7699  1.2115 -0.1887
 4220SOL     OW24295   3.973   3.350  14.686 -0.9246  0.2682  0.0432
 4220SOL    HW124296   4.023   3.279  14.645 -2.9006 -0.7312 -0.6409
 4220SOL    HW224297   4.037   3.420  14.699 -0.4109 -0.0547 -0.7741
 4221SOL     OW24298   4.110   2.370   6.571 -0.4173 -0.1782 -0.0360
 4221SOL    HW124299   4.192   2.410   6.543 -0.1848  1.7438  3.3522
 4221SOL    HW224300   4.129   2.278   6.555 -3.3076 -0.9410  0.7754
 4222SOL     OW24301   2.067   1.680  11.222 -0.1302  0.5736  0.1891
 4222SOL    HW124302   2.111   1.704  11.304 -1.7955  1.2538  0.8893
 4222SOL    HW224303   2.017   1.759  11.200 -1.5956 -0.8682 -1.5609
 4223SOL     OW24304   2.129   4.472   8.040 -0.2471 -0.1330  0.3489
 4223SOL    HW124305   2.170   4.494   8.124 -0.4982 -1.9503  0.9463
 4223SOL    HW224306   2.088   4.550   8.003 -0.0059 -0.2145 -0.0979
 4224SOL     OW24307   0.108   0.325   2.961 -0.6788 -0.2683 -0.2415
 4224SOL    HW124308   0.110   0.351   2.869 -3.7107 -2.0798 -0.8436
 4224SOL    HW224309   0.150   0.401   3.000  0.0111 -1.0156  0.4688
 4225SOL     OW24310   0.551   2.408   6.216 -0.1511  0.0009 -0.0234
 4225SOL    HW124311   0.557   2.312   6.224  2.1788  0.2673  1.2987
 4225SOL    HW224312   0.632   2.448   6.246  0.2493  1.0400 -2.4759
 4226SOL     OW24313   1.691   1.498  15.794  0.7594  0.1026 -0.0597
 4226SOL    HW124314   1.655   1.560  15.730  0.5582  1.2627  1.1585
 4226SOL    HW224315   1.649   1.541  15.868 -1.5234 -1.2674 -0.5615
 4227SOL     OW24316   4.575   1.317   8.198  0.0941  0.5452  0.1619
 4227SOL    HW124317   4.493   1.326   8.247  0.1430  1.0188  0.1596
 4227SOL    HW224318   4.632   1.375   8.249  0.8057 -1.3547  1.5080
 4228SOL     OW24319   4.103   1.723   8.955 -0.0033 -0.4996  0.3642
 4228SOL    HW124320   4.040   1.751   9.022 -0.3766  0.5559 -0.4213
 4228SOL    HW224321   4.098   1.795   8.891 -2.7899 -0.9626  0.0293
 4229SOL     OW24322   4.604   3.825   5.098 -0.2124 -0.0798 -0.0006
 4229SOL    HW124323   4.691   3.833   5.059 -0.0864 -0.7272  0.1434
 4229SOL    HW224324   4.615   3.757   5.164 -0.7850  0.6182  0.8033
 4230SOL     OW24325   3.351   4.033   4.653  0.0129 -0.1010 -0.3666
 4230SOL    HW124326   3.380   4.004   4.567  0.4374 -1.0682  0.1118
 4230SOL    HW224327   3.431   4.057   4.700 -1.3706 -1.2235  2.5323
 4231SOL     OW24328   0.946   4.674   5.016 -0.6694 -0.0575 -0.2824
 4231SOL    HW124329   0.904   0.002   4.956 -0.3903 -1.9495 -2.4414
 4231SOL    HW224330   0.903   4.673   5.102 -0.4296  0.2686 -0.1569
 4232SOL     OW24331   3.126   2.559   8.128 -0.1395  0.2666 -0.4287
 4232SOL    HW124332   3.141   2.510   8.209  0.9435  0.3969 -0.5484
 4232SOL    HW224333   3.096   2.638   8.172  1.0585  0.5979 -0.2074
 4233SOL     OW24334   0.980   1.383   0.500  0.5137 -0.4756 -0.5935
 4233SOL    HW124335   1.057   1.388   0.557 -0.7950  2.1944  0.8909
 4233SOL    HW224336   0.938   1.466   0.523  1.2468 -0.4504  0.6141
 4234SOL     OW24337   2.659   0.502  12.439 -0.2228 -0.2062 -0.1343
 4234SOL    HW124338   2.729   0.567  12.427  0.4069 -0.6623  1.0145
 4234SOL    HW224339   2.708   0.428  12.403 -1.8062 -1.1636 -0.3212
 4235SOL     OW24340   1.959   1.732  15.912  0.6237 -0.4133 -0.7220
 4235SOL    HW124341   2.008   1.701  15.836  3.3155 -0.5409  1.0564
 4235SOL    HW224342   2.027   1.747  15.977 -1.2131  1.3145  0.7762
 4236SOL     OW24343   2.205   2.267  13.501  0.0304 -0.2002 -0.3661
 4236SOL    HW124344   2.169   2.207  13.435 -1.9677  0.5757  0.0215
 4236SOL    HW224345   2.141   2.338  13.495 -2.3221 -2.4776 -2.1062
 4237SOL     OW24346   3.461   0.500   3.589 -0.3058 -0.1410  0.5792
 4237SOL    HW124347   3.527   0.543   3.535 -1.3645 -1.2793 -1.6344
 4237SOL    HW224348   3.406   0.455   3.524 -1.5711  0.9264  0.9148
 4238SOL     OW24349   2.327   3.731   6.119  0.0508 -0.8180 -0.4568
 4238SOL    HW124350   2.418   3.704   6.105  0.7971  2.4153 -1.7661
 4238SOL    HW224351   2.288   3.685   6.045  1.1297 -1.9035 -0.3475
 4239SOL     OW24352   4.662   1.558   3.028  0.1553  0.0326  0.5565
 4239SOL    HW124353   4.670   1.639   3.077 -0.6906 -0.7796  2.0621
 4239SOL    HW224354   4.717   1.500   3.081  0.4837 -1.2512 -1.1891
 4240SOL     OW24355   3.795   2.998   8.438  0.6806 -0.1108 -0.1537
 4240SOL    HW124356   3.816   3.060   8.368  2.2021  0.5447  0.8632
 4240SOL    HW224357   3.789   2.921   8.382 -0.0568  1.5042 -2.2953
 4241SOL     OW24358   4.381   0.878   2.917 -0.3625 -0.1552 -0.5365
 4241SOL    HW124359   4.399   0.842   3.004  0.8729 -2.3002 -1.6824
 4241SOL    HW224360   4.469   0.908   2.893 -0.3285  0.8794  0.9075
 4242SOL     OW24361   0.271   0.616  17.169  0.5844 -0.0743 -0.0966
 4242SOL    HW124362   0.305   0.561  17.098 -1.0320 -3.9211  2.0558
 4242SOL    HW224363   0.351   0.665  17.186 -0.4847  1.2145  1.1419
 4243SOL     OW24364   1.140   1.545   2.844  0.4888 -0.2530  0.3767
 4243SOL    HW124365   1.125   1.596   2.764  0.7420 -1.0311 -0.1563
 4243SOL    HW224366   1.134   1.621   2.902 -0.9903 -1.1143  1.3599
 4244SOL     OW24367   1.903   0.483   2.866  0.9281  0.4638 -0.5532
 4244SOL    HW124368   1.852   0.418   2.818  0.2500  0.3280  0.3541
 4244SOL    HW224369   1.973   0.434   2.910 -0.4344  0.9358  2.1551
 4245SOL     OW24370   1.032   3.508  11.621  0.5096 -0.4234  0.0239
 4245SOL    HW124371   0.994   3.583  11.667 -0.7208 -0.0767 -1.5282
 4245SOL    HW224372   1.119   3.498  11.659 -0.3590 -0.2126  2.0748
 4246SOL     OW24373   3.447   0.216  12.495  0.3909  0.1107 -0.0367
 4246SOL    HW124374   3.531   0.194  12.535  0.9610 -1.6563 -2.2131
 4246SOL    HW224375   3.474   0.304  12.468 -2.5395  0.2746 -2.3782
 4247SOL     OW24376   2.671   0.213   4.046 -0.8658 -0.2135  0.7946
 4247SOL    HW124377   2.675   0.119   4.066  1.4229  0.1253  1.8470
 4247SOL    HW224378   2.591   0.204   3.994  0.1092  1.9011 -1.0611
 4248SOL     OW24379   0.971   2.465   2.926  0.0631 -0.2657  0.3623
 4248SOL    HW124380   0.965   2.405   3.000  0.0347 -0.4656  0.1994
 4248SOL    HW224381   0.928   2.421   2.852 -0.0962 -0.9735  0.8836
 4249SOL     OW24382   0.994   2.676  17.572  0.6143 -0.4692  0.3722
 4249SOL    HW124383   0.957   2.590  17.594  1.7496 -0.4976  2.1305
 4249SOL    HW224384   0.942   2.700  17.495  1.3447  0.3276  0.1351
 4250SOL     OW24385   1.547   1.192   7.479  0.0016 -0.3276  0.2389
 4250SOL    HW124386   1.511   1.269   7.435  3.1573  2.9624  3.3584
 4250SOL    HW224387   1.577   1.145   7.401  0.9112  1.3290 -0.4168
 4251SOL     OW24388   0.403   1.063   6.402 -0.1141  0.5682 -0.0449
 4251SOL    HW124389   0.337   1.133   6.401 -0.6478  0.0657  0.2003
 4251SOL    HW224390   0.352   0.986   6.376 -1.0991  1.3364 -0.4185
 4252SOL     OW24391   2.502   4.366   6.190 -0.2941 -0.6132  0.2780
 4252SOL    HW124392   2.408   4.379   6.176  0.0483  2.1542  0.6538
 4252SOL    HW224393   2.516   4.290   6.133  0.0929 -0.2335 -0.1393
 4253SOL     OW24394   3.929   1.755   6.496 -0.5081 -0.1149  0.4148
 4253SOL    HW124395   3.966   1.690   6.438 -0.9677 -0.1171  0.1246
 4253SOL    HW224396   3.985   1.831   6.478 -0.2196  0.0125  1.8295
 4254SOL     OW24397   3.233   3.040   4.787 -0.0302  0.1668  0.3302
 4254SOL    HW124398   3.251   3.081   4.871 -0.3433  1.1736 -0.0981
 4254SOL    HW224399   3.312   3.070   4.742  0.9683  0.9211  2.6514
 4255SOL     OW24400   0.355   3.935   2.342 -0.4404 -0.5240 -0.0093
 4255SOL    HW124401   0.388   3.885   2.417 -0.1374 -2.5719 -1.5161
 4255SOL    HW224402   0.434   3.963   2.296 -0.1193  0.1287  0.9294
 4256SOL     OW24403   3.617   0.332   1.770 -0.1548  0.1315 -0.5530
 4256SOL    HW124404   3.674   0.278   1.716  0.5929  0.4002 -0.0174
 4256SOL    HW224405   3.532   0.312   1.730 -1.5159 -0.1406  2.4635
 4257SOL     OW24406   2.544   3.576   3.587  0.1429  0.0656 -0.0782
 4257SOL    HW124407   2.531   3.670   3.573 -3.6095 -0.5764 -0.7054
 4257SOL    HW224408   2.638   3.570   3.570 -0.2378 -0.5598 -2.0364
 4258SOL     OW24409   2.900   0.177   2.767 -0.3570  0.0102 -0.0009
 4258SOL    HW124410   2.841   0.208   2.698 -2.7793 -1.1316  1.5537
 4258SOL    HW224411   2.914   0.092   2.725 -3.3234  0.2743 -1.5810
 4259SOL     OW24412   1.028   3.769   7.512 -0.0374  0.4116 -0.0582
 4259SOL    HW124413   0.986   3.855   7.507 -1.4960 -0.3423 -1.0892
 4259SOL    HW224414   1.037   3.732   7.424  0.5047 -0.6078  0.4263
 4260SOL     OW24415   1.470   0.564   9.130  0.0437 -0.3020 -0.3862
 4260SOL    HW124416   1.464   0.482   9.081  0.8423  0.4577 -1.7445
 4260SOL    HW224417   1.531   0.616   9.077  2.8601 -1.4465  1.7490
 4261SOL     OW24418   1.849   0.463  15.856 -0.1929 -0.0514  0.0588
 4261SOL    HW124419   1.917   0.478  15.922  0.3887  0.7480 -0.7204
 4261SOL    HW224420   1.842   0.553  15.823  0.6338  0.2063  0.5849
 4262SOL     OW24421   3.484   4.481   3.792  0.8288  0.0568  0.1588
 4262SOL    HW124422   3.481   4.492   3.697 -2.4085  1.6431  0.4326
 4262SOL    HW224423   3.495   4.386   3.790  2.7430  0.2411  1.8168
 4263SOL     OW24424   4.613   1.413   1.711  0.4579  0.4520 -0.0054
 4263SOL    HW124425   4.656   1.344   1.762 -0.5357  1.1048  1.7271
 4263SOL    HW224426   4.522   1.392   1.730  0.8433 -1.5191 -0.3684
 4264SOL     OW24427   0.429   3.702   5.521 -0.0419 -0.3742  0.0117
 4264SOL    HW124428   0.357   3.698   5.457  0.2463  0.7229 -0.3823
 4264SOL    HW224429   0.439   3.793   5.548 -2.4060 -0.7102  2.0744
 4265SOL     OW24430   2.550   3.960  10.541  0.6242  0.0944 -0.0371
 4265SOL    HW124431   2.460   3.933  10.554  0.5313  0.7405  0.6661
 4265SOL    HW224432   2.554   4.042  10.591  0.8918  0.7541 -1.1327
 4266SOL     OW24433   2.082   1.015   3.300 -0.0587  0.3896 -0.2669
 4266SOL    HW124434   2.061   1.106   3.321  0.7631  0.1819  1.4508
 4266SOL    HW224435   2.057   0.986   3.388 -0.1674  0.9110 -0.1296
 4267SOL     OW24436   2.566   3.221   8.780  0.3635 -0.1237 -0.0090
 4267SOL    HW124437   2.524   3.199   8.696 -0.7092  1.7434  0.0536
 4267SOL    HW224438   2.488   3.250   8.826 -1.3709 -1.3439 -2.1295
 4268SOL     OW24439   1.018   4.434   3.835 -0.0386  0.2682  0.2488
 4268SOL    HW124440   1.053   4.418   3.922 -2.8523 -2.4597  0.8673
 4268SOL    HW224441   1.096   4.429   3.779 -1.3279 -0.6619 -1.4779
 4269SOL     OW24442   3.207   3.326   4.623  0.1997  0.1178  0.0340
 4269SOL    HW124443   3.273   3.385   4.659 -0.3438 -0.1867  1.5326
 4269SOL    HW224444   3.254   3.263   4.569  0.8850 -0.3822  1.2115
 4270SOL     OW24445   3.980   4.620   0.056  0.0813  0.4464 -0.5450
 4270SOL    HW124446   4.036   4.694   0.035  0.2764  0.1817 -0.9658
 4270SOL    HW224447   4.033   4.549   0.019  1.1752  0.4110  1.0567
 4271SOL     OW24448   4.190   0.325   9.975 -0.5276 -0.0575  0.1877
 4271SOL    HW124449   4.249   0.395  10.001 -1.7414  0.6800  0.9462
 4271SOL    HW224450   4.243   0.304   9.898 -0.8509  2.7663 -0.7998
 4272SOL     OW24451   2.145   3.514  12.993 -0.1019 -0.1248  0.2284
 4272SOL    HW124452   2.227   3.533  12.947 -0.8204 -0.8021 -1.3135
 4272SOL    HW224453   2.152   3.593  13.047  0.9175 -0.6682  0.8921
 4273SOL     OW24454   3.040   1.770  13.723  0.2113  0.4410 -0.3513
 4273SOL    HW124455   3.099   1.830  13.769  0.4009 -0.5036  0.6537
 4273SOL    HW224456   2.981   1.836  13.687  0.5064  1.0217  0.2259
 4274SOL     OW24457   2.475   0.789   6.293  0.3973  0.0815  0.3218
 4274SOL    HW124458   2.418   0.751   6.227  0.3793  0.7900 -0.0706
 4274SOL    HW224459   2.475   0.884   6.282 -0.2957 -0.1151 -1.3096
 4275SOL     OW24460   1.251   4.291   5.908 -0.0446 -0.6667  0.2025
 4275SOL    HW124461   1.232   4.218   5.849 -2.2056 -0.8453  1.0908
 4275SOL    HW224462   1.221   4.255   5.992 -0.1821  1.8618  1.2334
 4276SOL     OW24463   0.311   0.462   3.219  0.1684  0.6331 -0.4067
 4276SOL    HW124464   0.355   0.463   3.304 -1.2725 -0.8111  0.3661
 4276SOL    HW224465   0.370   0.405   3.168 -0.2879 -0.3529  0.1583
 4277SOL     OW24466   2.537   1.499  11.289  0.0545  0.4409 -0.5123
 4277SOL    HW124467   2.543   1.586  11.328 -2.1134  0.1838  0.4216
 4277SOL    HW224468   2.623   1.476  11.254 -0.0708 -2.7371  1.3357
 4278SOL     OW24469   4.389   2.748   5.825 -0.4893  0.3305 -0.3647
 4278SOL    HW124470   4.443   2.798   5.764  0.0704  2.3071  1.7372
 4278SOL    HW224471   4.305   2.794   5.825 -2.0624 -2.5748 -0.2699
 4279SOL     OW24472   2.648   4.585   4.061 -0.1735 -0.1816  0.3287
 4279SOL    HW124473   2.560   4.559   4.088  0.2456 -3.0141 -1.1149
 4279SOL    HW224474   2.636   4.623   3.974  0.4346  0.7742  0.6574
 4280SOL     OW24475   2.950   2.494   4.212  0.4907 -0.7857  0.5178
 4280SOL    HW124476   3.016   2.435   4.250  0.3675 -1.4112 -0.2396
 4280SOL    HW224477   2.954   2.569   4.271  2.8703  0.7129 -1.5371
 4281SOL     OW24478   3.778   1.481   5.660  0.0739 -0.2295  0.0533
 4281SOL    HW124479   3.837   1.446   5.727 -1.8013 -3.6146 -0.0811
 4281SOL    HW224480   3.689   1.461   5.689 -0.8466  0.8365 -2.0292
 4282SOL     OW24481   4.082   0.123   5.894  0.0407  0.1423  0.1096
 4282SOL    HW124482   4.003   0.134   5.948 -0.5074  3.9437 -1.4434
 4282SOL    HW224483   4.040   0.109   5.809  1.4080  0.4023 -0.6198
 4283SOL     OW24484   1.978   2.687   7.056 -0.1383  0.0100  0.1263
 4283SOL    HW124485   2.074   2.688   7.052 -0.2121 -3.0314 -2.0910
 4283SOL    HW224486   1.950   2.778   7.065  0.6188  0.6237 -3.3860
 4284SOL     OW24487   2.109   0.486   3.196  0.1920 -0.3456 -0.3754
 4284SOL    HW124488   2.048   0.440   3.254 -0.7935  1.1459 -0.2108
 4284SOL    HW224489   2.081   0.444   3.115  0.4315  1.0154 -1.1660
 4285SOL     OW24490   0.785   2.263  14.162  0.0969  0.5069  0.6905
 4285SOL    HW124491   0.815   2.222  14.081  0.6239 -1.8890  2.1107
 4285SOL    HW224492   0.777   2.356  14.141 -2.3922 -0.0622 -0.8804
 4286SOL     OW24493   1.332   0.853   1.710  0.2334  0.0821  0.1327
 4286SOL    HW124494   1.318   0.933   1.761  0.4696 -1.1741  2.1791
 4286SOL    HW224495   1.278   0.858   1.631  0.8081  0.9299 -0.2121
 4287SOL     OW24496   3.911   2.978  11.689 -0.9661  0.3819  0.7941
 4287SOL    HW124497   3.954   2.894  11.673 -1.3420 -0.3232  3.5017
 4287SOL    HW224498   3.991   3.031  11.693  0.4469 -1.6378 -0.7214
 4288SOL     OW24499   0.525   1.392  17.342 -0.0505 -0.0967 -0.4138
 4288SOL    HW124500   0.450   1.443  17.312  1.1917  0.7664 -2.0621
 4288SOL    HW224501   0.569   1.460  17.393  2.2040 -0.1036 -2.3596
 4289SOL     OW24502   2.665   0.751  17.305 -0.2393 -0.9502  0.2630
 4289SOL    HW124503   2.682   0.707  17.222  2.8831 -0.7496  0.7785
 4289SOL    HW224504   2.697   0.839  17.286  1.9198 -1.4339  1.6402
 4290SOL     OW24505   2.592   4.198  16.583 -0.2531  0.0605 -0.0468
 4290SOL    HW124506   2.502   4.231  16.589 -0.5620 -0.9821  1.0653
 4290SOL    HW224507   2.571   4.108  16.609 -1.4798 -0.0061 -1.2468
 4291SOL     OW24508   1.360   4.050   6.599 -1.0029  0.0915  0.6493
 4291SOL    HW124509   1.356   3.978   6.662 -0.5603 -1.4923 -1.1135
 4291SOL    HW224510   1.428   4.105   6.636 -0.8093 -0.8255  1.6563
 4292SOL     OW24511   3.393   0.368   2.006  0.8026  0.5899 -0.3049
 4292SOL    HW124512   3.355   0.296   1.955  0.0374 -0.8023  2.2696
 4292SOL    HW224513   3.426   0.425   1.936  0.8818 -0.8852 -1.4871
 4293SOL     OW24514   1.420   3.270   6.732 -0.3205  0.6608 -0.0976
 4293SOL    HW124515   1.391   3.185   6.701  2.8448 -0.1002 -1.0006
 4293SOL    HW224516   1.333   3.302   6.756  0.0250  0.3612  1.5885
 4294SOL     OW24517   3.464   1.828   4.287  0.0589 -0.5107 -0.3687
 4294SOL    HW124518   3.453   1.878   4.206 -0.9470  2.6563  1.7343
 4294SOL    HW224519   3.556   1.853   4.301 -0.6523  1.7075  0.3112
 4295SOL     OW24520   1.925   2.348   1.512  0.2150  0.3737  1.2628
 4295SOL    HW124521   1.984   2.324   1.441 -2.1689  0.1332 -0.6643
 4295SOL    HW224522   1.898   2.263   1.546  1.9847  0.4042  2.7279
 4296SOL     OW24523   2.750   0.147   5.696 -0.4112 -0.3167  0.5163
 4296SOL    HW124524   2.772   0.058   5.722 -0.5265  0.1641  2.2444
 4296SOL    HW224525   2.689   0.123   5.626 -1.1183  1.5210  0.5001
 4297SOL     OW24526   2.716   1.109   5.258 -0.0188  0.1164  0.3786
 4297SOL    HW124527   2.729   1.015   5.258  2.8886  0.5202 -1.1753
 4297SOL    HW224528   2.751   1.126   5.346  0.5118  1.1108 -0.0258
 4298SOL     OW24529   3.609   2.177   4.335 -0.2182 -0.3109  0.0863
 4298SOL    HW124530   3.622   2.108   4.401  0.3130 -2.8966 -2.7494
 4298SOL    HW224531   3.656   2.137   4.262  0.4473  0.8723 -0.1339
 4299SOL     OW24532   4.535   2.918  12.369 -0.4029  0.0587  0.0065
 4299SOL    HW124533   4.598   2.862  12.323 -0.4220  1.1934 -1.3797
 4299SOL    HW224534   4.589   2.975  12.423  2.0731 -2.7022  0.4914
 4300SOL     OW24535   1.124   2.834   1.900  0.1263  0.6584 -0.0126
 4300SOL    HW124536   1.102   2.775   1.829 -0.6988  1.3342 -0.3130
 4300SOL    HW224537   1.125   2.913   1.846 -0.7892  1.2628  0.8542
 4301SOL     OW24538   2.905   1.908   7.869 -0.7628 -0.3781  0.1049
 4301SOL    HW124539   2.860   1.906   7.785 -0.7615  0.2250  0.0896
 4301SOL    HW224540   2.979   1.859   7.833  1.0004  2.3355  0.0761
 4302SOL     OW24541   0.513   2.964  10.485  0.0494  0.3942 -0.0600
 4302SOL    HW124542   0.484   3.007  10.565  1.0791  0.6061  0.2015
 4302SOL    HW224543   0.457   2.886  10.490  0.9694 -0.2381  0.3572
 4303SOL     OW24544   1.576   0.152  15.589  0.0959  0.7060 -0.5466
 4303SOL    HW124545   1.660   0.178  15.550  1.7161 -2.9717  0.4483
 4303SOL    HW224546   1.553   0.235  15.630 -0.3449  0.7134 -0.8033
 4304SOL     OW24547   0.725   1.517  17.462  0.0732  0.1846  0.4873
 4304SOL    HW124548   0.739   1.466  17.542 -2.0070 -0.4344  0.4581
 4304SOL    HW224549   0.800   1.494  17.408  1.2685  2.5578  1.1321
 4305SOL     OW24550   4.218   1.587   1.721  0.2042  0.3816 -0.1709
 4305SOL    HW124551   4.282   1.640   1.768  1.6797  0.1887 -1.9842
 4305SOL    HW224552   4.194   1.637   1.644  0.7989  0.3715 -0.3591
 4306SOL     OW24553   4.083   3.412   2.563  0.1006 -0.3949  0.6021
 4306SOL    HW124554   4.144   3.347   2.600 -0.7542 -1.9270 -0.6716
 4306SOL    HW224555   4.138   3.490   2.564 -0.1079 -0.1769 -2.4619
 4307SOL     OW24556   4.458   1.333  14.353  0.7250 -0.1506 -0.0842
 4307SOL    HW124557   4.395   1.403  14.370  4.5128  3.0829  0.7396
 4307SOL    HW224558   4.532   1.369  14.403  0.6531 -2.4489  1.6799
 4308SOL     OW24559   0.817   1.220   5.043  0.0263  0.5986  0.1231
 4308SOL    HW124560   0.809   1.298   4.988  0.5467  0.0320 -0.7705
 4308SOL    HW224561   0.895   1.247   5.092  0.7977  0.7422 -1.1713
 4309SOL     OW24562   3.726   0.028   0.301 -0.1855  0.0195  0.5869
 4309SOL    HW124563   3.761   4.674   0.305  3.3942  1.4846  1.2424
 4309SOL    HW224564   3.669   0.027   0.224  0.1689 -0.6477  0.3306
 4310SOL     OW24565   0.100   4.133  15.624 -0.5523  0.2159 -0.1671
 4310SOL    HW124566   0.073   4.048  15.657  0.5666 -0.3810 -0.7781
 4310SOL    HW224567   0.123   4.102  15.536 -1.0269 -1.4022  0.2875
 4311SOL     OW24568   1.969   2.310   0.772  0.1451 -0.8386  0.2673
 4311SOL    HW124569   2.048   2.359   0.751 -0.7472 -0.7022 -2.7353
 4311SOL    HW224570   1.993   2.228   0.814  0.3094 -1.2604 -0.6383
 4312SOL     OW24571   0.680   1.245   1.915 -0.5188  0.6064  0.3397
 4312SOL    HW124572   0.675   1.334   1.880  0.4373  0.4602 -0.1759
 4312SOL    HW224573   0.732   1.247   1.995 -1.7043  1.2783  1.0927
 4313SOL     OW24574   4.173   0.322   0.849  0.3956 -0.5760 -0.3127
 4313SOL    HW124575   4.141   0.365   0.928 -1.5436 -0.1127 -1.3605
 4313SOL    HW224576   4.114   0.358   0.783  0.4403  1.9940  1.0528
 4314SOL     OW24577   0.114   2.298   3.345 -0.0462  0.1824 -0.1461
 4314SOL    HW124578   0.022   2.272   3.346 -0.0544  0.1468 -1.6768
 4314SOL    HW224579   0.157   2.215   3.329  0.5558  0.7768 -1.6148
 4315SOL     OW24580   2.194   0.250   4.588 -0.0341 -0.1229 -0.1823
 4315SOL    HW124581   2.119   0.270   4.644  1.1504 -2.1156  2.1027
 4315SOL    HW224582   2.146   0.203   4.520 -0.0085 -0.4397  0.0214
 4316SOL     OW24583   3.528   2.009   5.439  0.1806 -0.0732  0.1672
 4316SOL    HW124584   3.605   2.033   5.491  0.5307  0.4104 -0.5834
 4316SOL    HW224585   3.512   2.086   5.385 -0.3647 -0.6657 -0.5166
 4317SOL     OW24586   4.313   2.051   1.871  0.0753  0.5167 -0.0646
 4317SOL    HW124587   4.336   1.996   1.946 -0.2038 -0.2482 -0.5487
 4317SOL    HW224588   4.397   2.063   1.828 -0.5089 -1.0555 -1.6468
 4318SOL     OW24589   0.703   0.326  13.897 -0.0458  0.5694  0.6193
 4318SOL    HW124590   0.743   0.244  13.869  0.0954 -0.1558  2.9632
 4318SOL    HW224591   0.716   0.313  13.991  0.7344 -1.6143  0.1888
 4319SOL     OW24592   2.397   0.732   5.777  0.2341 -0.4259  0.5585
 4319SOL    HW124593   2.326   0.719   5.715  1.0783 -0.4277 -0.4086
 4319SOL    HW224594   2.363   0.684   5.852 -2.3288 -1.0360 -1.0317
 4320SOL     OW24595   0.604   1.091  14.609  0.1377  0.3446  0.2463
 4320SOL    HW124596   0.644   1.171  14.641  2.6546 -1.3474  1.3882
 4320SOL    HW224597   0.646   1.074  14.525 -0.4972  0.6080 -0.1232
 4321SOL     OW24598   0.315   1.687   6.133 -0.3682  0.1897  0.3409
 4321SOL    HW124599   0.308   1.747   6.206 -1.4862  1.0070 -0.4532
 4321SOL    HW224600   0.304   1.603   6.177  1.9377  0.0730  0.6993
 4322SOL     OW24601   2.257   1.530  16.923  0.3027 -0.2145 -0.2305
 4322SOL    HW124602   2.285   1.550  17.012  0.1652  1.1313 -0.4836
 4322SOL    HW224603   2.186   1.592  16.906  0.0661 -0.3351  0.3473
 4323SOL     OW24604   2.070   1.207  15.240 -0.0400 -0.0012 -0.0475
 4323SOL    HW124605   2.161   1.197  15.265 -0.2910 -2.0071  0.0810
 4323SOL    HW224606   2.043   1.262  15.314 -0.3723 -0.6872  0.3439
 4324SOL     OW24607   0.560   3.162   0.956  0.2334  0.0540 -0.2000
 4324SOL    HW124608   0.549   3.070   0.982  0.6366 -0.9314 -3.5202
 4324SOL    HW224609   0.586   3.205   1.037 -1.9163  1.4035 -0.2383
 4325SOL     OW24610   1.419   3.831   4.022  0.6648 -0.2239  0.6670
 4325SOL    HW124611   1.376   3.786   3.950  1.7073 -0.5634  0.2576
 4325SOL    HW224612   1.454   3.909   3.978  1.6072 -0.7735  0.4412
 4326SOL     OW24613   0.957   3.544   5.155  0.3745  0.0094  0.0498
 4326SOL    HW124614   0.919   3.631   5.144 -0.6942 -0.4271  0.2689
 4326SOL    HW224615   0.968   3.516   5.064  1.2811 -0.5330  0.3203
 4327SOL     OW24616   0.790   2.193  11.251  0.2473 -0.3200  0.1902
 4327SOL    HW124617   0.750   2.262  11.304 -1.1658 -1.4410  0.5975
 4327SOL    HW224618   0.748   2.116  11.289 -0.2715 -0.5440 -0.8569
 4328SOL     OW24619   0.034   3.066   8.254 -0.0622 -0.5901  0.7350
 4328SOL    HW124620   0.120   3.046   8.218 -0.0720  0.9628 -0.1542
 4328SOL    HW224621   0.028   3.155   8.220 -0.6263  0.2976  3.1529
 4329SOL     OW24622   4.148   1.358  11.047  0.0357  0.4571  0.0369
 4329SOL    HW124623   4.096   1.415  11.104  2.3150 -1.0667  3.6001
 4329SOL    HW224624   4.205   1.418  10.999  1.8700 -0.6149  0.9077
 4330SOL     OW24625   4.402   0.471   0.292  1.0835  0.1550 -0.1495
 4330SOL    HW124626   4.479   0.427   0.258  0.5196 -0.8139 -0.1620
 4330SOL    HW224627   4.448   0.542   0.337  0.8985  1.4534 -1.9984
 4331SOL     OW24628   2.654   0.622   8.284 -0.4290  0.0854 -0.4684
 4331SOL    HW124629   2.572   0.572   8.289 -0.3845 -0.0534 -1.1233
 4331SOL    HW224630   2.685   0.642   8.372  1.7709 -1.6984 -0.8637
 4332SOL     OW24631   1.884   3.455   8.719  0.3088 -0.3786  0.3389
 4332SOL    HW124632   1.964   3.499   8.692 -0.1059  1.0699  1.5024
 4332SOL    HW224633   1.921   3.367   8.732  0.8511 -0.9641 -5.2624
 4333SOL     OW24634   0.189   2.557   3.378 -0.2069 -0.3029  0.0657
 4333SOL    HW124635   0.127   2.490   3.349 -1.7844  1.6785 -1.1887
 4333SOL    HW224636   0.145   2.588   3.458 -0.4886 -0.2169 -0.1212
 4334SOL     OW24637   3.417   0.536  15.576  0.1237 -0.0564  0.1536
 4334SOL    HW124638   3.328   0.558  15.604  0.4218  0.8322  0.3943
 4334SOL    HW224639   3.405   0.472  15.506 -0.2441 -1.3623  1.4219
 4335SOL     OW24640   0.224   1.190  16.784  1.2020  0.1122  0.2434
 4335SOL    HW124641   0.186   1.187  16.872 -0.2011  3.6578 -0.2378
 4335SOL    HW224642   0.158   1.240  16.736  0.8364 -2.7277 -2.1514
 4336SOL     OW24643   3.638   1.205  14.949  0.5532 -0.8227  0.5969
 4336SOL    HW124644   3.633   1.111  14.936  0.4420 -0.7698  0.2323
 4336SOL    HW224645   3.728   1.215  14.917 -0.1308  0.3785 -0.9675
 4337SOL     OW24646   1.468   1.705  12.289 -0.1717  1.0509  0.1163
 4337SOL    HW124647   1.520   1.785  12.289  0.3317  0.7316  0.6202
 4337SOL    HW224648   1.378   1.737  12.287 -1.4810 -2.7222 -1.7599
 4338SOL     OW24649   4.050   4.422   3.211 -0.0389  0.0977  0.1698
 4338SOL    HW124650   4.025   4.495   3.269  1.7594 -1.1293  2.4759
 4338SOL    HW224651   4.039   4.348   3.271  0.9447 -0.9183 -0.9140
 4339SOL     OW24652   0.152   3.513   1.801 -0.2244  0.2692 -0.3877
 4339SOL    HW124653   0.128   3.470   1.719  0.3773 -1.1374  0.1596
 4339SOL    HW224654   0.241   3.485   1.824 -0.2329 -1.7908 -2.9048
 4340SOL     OW24655   0.083   3.204   3.043  0.9975  0.2645  0.5053
 4340SOL    HW124656   0.059   3.117   3.075 -2.2818  0.8810 -0.3325
 4340SOL    HW224657   0.113   3.246   3.124 -0.7564  2.3955  0.0397
 4341SOL     OW24658   0.196   3.228   4.959 -0.5105  0.2864 -0.1934
 4341SOL    HW124659   0.112   3.273   4.949 -0.6295  0.1342  0.1227
 4341SOL    HW224660   0.263   3.295   4.945 -0.0471  0.0260  0.7598
 4342SOL     OW24661   0.778   2.681  17.392 -0.1536 -0.1418 -0.3447
 4342SOL    HW124662   0.756   2.602  17.343  2.6138 -0.1397 -1.5733
 4342SOL    HW224663   0.791   2.742  17.320  0.6704  0.9679  0.7422
 4343SOL     OW24664   4.178   0.323  13.152  0.2007  0.5848 -0.1109
 4343SOL    HW124665   4.255   0.268  13.167 -2.0270 -1.9327  2.0961
 4343SOL    HW224666   4.162   0.349  13.243  0.9254  0.6770 -0.0039
 4344SOL     OW24667   3.206   4.336   2.220 -0.0272 -0.2590  0.5302
 4344SOL    HW124668   3.212   4.260   2.278 -2.0803  0.1489  1.2635
 4344SOL    HW224669   3.146   4.380   2.281  0.7924  0.2575  0.9668
 4345SOL     OW24670   2.558   3.100   4.742  0.4560  0.2150 -0.2031
 4345SOL    HW124671   2.490   3.052   4.789  0.5041  2.6241  2.2949
 4345SOL    HW224672   2.631   3.038   4.754 -0.0825 -0.5042 -0.6861
 4346SOL     OW24673   0.457   2.179  15.076 -0.9947  0.8303  0.1388
 4346SOL    HW124674   0.387   2.167  15.141 -0.3865  0.3063  0.7029
 4346SOL    HW224675   0.490   2.268  15.080  1.7530 -0.1202 -1.3335
 4347SOL     OW24676   0.746   1.864   1.957  0.0771  0.0208  0.4719
 4347SOL    HW124677   0.716   1.868   2.047 -3.1809  3.9728 -0.8062
 4347SOL    HW224678   0.671   1.917   1.930 -1.3158 -1.5506  1.2803
 4348SOL     OW24679   3.863   3.483   1.362 -0.4205 -0.2048 -0.0720
 4348SOL    HW124680   3.801   3.441   1.302  0.1955 -1.8640  0.4552
 4348SOL    HW224681   3.865   3.419   1.433  1.3877 -1.3807 -1.1936
 4349SOL     OW24682   0.513   1.189  16.773  0.2811 -0.4938  0.5478
 4349SOL    HW124683   0.419   1.178  16.783  0.5529 -1.4159  2.0928
 4349SOL    HW224684   0.552   1.134  16.841 -0.4954  0.6188  1.8937
 4350SOL     OW24685   1.992   1.872   6.955 -0.1057 -0.5616 -0.3396
 4350SOL    HW124686   1.940   1.905   7.029  1.2556 -0.4416  0.5551
 4350SOL    HW224687   2.070   1.927   6.945 -0.4800  0.5115  2.5895
 4351SOL     OW24688   2.546   3.434  10.749  0.3131 -0.2175 -0.4325
 4351SOL    HW124689   2.516   3.364  10.807  1.3224 -0.0888  0.2412
 4351SOL    HW224690   2.618   3.378  10.719 -0.0328 -0.5469 -0.6413
 4352SOL     OW24691   0.923   1.579   6.989 -0.1510  0.0080  0.2275
 4352SOL    HW124692   0.858   1.573   7.059 -0.5565  2.2376  0.0505
 4352SOL    HW224693   1.007   1.581   7.036  0.9791 -1.3257 -1.7498
 4353SOL     OW24694   3.773   2.327   2.440  0.3878  0.5425  0.0696
 4353SOL    HW124695   3.683   2.336   2.408  0.0113  1.2151  1.3502
 4353SOL    HW224696   3.812   2.259   2.385 -1.5628 -1.4862  1.2003
 4354SOL     OW24697   3.590   0.166   5.728 -0.4601 -0.1943  0.1772
 4354SOL    HW124698   3.557   0.244   5.771  1.0500 -1.6851  4.0770
 4354SOL    HW224699   3.541   0.167   5.646 -0.3845  0.2640  0.1395
 4355SOL     OW24700   2.609   1.663  16.657 -0.0250 -0.0912  0.2173
 4355SOL    HW124701   2.539   1.600  16.672  0.1302 -0.9282 -2.5528
 4355SOL    HW224702   2.674   1.605  16.617  0.3491  1.2083 -1.0299
 4356SOL     OW24703   4.281   3.333   3.588 -0.4267  0.1334  0.0111
 4356SOL    HW124704   4.336   3.392   3.537  0.1126 -0.1598  0.2548
 4356SOL    HW224705   4.194   3.371   3.574 -0.6794 -0.2094  0.6518
 4357SOL     OW24706   3.337   4.089  14.318 -0.3159  0.1235 -0.3750
 4357SOL    HW124707   3.285   4.033  14.261 -1.7936 -0.5135  1.5848
 4357SOL    HW224708   3.265   4.116  14.374  0.1243 -1.6121  1.0521
 4358SOL     OW24709   3.621   1.400   1.897  0.3317 -0.6159  0.5356
 4358SOL    HW124710   3.587   1.329   1.841  0.2455  0.4987 -0.8236
 4358SOL    HW224711   3.542   1.440   1.933  0.4287 -0.8412  0.9910
 4359SOL     OW24712   3.453   0.096   6.922 -0.1465 -0.4139 -0.0754
 4359SOL    HW124713   3.432   0.060   7.008 -0.9856 -0.8240 -0.4488
 4359SOL    HW224714   3.378   0.155   6.913  1.3217  1.6310  1.2376
 4360SOL     OW24715   3.390   0.480   3.083 -0.2352  0.4226  0.1318
 4360SOL    HW124716   3.453   0.424   3.129 -0.6067  1.1914  1.5664
 4360SOL    HW224717   3.367   0.422   3.010 -0.8480 -0.0895  0.7347
 4361SOL     OW24718   3.246   3.626   2.986  0.8492 -0.8213 -0.2273
 4361SOL    HW124719   3.279   3.536   2.992  2.5385 -0.2126 -0.5637
 4361SOL    HW224720   3.321   3.684   2.999  0.1795  0.2740 -1.2509
 4362SOL     OW24721   2.526   3.150   5.139 -0.4881  0.1045 -1.3159
 4362SOL    HW124722   2.474   3.070   5.142  0.1872 -0.3196 -0.8813
 4362SOL    HW224723   2.448   3.205   5.150 -1.1318 -1.7983  3.7216
 4363SOL     OW24724   1.376   2.796   5.929 -0.2314  0.1273  0.0339
 4363SOL    HW124725   1.388   2.872   5.872  0.0438 -0.0653 -0.1611
 4363SOL    HW224726   1.435   2.812   6.003  0.2120 -0.1959 -0.2473
 4364SOL     OW24727   0.310   0.387   4.613 -0.3886  0.0209  0.0969
 4364SOL    HW124728   0.360   0.339   4.547  0.5231  1.5945 -0.3731
 4364SOL    HW224729   0.267   0.457   4.564  1.9414  3.1898  2.5591
 4365SOL     OW24730   3.057   3.499   6.444  0.3972 -0.3244  0.0596
 4365SOL    HW124731   3.139   3.450   6.447  1.2223  1.0531  0.0623
 4365SOL    HW224732   3.071   3.571   6.506  0.5082  0.4242 -0.8348
 4366SOL     OW24733   4.461   3.972   4.142  0.3185  0.1214  0.2668
 4366SOL    HW124734   4.511   3.960   4.223 -0.7689  2.9977  1.3753
 4366SOL    HW224735   4.376   3.935   4.166  0.1173 -0.1766 -0.9227
 4367SOL     OW24736   1.914   0.396   2.393 -0.3416  0.0024 -0.8192
 4367SOL    HW124737   1.850   0.347   2.445 -1.0335  0.9027 -0.8214
 4367SOL    HW224738   1.926   0.465   2.458  1.0521 -1.0158  0.0293
 4368SOL     OW24739   0.522   2.509   9.015  0.2243  0.3984 -0.1845
 4368SOL    HW124740   0.433   2.533   9.042  1.0758  3.1892  0.0930
 4368SOL    HW224741   0.547   2.575   8.951  0.1043  0.6230  0.0012
 4369SOL     OW24742   2.875   4.400   1.513  0.4584  0.4533  0.4480
 4369SOL    HW124743   2.783   4.424   1.528  0.5032  1.2877 -0.6340
 4369SOL    HW224744   2.874   4.310   1.547 -2.0676 -1.3245 -4.3028
 4370SOL     OW24745   1.289   1.202   6.304 -0.2962  0.1277  0.0226
 4370SOL    HW124746   1.219   1.151   6.263  0.4408 -1.7468  1.0752
 4370SOL    HW224747   1.250   1.265   6.365  0.0390  1.5848 -1.2737
 4371SOL     OW24748   1.485   3.611   7.352 -0.3639 -0.1542 -0.2388
 4371SOL    HW124749   1.417   3.666   7.391 -0.5420 -1.6560  1.5562
 4371SOL    HW224750   1.444   3.527   7.329 -0.4918 -1.3074  4.1394
 4372SOL     OW24751   2.770   4.719   9.131 -0.2949 -0.2772  0.2585
 4372SOL    HW124752   2.865   4.716   9.116 -0.4927 -0.1889 -1.0568
 4372SOL    HW224753   2.738   0.051   9.071 -0.4512 -0.7341 -0.1691
 4373SOL     OW24754   4.194   4.410  15.526  0.6417 -0.0831 -0.0957
 4373SOL    HW124755   4.275   4.436  15.569  0.7441 -1.3011  0.4688
 4373SOL    HW224756   4.220   4.443  15.440  0.6695  0.5863  0.1757
 4374SOL     OW24757   2.443   2.770   3.405  0.1940  0.2355  0.5420
 4374SOL    HW124758   2.489   2.700   3.450  0.2478 -0.0349  0.0655
 4374SOL    HW224759   2.507   2.804   3.342  0.4680  0.0313  0.7118
 4375SOL     OW24760   1.279   0.642   5.840 -0.5773  0.0735  0.5036
 4375SOL    HW124761   1.248   0.557   5.812  1.4193 -0.7866  0.8794
 4375SOL    HW224762   1.352   0.661   5.781 -1.2505 -2.2681 -1.0501
 4376SOL     OW24763   3.386   0.077   8.839  0.6305  0.2758  0.5622
 4376SOL    HW124764   3.336   4.731   8.850  1.7134 -0.3807  0.6223
 4376SOL    HW224765   3.425   0.093   8.925 -0.1333  1.5707  0.6822
 4377SOL     OW24766   2.584   3.865   7.145 -0.3946 -0.3266 -0.2333
 4377SOL    HW124767   2.675   3.835   7.145 -0.0586  0.7005 -0.0861
 4377SOL    HW224768   2.584   3.859   7.240  1.9554 -1.9700 -0.3231
 4378SOL     OW24769   3.670   2.655   5.183 -0.3093 -0.2085  0.6629
 4378SOL    HW124770   3.746   2.632   5.236  1.5948 -0.8842 -2.3810
 4378SOL    HW224771   3.641   2.737   5.222 -0.2916  0.0498  0.1293
 4379SOL     OW24772   1.195   0.045   5.018  0.1859  0.4042 -0.6458
 4379SOL    HW124773   1.182   0.130   4.975  0.7124 -0.6029 -2.8014
 4379SOL    HW224774   1.104   0.015   5.016 -0.7172  3.0400  0.2717
 4380SOL     OW24775   3.564   1.326   0.237 -0.1002 -0.1938 -0.2517
 4380SOL    HW124776   3.657   1.348   0.246 -0.3349  0.4194  0.6720
 4380SOL    HW224777   3.527   1.336   0.325  1.8170  2.0684  0.2899
 4381SOL     OW24778   4.198   4.146   6.256 -0.2243  0.6139 -0.1772
 4381SOL    HW124779   4.123   4.099   6.221 -0.6735  1.6841 -0.6341
 4381SOL    HW224780   4.199   4.231   6.211 -0.0916 -0.2930 -1.8553
 4382SOL     OW24781   1.258   2.672   6.924 -0.5730 -0.0833  0.3723
 4382SOL    HW124782   1.178   2.675   6.977  0.1406 -1.1009  1.5044
 4382SOL    HW224783   1.264   2.580   6.900 -1.4387 -0.0466  0.0079
 4383SOL     OW24784   3.055   4.562   2.940 -0.3395  0.5090 -0.1567
 4383SOL    HW124785   2.997   4.584   3.013  0.2925 -1.0151  0.8005
 4383SOL    HW224786   3.021   4.475   2.916  2.6464 -0.8057  0.3340
 4384SOL     OW24787   0.233   1.679   2.306 -0.3415 -0.1100  0.5358
 4384SOL    HW124788   0.152   1.690   2.256 -0.0440  2.3447  0.5969
 4384SOL    HW224789   0.233   1.583   2.304  0.0585 -0.0980  0.0017
 4385SOL     OW24790   0.971   1.255   4.261 -0.0012  0.4135 -0.1504
 4385SOL    HW124791   1.040   1.298   4.209  2.5438 -1.5000  1.6259
 4385SOL    HW224792   0.940   1.205   4.186  1.0741  0.9388 -0.9452
 4386SOL     OW24793   3.254   2.690  11.977  0.5998  0.4680  0.3798
 4386SOL    HW124794   3.278   2.781  11.959  0.1954 -0.0512 -2.7609
 4386SOL    HW224795   3.161   2.682  12.001  0.5478  0.3014  0.1184
 4387SOL     OW24796   1.158   3.776   1.654  0.5469  0.2329 -0.5863
 4387SOL    HW124797   1.150   3.760   1.748 -0.0294  1.6339 -0.4007
 4387SOL    HW224798   1.082   3.834   1.641 -1.5797 -2.4051  0.1617
 4388SOL     OW24799   2.901   2.476   9.215  0.0045 -0.2104 -0.0542
 4388SOL    HW124800   2.959   2.428   9.275 -1.4488  0.1421  1.6145
 4388SOL    HW224801   2.837   2.409   9.194  1.2691 -0.9737 -1.4861
 4389SOL     OW24802   3.749   3.177   8.959 -0.9058 -0.7372  0.4878
 4389SOL    HW124803   3.656   3.194   8.971 -0.9861 -0.0520 -1.0988
 4389SOL    HW224804   3.743   3.139   8.871 -0.7407  1.0341 -0.2865
 4390SOL     OW24805   1.964   3.446  14.057 -0.5835 -0.1973  0.6686
 4390SOL    HW124806   2.017   3.511  14.010  1.5324 -1.8598  0.7717
 4390SOL    HW224807   1.990   3.476  14.145  0.7125  0.0842  0.1839
 4391SOL     OW24808   3.346   3.334  16.696  0.1552 -0.0917  0.1050
 4391SOL    HW124809   3.409   3.322  16.624 -0.2616  2.1065 -0.6227
 4391SOL    HW224810   3.316   3.421  16.669 -1.4394 -1.1816 -1.5652
 4392SOL     OW24811   2.964   3.851   6.291 -0.0519 -0.1955  0.2950
 4392SOL    HW124812   2.919   3.931   6.318  1.5459  0.9252 -0.3735
 4392SOL    HW224813   3.052   3.883   6.272  0.1573 -1.0770 -0.2197
 4393SOL     OW24814   3.208   4.332   8.465 -0.0918 -0.2474  0.4801
 4393SOL    HW124815   3.231   4.425   8.466  2.6131 -0.9154  0.6335
 4393SOL    HW224816   3.294   4.291   8.453  0.7636  1.3955  1.0771
 4394SOL     OW24817   4.052   4.625   9.754 -0.0391  0.3028  0.5751
 4394SOL    HW124818   4.039   4.673   9.672  2.5735 -0.6517 -0.3856
 4394SOL    HW224819   4.067   4.702   9.809 -0.4799 -0.0873  1.2466
 4395SOL     OW24820   4.102   1.688  10.197 -0.3432 -0.3551 -0.1786
 4395SOL    HW124821   4.166   1.758  10.187 -1.0781  0.6896  2.2455
 4395SOL    HW224822   4.028   1.736  10.160  0.8606  0.5161 -1.4307
 4396SOL     OW24823   3.628   3.036  13.437 -0.2944 -0.4254  0.2192
 4396SOL    HW124824   3.624   3.018  13.531 -0.1079  0.3869  0.3798
 4396SOL    HW224825   3.693   2.969  13.418 -0.4738 -1.3480  2.8341
 4397SOL     OW24826   1.554   4.357   7.589 -0.0038 -0.4091  0.2481
 4397SOL    HW124827   1.615   4.419   7.550 -2.0310  0.1124 -2.0724
 4397SOL    HW224828   1.613   4.299   7.639  1.6836  1.4930  0.4359
 4398SOL     OW24829   1.337   1.055   8.402  0.1952 -0.2598 -0.0293
 4398SOL    HW124830   1.246   1.084   8.399  0.7154  1.1303 -2.4905
 4398SOL    HW224831   1.321   0.966   8.372  1.2859 -0.3403 -0.4017
 4399SOL     OW24832   0.339   1.664  17.577  0.4020  0.2410 -0.3591
 4399SOL    HW124833   0.333   1.581  17.531 -2.4332 -0.5033  1.3397
 4399SOL    HW224834   0.273   1.712  17.527 -0.4987 -0.3791  0.2244
 4400SOL     OW24835   2.937   3.098   3.881  0.2488  0.3260  0.2983
 4400SOL    HW124836   3.021   3.114   3.923  0.3099  0.5080  0.1068
 4400SOL    HW224837   2.894   3.181   3.860  1.3302  1.3262  2.0121
 4401SOL     OW24838   1.773   2.012  15.326  0.0836 -0.5196  0.0105
 4401SOL    HW124839   1.679   2.026  15.338 -0.1670 -1.0251 -1.3092
 4401SOL    HW224840   1.791   2.075  15.255 -1.0135  0.8335  0.9419
 4402SOL     OW24841   0.889   3.001   1.647  0.2452 -0.3150  0.4306
 4402SOL    HW124842   0.858   3.054   1.720 -1.0650  1.6178 -1.5208
 4402SOL    HW224843   0.809   2.960   1.613 -1.5444  0.9432  3.1429
 4403SOL     OW24844   0.577   0.738   2.855 -0.2411 -0.2214 -0.2296
 4403SOL    HW124845   0.609   0.734   2.765 -1.1406 -1.3958 -0.5098
 4403SOL    HW224846   0.593   0.827   2.885  0.2623 -0.6013  0.6406
 4404SOL     OW24847   1.955   1.214   6.235 -0.0602 -0.1962 -0.2212
 4404SOL    HW124848   1.905   1.290   6.265  2.3856  1.4320 -0.2689
 4404SOL    HW224849   1.999   1.190   6.316  0.8677  0.6490 -0.4721
 4405SOL     OW24850   3.335   2.445   4.784 -0.1300  0.4422  0.2381
 4405SOL    HW124851   3.413   2.500   4.779  1.0693 -1.0832  2.0502
 4405SOL    HW224852   3.379   2.361   4.779  1.6139  1.5111 -2.0959
 4406SOL     OW24853   0.040   0.773   5.208  0.4054  0.6192 -0.5593
 4406SOL    HW124854   0.086   0.809   5.284  0.9769  2.8645 -1.9613
 4406SOL    HW224855   4.730   0.695   5.242  0.8330 -0.1588 -1.7942
 4407SOL     OW24856   3.789   4.430   3.653 -0.1027  0.0809  0.0344
 4407SOL    HW124857   3.785   4.364   3.723  0.0547  1.5269  1.3967
 4407SOL    HW224858   3.695   4.431   3.639  0.0658  2.2549 -0.8674
 4408SOL     OW24859   0.377   4.047   2.654 -0.5653 -0.0597 -0.0720
 4408SOL    HW124860   0.355   4.026   2.745 -0.1899  0.4823  0.1520
 4408SOL    HW224861   0.419   3.967   2.622 -0.3361 -0.5776  1.5265
 4409SOL     OW24862   0.329   0.773   3.199 -0.2806 -0.0008 -0.1341
 4409SOL    HW124863   0.280   0.710   3.146 -0.3423  0.3952 -0.5501
 4409SOL    HW224864   0.304   0.745   3.287 -3.4955 -1.1339 -1.3842
 4410SOL     OW24865   3.223   1.799   8.227 -0.1925  0.3163  0.0882
 4410SOL    HW124866   3.274   1.766   8.153 -0.5012  1.2378 -0.5434
 4410SOL    HW224867   3.135   1.772   8.199 -0.8415  0.4111  2.0310
 4411SOL     OW24868   4.274   1.666  11.814  0.4596  0.3970  0.5277
 4411SOL    HW124869   4.282   1.749  11.862 -1.1484  0.7138  0.2758
 4411SOL    HW224870   4.266   1.599  11.882  2.5894  0.2226  0.5880
 4412SOL     OW24871   0.101   1.530   9.793 -0.1609 -1.1021  0.3180
 4412SOL    HW124872   0.057   1.581   9.725 -1.1865 -2.8300 -0.3104
 4412SOL    HW224873   0.190   1.566   9.791 -0.4105 -0.4535  0.6562
 4413SOL     OW24874   4.693   3.947   2.765  0.4428  0.0534  0.2589
 4413SOL    HW124875   4.671   4.040   2.765 -0.8485 -0.2718 -1.0493
 4413SOL    HW224876   0.009   3.930   2.845  0.9143 -0.0607 -0.0630
 4414SOL     OW24877   2.688   0.811  14.984  0.0215 -0.2864  0.1849
 4414SOL    HW124878   2.673   0.737  15.044 -0.9495 -0.4289 -0.2309
 4414SOL    HW224879   2.637   0.878  15.030 -0.5376  1.5471 -3.1049
 4415SOL     OW24880   0.746   3.160   1.807 -0.1399  0.7631 -0.0071
 4415SOL    HW124881   0.731   3.153   1.901 -2.0139  2.5616 -0.1510
 4415SOL    HW224882   0.733   3.254   1.791 -0.8838  0.6168 -0.2410
 4416SOL     OW24883   0.784   1.472   8.526  0.5074 -0.5025  0.1967
 4416SOL    HW124884   0.790   1.400   8.462  0.2595 -1.8436  1.6928
 4416SOL    HW224885   0.725   1.443   8.595  1.3419 -1.5679  0.4613
 4417SOL     OW24886   0.084   3.297   6.660  0.3101 -0.1054 -0.7962
 4417SOL    HW124887   0.038   3.273   6.580  0.8491 -0.8265 -0.8884
 4417SOL    HW224888   0.027   3.366   6.693 -2.7468 -1.9495 -2.1322
 4418SOL     OW24889   0.711   4.048   3.462 -0.5892  0.1737 -0.3105
 4418SOL    HW124890   0.674   4.136   3.460  1.7418  1.1028 -1.6272
 4418SOL    HW224891   0.698   4.021   3.371  1.3036 -2.1022  0.1065
 4419SOL     OW24892   1.343   3.704   9.372 -0.0997 -0.1607  0.2496
 4419SOL    HW124893   1.329   3.640   9.302  1.4751 -0.9048  0.6138
 4419SOL    HW224894   1.290   3.781   9.353 -0.2770  0.1764  2.1085
 4420SOL     OW24895   1.133   4.423   7.128  0.1274 -0.1093  0.3280
 4420SOL    HW124896   1.180   4.467   7.058  2.3949 -1.1318  1.2041
 4420SOL    HW224897   1.185   4.434   7.208  1.2300 -1.4370 -0.2315
 4421SOL     OW24898   2.680   1.763   9.050 -0.2001 -0.0716  0.3194
 4421SOL    HW124899   2.671   1.676   9.087  0.1917  0.4574  1.6501
 4421SOL    HW224900   2.768   1.754   9.011 -0.8040 -0.8917 -0.8420
 4422SOL     OW24901   0.500   3.198   4.372 -0.7888  0.1780 -0.0691
 4422SOL    HW124902   0.517   3.272   4.314  1.8619 -1.9899 -2.0371
 4422SOL    HW224903   0.588   3.192   4.408 -0.1563  2.1112 -1.2984
 4423SOL     OW24904   1.461   2.294  15.774 -0.2050 -0.0324 -0.2799
 4423SOL    HW124905   1.503   2.223  15.725 -0.4843 -0.3812 -0.0134
 4423SOL    HW224906   1.470   2.361  15.707 -1.5491  0.8122  0.3888
 4424SOL     OW24907   2.530   1.641   0.884  0.1157  0.0036 -0.4743
 4424SOL    HW124908   2.533   1.545   0.877 -3.4634 -0.0875 -0.4090
 4424SOL    HW224909   2.443   1.659   0.919  0.6250  1.2137  0.1377
 4425SOL     OW24910   0.555   3.910   6.509 -0.6446 -0.2746 -0.3186
 4425SOL    HW124911   0.617   3.842   6.482  0.6061  1.2178 -1.2410
 4425SOL    HW224912   0.487   3.851   6.540  0.5755 -1.7741 -0.5080
 4426SOL     OW24913   3.141   3.012   0.168 -0.0266 -0.4718 -0.1511
 4426SOL    HW124914   3.159   2.941   0.230  1.3593  1.3244  1.4876
 4426SOL    HW224915   3.106   3.078   0.228  2.2498  0.3692  0.2613
 4427SOL     OW24916   3.410   0.120   7.561 -0.2388 -0.5449  0.2518
 4427SOL    HW124917   3.414   0.133   7.467 -1.3924 -1.5871  0.0602
 4427SOL    HW224918   3.416   0.210   7.593  1.9414 -0.7988  0.6036
 4428SOL     OW24919   1.941   0.634   2.521  0.2752 -0.1208  0.0644
 4428SOL    HW124920   1.968   0.692   2.450 -0.9330  0.2687 -0.0758
 4428SOL    HW224921   1.987   0.675   2.595  0.2968  1.8012 -1.0265
 4429SOL     OW24922   4.055   1.208   9.513 -0.0852 -0.7110  0.3943
 4429SOL    HW124923   4.145   1.213   9.483 -0.6431  0.5402 -1.0876
 4429SOL    HW224924   4.063   1.130   9.568 -0.1950 -0.9171  0.1178
 4430SOL     OW24925   4.404   1.540   5.515 -0.2152  0.0320 -0.0032
 4430SOL    HW124926   4.340   1.505   5.578  0.8041 -1.9102 -0.0337
 4430SOL    HW224927   4.479   1.553   5.573 -1.4691 -1.9931  2.0577
 4431SOL     OW24928   1.961   4.030   8.312  0.0515 -0.2638 -0.6683
 4431SOL    HW124929   2.032   4.088   8.338 -0.6147  1.3739 -2.4691
 4431SOL    HW224930   1.925   4.003   8.396 -0.1243 -2.7498 -1.5455
 4432SOL     OW24931   1.028   4.475   5.751  0.2448  0.0992 -0.5589
 4432SOL    HW124932   1.122   4.486   5.737  0.7504  1.0087  3.7068
 4432SOL    HW224933   0.992   4.519   5.673 -0.1639  0.6463 -0.0560
 4433SOL     OW24934   2.491   1.300   6.481 -0.3057 -0.6562  0.5874
 4433SOL    HW124935   2.431   1.229   6.501  0.9290 -1.7283  0.5009
 4433SOL    HW224936   2.433   1.348   6.422 -0.8057  0.9786  2.4024
 4434SOL     OW24937   4.269   0.734  10.461  0.6627 -0.2852 -0.1770
 4434SOL    HW124938   4.190   0.686  10.488  1.0399 -0.4409  0.6372
 4434SOL    HW224939   4.329   0.713  10.532 -0.7217 -2.6305  0.3136
 4435SOL     OW24940   1.314   0.769   0.756 -0.1559  0.0153  0.0368
 4435SOL    HW124941   1.272   0.827   0.692 -2.0745 -2.1094 -0.6270
 4435SOL    HW224942   1.253   0.696   0.759 -1.4759  1.0099 -2.0387
 4436SOL     OW24943   4.479   3.065   8.024 -0.0877  0.3056 -0.1418
 4436SOL    HW124944   4.482   2.975   7.994 -1.0823  0.4896 -0.7885
 4436SOL    HW224945   4.561   3.105   7.996 -0.2488  0.8415  0.1491
 4437SOL     OW24946   0.867   0.131   2.995 -0.8282 -0.4580 -0.2285
 4437SOL    HW124947   0.877   0.188   2.918  0.8517 -0.7182 -0.1969
 4437SOL    HW224948   0.813   0.062   2.957  0.3904 -1.5151 -0.0515
 4438SOL     OW24949   2.462   0.203   3.102 -0.3686 -0.1353 -0.2234
 4438SOL    HW124950   2.528   0.218   3.033  0.2270 -1.7815 -0.0104
 4438SOL    HW224951   2.487   0.269   3.167 -2.9057 -0.3911  0.9763
 4439SOL     OW24952   3.880   0.440   5.232 -0.4273  0.3351  0.2614
 4439SOL    HW124953   3.803   0.456   5.176 -0.6064 -1.5139 -0.0205
 4439SOL    HW224954   3.849   0.364   5.281  0.3845 -0.7228 -0.8573
 4440SOL     OW24955   0.507   3.059   7.669 -0.4288  0.0091  0.1559
 4440SOL    HW124956   0.572   3.127   7.685 -1.7767  1.1910  0.6208
 4440SOL    HW224957   0.456   3.106   7.602  0.0641  1.4457  0.7780
 4441SOL     OW24958   3.160   1.226  15.759 -0.0056 -0.1080 -0.5142
 4441SOL    HW124959   3.196   1.216  15.671 -1.8314 -0.4083 -1.2289
 4441SOL    HW224960   3.089   1.287  15.741  1.1463  1.8873  1.6626
 4442SOL     OW24961   3.570   0.303  10.179 -0.1793  0.2020  0.0148
 4442SOL    HW124962   3.548   0.234  10.241  1.3171 -1.6092 -1.4567
 4442SOL    HW224963   3.552   0.257  10.097  0.9883 -1.2706  0.5791
 4443SOL     OW24964   4.438   3.685   2.143  0.1031  0.8446 -0.0902
 4443SOL    HW124965   4.418   3.715   2.054 -2.0259 -0.3748 -0.0196
 4443SOL    HW224966   4.507   3.746   2.170  3.1266 -1.3644 -2.7478
 4444SOL     OW24967   2.508   2.904  13.600  0.5162 -0.0689 -0.5978
 4444SOL    HW124968   2.507   2.820  13.554 -0.1154  0.3291 -1.3186
 4444SOL    HW224969   2.515   2.877  13.691  1.3597  0.1005 -0.6148
 4445SOL     OW24970   4.307   1.477  11.304 -0.4157 -0.2477 -0.3846
 4445SOL    HW124971   4.393   1.438  11.285 -1.5941 -2.9134 -0.1013
 4445SOL    HW224972   4.287   1.441  11.390  0.0018 -0.9916 -0.5964
 4446SOL     OW24973   4.654   3.295   4.944 -0.0778  0.3518  0.6024
 4446SOL    HW124974   4.632   3.236   5.017  1.1511 -1.0459 -0.1686
 4446SOL    HW224975   4.594   3.368   4.959  0.2924  0.9697 -0.9767
 4447SOL     OW24976   3.517   3.800  12.984  0.0383  0.0382  0.2823
 4447SOL    HW124977   3.506   3.857  12.908 -0.5017  1.5447  1.5122
 4447SOL    HW224978   3.458   3.848  13.043 -1.1867 -0.6787 -0.3550
 4448SOL     OW24979   3.134   3.953  14.186  0.4277 -0.2219 -0.2240
 4448SOL    HW124980   3.134   3.873  14.133  0.1761  0.5202 -1.3595
 4448SOL    HW224981   3.072   3.933  14.256  2.4065 -1.9681  1.0141
 4449SOL     OW24982   1.711   0.965  16.038  0.7075  0.6032  0.0443
 4449SOL    HW124983   1.618   0.964  16.060  0.3863 -0.3658 -1.3346
 4449SOL    HW224984   1.718   1.026  15.966  1.6086  1.9341  1.2490
 4450SOL     OW24985   3.151   2.314  12.638 -0.6125  0.5599  0.7926
 4450SOL    HW124986   3.191   2.352  12.716 -1.2565  1.1132  0.8513
 4450SOL    HW224987   3.221   2.276  12.585 -0.3567  3.6786 -1.1014
 4451SOL     OW24988   2.830   3.479   1.996  0.1072 -0.5372 -0.1578
 4451SOL    HW124989   2.766   3.408   1.992  1.5846 -2.0171  2.2090
 4451SOL    HW224990   2.774   3.553   1.973  0.2464 -1.2321 -2.7451
 4452SOL     OW24991   2.847   3.847   3.234  0.4975  0.4063 -0.5369
 4452SOL    HW124992   2.907   3.887   3.297  2.2396 -1.3613 -1.0409
 4452SOL    HW224993   2.902   3.773   3.206  1.3940  1.0435 -0.4662
 4453SOL     OW24994   1.377   1.648  11.657 -0.4501 -0.0026 -0.2230
 4453SOL    HW124995   1.373   1.729  11.707  0.1588 -0.5648  0.7234
 4453SOL    HW224996   1.346   1.681  11.572  0.0942 -2.0612 -1.2184
 4454SOL     OW24997   2.564   1.684  17.351  0.0004  0.4502 -0.3786
 4454SOL    HW124998   2.590   1.690  17.443 -2.6627  0.6746  0.3656
 4454SOL    HW224999   2.647   1.660  17.309 -0.1518 -0.6877 -0.0198
 4455SOL     OW25000   0.408   2.413   8.689  0.1920  0.1808 -0.1056
 4455SOL    HW125001   0.370   2.400   8.602 -1.8949  3.4340  0.3531
 4455SOL    HW225002   0.328   2.423   8.739 -0.3168  1.4049 -1.1603
 4456SOL     OW25003   1.181   2.884   8.136 -0.0768 -0.2989  0.0377
 4456SOL    HW125004   1.088   2.872   8.158 -0.2775  0.2204 -0.5143
 4456SOL    HW225005   1.178   2.928   8.051 -2.8891  0.6448  0.6067
 4457SOL     OW25006   3.762   1.909  12.195  0.4304  0.1056 -0.3980
 4457SOL    HW125007   3.741   1.932  12.105 -1.3771  1.9856  0.4806
 4457SOL    HW225008   3.823   1.977  12.224 -1.0135  1.7439 -1.2067
 4458SOL     OW25009   4.148   3.250   4.153 -0.2712 -0.1455 -0.1132
 4458SOL    HW125010   4.113   3.217   4.070  0.3311  1.4568 -0.9978
 4458SOL    HW225011   4.220   3.301   4.117 -2.0081  1.4062 -1.4066
 4459SOL     OW25012   0.769   2.013   3.171 -0.5796  0.5081  0.2257
 4459SOL    HW125013   0.751   2.103   3.142 -1.5976  0.4553  0.7103
 4459SOL    HW225014   0.829   2.030   3.243 -1.7604  0.4873  1.2073
 4460SOL     OW25015   0.692   3.708   6.844  0.1033  0.4301 -0.2915
 4460SOL    HW125016   0.657   3.701   6.756 -0.3875  2.4522 -0.2732
 4460SOL    HW225017   0.667   3.629   6.891  1.5616  0.5551  0.6998
 4461SOL     OW25018   1.726   3.305   4.038 -0.5231 -0.3205 -0.6788
 4461SOL    HW125019   1.689   3.273   4.120  2.4112 -1.2044  0.2904
 4461SOL    HW225020   1.818   3.291   4.060 -0.6612  0.2495  0.2423
 4462SOL     OW25021   1.809   4.309   3.721  0.0171 -0.3674  0.1706
 4462SOL    HW125022   1.801   4.216   3.698 -4.0923 -0.0131  0.1831
 4462SOL    HW225023   1.870   4.337   3.653  0.1189 -1.2149 -0.0858
 4463SOL     OW25024   0.061   1.456  16.468 -0.1683  0.3428 -0.0233
 4463SOL    HW125025   0.009   1.394  16.416 -0.2428 -0.0992  0.5780
 4463SOL    HW225026   0.047   1.422  16.556 -0.4045 -2.8013 -1.2807
 4464SOL     OW25027   4.265   0.198   9.235  0.4425 -0.1847 -0.0957
 4464SOL    HW125028   4.334   0.263   9.243  0.4503 -0.1581 -0.3955
 4464SOL    HW225029   4.316   0.131   9.190 -0.9078 -1.3101  0.0172
 4465SOL     OW25030   2.156   2.792  12.428 -0.1154 -0.5216 -0.3161
 4465SOL    HW125031   2.083   2.836  12.472 -2.5351 -0.1267 -4.7320
 4465SOL    HW225032   2.226   2.858  12.428 -0.5942 -0.0087  1.8329
 4466SOL     OW25033   3.708   0.234  16.937  0.1723  0.7448 -0.6334
 4466SOL    HW125034   3.764   0.292  16.886  2.8663  0.1713  1.6418
 4466SOL    HW225035   3.752   0.149  16.942  0.9565  1.1972  0.1505
 4467SOL     OW25036   4.369   2.216   7.994 -0.9147  0.0751  0.5732
 4467SOL    HW125037   4.448   2.244   8.041 -1.1288  2.2922 -0.3566
 4467SOL    HW225038   4.327   2.150   8.048 -0.6691  0.1885  0.9036
 4468SOL     OW25039   1.773   4.049   3.659 -0.0216  0.2930 -0.3046
 4468SOL    HW125040   1.801   3.970   3.706  1.1340 -0.0317 -1.5487
 4468SOL    HW225041   1.780   4.027   3.566  0.5111  0.2271 -0.2491
 4469SOL     OW25042   2.488   3.636   4.971  0.0747 -0.2225  0.5942
 4469SOL    HW125043   2.422   3.699   5.000  1.0547  0.0784  2.1704
 4469SOL    HW225044   2.499   3.657   4.878  2.3317 -0.2077  0.8706
 4470SOL     OW25045   4.472   2.623   4.731 -0.1419  0.0725 -0.0773
 4470SOL    HW125046   4.422   2.664   4.659  1.7625 -0.0495 -1.4590
 4470SOL    HW225047   4.407   2.620   4.801  1.2960 -0.6200  1.2317
 4471SOL     OW25048   2.060   3.088   1.570  0.0822  0.5188  0.0974
 4471SOL    HW125049   2.127   3.070   1.637 -0.2234 -0.3852  0.1638
 4471SOL    HW225050   2.097   3.030   1.503  0.7082  1.1458 -0.1008
 4472SOL     OW25051   3.714   1.875   4.345 -0.0260  0.6954 -0.2985
 4472SOL    HW125052   3.801   1.911   4.360  1.0904 -0.8110 -3.2416
 4472SOL    HW225053   3.719   1.803   4.407  1.0350 -0.1737 -1.4086
 4473SOL     OW25054   3.649   2.185   4.015 -0.6221  1.2317 -0.2887
 4473SOL    HW125055   3.606   2.225   3.938 -1.0280 -0.1361 -0.7758
 4473SOL    HW225056   3.583   2.205   4.081  0.3788 -1.3090  1.4802
 4474SOL     OW25057   0.335   3.615   8.413 -0.0242  0.2102  0.2904
 4474SOL    HW125058   0.284   3.644   8.488 -1.0726  1.1020 -0.7725
 4474SOL    HW225059   0.296   3.530   8.391  2.2602 -1.0153  0.9511
 4475SOL     OW25060   2.268   3.773   3.454  0.1060 -0.3728 -0.1911
 4475SOL    HW125061   2.308   3.859   3.442 -0.9402  0.3345  1.3537
 4475SOL    HW225062   2.277   3.769   3.549 -0.2142  2.6065 -0.0443
 4476SOL     OW25063   2.183   4.550   2.881  0.7508  0.1425 -0.5257
 4476SOL    HW125064   2.238   4.523   2.807  3.7055 -1.5733  2.3002
 4476SOL    HW225065   2.248   4.566   2.949 -1.0428 -0.7969  1.4017
 4477SOL     OW25066   3.334   4.724   6.514  0.0685  0.2542  0.0326
 4477SOL    HW125067   3.248   4.733   6.557 -0.8403 -1.4479 -1.4525
 4477SOL    HW225068   3.373   4.669   6.582 -0.3636 -1.5429 -1.1741
 4478SOL     OW25069   4.656   4.711   1.458  0.0312 -0.7218 -0.0577
 4478SOL    HW125070   4.563   4.699   1.479 -0.1868  1.9058  0.5392
 4478SOL    HW225071   4.691   4.624   1.437  2.8027  0.1902  0.7295
 4479SOL     OW25072   0.535   1.820   4.149  0.2045 -0.3977  0.0473
 4479SOL    HW125073   0.544   1.763   4.225  2.2216 -0.1391  0.0074
 4479SOL    HW225074   0.568   1.764   4.079 -0.8776 -2.9046  1.5629
 4480SOL     OW25075   1.417   0.721   1.302 -0.2853  0.9983 -0.1742
 4480SOL    HW125076   1.498   0.673   1.322  0.0295  1.2915 -0.7489
 4480SOL    HW225077   1.454   0.804   1.274  1.2010  1.4727  3.2577
 4481SOL     OW25078   3.753   2.444   7.207 -0.5921 -0.0393 -0.8172
 4481SOL    HW125079   3.677   2.396   7.239 -1.5585  0.7673 -1.9170
 4481SOL    HW225080   3.816   2.372   7.204 -1.3519 -0.6936 -1.0802
 4482SOL     OW25081   4.205   0.437   7.747  0.1235 -0.3460 -0.6496
 4482SOL    HW125082   4.294   0.470   7.754  0.2916 -0.2842 -3.1807
 4482SOL    HW225083   4.219   0.345   7.770 -0.2991 -0.6042 -1.3995
 4483SOL     OW25084   4.173   0.087   4.478 -0.3408  0.3355  0.2434
 4483SOL    HW125085   4.202   0.021   4.416 -0.7233  1.9718 -1.6714
 4483SOL    HW225086   4.256   0.089   4.525 -0.0568 -1.3215 -0.1906
 4484SOL     OW25087   4.024   0.833   0.021 -0.4261 -0.1428 -0.2481
 4484SOL    HW125088   4.085   0.760   0.011  1.4879  1.9381 -3.5314
 4484SOL    HW225089   3.960   0.804  17.694  0.0329 -2.3940  0.2923
 4485SOL     OW25090   0.199   3.851   8.598  0.2215 -0.1726 -0.5824
 4485SOL    HW125091   0.194   3.815   8.687 -0.4726  1.1586 -0.0828
 4485SOL    HW225092   0.198   3.944   8.622 -1.7537 -0.1065 -0.9225
 4486SOL     OW25093   0.406   1.483   4.267  0.1630 -0.0727  0.0309
 4486SOL    HW125094   0.416   1.571   4.305  1.2468  0.2046 -0.8931
 4486SOL    HW225095   0.490   1.438   4.277 -0.4291 -1.0917  0.3495
 4487SOL     OW25096   4.440   3.333   4.203  0.3969 -0.6447 -0.1053
 4487SOL    HW125097   4.475   3.243   4.196  0.8934 -0.5044  0.5897
 4487SOL    HW225098   4.507   3.383   4.156 -0.6914  0.1547 -0.8035
 4488SOL     OW25099   2.917   3.095   4.806 -0.3224 -0.5089  0.4311
 4488SOL    HW125100   2.921   3.106   4.711 -1.5612 -0.8054  0.3464
 4488SOL    HW225101   2.995   3.144   4.829  1.1560 -2.3131 -0.7503
 4489SOL     OW25102   1.291   1.311  12.774 -0.7793  0.2502  0.2616
 4489SOL    HW125103   1.324   1.228  12.807  4.0004  1.6217 -1.0966
 4489SOL    HW225104   1.301   1.302  12.680 -0.3129 -0.3492  0.3723
 4490SOL     OW25105   4.529   1.703   3.713 -0.5702  0.3495 -0.0239
 4490SOL    HW125106   4.475   1.625   3.712 -0.3185  0.1358  1.8235
 4490SOL    HW225107   4.618   1.683   3.742 -1.8952  0.4092  4.0718
 4491SOL     OW25108   3.708   0.716   8.361 -0.2278  0.1794  0.2818
 4491SOL    HW125109   3.767   0.641   8.368  0.6751  0.9455  0.8613
 4491SOL    HW225110   3.618   0.684   8.363  0.6115 -2.3337 -2.3973
 4492SOL     OW25111   3.333   4.145   6.681 -0.5240 -0.0068 -0.1707
 4492SOL    HW125112   3.374   4.060   6.696 -1.3072 -0.2418  0.6515
 4492SOL    HW225113   3.267   4.146   6.750 -2.1925 -0.4760 -1.7621
 4493SOL     OW25114   2.818   1.586  13.701  0.1177 -0.4890  0.1734
 4493SOL    HW125115   2.832   1.516  13.765 -0.8599 -0.3993  0.4928
 4493SOL    HW225116   2.899   1.636  13.708  0.2772 -0.5824 -1.1269
 4494SOL     OW25117   0.161   1.305   3.564 -0.2445 -0.1617 -0.7859
 4494SOL    HW125118   0.110   1.270   3.636 -2.2074  1.2406 -1.4924
 4494SOL    HW225119   0.210   1.374   3.608 -1.5322  0.0270  0.3497
 4495SOL     OW25120   4.298   0.648   7.483 -0.3169 -0.2608  0.1451
 4495SOL    HW125121   4.366   0.581   7.493  1.1060  0.9785 -1.1659
 4495SOL    HW225122   4.215   0.601   7.490 -0.2820 -0.1687  1.2890
 4496SOL     OW25123   3.609   0.629   3.419  0.1476 -0.6581  0.3588
 4496SOL    HW125124   3.679   0.667   3.472 -1.2806  1.0397  0.9879
 4496SOL    HW225125   3.635   0.673   3.338  0.4128  2.4006  2.1299
 4497SOL     OW25126   3.600   1.381   4.089 -0.0891 -0.1728 -0.4073
 4497SOL    HW125127   3.523   1.436   4.076 -0.1334  0.0083  0.6374
 4497SOL    HW225128   3.650   1.389   4.008  0.3618  1.0627  0.0011
 4498SOL     OW25129   0.614   1.087   6.201  0.1195 -0.1403  0.3130
 4498SOL    HW125130   0.546   1.088   6.268 -2.2711 -0.2303 -2.0860
 4498SOL    HW225131   0.555   1.098   6.126  1.0169  0.1044 -0.3565
 4499SOL     OW25132   3.169   4.691   5.482  0.3440 -0.0914  0.1040
 4499SOL    HW125133   3.077   4.663   5.473  0.3683 -0.2990  0.4982
 4499SOL    HW225134   3.197   4.656   5.566  0.0793 -0.9375 -0.1565
 4500SOL     OW25135   2.013   2.976   3.632 -0.3556 -0.5521 -0.4189
 4500SOL    HW125136   2.001   2.881   3.629 -0.3143 -0.5017 -2.0864
 4500SOL    HW225137   2.101   2.983   3.595 -0.9013  2.5623 -1.0639
 4501SOL     OW25138   0.426   2.636  13.959 -0.5642  0.6653  0.4012
 4501SOL    HW125139   0.448   2.699  13.891 -3.1136  1.3589  0.2194
 4501SOL    HW225140   0.332   2.650  13.970 -1.1172 -2.6630  0.0796
 4502SOL     OW25141   4.324   3.117   3.441  0.0257 -0.0747  0.5735
 4502SOL    HW125142   4.313   3.203   3.481 -0.9754 -0.4485  1.1136
 4502SOL    HW225143   4.318   3.056   3.515  1.4135 -1.1725 -0.2179
 4503SOL     OW25144   2.117   2.806   4.709 -0.2800  0.3235 -0.1822
 4503SOL    HW125145   2.116   2.837   4.618  2.6824  1.4873  0.1817
 4503SOL    HW225146   2.035   2.843   4.743 -0.7181 -0.5745 -0.2467
 4504SOL     OW25147   2.823   2.800   2.620 -0.4824 -0.4448  0.2220
 4504SOL    HW125148   2.742   2.786   2.572 -2.1620  0.2388  2.8728
 4504SOL    HW225149   2.803   2.871   2.681  1.5841  0.3797 -0.0401
 4505SOL     OW25150   0.320   4.306   4.983  0.3438  0.0937  0.3602
 4505SOL    HW125151   0.391   4.364   4.956  0.4922 -0.4620 -0.4258
 4505SOL    HW225152   0.274   4.287   4.902  2.3600 -3.1710  0.0018
 4506SOL     OW25153   3.794   1.677  12.333 -0.8338 -0.2936  0.2088
 4506SOL    HW125154   3.791   1.754  12.276 -1.1256  0.6084  1.4362
 4506SOL    HW225155   3.744   1.611  12.285 -1.9673 -1.2549  2.7477
 4507SOL     OW25156   1.430   1.172  12.250  0.4786 -0.1833  0.5387
 4507SOL    HW125157   1.488   1.247  12.262 -0.0099  0.0341  1.5246
 4507SOL    HW225158   1.412   1.176  12.156 -0.9279 -1.5506  0.7536
 4508SOL     OW25159   1.748   4.476   3.183 -0.0672  0.5735 -0.0051
 4508SOL    HW125160   1.800   4.525   3.247  0.7920 -0.0208 -0.2472
 4508SOL    HW225161   1.819   4.456   3.122 -0.9174 -1.7533 -0.2147
 4509SOL     OW25162   0.125   1.385   3.984  0.3306 -0.3107 -0.4717
 4509SOL    HW125163   0.046   1.376   4.036  1.0630 -1.9046  0.3621
 4509SOL    HW225164   0.164   1.298   3.992 -0.7864 -0.9312 -1.9020
 4510SOL     OW25165   3.875   1.957   9.221  0.0438  0.0395  0.0483
 4510SOL    HW125166   3.957   1.909   9.231 -1.8195 -3.2449 -0.2126
 4510SOL    HW225167   3.812   1.896   9.261 -0.9592  1.4243  0.5968
 4511SOL     OW25168   3.406   4.521   6.680  0.6145  0.2397 -0.3647
 4511SOL    HW125169   3.495   4.487   6.683  0.1857 -0.7441  1.3537
 4511SOL    HW225170   3.385   4.515   6.773 -1.4355  0.7056 -0.7979
 4512SOL     OW25171   4.199   3.938   0.551  0.0832 -0.4500 -0.1082
 4512SOL    HW125172   4.134   3.999   0.586  1.0410 -0.0228  0.9227
 4512SOL    HW225173   4.219   3.887   0.630 -0.2506 -1.2186 -0.5166
 4513SOL     OW25174   0.648   2.001  14.742 -0.0518 -0.2833  0.5191
 4513SOL    HW125175   0.686   2.056  14.811 -0.7660 -0.5958  1.1716
 4513SOL    HW225176   0.700   1.922  14.757  0.1336  0.0090  1.4251
 4514SOL     OW25177   2.153   1.145  14.422 -0.3675  0.1434 -0.0428
 4514SOL    HW125178   2.097   1.140  14.345 -0.4945 -1.7957  0.1881
 4514SOL    HW225179   2.241   1.161  14.387  0.1182  0.2227  1.2144
 4515SOL     OW25180   0.659   2.323  17.456  0.2633  0.1237  0.5720
 4515SOL    HW125181   0.676   2.351  17.366  1.5302  0.6152  0.9564
 4515SOL    HW225182   0.577   2.368  17.473 -1.8240 -3.6376  0.5090
 4516SOL     OW25183   1.056   3.465   8.587 -0.4479 -0.2470 -0.4483
 4516SOL    HW125184   1.079   3.543   8.637  0.0667 -0.6717 -0.0213
 4516SOL    HW225185   1.138   3.452   8.538  0.2967  0.0298  0.7224
 4517SOL     OW25186   2.918   4.022   2.983  0.4058  0.0194  0.2308
 4517SOL    HW125187   2.891   3.967   3.057 -0.8469  2.9878  1.9574
 4517SOL    HW225188   3.005   3.989   2.958  0.6655 -1.0443  2.6014
 4518SOL     OW25189   0.425   2.550   3.725 -0.4477 -0.2381 -0.3424
 4518SOL    HW125190   0.355   2.567   3.661  0.6987  1.5462 -1.1195
 4518SOL    HW225191   0.500   2.586   3.678  0.3457 -1.1401  0.2310
 4519SOL     OW25192   3.291   4.164   8.216 -1.2456 -0.3808 -0.2592
 4519SOL    HW125193   3.323   4.229   8.154  0.8280 -1.8590 -0.7379
 4519SOL    HW225194   3.332   4.195   8.297 -1.5984 -2.3907  0.7044
 4520SOL     OW25195   0.002   4.226   7.861  0.1694  0.0691  0.2387
 4520SOL    HW125196   4.654   4.184   7.885  1.5951 -0.5501  4.0483
 4520SOL    HW225197   0.057   4.163   7.908  0.6213 -0.7931 -1.4241
 4521SOL     OW25198   3.120   2.347   6.064 -0.1221  0.3161 -0.3761
 4521SOL    HW125199   3.157   2.394   6.139 -1.0304  2.0215 -0.9855
 4521SOL    HW225200   3.034   2.386   6.048  0.1328 -0.0103 -2.5550
 4522SOL     OW25201   4.005   4.207   1.617  0.2514  0.2627 -0.4665
 4522SOL    HW125202   3.911   4.190   1.618  0.4320 -0.8408 -2.3739
 4522SOL    HW225203   4.046   4.123   1.634 -1.9145 -0.6617  0.1673
 4523SOL     OW25204   3.065   4.718   4.187  0.0454 -0.6466  0.2267
 4523SOL    HW125205   3.036   4.723   4.096 -0.1138 -0.1691  0.3044
 4523SOL    HW225206   3.156   0.013   4.178 -0.3438  0.5711  0.4083
 4524SOL     OW25207   3.746   0.942  12.726  0.0078  0.1343  0.4236
 4524SOL    HW125208   3.711   0.873  12.782 -3.0201  0.7335 -0.7436
 4524SOL    HW225209   3.679   1.008  12.746 -1.1750 -1.1478  0.6589
 4525SOL     OW25210   1.603   1.605   7.262 -0.3964  0.4245 -0.1157
 4525SOL    HW125211   1.534   1.658   7.222 -1.7151 -0.0114  1.5920
 4525SOL    HW225212   1.653   1.602   7.181 -0.0818  0.2328  0.0841
 4526SOL     OW25213   1.533   2.227   9.932  0.4611 -0.9548 -0.1235
 4526SOL    HW125214   1.440   2.222   9.956  0.4874 -0.0474  0.1978
 4526SOL    HW225215   1.571   2.263  10.012  1.0088 -0.7518 -0.4787
 4527SOL     OW25216   3.589   0.832  12.522 -0.5743  0.1783  0.5124
 4527SOL    HW125217   3.654   0.876  12.577 -1.0891 -1.4668  2.4045
 4527SOL    HW225218   3.585   0.752  12.574 -1.7588 -0.5950 -0.7714
 4528SOL     OW25219   3.810   3.640   5.598 -0.0172 -0.4924  0.2271
 4528SOL    HW125220   3.862   3.621   5.676  0.2272  3.4325  1.0105
 4528SOL    HW225221   3.723   3.608   5.619 -0.6689  0.9168 -0.3265
 4529SOL     OW25222   3.602   3.582  10.124  0.6305  0.6765  0.0532
 4529SOL    HW125223   3.645   3.497  10.112  0.5488  1.0087 -2.5066
 4529SOL    HW225224   3.668   3.642  10.088  0.0552 -1.1750 -4.0484
 4530SOL     OW25225   0.128   2.671   6.565 -0.0191 -0.0705  0.3831
 4530SOL    HW125226   0.092   2.651   6.479  0.7094 -0.5416  0.1886
 4530SOL    HW225227   0.131   2.766   6.567  0.4301 -0.1151  1.9977
 4531SOL     OW25228   3.728   0.087  14.621 -0.2933  0.0006  0.3602
 4531SOL    HW125229   3.712   0.040  14.539 -0.0695  0.1468  0.2329
 4531SOL    HW225230   3.642   0.129  14.633 -0.6201 -1.2401  2.4176
 4532SOL     OW25231   4.151   1.993   7.361 -0.8294 -0.1961 -0.1057
 4532SOL    HW125232   4.246   2.003   7.355 -1.0780  1.5606 -0.9108
 4532SOL    HW225233   4.131   2.077   7.403  0.6828  0.2504 -0.2488
 4533SOL     OW25234   1.958   1.091   4.110 -0.0075 -0.0083 -0.0938
 4533SOL    HW125235   1.904   1.029   4.159 -2.8295  0.6371 -2.3785
 4533SOL    HW225236   1.899   1.162   4.083  1.7690  1.8440  0.8997
 4534SOL     OW25237   2.150   4.058   9.125  0.5312  0.1204 -0.1397
 4534SOL    HW125238   2.072   4.111   9.110  1.7175  2.6868  2.7839
 4534SOL    HW225239   2.214   4.129   9.115  0.1414  0.7380  1.6815
 4535SOL     OW25240   0.891   1.410   7.639  0.3044 -1.3123 -0.5073
 4535SOL    HW125241   0.921   1.456   7.560 -0.8969  0.6623  0.1952
 4535SOL    HW225242   0.861   1.324   7.610 -0.7846 -1.4992  1.1944
 4536SOL     OW25243   2.789   0.987   7.397 -0.4109 -0.6543 -0.4114
 4536SOL    HW125244   2.844   1.020   7.467 -1.9755 -0.0470  0.5266
 4536SOL    HW225245   2.855   0.935   7.351 -0.9371 -0.5597 -1.2826
 4537SOL     OW25246   1.307   3.980   4.636  0.0794 -0.3336  0.6588
 4537SOL    HW125247   1.268   4.037   4.703  1.5709  0.8987  0.4968
 4537SOL    HW225248   1.315   4.034   4.558 -1.1682  0.7793  1.3024
 4538SOL     OW25249   2.436   1.041   6.198  0.2493  0.2512  0.1803
 4538SOL    HW125250   2.354   1.061   6.243 -0.0984 -1.4416  0.2740
 4538SOL    HW225251   2.505   1.062   6.261 -0.3510  1.9663  0.2707
 4539SOL     OW25252   1.798   2.188  12.449 -0.0106 -0.1643  0.3730
 4539SOL    HW125253   1.806   2.158  12.359  1.1661 -0.7932  0.6933
 4539SOL    HW225254   1.878   2.158  12.491  0.2056 -1.0058 -0.6646
 4540SOL     OW25255   2.206   4.518   7.616  0.2978  0.0692  0.1423
 4540SOL    HW125256   2.138   4.457   7.588  0.2804  0.5088 -0.7669
 4540SOL    HW225257   2.160   4.601   7.618 -0.8719 -0.5614 -0.3568
 4541SOL     OW25258   2.028   3.212   8.646 -0.1768  0.1150 -0.3160
 4541SOL    HW125259   2.108   3.204   8.698 -0.0031 -1.3242 -0.8062
 4541SOL    HW225260   2.031   3.127   8.604 -4.0967 -1.3602  2.3744
 4542SOL     OW25261   3.226   1.503  16.127 -0.8666  0.2595  0.2588
 4542SOL    HW125262   3.270   1.586  16.145 -0.4940 -0.0435  0.7256
 4542SOL    HW225263   3.136   1.536  16.134 -1.8090 -2.2695 -0.1451
 4543SOL     OW25264   1.078   1.223  17.349  0.0258  0.1059 -0.2002
 4543SOL    HW125265   1.031   1.284  17.292  0.2219  1.2755  0.8905
 4543SOL    HW225266   1.072   1.246  17.442 -1.1324 -0.4457 -0.1400
 4544SOL     OW25267   0.900   3.952  12.504  0.0090 -0.5134  0.5182
 4544SOL    HW125268   0.892   4.027  12.563 -1.1649 -0.7189  0.6183
 4544SOL    HW225269   0.866   3.987  12.422 -1.2954 -1.3115  0.7247
 4545SOL     OW25270   3.923   1.475   1.610  0.1992  0.4054  0.1736
 4545SOL    HW125271   3.859   1.406   1.592  1.0322 -0.8492  2.0388
 4545SOL    HW225272   4.005   1.431   1.588 -0.2795  0.4906 -1.8457
 4546SOL     OW25273   4.191   1.765  16.924  0.5327 -1.0285  0.3403
 4546SOL    HW125274   4.102   1.741  16.898 -0.4551  0.8043  2.0272
 4546SOL    HW225275   4.187   1.859  16.903 -0.2817 -1.3718 -1.0589
 4547SOL     OW25276   0.684   4.130   4.358  0.8317 -0.1866 -0.1828
 4547SOL    HW125277   0.718   4.185   4.288 -0.5562  1.6432  0.5683
 4547SOL    HW225278   0.647   4.198   4.414  3.4149  2.1845 -1.4114
 4548SOL     OW25279   0.391   0.753   1.058 -0.1675  0.1938 -0.2035
 4548SOL    HW125280   0.312   0.752   1.004  0.7039  1.5751 -1.4793
 4548SOL    HW225281   0.463   0.751   0.995  0.9190 -0.3263  1.0553
 4549SOL     OW25282   3.125   1.675   4.196  0.2271 -0.3644 -0.3844
 4549SOL    HW125283   3.116   1.580   4.209  2.1083 -0.2140  1.9148
 4549SOL    HW225284   3.140   1.708   4.285 -1.8069 -2.7554  0.8873
 4550SOL     OW25285   1.693   1.953   4.822 -0.2399  0.3343 -0.3218
 4550SOL    HW125286   1.764   1.898   4.856 -0.2240 -0.2181 -1.2373
 4550SOL    HW225287   1.611   1.903   4.824 -0.1715  0.1436 -2.0344
 4551SOL     OW25288   2.254   1.037   8.577  0.2397 -0.4667 -0.0950
 4551SOL    HW125289   2.290   1.072   8.658  3.1746 -2.1805 -0.6759
 4551SOL    HW225290   2.341   1.027   8.539  1.4069  0.7098  2.2265
 4552SOL     OW25291   0.376   1.668  10.426  0.2804 -0.0086 -0.5893
 4552SOL    HW125292   0.359   1.581  10.463 -0.3386 -0.4231 -1.8296
 4552SOL    HW225293   0.466   1.664  10.396  1.0176  1.7351  1.4292
 4553SOL     OW25294   0.091   3.046   8.507  0.4360 -0.0482  0.0779
 4553SOL    HW125295   0.066   2.954   8.506 -0.9908  0.3319  0.9065
 4553SOL    HW225296   0.078   3.066   8.414 -0.8443 -2.3148 -0.2128
 4554SOL     OW25297   2.897   3.521   6.801  0.4705 -0.1474  0.0581
 4554SOL    HW125298   2.992   3.529   6.817  0.5213 -2.2628  0.8473
 4554SOL    HW225299   2.894   3.601   6.748  1.2554 -1.5846 -2.1531
 4555SOL     OW25300   4.641   1.186  17.421  0.3651 -0.1199 -0.1147
 4555SOL    HW125301   4.651   1.242  17.497  1.0146  0.2141 -0.4486
 4555SOL    HW225302   4.699   1.231  17.359  2.9139 -1.6449  1.2021
 4556SOL     OW25303   1.153   2.978  10.196 -0.1597 -0.4580  0.5035
 4556SOL    HW125304   1.227   2.981  10.137  0.0151  0.9266  0.7923
 4556SOL    HW225305   1.177   2.950  10.285 -2.6170 -3.3814  0.2542
 4557SOL     OW25306   4.199   0.243  15.293 -0.2600  0.1642 -0.4194
 4557SOL    HW125307   4.262   0.257  15.223 -0.0005  0.5382 -0.1089
 4557SOL    HW225308   4.224   0.318  15.348  1.3784 -1.2240  0.7204
 4558SOL     OW25309   0.497   0.017  11.004 -0.3247 -0.0315  0.1353
 4558SOL    HW125310   0.488   0.028  10.909  1.1286 -1.4157 -0.1644
 4558SOL    HW225311   0.441   0.084  11.042 -0.3353 -1.2890  2.3275
 4559SOL     OW25312   2.039   0.782   6.683  0.0394 -0.5242 -0.4941
 4559SOL    HW125313   2.050   0.718   6.753  1.8014 -1.6750 -1.7994
 4559SOL    HW225314   1.962   0.737   6.647 -0.1616  0.7657 -1.6783
 4560SOL     OW25315   0.693   2.355   0.777 -0.3465  0.9965  0.0168
 4560SOL    HW125316   0.710   2.353   0.682 -1.5019  1.4371 -0.1968
 4560SOL    HW225317   0.649   2.438   0.794 -0.2170  1.0116  0.2651
 4561SOL     OW25318   4.030   2.359  12.149  0.5096 -0.6764  0.2807
 4561SOL    HW125319   3.997   2.422  12.084  0.4846 -0.8293  0.1469
 4561SOL    HW225320   4.111   2.402  12.176  0.4083 -0.0242 -0.4728
 4562SOL     OW25321   2.623   2.089   1.665 -0.2467  0.1282 -0.9151
 4562SOL    HW125322   2.586   2.175   1.681 -0.2607 -0.5793  2.9209
 4562SOL    HW225323   2.715   2.108   1.686 -0.2560 -0.9645  0.1433
 4563SOL     OW25324   3.973   4.181  16.733  0.2934 -0.7140 -0.3312
 4563SOL    HW125325   3.939   4.100  16.694 -2.2339 -0.7495  1.9587
 4563SOL    HW225326   3.902   4.242  16.714  0.0136 -0.7803  0.4947
 4564SOL     OW25327   4.568   2.716   3.864  0.0671 -0.0656 -0.0208
 4564SOL    HW125328   4.656   2.680   3.851  0.2336  0.8881 -1.4627
 4564SOL    HW225329   4.521   2.642   3.823  0.5379 -0.6419  0.4759
 4565SOL     OW25330   3.840   4.277   6.761 -0.7964  0.9160  0.4075
 4565SOL    HW125331   3.851   4.223   6.682  1.7975  0.8998  0.7975
 4565SOL    HW225332   3.772   4.332   6.723 -0.2617  2.0447  1.0974
 4566SOL     OW25333   3.310   3.123   3.686 -0.1033 -0.2845  0.5816
 4566SOL    HW125334   3.361   3.142   3.608 -1.7918  1.8277 -0.0221
 4566SOL    HW225335   3.221   3.099   3.658 -0.3481 -0.4995  1.5317
 4567SOL     OW25336   0.757   2.237   1.703  0.0752  0.1535 -0.0197
 4567SOL    HW125337   0.794   2.276   1.624 -2.0103 -0.1491 -1.1310
 4567SOL    HW225338   0.664   2.244   1.683 -0.2466 -0.7912  1.1476
 4568SOL     OW25339   4.593   1.833  13.833 -0.1293  0.0752  0.3600
 4568SOL    HW125340   4.512   1.882  13.821 -1.0620 -1.5789 -0.0688
 4568SOL    HW225341   4.566   1.747  13.866 -0.7676  0.5889  1.1890
 4569SOL     OW25342   1.029   4.076   8.425 -0.2284 -0.1527 -0.4440
 4569SOL    HW125343   1.089   4.141   8.387  0.7922 -1.5269 -1.2036
 4569SOL    HW225344   1.014   4.119   8.509  0.9615 -0.0657 -0.2656
 4570SOL     OW25345   0.293   2.418   1.248 -0.4061 -0.5763 -0.8583
 4570SOL    HW125346   0.337   2.463   1.176 -1.8570  2.8574  0.4172
 4570SOL    HW225347   0.331   2.331   1.236 -0.4835 -0.8669  0.9359
 4571SOL     OW25348   3.090   2.406   7.924 -0.2282 -0.2988 -0.1195
 4571SOL    HW125349   3.100   2.464   7.999 -1.5320  1.2777 -1.1919
 4571SOL    HW225350   3.129   2.325   7.957  1.0650  0.6601  0.7095
 4572SOL     OW25351   2.350   4.316  16.658 -0.2348  0.5749  0.4035
 4572SOL    HW125352   2.325   4.362  16.738 -0.2052  1.2397  0.0366
 4572SOL    HW225353   2.274   4.264  16.633  1.4292 -1.9155  0.4968
 4573SOL     OW25354   2.165   2.626   2.588  0.2809  0.0152 -0.4684
 4573SOL    HW125355   2.080   2.669   2.602  0.4147 -0.9165  2.9699
 4573SOL    HW225356   2.147   2.587   2.502 -1.5227  0.5329 -0.3250
 4574SOL     OW25357   2.813   2.469   2.400  0.5533 -0.1361  0.4140
 4574SOL    HW125358   2.881   2.463   2.468  1.9394  0.0734 -0.9627
 4574SOL    HW225359   2.821   2.379   2.367  1.7334  0.6417 -1.4141
 4575SOL     OW25360   3.531   0.751   8.826 -0.2209  0.6621  0.0224
 4575SOL    HW125361   3.528   0.766   8.732 -2.6210 -3.7607 -0.5727
 4575SOL    HW225362   3.471   0.677   8.833  1.4142 -0.6496 -0.1894
 4576SOL     OW25363   1.183   0.984   8.925 -0.1370 -0.1632  0.0522
 4576SOL    HW125364   1.245   0.925   8.881 -0.9348 -1.1564  0.2643
 4576SOL    HW225365   1.213   1.074   8.914 -2.5177  0.8219  1.7903
 4577SOL     OW25366   4.331   0.903   6.613  0.3350 -0.8311 -0.2851
 4577SOL    HW125367   4.365   0.821   6.648  1.8473 -1.2453 -2.7308
 4577SOL    HW225368   4.311   0.950   6.694  0.6720 -3.1551  1.1387
 4578SOL     OW25369   0.643   4.541  16.194 -0.0676 -0.5167  0.8309
 4578SOL    HW125370   0.722   4.518  16.145 -0.5859 -0.4439 -0.0539
 4578SOL    HW225371   0.639   4.464  16.251 -4.3811 -1.9395 -1.3444
 4579SOL     OW25372   3.399   4.217  12.890 -0.2763  0.2840 -0.3447
 4579SOL    HW125373   3.428   4.293  12.940  1.1950 -0.4182 -0.1466
 4579SOL    HW225374   3.334   4.250  12.828 -0.0367  1.4388  0.0249
 4580SOL     OW25375   0.401   4.595   3.390 -0.4520 -0.3711  0.1158
 4580SOL    HW125376   0.350   4.534   3.444 -0.5825  0.0791  0.5094
 4580SOL    HW225377   0.326   4.648   3.364  0.6867  1.0096 -0.3275
 4581SOL     OW25378   0.407   1.029   1.637 -0.3565 -0.0270  0.7862
 4581SOL    HW125379   0.391   0.984   1.555  1.0842  1.0590 -0.0950
 4581SOL    HW225380   0.401   0.957   1.700 -3.5724 -1.4041 -1.1258
 4582SOL     OW25381   4.675   4.641   6.782 -0.5819  0.0880  0.1330
 4582SOL    HW125382   4.636   4.557   6.756  0.1303 -0.4476  0.7784
 4582SOL    HW225383   4.614   4.707   6.749  0.0489  0.2519 -0.7081
 4583SOL     OW25384   4.629   2.106  10.103 -0.2109  0.0440  0.8650
 4583SOL    HW125385   4.590   2.147  10.026 -0.1775  1.1152  1.4228
 4583SOL    HW225386   4.599   2.017  10.085 -2.7876  1.3055 -0.9606
 4584SOL     OW25387   1.448   1.705   5.358 -0.0600  0.3890 -0.0077
 4584SOL    HW125388   1.538   1.674   5.350  0.6988  2.2391  1.2724
 4584SOL    HW225389   1.471   1.784   5.409 -0.5976  0.2471  0.4564
 4585SOL     OW25390   2.585   0.446   9.459  0.1117 -0.2354  0.3961
 4585SOL    HW125391   2.544   0.361   9.469  1.3696 -0.6971  1.6095
 4585SOL    HW225392   2.579   0.487   9.545  0.8986 -1.4829  1.0337
 4586SOL     OW25393   0.191   3.597   6.777  0.0995  0.4402 -0.2681
 4586SOL    HW125394   0.169   3.683   6.743 -1.2260  0.7437  1.3276
 4586SOL    HW225395   0.102   3.564   6.791  0.4259 -1.0926 -1.8366
 4587SOL     OW25396   3.716   4.322   9.292  0.2174 -0.1489 -0.2546
 4587SOL    HW125397   3.697   4.252   9.230  0.4791 -0.3124 -0.1517
 4587SOL    HW225398   3.636   4.369   9.272 -0.3698  0.2157  2.9130
 4588SOL     OW25399   1.269   1.486   1.172 -0.0500 -0.4381 -0.1733
 4588SOL    HW125400   1.240   1.395   1.162  0.2084 -0.5343 -0.0430
 4588SOL    HW225401   1.364   1.478   1.161  0.1282  0.8784  0.4792
 4589SOL     OW25402   2.278   2.843  11.459 -1.0418  0.5309 -0.2288
 4589SOL    HW125403   2.251   2.807  11.375 -0.7637 -1.0496  0.3495
 4589SOL    HW225404   2.311   2.928  11.432  0.6491  0.2974  1.0359
 4590SOL     OW25405   1.925   1.406  17.280 -0.2270  0.3645 -0.0064
 4590SOL    HW125406   1.888   1.320  17.300  0.2503 -0.1043 -1.1464
 4590SOL    HW225407   2.020   1.392  17.282 -0.2000  0.7528  1.1160
 4591SOL     OW25408   2.747   2.065   7.478  0.0866  0.0971 -0.1490
 4591SOL    HW125409   2.800   2.107   7.546 -0.2758  3.3031 -1.8543
 4591SOL    HW225410   2.792   2.086   7.396  1.6205  2.0002  1.1684
 4592SOL     OW25411   1.619   1.228   0.069 -0.2437  0.1238 -0.0135
 4592SOL    HW125412   1.683   1.294   0.042  2.1928 -3.0641 -2.0422
 4592SOL    HW225413   1.549   1.287   0.097  0.4713 -0.2886  2.6204
 4593SOL     OW25414   1.021   4.672   7.929  0.2375 -0.5755 -0.4158
 4593SOL    HW125415   0.952   4.715   7.981  1.1195 -1.1137  1.1885
 4593SOL    HW225416   1.093   4.651   7.988 -0.6262  1.7727  1.4759
 4594SOL     OW25417   3.136   4.265   3.923  0.1795 -0.6525  0.0572
 4594SOL    HW125418   3.224   4.229   3.914  0.1870 -0.7297  0.4228
 4594SOL    HW225419   3.106   4.209   3.994 -1.9235 -0.3689 -0.6114
 4595SOL     OW25420   0.160   0.452  11.097 -0.1566 -0.0508  0.7076
 4595SOL    HW125421   0.221   0.469  11.170  0.7684  0.2510 -0.1348
 4595SOL    HW225422   0.145   0.357  11.094 -1.0410  0.0679  1.4680
 4596SOL     OW25423   0.109   0.347   2.671 -0.1375  0.2770  0.0232
 4596SOL    HW125424   0.026   0.394   2.658  0.1065  0.7428  0.1556
 4596SOL    HW225425   0.092   0.267   2.621 -1.7150 -1.1542  2.8921
 4597SOL     OW25426   3.755   2.003   3.722 -0.0311 -0.4518 -0.0109
 4597SOL    HW125427   3.731   1.999   3.814 -1.5841 -1.1446 -0.4459
 4597SOL    HW225428   3.667   1.990   3.685  0.0219  1.0735 -0.7149
 4598SOL     OW25429   0.609   0.670  16.871  0.1022 -0.1400 -0.0565
 4598SOL    HW125430   0.556   0.711  16.939 -0.8640 -0.0242 -0.8700
 4598SOL    HW225431   0.629   0.743  16.811  1.8695 -1.6441 -1.2970
 4599SOL     OW25432   1.025   3.800   0.924  0.0121 -0.5232  0.8534
 4599SOL    HW125433   0.954   3.861   0.945 -1.0374 -2.0280  1.6871
 4599SOL    HW225434   1.054   3.774   1.011 -1.0129 -0.1149  1.3130
 4600SOL     OW25435   0.801   0.609   4.303  1.0540  0.4341  0.1563
 4600SOL    HW125436   0.801   0.699   4.337 -0.0799  0.0309  1.2615
 4600SOL    HW225437   0.811   0.554   4.381 -0.9869  0.4094  0.4072
 4601SOL     OW25438   4.098   2.331   7.998 -0.7089  0.0246 -0.2229
 4601SOL    HW125439   4.193   2.322   7.988 -0.7834 -1.0013  0.0101
 4601SOL    HW225440   4.074   2.242   8.024 -1.3462  0.2846  0.0661
 4602SOL     OW25441   0.807   1.107  16.673  0.3940  0.1371  0.8602
 4602SOL    HW125442   0.776   1.195  16.694  0.4413  0.3016  0.2468
 4602SOL    HW225443   0.789   1.101  16.579  1.2491 -3.3982  0.9309
 4603SOL     OW25444   4.407   0.923   1.938 -0.5683  0.4258 -0.5936
 4603SOL    HW125445   4.455   0.994   1.981  0.4782 -0.4766 -0.2663
 4603SOL    HW225446   4.317   0.953   1.952 -0.4080  0.2727  0.8106
 4604SOL     OW25447   1.517   4.241   9.778 -0.0279  0.0224 -0.3794
 4604SOL    HW125448   1.462   4.319   9.779  1.7428  1.2782 -1.1577
 4604SOL    HW225449   1.462   4.184   9.832 -0.5620 -0.3135 -1.2819
 4605SOL     OW25450   2.408   3.283   4.275  0.2464  0.0133 -0.9995
 4605SOL    HW125451   2.502   3.264   4.283  0.1168 -0.4515 -0.6203
 4605SOL    HW225452   2.398   3.294   4.180 -0.4115 -0.8721 -1.0297
 4606SOL     OW25453   0.942   1.358  17.164  0.1090 -0.4525 -0.6417
 4606SOL    HW125454   0.849   1.372  17.149 -0.3670 -1.0183  1.8172
 4606SOL    HW225455   0.973   1.330  17.078 -1.4823 -4.0093 -0.0903
 4607SOL     OW25456   1.730   0.697   7.136 -0.2591  0.3205 -0.0184
 4607SOL    HW125457   1.776   0.759   7.079 -1.3803 -1.3587 -2.7157
 4607SOL    HW225458   1.741   0.745   7.219 -0.8690 -0.5550  0.5728
 4608SOL     OW25459   2.313   0.866   6.640 -0.2469  1.0812  0.1837
 4608SOL    HW125460   2.219   0.851   6.649 -0.0812  0.5659  0.9924
 4608SOL    HW225461   2.347   0.793   6.690  1.0752 -0.7856 -3.4304
 4609SOL     OW25462   0.770   0.930   5.493  0.0576 -0.2531  0.0258
 4609SOL    HW125463   0.805   1.008   5.535  2.1368 -1.3551  0.3564
 4609SOL    HW225464   0.742   0.867   5.559 -0.1817  0.5233  0.6664
 4610SOL     OW25465   3.369   4.603   5.307  0.1802 -0.0321 -0.8478
 4610SOL    HW125466   3.345   4.650   5.227  0.8777  0.8213 -0.5539
 4610SOL    HW225467   3.288   4.610   5.357  1.5713 -2.3713  1.7254
 4611SOL     OW25468   3.123   3.868   8.868  0.7378 -0.2997 -0.2693
 4611SOL    HW125469   3.109   3.774   8.884  0.0269 -0.3244 -1.0477
 4611SOL    HW225470   3.047   3.893   8.815 -1.3150 -0.9581  2.3509
 4612SOL     OW25471   3.321   2.152   6.840 -0.2529  0.0970  0.4589
 4612SOL    HW125472   3.356   2.226   6.889 -3.5395  2.3382 -0.6117
 4612SOL    HW225473   3.262   2.197   6.779  1.7130  0.3050 -1.2787
 4613SOL     OW25474   3.021   0.154   7.438  0.1568 -0.2993  0.3247
 4613SOL    HW125475   2.935   0.112   7.447 -0.4723  1.0323  0.6420
 4613SOL    HW225476   2.999   0.242   7.406  0.8985 -0.1687  0.1866
 4614SOL     OW25477   0.604   1.594  10.639  0.1888 -0.1126  0.6486
 4614SOL    HW125478   0.654   1.524  10.681 -0.2450 -0.3432  0.7857
 4614SOL    HW225479   0.648   1.585  10.555  1.4708  0.2057  1.2920
 4615SOL     OW25480   1.395   2.041   5.804  0.2956 -0.2211  0.4158
 4615SOL    HW125481   1.349   1.961   5.827 -0.7649  0.0273 -0.8795
 4615SOL    HW225482   1.385   2.076   5.893 -1.7191 -3.5180  1.4577
 4616SOL     OW25483   1.670   2.782   8.352  0.3092  0.0496  0.5838
 4616SOL    HW125484   1.702   2.835   8.279 -0.6404 -0.7869 -0.4506
 4616SOL    HW225485   1.582   2.816   8.372  0.9590  3.7581 -2.8181
 4617SOL     OW25486   0.439   1.593  15.785  0.0236 -0.1500  0.1797
 4617SOL    HW125487   0.466   1.569  15.697  1.3083  0.5199  0.3744
 4617SOL    HW225488   0.488   1.527  15.834 -0.8794 -2.2931 -1.8363
 4618SOL     OW25489   0.678   2.117   1.055  0.1298 -0.5673  0.3318
 4618SOL    HW125490   0.658   2.208   1.076 -1.2583 -0.2569 -2.2325
 4618SOL    HW225491   0.770   2.105   1.080 -0.1542 -1.9360  0.7553
 4619SOL     OW25492   4.409   2.929  11.732 -0.3089  0.0867  0.3056
 4619SOL    HW125493   4.454   2.898  11.653 -1.1932 -1.7463  0.5086
 4619SOL    HW225494   4.384   2.847  11.775  1.5643 -1.5455 -1.7124
 4620SOL     OW25495   3.538   3.661   2.019  0.6040  0.1254 -0.3788
 4620SOL    HW125496   3.492   3.729   2.069 -0.2592 -0.5095 -0.3070
 4620SOL    HW225497   3.607   3.624   2.074 -1.7080  0.2268  2.5924
 4621SOL     OW25498   1.291   3.480   5.223  0.6526  0.6912 -0.2033
 4621SOL    HW125499   1.367   3.423   5.228 -0.8868 -1.4677 -1.0974
 4621SOL    HW225500   1.307   3.553   5.282 -0.1694  0.7483 -0.0506
 4622SOL     OW25501   0.357   4.024   8.963  0.3604 -0.2801  0.2939
 4622SOL    HW125502   0.302   4.008   9.039  0.6885 -0.4955  0.4867
 4622SOL    HW225503   0.292   4.044   8.896 -0.1965  0.3111  1.0165
 4623SOL     OW25504   1.113   0.298   4.931 -0.9157  0.5042 -0.0438
 4623SOL    HW125505   1.086   0.383   4.967 -2.6279  0.8663 -2.1807
 4623SOL    HW225506   1.031   0.270   4.890 -0.7763  2.0720 -1.4318
 4624SOL     OW25507   1.093   3.035   5.355 -0.4889  0.1258  0.2687
 4624SOL    HW125508   1.078   2.987   5.273 -0.8329 -2.8417  2.0721
 4624SOL    HW225509   1.164   3.098   5.338  0.7902 -1.3670  0.0946
 4625SOL     OW25510   0.624   2.992   9.706  0.2057 -0.3742  0.5955
 4625SOL    HW125511   0.692   2.997   9.773 -0.2955 -0.1280  1.0880
 4625SOL    HW225512   0.553   2.942   9.747 -0.0429 -1.3439 -0.9794
 4626SOL     OW25513   0.995   1.240  16.925  0.1370  0.3637  0.3965
 4626SOL    HW125514   0.990   1.146  16.906 -2.9964  0.6670 -0.2047
 4626SOL    HW225515   0.925   1.270  16.868  1.1610 -0.0242 -1.0599
 4627SOL     OW25516   4.596   0.244   7.808 -0.0569 -0.3877 -0.1034
 4627SOL    HW125517   4.632   0.178   7.867  1.3278  0.3612 -0.1116
 4627SOL    HW225518   4.552   0.305   7.867 -0.1550  2.2917 -2.9758
 4628SOL     OW25519   0.653   0.906  15.397 -0.0911  0.5841  0.3210
 4628SOL    HW125520   0.691   0.877  15.315 -0.1614 -0.2307  0.5637
 4628SOL    HW225521   0.690   0.993  15.407 -0.2966  0.9451 -2.2123
 4629SOL     OW25522   3.795   0.696   9.760  0.1822  0.0163  0.4129
 4629SOL    HW125523   3.865   0.708   9.696 -1.7297  0.6065 -1.5564
 4629SOL    HW225524   3.837   0.640   9.825 -1.6817 -2.0097 -0.1294
 4630SOL     OW25525   4.610   0.284   3.079  0.9634 -0.0838  0.3305
 4630SOL    HW125526   4.606   0.239   2.994 -0.8753 -2.1964  1.5392
 4630SOL    HW225527   4.702   0.305   3.068  1.2096 -1.3360 -0.0139
 4631SOL     OW25528   1.005   3.550  16.277 -0.0394  0.3489 -0.6743
 4631SOL    HW125529   1.018   3.645  16.272 -0.0833  0.3439 -0.9130
 4631SOL    HW225530   0.915   3.544  16.246 -0.1930 -0.6362 -0.0315
 4632SOL     OW25531   1.752   2.907   9.931  0.1964 -0.1591 -0.1537
 4632SOL    HW125532   1.729   2.820   9.964 -0.7453  0.5828  1.1174
 4632SOL    HW225533   1.823   2.882   9.872  0.4433  1.2863 -0.4743
 4633SOL     OW25534   2.371   3.512   6.720  0.0660  0.3553 -0.1117
 4633SOL    HW125535   2.365   3.423   6.753  0.8859 -0.4611 -2.1428
 4633SOL    HW225536   2.465   3.519   6.702  0.9313 -3.1754  3.1266
 4634SOL     OW25537   4.293   1.771   2.662 -0.1084 -0.0484  0.0933
 4634SOL    HW125538   4.228   1.702   2.646  0.6372 -0.9156  0.7784
 4634SOL    HW225539   4.311   1.763   2.756 -0.0108  1.0283  0.1684
 4635SOL     OW25540   3.960   4.056   1.915  0.0167  0.2204  0.1006
 4635SOL    HW125541   3.884   4.025   1.963 -0.4087 -0.7210 -1.1821
 4635SOL    HW225542   3.918   4.133   1.876  0.3443 -0.2261 -1.1453
 4636SOL     OW25543   1.760   4.014   9.127 -0.3051  0.1198 -0.3715
 4636SOL    HW125544   1.730   3.934   9.085  0.6163 -0.9766  1.0960
 4636SOL    HW225545   1.790   3.988   9.214 -2.0230  0.3046  0.2791
 4637SOL     OW25546   1.608   3.775  14.059  0.0855  0.2062  0.5645
 4637SOL    HW125547   1.671   3.773  14.131 -0.1932  0.9291  0.8292
 4637SOL    HW225548   1.641   3.709  13.998 -0.4082  0.3466  0.1494
 4638SOL     OW25549   1.885   3.324  10.173 -0.2020  0.2234 -0.5075
 4638SOL    HW125550   1.892   3.266  10.249  0.3893  2.3701  1.0448
 4638SOL    HW225551   1.818   3.283  10.117 -0.6709 -2.1445  1.7643
 4639SOL     OW25552   1.541   2.039  17.417 -0.3238 -0.3839  0.2806
 4639SOL    HW125553   1.604   2.101  17.454  1.0912 -0.9858 -1.0924
 4639SOL    HW225554   1.595   1.999  17.348 -1.8498 -2.0095  0.0286
 4640SOL     OW25555   4.151   2.898   5.828  0.1736 -0.1920  0.0069
 4640SOL    HW125556   4.177   2.961   5.894  0.4830 -0.1112 -0.1956
 4640SOL    HW225557   4.058   2.923   5.833 -0.2636 -1.4198 -1.7680
 4641SOL     OW25558   0.753   4.542  17.581 -0.2768  0.0064  0.6947
 4641SOL    HW125559   0.848   4.533  17.584 -0.3583 -1.0640 -0.0341
 4641SOL    HW225560   0.757   4.637  17.593 -3.3712  0.3254 -0.6238
 4642SOL     OW25561   0.780   0.797  16.468 -0.6475 -0.2002  0.1615
 4642SOL    HW125562   0.735   0.809  16.552  0.5406  0.3646  0.7102
 4642SOL    HW225563   0.774   0.883  16.426 -0.8224  0.2076  1.0218
 4643SOL     OW25564   0.998   0.805   6.162 -0.6103 -0.5044  0.5742
 4643SOL    HW125565   0.905   0.790   6.179  0.0077 -0.7621  3.7888
 4643SOL    HW225566   1.029   0.733   6.217 -1.5344 -0.8681  0.6219
 4644SOL     OW25567   4.280   1.975   8.123 -0.3325  0.8611  0.1294
 4644SOL    HW125568   4.359   1.924   8.142 -0.7551 -0.5532 -1.9860
 4644SOL    HW225569   4.245   1.993   8.210 -0.1496  0.1404  0.3507
 4645SOL     OW25570   0.203   0.345   3.769 -0.7117 -0.4067  0.4473
 4645SOL    HW125571   0.213   0.269   3.826  2.3537 -0.9548 -0.8593
 4645SOL    HW225572   0.124   0.318   3.723 -1.6466  2.9686  0.0179
 4646SOL     OW25573   0.644   2.100   2.430 -0.1919 -0.0311  0.1616
 4646SOL    HW125574   0.581   2.164   2.463  2.0313  2.9060 -1.3120
 4646SOL    HW225575   0.726   2.141   2.455 -0.4769  0.8061 -0.2841
 4647SOL     OW25576   1.652   4.646  14.442 -0.1546  0.3599 -0.6405
 4647SOL    HW125577   1.649   4.597  14.524  0.8052  0.9531 -0.2562
 4647SOL    HW225578   1.713   4.585  14.401 -1.4608 -1.2790 -0.1543
 4648SOL     OW25579   0.877   1.443   6.090  0.4860  0.2300 -0.2101
 4648SOL    HW125580   0.869   1.531   6.052  2.2271  1.0470  1.2969
 4648SOL    HW225581   0.970   1.431   6.074  0.1421 -0.2022 -1.8238
 4649SOL     OW25582   1.666   0.077   3.336 -0.4672  0.6178  0.1856
 4649SOL    HW125583   1.579   0.038   3.342  0.0581 -0.3248  1.9705
 4649SOL    HW225584   1.645   0.167   3.361 -3.2573 -0.0759  0.3172
 4650SOL     OW25585   0.508   4.127   5.489 -0.0683 -0.5451 -0.2290
 4650SOL    HW125586   0.582   4.072   5.462  0.1415 -0.3942  0.0375
 4650SOL    HW225587   0.449   4.056   5.513  2.2242 -2.5091 -0.3039
 4651SOL     OW25588   3.400   0.483  13.083  0.1511 -0.0781  0.2266
 4651SOL    HW125589   3.490   0.450  13.085 -1.4770 -4.5613 -0.1383
 4651SOL    HW225590   3.372   0.439  13.003  0.9345  0.6590 -0.4431
 4652SOL     OW25591   1.425   1.462  12.026  0.7025 -0.4805 -0.3689
 4652SOL    HW125592   1.370   1.541  12.029  3.2260  1.3218 -1.2956
 4652SOL    HW225593   1.435   1.442  12.119 -2.5786  0.8106  0.2709
 4653SOL     OW25594   0.751   1.388  10.705  0.2694 -0.0962  0.0097
 4653SOL    HW125595   0.714   1.316  10.756 -1.7779  0.4046 -0.7610
 4653SOL    HW225596   0.737   1.353  10.617  2.7759 -1.8887  0.3046
 4654SOL     OW25597   0.184   4.271   1.588 -0.0365 -0.0018 -0.1636
 4654SOL    HW125598   0.211   4.225   1.667 -2.1607 -1.0064 -0.0085
 4654SOL    HW225599   0.107   4.218   1.565  0.1128 -0.3760  0.1974
 4655SOL     OW25600   2.589   1.397   4.916 -0.0621  0.0558  0.2199
 4655SOL    HW125601   2.616   1.476   4.963  0.3356  1.0480 -1.6780
 4655SOL    HW225602   2.662   1.339   4.937  0.3532  1.3750  2.3440
 4656SOL     OW25603   1.522   0.009   6.609 -0.4451 -0.0899  0.6658
 4656SOL    HW125604   1.590   4.676   6.600 -0.2282  0.4160 -1.4427
 4656SOL    HW225605   1.557   0.069   6.674 -2.1374 -0.9999  2.4202
 4657SOL     OW25606   0.730   4.292   8.468  0.4177 -0.5135  0.2548
 4657SOL    HW125607   0.814   4.248   8.453 -0.6691 -1.9995 -1.3861
 4657SOL    HW225608   0.712   4.276   8.561 -3.0776 -0.7391 -0.4617
 4658SOL     OW25609   1.028   0.527   6.618 -0.4604 -0.3409 -0.0138
 4658SOL    HW125610   1.035   0.614   6.657  0.9564 -0.6027  0.3236
 4658SOL    HW225611   1.119   0.497   6.610 -1.0832 -1.9509 -1.0034
 4659SOL     OW25612   3.877   0.023  15.917  0.4847 -0.3551 -0.2217
 4659SOL    HW125613   3.880   0.118  15.926  0.3145 -0.3447 -0.2676
 4659SOL    HW225614   3.949   4.729  15.861  2.1622 -2.4435  2.9434
 4660SOL     OW25615   2.297   2.238   3.571  0.2085 -0.2812  0.3535
 4660SOL    HW125616   2.229   2.292   3.610  1.3878  2.2397 -1.0848
 4660SOL    HW225617   2.291   2.166   3.633 -2.2281  0.2743  0.7797
 4661SOL     OW25618   3.708   1.666   4.527  0.1304  0.1453  0.4792
 4661SOL    HW125619   3.775   1.636   4.588 -0.4493 -0.0646  1.0102
 4661SOL    HW225620   3.695   1.581   4.485  1.0386  1.0352 -1.5982
 4662SOL     OW25621   2.723   1.533   1.652 -0.5599 -0.0657 -0.4929
 4662SOL    HW125622   2.707   1.582   1.733  0.6778  0.1208 -0.3725
 4662SOL    HW225623   2.810   1.500   1.675 -0.4028 -0.9441 -2.3834
 4663SOL     OW25624   4.195   1.662  12.704 -0.1275 -0.0775  0.4486
 4663SOL    HW125625   4.139   1.731  12.668 -0.7041 -1.3050 -0.9816
 4663SOL    HW225626   4.165   1.586  12.655 -1.4881  0.7189  0.0292
 4664SOL     OW25627   0.178   1.564  11.857  0.3144  0.0545 -0.2292
 4664SOL    HW125628   0.228   1.521  11.927  1.5696  0.4841 -0.8567
 4664SOL    HW225629   0.169   1.490  11.798 -1.5433 -1.1547  1.5821
 4665SOL     OW25630   0.077   1.800   3.600  0.1523  0.1102  0.1388
 4665SOL    HW125631   0.163   1.803   3.641  0.6466 -0.1316 -0.9052
 4665SOL    HW225632   0.037   1.724   3.643  1.2560 -0.8266 -0.5177
 4666SOL     OW25633   2.975   3.564   9.448 -0.9696 -0.2869  0.2008
 4666SOL    HW125634   2.920   3.640   9.467  1.4827  0.9799  2.1477
 4666SOL    HW225635   2.918   3.487   9.458  1.5447 -2.2201 -0.3189
 4667SOL     OW25636   2.129   4.646   4.846  0.0900 -0.6280  0.0563
 4667SOL    HW125637   2.223   4.635   4.834 -0.2466 -2.7269 -0.6323
 4667SOL    HW225638   2.094   4.654   4.758  1.1600  1.1591 -0.2089
 4668SOL     OW25639   3.394   2.375  15.775 -0.7126 -0.1132 -0.5782
 4668SOL    HW125640   3.386   2.280  15.774 -1.7723 -0.0258  0.7039
 4668SOL    HW225641   3.393   2.398  15.868  1.5268 -3.1636  0.1910
 4669SOL     OW25642   0.107   0.186  10.854 -0.6319 -0.6109 -0.1275
 4669SOL    HW125643   0.105   0.090  10.845 -0.0807 -0.7068  0.7634
 4669SOL    HW225644   0.198   0.203  10.833  0.0799 -1.7002  2.1112
 4670SOL     OW25645   1.601   0.937   6.536 -0.1730 -0.0327  0.2853
 4670SOL    HW125646   1.615   0.868   6.472  2.4773 -1.3632  2.3004
 4670SOL    HW225647   1.693   0.963   6.542 -0.7722  2.7005 -2.4877
 4671SOL     OW25648   3.629   4.512   2.178 -0.1397 -0.2737  0.2080
 4671SOL    HW125649   3.583   4.594   2.163 -0.0408 -0.4042 -0.8327
 4671SOL    HW225650   3.596   4.475   2.259 -0.0456 -0.0754  0.3356
 4672SOL     OW25651   2.855   1.115   6.889  0.0565 -0.2174  0.4585
 4672SOL    HW125652   2.902   1.194   6.915 -1.3834  0.8298 -0.1275
 4672SOL    HW225653   2.761   1.132   6.888  0.1101  0.0422 -0.1834
 4673SOL     OW25654   2.669   1.195   7.231 -0.4151  0.3128  0.1510
 4673SOL    HW125655   2.703   1.153   7.310 -1.0202 -0.2915  0.0868
 4673SOL    HW225656   2.608   1.131   7.197  1.0113 -1.3578  0.7503
 4674SOL     OW25657   2.981   0.792   9.017  0.7704 -0.2089  0.0148
 4674SOL    HW125658   2.953   0.783   9.108 -0.5744 -1.3076 -0.5171
 4674SOL    HW225659   2.983   0.698   8.997 -2.3123 -0.4386  0.7537
 4675SOL     OW25660   0.980   3.785  11.693  0.0600 -0.4371  0.1987
 4675SOL    HW125661   0.934   3.817  11.771 -0.1370 -2.6341  0.9792
 4675SOL    HW225662   1.070   3.809  11.716  0.7109 -2.1642 -0.5359
 4676SOL     OW25663   0.198   2.527   8.882 -0.6619  0.7005  0.5882
 4676SOL    HW125664   0.245   2.610   8.887  1.1789 -0.3147  0.2623
 4676SOL    HW225665   0.127   2.560   8.827  0.1404  1.5815  0.0773
 4677SOL     OW25666   0.403   3.670   1.396  0.0792  0.4602 -0.0454
 4677SOL    HW125667   0.344   3.604   1.432  1.2211 -0.6528 -0.2338
 4677SOL    HW225668   0.345   3.745   1.411  0.6615  0.6516  1.1861
 4678SOL     OW25669   0.163   4.734   5.235  0.0411  0.2130 -0.0442
 4678SOL    HW125670   0.147   4.727   5.329  2.2039 -2.0094  0.1834
 4678SOL    HW225671   0.253   4.702   5.236 -0.2820 -0.6898  0.6942
 4679SOL     OW25672   2.624   2.698   2.178 -1.1015 -0.1715 -0.1013
 4679SOL    HW125673   2.611   2.616   2.129 -2.0520 -0.1577  0.1273
 4679SOL    HW225674   2.610   2.757   2.104  0.0930  1.6589  1.1431
 4680SOL     OW25675   1.246   0.437   6.306  0.1519 -0.1872 -0.4923
 4680SOL    HW125676   1.247   0.407   6.396  0.3090  0.0039 -0.4285
 4680SOL    HW225677   1.340   0.436   6.284  0.0013 -1.8588 -1.0175
 4681SOL     OW25678   1.629   2.905   0.887 -0.2721  0.1092 -0.3404
 4681SOL    HW125679   1.667   2.820   0.864  1.0304  0.3707  0.8521
 4681SOL    HW225680   1.632   2.890   0.982 -0.0621  1.0655 -0.1936
 4682SOL     OW25681   3.580   0.214   9.712  0.0734  0.0545 -0.4714
 4682SOL    HW125682   3.517   0.284   9.698  0.9760  0.5443 -2.0232
 4682SOL    HW225683   3.570   0.185   9.803  0.3568 -0.6128 -0.6450
 4683SOL     OW25684   0.576   1.484   2.618  0.7760  0.3076  0.2521
 4683SOL    HW125685   0.575   1.393   2.648 -1.0929 -0.1989 -1.3806
 4683SOL    HW225686   0.538   1.476   2.530 -1.4519  1.5453  1.1164
 4684SOL     OW25687   2.247   0.318   3.713  0.2402 -0.6891  0.1154
 4684SOL    HW125688   2.221   0.248   3.653 -0.0827  0.0412 -0.6054
 4684SOL    HW225689   2.308   0.370   3.660 -1.4576 -0.3181 -1.4701
 4685SOL     OW25690   2.436   2.911   5.693  0.6277  0.2388 -0.2961
 4685SOL    HW125691   2.377   2.841   5.723  1.8663  0.1118  1.8125
 4685SOL    HW225692   2.520   2.885   5.732  0.7934 -1.2465 -1.6547
 4686SOL     OW25693   4.559   3.368   6.762 -0.3203  0.1748  0.2936
 4686SOL    HW125694   4.519   3.387   6.848 -1.3153 -1.7397  0.2591
 4686SOL    HW225695   4.564   3.461   6.740  1.5125  0.8570  3.5215
 4687SOL     OW25696   0.254   3.576   8.032 -0.0878  0.1625 -0.4429
 4687SOL    HW125697   0.295   3.658   8.005  2.5575 -1.1602 -0.4249
 4687SOL    HW225698   0.268   3.575   8.127  1.7869 -3.6649 -0.7762
 4688SOL     OW25699   1.039   2.164   8.748  0.1218  0.4298  0.0638
 4688SOL    HW125700   1.034   2.134   8.658 -0.6109 -1.3944  0.7186
 4688SOL    HW225701   1.132   2.152   8.771  0.2130 -0.8545 -0.9797
 4689SOL     OW25702   2.295   0.011   8.382  0.3103 -0.5457  0.2389
 4689SOL    HW125703   2.286   0.102   8.355 -1.5451 -1.2014 -1.3268
 4689SOL    HW225704   2.273   0.009   8.475  1.4976 -1.8431  0.5074
 4690SOL     OW25705   0.167   4.115   2.465 -0.6995  0.8870  0.2971
 4690SOL    HW125706   0.228   4.111   2.539 -0.4557 -0.5472  0.0299
 4690SOL    HW225707   0.217   4.067   2.398 -1.8769  0.5350 -0.3293
 4691SOL     OW25708   1.731   3.844  13.352 -0.2241 -0.4351 -0.2261
 4691SOL    HW125709   1.671   3.775  13.378 -1.7101  1.0428  0.3129
 4691SOL    HW225710   1.672   3.918  13.338 -0.8101 -0.8620 -0.0175
 4692SOL     OW25711   1.757   0.258   4.135  0.5757 -0.1259 -0.8791
 4692SOL    HW125712   1.803   0.174   4.124  0.7913  0.0133 -1.0436
 4692SOL    HW225713   1.826   0.317   4.105  0.0177  0.1097 -1.6797
 4693SOL     OW25714   1.475   3.209   5.841  0.1383  0.1491  0.2847
 4693SOL    HW125715   1.554   3.250   5.875 -0.0952  1.8720 -1.2679
 4693SOL    HW225716   1.417   3.282   5.823  1.8129  1.6795  1.1369
 4694SOL     OW25717   4.512   1.789  15.112 -0.1665 -0.3443  0.5246
 4694SOL    HW125718   4.487   1.869  15.158  0.0250 -0.5360  0.9608
 4694SOL    HW225719   4.547   1.821  15.028 -0.4476  1.6505  1.1685
 4695SOL     OW25720   2.921   0.880  15.983 -0.2733  0.4574  0.6978
 4695SOL    HW125721   2.970   0.864  16.063 -0.5851  0.6677  0.9332
 4695SOL    HW225722   2.956   0.965  15.956  1.3892 -0.7622 -0.9500
 4696SOL     OW25723   1.555   3.406   6.556  0.3934 -0.2839  0.0137
 4696SOL    HW125724   1.515   3.348   6.620 -1.0256  1.9981  1.2205
 4696SOL    HW225725   1.642   3.413   6.597  1.1108  0.0698 -1.5826
 4697SOL     OW25726   0.327   1.912   4.335  0.1512  1.1232 -0.4367
 4697SOL    HW125727   0.381   1.835   4.355 -1.9702  0.0402  1.0421
 4697SOL    HW225728   0.391   1.983   4.340  2.6863 -0.9729 -2.9283
 4698SOL     OW25729   1.697   0.999   8.482 -0.0794 -0.5577 -0.2356
 4698SOL    HW125730   1.634   1.065   8.511 -0.7763 -0.6714 -1.4819
 4698SOL    HW225731   1.759   1.063   8.447  0.2454 -1.5400 -1.4607
 4699SOL     OW25732   2.932   1.715   0.401 -0.3655 -0.1778 -0.0209
 4699SOL    HW125733   2.898   1.655   0.467  0.5739 -0.3990  0.2660
 4699SOL    HW225734   3.002   1.762   0.446  1.4518 -2.1130 -0.8103
 4700SOL     OW25735   3.831   1.064   0.009 -0.1413 -0.5990 -0.3271
 4700SOL    HW125736   3.878   1.007  17.686 -1.1476  0.0408 -1.7076
 4700SOL    HW225737   3.765   1.096  17.685 -1.4029  0.1359  1.3662
 4701SOL     OW25738   0.817   2.485   5.380  0.1182 -0.5068  0.4812
 4701SOL    HW125739   0.898   2.475   5.430  1.9228  3.5538 -1.6800
 4701SOL    HW225740   0.815   2.399   5.338  0.0854 -0.7400  0.9605
 4702SOL     OW25741   1.654   4.520   6.995 -0.0584 -0.1008 -0.0163
 4702SOL    HW125742   1.601   4.448   6.961  0.8515 -0.9449  0.3317
 4702SOL    HW225743   1.741   4.503   6.959 -0.0077  0.5048 -0.1842
 4703SOL     OW25744   3.645   0.400   4.772 -0.3469 -0.5658  0.4158
 4703SOL    HW125745   3.683   0.312   4.780 -0.0198 -0.3554  1.1558
 4703SOL    HW225746   3.633   0.422   4.864  0.6204  1.4299  0.0711
 4704SOL     OW25747   4.293   1.218   5.713  0.4930 -0.5756 -0.2713
 4704SOL    HW125748   4.225   1.218   5.780  0.3699 -2.0316 -0.3920
 4704SOL    HW225749   4.248   1.261   5.640  0.4372  0.5853  0.4482
 4705SOL     OW25750   4.210   3.567   5.480 -0.1949  0.2686 -0.2775
 4705SOL    HW125751   4.153   3.588   5.553  0.2332  0.0665  0.1126
 4705SOL    HW225752   4.235   3.476   5.499 -1.1109 -0.3917 -2.2044
 4706SOL     OW25753   2.022   2.215   5.029  0.3668  0.3792 -0.8026
 4706SOL    HW125754   2.019   2.122   5.007 -0.4769 -0.5562  3.2881
 4706SOL    HW225755   2.103   2.235   4.982 -0.9232 -0.3396 -3.2790
 4707SOL     OW25756   3.640   0.521   7.337  0.1721  0.1276  0.1505
 4707SOL    HW125757   3.684   0.558   7.413 -1.8005 -0.4264  1.5488
 4707SOL    HW225758   3.682   0.437   7.316 -2.3095 -1.3144  0.9790
 4708SOL     OW25759   0.405   2.973   6.963  0.4433 -0.2494  0.2553
 4708SOL    HW125760   0.398   2.883   6.992 -2.3002  0.5989  2.2455
 4708SOL    HW225761   0.315   3.004   6.977  0.5585  1.2663 -2.3348
 4709SOL     OW25762   2.640   0.393   4.329 -0.2262 -0.4346 -0.7308
 4709SOL    HW125763   2.590   0.379   4.249 -0.4443 -0.4424 -0.5962
 4709SOL    HW225764   2.590   0.334   4.386 -0.2866  1.1390  0.8771
 4710SOL     OW25765   1.204   2.534   3.677 -0.0886  0.5407 -0.6454
 4710SOL    HW125766   1.248   2.493   3.751 -0.3574  3.0393  0.8876
 4710SOL    HW225767   1.276   2.541   3.614  0.9257  0.6749  0.5476
 4711SOL     OW25768   1.383   1.541   5.770 -0.2802 -0.2402 -0.3473
 4711SOL    HW125769   1.299   1.501   5.749 -0.0086 -0.2396 -1.4385
 4711SOL    HW225770   1.431   1.519   5.690  1.3921  1.9789  0.0427
 4712SOL     OW25771   1.774   4.444   4.247  0.4275  0.3652 -0.3163
 4712SOL    HW125772   1.694   4.424   4.295  1.1858 -0.6919  0.5069
 4712SOL    HW225773   1.779   4.372   4.183  1.9127 -1.0747  1.4207
 4713SOL     OW25774   2.998   1.497   1.698  0.3481 -0.1957 -0.1387
 4713SOL    HW125775   3.025   1.539   1.617 -0.4344  2.1796  0.8144
 4713SOL    HW225776   3.067   1.524   1.759 -1.2158 -0.3940  1.7461
 4714SOL     OW25777   0.290   2.459   0.213  0.3758 -0.4382  0.0006
 4714SOL    HW125778   0.254   2.420   0.133  1.0062  0.2076 -0.5908
 4714SOL    HW225779   0.374   2.492   0.181 -1.5257  1.5631 -2.9185
 4715SOL     OW25780   3.857   3.100  14.518 -0.1805  0.0744 -0.0534
 4715SOL    HW125781   3.793   3.125  14.451 -0.7623 -0.5941  0.2580
 4715SOL    HW225782   3.924   3.166  14.501 -2.7076  2.8342  0.7538
 4716SOL     OW25783   3.745   3.547   2.272  0.1388 -0.0792  0.5700
 4716SOL    HW125784   3.732   3.462   2.231  0.0470 -0.0478  0.5332
 4716SOL    HW225785   3.827   3.573   2.230  0.9242  0.7249  2.5985
 4717SOL     OW25786   0.452   0.619  13.831  0.0736  0.1855  0.2368
 4717SOL    HW125787   0.418   0.530  13.832  1.7138 -0.4535 -0.3772
 4717SOL    HW225788   0.532   0.595  13.784  1.6502  2.2823  1.8285
 4718SOL     OW25789   4.103   3.459   5.748 -0.0882  0.0978  0.0596
 4718SOL    HW125790   4.178   3.442   5.804 -0.3758 -0.6911  0.2088
 4718SOL    HW225791   4.061   3.373   5.747 -1.3453  0.7157 -0.7317
 4719SOL     OW25792   3.650   4.112   3.237 -0.6450  0.5778 -0.6685
 4719SOL    HW125793   3.710   4.042   3.213 -2.0729 -0.8786  0.0096
 4719SOL    HW225794   3.644   4.148   3.149  2.4133  1.8000 -0.3813
 4720SOL     OW25795   2.593   0.169   6.356 -0.0622 -0.2505  0.5638
 4720SOL    HW125796   2.687   0.150   6.350  0.3794  1.7651  1.2193
 4720SOL    HW225797   2.573   0.161   6.449  1.0268 -0.9458  0.7447
 4721SOL     OW25798   2.393   0.964  14.617  0.5790 -0.1136 -0.7356
 4721SOL    HW125799   2.412   1.022  14.543  1.4838 -0.1296 -0.5166
 4721SOL    HW225800   2.474   0.928  14.653 -0.0356 -0.1791  0.5769
 4722SOL     OW25801   2.527   3.010  16.273 -0.0060 -0.5086  0.4086
 4722SOL    HW125802   2.468   3.014  16.348  0.9692 -1.0167  1.2085
 4722SOL    HW225803   2.476   2.956  16.211 -0.4995 -0.1999  0.5457
 4723SOL     OW25804   1.530   1.918   5.509 -0.2181  0.2755  0.1017
 4723SOL    HW125805   1.494   1.996   5.552 -1.7822 -0.0502 -0.5972
 4723SOL    HW225806   1.608   1.914   5.564 -0.7895  0.8248  0.9541
 4724SOL     OW25807   0.935   1.538  14.233  0.3668 -0.0217  0.2073
 4724SOL    HW125808   0.908   1.582  14.152 -0.6490 -1.1146 -0.0587
 4724SOL    HW225809   0.999   1.476  14.199  1.8285  2.3971 -1.4527
 4725SOL     OW25810   3.333   1.389  16.799 -0.4230  0.0996  0.2551
 4725SOL    HW125811   3.255   1.394  16.744  0.9912  0.7559 -1.7004
 4725SOL    HW225812   3.304   1.341  16.876  1.0187 -0.4108  0.4781
 4726SOL     OW25813   4.424   1.033  11.980  0.0473  0.1425 -0.0144
 4726SOL    HW125814   4.513   1.012  11.951  0.5643 -1.4716  2.7001
 4726SOL    HW225815   4.376   0.950  11.977  2.8544 -1.5176  0.8840
 4727SOL     OW25816   1.446   0.515   2.489  0.6582 -0.1710 -0.4815
 4727SOL    HW125817   1.445   0.611   2.499  1.2130 -0.4795  2.5896
 4727SOL    HW225818   1.498   0.508   2.409 -1.6851 -2.6729 -1.7765
 4728SOL     OW25819   0.852   0.719   2.976 -0.3950  0.5120  0.0238
 4728SOL    HW125820   0.785   0.699   2.910  1.2348 -0.3597 -1.3595
 4728SOL    HW225821   0.846   0.813   2.989  0.0545  0.7265 -1.2491
 4729SOL     OW25822   1.205   0.656  12.272 -0.2896 -0.8246 -0.4116
 4729SOL    HW125823   1.220   0.750  12.278  0.8917 -1.0452  0.2396
 4729SOL    HW225824   1.256   0.635  12.194 -0.0397  1.1613 -0.7598
 4730SOL     OW25825   1.027   1.678   0.636  0.1450 -0.6528 -0.0273
 4730SOL    HW125826   0.943   1.722   0.624  0.8474  0.9289  0.7750
 4730SOL    HW225827   1.029   1.642   0.725  1.3726 -0.4061  0.0360
 4731SOL     OW25828   0.576   0.824   2.041  0.3743 -0.6162 -0.1726
 4731SOL    HW125829   0.593   0.804   1.949 -1.0474 -2.2741 -0.0732
 4731SOL    HW225830   0.529   0.906   2.025  2.8702  1.0844  1.3345
 4732SOL     OW25831   4.560   2.213   1.488  0.6852  0.0611 -0.1044
 4732SOL    HW125832   4.511   2.189   1.410  2.4276  0.4408 -1.3227
 4732SOL    HW225833   4.637   2.252   1.446  0.5186  3.4025  2.6761
 4733SOL     OW25834   2.250   2.769   0.034  0.2417 -0.4254 -1.2031
 4733SOL    HW125835   2.247   2.825   0.111  0.3796 -2.7834  0.5160
 4733SOL    HW225836   2.197   2.823  17.714  0.5854  0.8494 -0.3206
 4734SOL     OW25837   2.955   2.452  12.110 -0.5968 -0.2118 -0.0054
 4734SOL    HW125838   2.956   2.542  12.143 -4.2571 -0.2104  0.0594
 4734SOL    HW225839   2.891   2.403  12.162 -0.7831  0.8313  0.7383
 4735SOL     OW25840   0.656   2.745   1.562 -0.3229  0.1114 -0.4525
 4735SOL    HW125841   0.607   2.804   1.620  1.5078 -1.7480  3.0045
 4735SOL    HW225842   0.667   2.818   1.501  1.1372 -0.2160 -0.5735
 4736SOL     OW25843   4.029   2.520   1.285 -0.6940  0.1851  0.1346
 4736SOL    HW125844   4.080   2.552   1.360  1.3223  1.5882 -1.8594
 4736SOL    HW225845   3.963   2.469   1.331 -2.4409 -0.0046 -2.6094
 4737SOL     OW25846   2.387   3.699   3.132  0.3235  0.1607  0.1455
 4737SOL    HW125847   2.310   3.649   3.160  1.3628 -0.1220  2.4796
 4737SOL    HW225848   2.421   3.740   3.211 -0.3595  1.5265 -0.2661
 4738SOL     OW25849   3.913   4.623   5.113  0.0876  0.1502  0.0291
 4738SOL    HW125850   3.883   4.547   5.162 -1.1962  0.7553  0.1752
 4738SOL    HW225851   3.858   4.604   5.037  1.3640  0.2313 -0.9060
 4739SOL     OW25852   1.877   4.561   4.921 -0.0029 -0.1260  0.6135
 4739SOL    HW125853   1.962   4.582   4.883 -0.0744  2.0072  1.6384
 4739SOL    HW225854   1.835   4.643   4.895  0.0028 -0.0973  0.6940
 4740SOL     OW25855   3.444   0.219  13.299 -0.3897  0.0572 -0.1911
 4740SOL    HW125856   3.404   0.138  13.268 -0.8166  1.0375 -2.1955
 4740SOL    HW225857   3.403   0.287  13.246 -0.1054  0.0735 -0.3884
 4741SOL     OW25858   2.141   2.649   8.729  0.1281 -0.2399 -0.3990
 4741SOL    HW125859   2.129   2.619   8.819  1.5325 -1.9975 -0.7906
 4741SOL    HW225860   2.077   2.719   8.739  0.8409  0.2289  0.7948
 4742SOL     OW25861   0.791   3.871   9.213 -0.5481  0.1289 -0.2255
 4742SOL    HW125862   0.833   3.941   9.264 -2.2425  1.4060 -0.5883
 4742SOL    HW225863   0.857   3.851   9.146  0.4598 -3.0045  1.6905
 4743SOL     OW25864   3.543   0.175   6.686 -0.3607  0.5974  0.0236
 4743SOL    HW125865   3.523   0.141   6.773  1.1784  0.5470  0.3483
 4743SOL    HW225866   3.459   0.196   6.645  0.1681 -0.5572 -1.6671
 4744SOL     OW25867   3.035   3.124   6.942 -0.6179 -0.2116  0.2404
 4744SOL    HW125868   3.065   3.102   7.030 -1.9141 -2.2429  0.1807
 4744SOL    HW225869   2.972   3.191   6.969  1.7064  1.4834  1.4322
 4745SOL     OW25870   0.363   3.024   8.524  0.1995 -0.3284  0.4049
 4745SOL    HW125871   0.421   3.037   8.449 -0.0855  0.1735  0.2783
 4745SOL    HW225872   0.279   3.014   8.479  0.2131  1.6666 -0.0655
 4746SOL     OW25873   2.631   2.891  10.569 -0.4793 -0.3620 -0.0886
 4746SOL    HW125874   2.558   2.852  10.521 -1.4032 -0.6691  1.5741
 4746SOL    HW225875   2.602   2.979  10.545 -0.0034  0.1033  1.0953
 4747SOL     OW25876   1.285   0.999   0.216  0.0808  0.4039 -0.1305
 4747SOL    HW125877   1.205   0.947   0.211 -1.1552  2.1688  1.5641
 4747SOL    HW225878   1.256   1.080   0.175  1.7145  0.9782 -0.1721
 4748SOL     OW25879   1.942   2.021   1.912 -0.2471 -0.0415 -0.8268
 4748SOL    HW125880   1.971   2.094   1.966  0.4150 -0.8251 -0.1175
 4748SOL    HW225881   1.848   2.034   1.929 -0.3121  1.3878 -2.3164
 4749SOL     OW25882   0.683   3.855   8.839  0.2175 -0.0214 -0.4410
 4749SOL    HW125883   0.745   3.904   8.893 -0.3718 -2.2370  2.2595
 4749SOL    HW225884   0.659   3.781   8.895 -0.6652  1.2070  0.8116
 4750SOL     OW25885   0.386   1.809   8.570  0.0644 -0.1147  0.0071
 4750SOL    HW125886   0.480   1.794   8.585  0.2587  0.3016 -0.7763
 4750SOL    HW225887   0.360   1.718   8.555  2.3433 -0.6269 -0.9143
 4751SOL     OW25888   0.708   2.319   4.859 -0.6968 -0.0960  0.4956
 4751SOL    HW125889   0.627   2.370   4.861 -0.8954 -0.3645 -0.7823
 4751SOL    HW225890   0.770   2.385   4.827 -0.8107 -0.3704 -0.2770
 4752SOL     OW25891   1.720   1.217  11.936 -0.1015 -0.1683 -0.1806
 4752SOL    HW125892   1.772   1.240  12.013 -1.6999  1.0513  0.5177
 4752SOL    HW225893   1.728   1.122  11.938 -0.4020 -0.2433 -2.4582
 4753SOL     OW25894   2.336   3.884   9.706 -0.2536  0.1971 -0.2370
 4753SOL    HW125895   2.310   3.973   9.679  0.4783  0.5792  0.3294
 4753SOL    HW225896   2.422   3.906   9.741 -0.6295 -0.9848  1.4222
 4754SOL     OW25897   3.176   2.445   4.444 -0.5154  0.0311  0.2388
 4754SOL    HW125898   3.141   2.473   4.529 -1.3993 -4.5374  1.3599
 4754SOL    HW225899   3.228   2.368   4.466  0.4783  0.0580 -2.1085
 4755SOL     OW25900   0.324   1.025   2.864  0.6999  0.0701  0.6098
 4755SOL    HW125901   0.332   1.102   2.921  2.0928  0.0955  0.3830
 4755SOL    HW225902   0.346   1.064   2.779 -0.2223  0.9894  0.7826
 4756SOL     OW25903   3.075   1.112  13.867  0.2063 -0.6113  0.3647
 4756SOL    HW125904   3.050   1.140  13.779  0.6578  0.2837  0.5223
 4756SOL    HW225905   3.104   1.198  13.898 -0.3928 -0.3475  0.1973
 4757SOL     OW25906   2.035   4.223  13.506  0.1377 -0.0270  0.3918
 4757SOL    HW125907   1.950   4.194  13.540 -0.0174  0.0966  0.1143
 4757SOL    HW225908   2.018   4.211  13.412  1.2708 -0.8253  0.2960
 4758SOL     OW25909   3.832   0.423  17.524 -0.4530 -0.0889  0.0798
 4758SOL    HW125910   3.881   0.454  17.448 -0.0422 -1.3960 -0.1855
 4758SOL    HW225911   3.764   0.491  17.524 -0.5031 -0.1354 -0.6997
 4759SOL     OW25912   1.103   0.747   7.758 -0.1507 -0.4816 -0.3767
 4759SOL    HW125913   1.145   0.822   7.801  0.8680 -1.7508  0.8411
 4759SOL    HW225914   1.123   0.759   7.665  1.6935 -0.9463 -0.0304
 4760SOL     OW25915   0.179   3.995   9.163 -0.0958 -0.0474 -0.3061
 4760SOL    HW125916   0.175   3.966   9.254  0.5153 -1.1182 -0.6212
 4760SOL    HW225917   0.188   4.090   9.171 -3.1981 -0.0794  3.3853
 4761SOL     OW25918   4.467   0.452   7.501 -0.3639 -0.4090  0.0288
 4761SOL    HW125919   4.434   0.368   7.533  0.6848 -0.9232 -0.2442
 4761SOL    HW225920   4.527   0.426   7.431 -0.1226  0.5956 -0.1372
 4762SOL     OW25921   4.081   0.498   4.104 -0.2079 -0.8502 -0.4405
 4762SOL    HW125922   4.003   0.542   4.072  0.7497  0.8873 -0.4287
 4762SOL    HW225923   4.042   0.426   4.153  1.3990  0.3944  2.7403
 4763SOL     OW25924   1.851   3.800   8.513 -0.5632 -0.3403  0.5398
 4763SOL    HW125925   1.916   3.730   8.511 -1.5157 -1.2516  1.6214
 4763SOL    HW225926   1.860   3.830   8.604 -3.4522  0.5921  0.5057
 4764SOL     OW25927   0.913   1.347  14.981  0.5743  0.0258  0.1669
 4764SOL    HW125928   0.842   1.377  15.038  1.5615 -0.3924  1.6028
 4764SOL    HW225929   0.889   1.254  14.977  0.1624  0.1527 -0.3095
 4765SOL     OW25930   2.068   0.553   8.836  0.0958 -0.4815  0.6580
 4765SOL    HW125931   2.146   0.603   8.862  0.5838 -1.2182  0.6090
 4765SOL    HW225932   2.036   0.525   8.922  0.7962  0.2731  1.1698
 4766SOL     OW25933   3.031   1.424   3.204 -0.5376  0.0483  0.3616
 4766SOL    HW125934   3.074   1.367   3.268 -0.2225 -1.4327 -1.2043
 4766SOL    HW225935   3.072   1.510   3.220 -2.1640  0.6453  1.3497
 4767SOL     OW25936   2.828   2.949   7.358 -0.0663  0.3392 -0.4366
 4767SOL    HW125937   2.876   2.866   7.360 -0.5580  0.0623 -0.0093
 4767SOL    HW225938   2.818   2.956   7.453  0.5988 -0.3788 -0.3078
 4768SOL     OW25939   0.716   1.196  14.358 -0.1861  0.0226  0.2244
 4768SOL    HW125940   0.668   1.202  14.275 -0.5809  1.5963  0.5527
 4768SOL    HW225941   0.692   1.283  14.392 -1.6574 -0.1587 -0.3192
 4769SOL     OW25942   3.335   1.176   3.996  0.1851 -0.5461 -0.1757
 4769SOL    HW125943   3.283   1.124   3.935 -0.1794  1.1696 -1.3404
 4769SOL    HW225944   3.421   1.171   3.954  1.0401  2.1713  1.2169
 4770SOL     OW25945   2.215   2.522  12.402 -0.3851 -0.2705 -0.4982
 4770SOL    HW125946   2.150   2.478  12.347 -0.0976  0.8760 -1.7646
 4770SOL    HW225947   2.181   2.609  12.423  1.4760  0.3480 -0.1057
 4771SOL     OW25948   2.674   1.769  11.746 -0.2062  0.6878  0.2683
 4771SOL    HW125949   2.651   1.692  11.798 -0.2404  1.1441  0.9244
 4771SOL    HW225950   2.682   1.740  11.655  1.3020 -1.5005  1.0991
 4772SOL     OW25951   3.535   1.082   5.057  0.1981  0.2862 -0.7270
 4772SOL    HW125952   3.551   1.175   5.072 -1.3789  0.7558 -2.0226
 4772SOL    HW225953   3.623   1.044   5.063  0.3165  0.7441  0.4899
 4773SOL     OW25954   4.363   2.170   6.653 -0.1574  0.3822  0.5280
 4773SOL    HW125955   4.304   2.123   6.594  0.8019 -1.3499  0.9312
 4773SOL    HW225956   4.446   2.172   6.605 -1.0522 -1.1678 -1.0969
 4774SOL     OW25957   1.185   3.825  13.539 -0.2268  0.3433  0.3067
 4774SOL    HW125958   1.245   3.882  13.587  0.9229  0.7552 -1.6283
 4774SOL    HW225959   1.214   3.850  13.451  1.4021  0.4657  0.8707
 4775SOL     OW25960   2.620   0.879  10.142  0.3595 -0.0060  0.4424
 4775SOL    HW125961   2.560   0.805  10.133 -0.6012  1.0543 -1.9870
 4775SOL    HW225962   2.683   0.856  10.074  0.9719 -1.1164  1.3971
 4776SOL     OW25963   1.697   0.059   7.642 -0.0655  0.3433  0.5661
 4776SOL    HW125964   1.698   4.702   7.668  0.3098  0.1585 -0.0978
 4776SOL    HW225965   1.658   0.100   7.719  1.7420  0.2437  1.5258
 4777SOL     OW25966   1.573   1.899  14.813  0.2094  0.1024 -0.5552
 4777SOL    HW125967   1.597   1.914  14.721  1.4263  1.2036 -0.0665
 4777SOL    HW225968   1.584   1.805  14.819  0.5116  0.1810  0.1263
 4778SOL     OW25969   3.716   0.802   6.612 -0.0415  0.1883  0.1830
 4778SOL    HW125970   3.700   0.813   6.706  1.2765  0.1870  0.4101
 4778SOL    HW225971   3.754   0.714   6.613  0.0359  0.2046 -0.8418
 4779SOL     OW25972   3.186   4.161  13.963 -0.1469  0.3770 -0.1982
 4779SOL    HW125973   3.251   4.177  14.032 -2.6555  0.7715  2.1126
 4779SOL    HW225974   3.128   4.089  13.989 -0.7862  0.6752 -0.7982
 4780SOL     OW25975   0.808   0.013   7.151  0.5559 -0.1971  0.1758
 4780SOL    HW125976   0.811   0.041   7.060  1.9024 -0.0501  0.2637
 4780SOL    HW225977   0.780   0.091   7.198 -1.3938 -0.2558 -0.8952
 4781SOL     OW25978   1.914   2.983  11.365 -0.4008  0.8987 -0.1148
 4781SOL    HW125979   1.865   3.061  11.338 -1.8684  0.6821  1.8968
 4781SOL    HW225980   1.983   3.018  11.421 -1.6586  0.6274  1.5941
 4782SOL     OW25981   1.665   4.171   7.099  0.1222  0.5416 -0.0775
 4782SOL    HW125982   1.625   4.207   7.020  1.3073  0.6446 -0.6345
 4782SOL    HW225983   1.629   4.082   7.106  0.4319  0.3296 -1.2270
 4783SOL     OW25984   3.951   1.613   6.920 -0.3195 -0.2648  0.2422
 4783SOL    HW125985   3.964   1.534   6.866  1.5783  0.5873 -0.5510
 4783SOL    HW225986   4.028   1.668   6.907 -0.5994 -0.5165 -2.4081
 4784SOL     OW25987   1.673   4.053   8.495  0.4850 -0.0655  0.4437
 4784SOL    HW125988   1.617   4.071   8.571  0.6997  0.5643  0.4553
 4784SOL    HW225989   1.690   3.960   8.486  0.1624 -0.1168  0.3657
 4785SOL     OW25990   4.635   0.550  11.094 -0.3706 -0.2647  0.2586
 4785SOL    HW125991   4.626   0.497  11.173 -1.4451  0.7585  0.8146
 4785SOL    HW225992   4.729   0.537  11.083  0.1373  2.2212  1.8818
 4786SOL     OW25993   0.087   4.486   7.075  0.1926  0.0940 -0.1806
 4786SOL    HW125994   0.133   4.409   7.108 -2.1530 -1.0800  0.3646
 4786SOL    HW225995   0.007   4.441   7.050 -0.3750 -0.9745  3.5113
 4787SOL     OW25996   0.831   1.825   8.482 -0.0442 -0.4087 -0.8935
 4787SOL    HW125997   0.799   1.787   8.399 -0.1484 -0.0093 -1.0371
 4787SOL    HW225998   0.756   1.801   8.537  0.3156  0.8436  0.1197
 4788SOL     OW25999   2.939   4.623  13.306 -0.3454 -0.0054  0.7505
 4788SOL    HW126000   2.874   4.612  13.375 -1.9688  0.8289 -0.6268
 4788SOL    HW226001   2.969   4.535  13.283  0.4033  0.4220  0.0624
 4789SOL     OW26002   1.906   1.846   5.505  0.6725 -0.4479  0.4738
 4789SOL    HW126003   1.909   1.935   5.471 -2.7053 -1.4432 -2.4955
 4789SOL    HW226004   1.950   1.794   5.438  1.5257 -2.1613  2.3740
 4790SOL     OW26005   1.938   0.118  11.777  0.0104 -0.4474  0.0527
 4790SOL    HW126006   1.844   0.113  11.793  0.0090  0.5548  0.3408
 4790SOL    HW226007   1.929   0.162  11.692  2.5906  2.9364  1.5429
 4791SOL     OW26008   0.104   1.970  13.809 -0.0180  0.1651  0.1995
 4791SOL    HW126009   0.031   1.910  13.826 -2.3996  2.4863 -1.8161
 4791SOL    HW226010   0.127   1.948  13.719  3.5305 -1.2225  1.4290
 4792SOL     OW26011   2.976   1.887   8.784 -0.0653  0.0586 -0.0327
 4792SOL    HW126012   3.022   1.830   8.846 -2.6787 -2.8550 -0.7823
 4792SOL    HW226013   2.909   1.823   8.761 -0.4333 -0.6554  2.9705
 4793SOL     OW26014   3.297   0.334   8.665 -0.0221 -0.6558  0.1052
 4793SOL    HW126015   3.365   0.280   8.706 -0.5925 -2.5002 -1.3511
 4793SOL    HW226016   3.286   0.289   8.581  1.5290  0.7474 -0.8429
 4794SOL     OW26017   1.452   3.819   2.842  0.2330 -0.1262 -0.4471
 4794SOL    HW126018   1.468   3.909   2.815 -0.5950 -0.2036 -1.1741
 4794SOL    HW226019   1.472   3.823   2.936 -0.1816  0.8810 -0.4074
 4795SOL     OW26020   2.672   4.551   2.657  0.9030  0.2142  0.2775
 4795SOL    HW126021   2.758   4.588   2.639  0.3079  0.6773 -1.5575
 4795SOL    HW226022   2.634   4.608   2.724 -0.3793  1.9494 -1.9433
 4796SOL     OW26023   1.862   2.523  15.629  0.0752  0.3939  0.1035
 4796SOL    HW126024   1.788   2.538  15.688 -0.3816 -0.6546 -0.1952
 4796SOL    HW226025   1.822   2.564  15.551  0.0449  1.7746  0.8523
 4797SOL     OW26026   0.961   4.580  15.869  0.5426 -0.0516 -0.5665
 4797SOL    HW126027   1.039   4.526  15.857  0.1547 -1.4720  3.1621
 4797SOL    HW226028   0.925   4.578  15.780 -2.4530 -0.2123  0.6420
 4798SOL     OW26029   3.222   4.454   1.798  0.6671 -0.2460  0.2642
 4798SOL    HW126030   3.223   4.423   1.889  3.1477  0.4487  0.4703
 4798SOL    HW226031   3.164   4.528   1.817  1.4044  0.3166  0.3351
 4799SOL     OW26032   3.175   4.530   3.368 -0.1995 -0.5183  0.4564
 4799SOL    HW126033   3.196   4.581   3.446 -1.4682  0.3644  0.2129
 4799SOL    HW226034   3.084   4.506   3.386 -0.4812  0.0429 -0.2557
 4800SOL     OW26035   4.499   3.873  15.458 -0.1070 -0.3473  0.0029
 4800SOL    HW126036   4.485   3.938  15.389 -1.2480  0.7659  1.2580
 4800SOL    HW226037   4.412   3.874  15.498  0.7151 -1.3570  1.8136
 4801SOL     OW26038   0.819   4.523  15.631 -0.1431  0.2392 -0.9502
 4801SOL    HW126039   0.840   4.461  15.561 -1.4416 -0.9819 -0.2506
 4801SOL    HW226040   0.744   4.571  15.596 -0.0999  1.8372  1.1702
 4802SOL     OW26041   1.365   3.319  16.117 -0.4294 -0.1160  0.0539
 4802SOL    HW126042   1.380   3.263  16.041 -1.4220 -0.1302 -0.1351
 4802SOL    HW226043   1.440   3.378  16.120 -0.2360 -0.4252  1.5790
 4803SOL     OW26044   3.854   0.290   9.024 -0.1952 -0.3438  0.5651
 4803SOL    HW126045   3.798   0.354   9.068  0.5551 -0.0498  1.0935
 4803SOL    HW226046   3.804   0.271   8.945 -1.5693  1.1645  1.0924
 4804SOL     OW26047   0.488   2.900   3.684  0.5941  0.1003  0.1834
 4804SOL    HW126048   0.402   2.905   3.643  1.0049  0.1642 -0.6637
 4804SOL    HW226049   0.505   2.812   3.649  0.5340 -0.6018  1.8983
 4805SOL     OW26050   2.896   0.331   0.892  0.3171 -0.3987 -0.5930
 4805SOL    HW126051   2.810   0.313   0.854 -1.3212  0.7049  2.6386
 4805SOL    HW226052   2.867   0.342   0.982 -0.1571 -0.4602 -0.7391
 4806SOL     OW26053   0.899   0.824   0.508  0.1648 -0.2591 -0.8243
 4806SOL    HW126054   0.964   0.893   0.493 -0.4434  0.1454 -1.6120
 4806SOL    HW226055   0.885   0.844   0.600  1.2325 -1.7038 -0.3510
 4807SOL     OW26056   2.028   0.269   8.830  0.1762 -0.6116  0.0615
 4807SOL    HW126057   2.057   0.359   8.813 -1.0613 -0.4383 -1.1468
 4807SOL    HW226058   1.958   0.263   8.765  1.1425  1.4619 -1.1421
 4808SOL     OW26059   3.629   4.321   2.472 -0.0793  0.1801 -0.0723
 4808SOL    HW126060   3.649   4.391   2.533 -0.1584  0.8122 -0.7745
 4808SOL    HW226061   3.555   4.367   2.432 -1.3800 -0.8322  1.1815
 4809SOL     OW26062   4.623   1.484   8.583  0.1655  0.5612 -0.1517
 4809SOL    HW126063   4.633   1.396   8.618 -0.5565  0.4392 -0.2466
 4809SOL    HW226064   4.655   1.469   8.495  1.5797 -1.5756  0.7344
 4810SOL     OW26065   3.129   2.318   5.666 -0.1210 -0.3381 -0.1494
 4810SOL    HW126066   3.202   2.350   5.720  0.4535 -0.6355 -0.7487
 4810SOL    HW226067   3.100   2.253   5.730 -1.0454  0.0439 -0.1838
 4811SOL     OW26068   2.306   3.643  10.677  0.0045  0.5490  0.3943
 4811SOL    HW126069   2.350   3.710  10.729  0.0854  0.3880  0.5339
 4811SOL    HW226070   2.274   3.704  10.611  0.4607  0.2617 -0.0963
 4812SOL     OW26071   1.606   3.956   6.429 -0.1694  0.2478 -0.4162
 4812SOL    HW126072   1.661   3.900   6.483  0.0058  0.7562 -0.0661
 4812SOL    HW226073   1.533   3.976   6.488 -0.4811  2.2744 -1.5127
 4813SOL     OW26074   2.830   0.399   4.508 -0.5045  0.7161 -0.4665
 4813SOL    HW126075   2.783   0.400   4.424 -0.4217  1.6801 -0.4973
 4813SOL    HW226076   2.790   0.476   4.546 -0.0706 -0.2625  1.9420
 4814SOL     OW26077   0.468   0.841   8.377  0.6386 -0.4604 -0.3081
 4814SOL    HW126078   0.492   0.793   8.298  0.8212  0.0241 -0.5472
 4814SOL    HW226079   0.492   0.776   8.443  0.2608  1.7790  2.0799
 4815SOL     OW26080   4.258   0.645   0.970  0.0972 -0.0320  0.2489
 4815SOL    HW126081   4.320   0.668   1.039 -0.5460 -1.0326  1.1587
 4815SOL    HW226082   4.183   0.609   1.017  1.1725 -0.7905  1.3551
 4816SOL     OW26083   4.328   1.107  16.186 -0.3226 -0.1809  0.4308
 4816SOL    HW126084   4.355   1.143  16.270 -1.2385  0.6793  0.3561
 4816SOL    HW226085   4.238   1.078  16.203 -0.1459 -1.2967 -0.5157
 4817SOL     OW26086   1.207   3.549  16.041  0.2267  0.0896  0.0079
 4817SOL    HW126087   1.259   3.481  15.999 -2.0023 -0.2608 -2.2209
 4817SOL    HW226088   1.123   3.544  15.995  0.4752 -2.3223 -0.1535
 4818SOL     OW26089   0.770   2.416  11.746 -0.3559  0.5307  0.0152
 4818SOL    HW126090   0.825   2.487  11.778  1.5015 -1.4717  1.2014
 4818SOL    HW226091   0.836   2.351  11.723 -1.9753 -1.4686  1.0287
 4819SOL     OW26092   1.247   0.904   3.536 -0.5241 -0.0456  0.1619
 4819SOL    HW126093   1.265   0.811   3.518 -0.2406 -0.0018  0.2153
 4819SOL    HW226094   1.317   0.955   3.496  2.4639 -4.2559 -0.0809
 4820SOL     OW26095   3.842   2.066   5.414 -0.6753  0.4826  0.0306
 4820SOL    HW126096   3.821   2.013   5.337 -0.9269 -0.6520  0.8875
 4820SOL    HW226097   3.854   2.150   5.369 -0.5640 -0.7950 -2.3268
 4821SOL     OW26098   1.867   4.365   9.445  0.7302 -0.0522  0.0742
 4821SOL    HW126099   1.833   4.358   9.535  0.2280 -2.0651 -0.2785
 4821SOL    HW226100   1.870   4.459   9.427 -0.7607 -0.0202 -0.0152
 4822SOL     OW26101   1.324   4.193   6.971  0.2064  0.2614 -0.0451
 4822SOL    HW126102   1.254   4.144   6.926  0.8611  0.1293 -0.9214
 4822SOL    HW226103   1.295   4.188   7.062  0.2558  1.8031  0.0536
 4823SOL     OW26104   0.040   0.135   5.013 -0.2743  0.8383 -0.1001
 4823SOL    HW126105   4.698   0.143   5.069  0.1801  0.9606  0.5124
 4823SOL    HW226106   0.103   0.126   5.085 -0.6448 -3.0670 -0.2341
 4824SOL     OW26107   4.295   0.123   6.438 -0.4978 -0.2738  0.0843
 4824SOL    HW126108   4.319   0.202   6.486  0.3529 -0.8094  0.5259
 4824SOL    HW226109   4.337   0.053   6.487 -2.2234 -0.2054  1.6292
 4825SOL     OW26110   1.981   1.681   2.514  0.0411  0.1162 -0.3959
 4825SOL    HW126111   1.938   1.685   2.599  1.5668 -1.0657  0.4256
 4825SOL    HW226112   2.071   1.711   2.526  0.8876 -1.0209 -3.6609
 4826SOL     OW26113   1.409   3.738  16.086  0.4491  0.2880  0.5434
 4826SOL    HW126114   1.332   3.680  16.080  2.8832 -2.4280 -4.5172
 4826SOL    HW226115   1.361   3.820  16.092 -2.8677 -1.5531 -0.3876
 4827SOL     OW26116   2.947   1.348   7.003  0.2729 -0.3406 -0.3804
 4827SOL    HW126117   2.921   1.427   7.050  0.2488 -0.2727 -0.5084
 4827SOL    HW226118   3.041   1.362   6.994 -0.3587  3.3440 -1.0992
 4828SOL     OW26119   2.601   2.507   1.953 -0.7581  0.8371 -0.2358
 4828SOL    HW126120   2.623   2.509   1.860  1.0516  0.3578  0.1783
 4828SOL    HW226121   2.509   2.480   1.953  0.0464 -1.8974 -0.2253
 4829SOL     OW26122   4.570   0.155  11.548 -0.4053 -0.0076 -0.4614
 4829SOL    HW126123   4.641   0.199  11.595 -2.2758  2.1462  0.3522
 4829SOL    HW226124   4.619   0.077  11.522  0.8325 -0.0310  1.9677
 4830SOL     OW26125   4.508   3.816   4.789  0.3604  0.1660 -0.1505
 4830SOL    HW126126   4.529   3.835   4.880  2.5422 -0.7309 -0.4785
 4830SOL    HW226127   4.448   3.888   4.767  0.1402  0.6521  2.1027
 4831SOL     OW26128   3.213   3.674   7.047  0.6940 -0.0958 -0.2634
 4831SOL    HW126129   3.277   3.633   6.990  2.3263  1.8599  0.1676
 4831SOL    HW226130   3.133   3.677   6.993  1.5313  0.1296 -1.4910
 4832SOL     OW26131   4.216   1.591   8.558 -0.6122 -0.0759  0.6038
 4832SOL    HW126132   4.206   1.503   8.595  0.5019 -0.6122 -0.3956
 4832SOL    HW226133   4.303   1.622   8.584 -0.2565  0.7422 -1.5716
 4833SOL     OW26134   0.607   3.235   2.701 -0.2911  0.0404  0.2276
 4833SOL    HW126135   0.585   3.266   2.788  0.5053 -0.3915  0.5782
 4833SOL    HW226136   0.618   3.320   2.659  2.5384 -1.5719 -2.3126
 4834SOL     OW26137   2.204   1.549  13.734 -0.0322 -0.4810  0.1695
 4834SOL    HW126138   2.252   1.537  13.652 -2.6192 -4.3739 -0.7648
 4834SOL    HW226139   2.268   1.597  13.786  0.7693 -2.3371  0.8898
 4835SOL     OW26140   3.859   2.903   3.898 -0.3313 -0.1060  0.2764
 4835SOL    HW126141   3.793   2.834   3.902  0.5848 -0.9696  0.3311
 4835SOL    HW226142   3.857   2.944   3.985  1.4393  1.7319 -0.5518
 4836SOL     OW26143   2.766   4.349   1.982  0.0499  1.0033  0.4161
 4836SOL    HW126144   2.709   4.275   1.960  1.1528 -0.2684  1.8301
 4836SOL    HW226145   2.789   4.382   1.895  1.1928 -0.1003  0.2973
 4837SOL     OW26146   2.530   2.215   8.458  0.2018 -0.7514 -0.1031
 4837SOL    HW126147   2.453   2.163   8.436  0.4213 -0.1587 -2.2761
 4837SOL    HW226148   2.562   2.233   8.370 -1.5928 -2.9145 -1.1734
 4838SOL     OW26149   2.669   0.511   3.955 -0.0703 -0.2117  0.0249
 4838SOL    HW126150   2.650   0.419   3.976 -1.3548  0.1376  0.3922
 4838SOL    HW226151   2.703   0.534   4.041  2.4113 -0.0986 -0.9960
 4839SOL     OW26152   3.683   2.110  16.300 -0.2744 -0.2362  0.3593
 4839SOL    HW126153   3.704   2.126  16.208 -0.3900 -1.7025  0.0769
 4839SOL    HW226154   3.598   2.153  16.298  0.6679  1.6820  1.4022
 4840SOL     OW26155   2.423   2.207   6.109  0.1135  0.2264 -0.0572
 4840SOL    HW126156   2.420   2.164   6.194  0.9585 -0.3656 -0.3327
 4840SOL    HW226157   2.362   2.280   6.125  2.7223  1.8604  2.3233
 4841SOL     OW26158   4.733   3.274   6.375 -0.9158 -0.3341  0.1031
 4841SOL    HW126159   4.674   3.263   6.301 -2.6737  0.7171  1.3555
 4841SOL    HW226160   0.074   3.236   6.331  1.1724  1.3412  2.2108
 4842SOL     OW26161   0.300   1.526  16.650 -0.2612 -0.2537 -0.0529
 4842SOL    HW126162   0.336   1.470  16.718  2.2257  0.8002 -0.4950
 4842SOL    HW226163   0.345   1.490  16.574  0.0278 -2.0142  0.9469
 4843SOL     OW26164   2.460   4.221   5.596  0.2813  0.2075 -0.1152
 4843SOL    HW126165   2.509   4.156   5.647  0.3038  0.9114  0.7683
 4843SOL    HW226166   2.410   4.164   5.538 -0.6382  0.9238 -0.0338
 4844SOL     OW26167   2.034   3.416   4.856 -0.1414 -0.5547  0.1520
 4844SOL    HW126168   2.064   3.454   4.938 -0.1537  0.3905 -0.2872
 4844SOL    HW226169   2.084   3.336   4.842  1.1588  0.0662  1.2890
 4845SOL     OW26170   1.746   4.199   0.741  0.1151 -0.3549 -0.2250
 4845SOL    HW126171   1.767   4.264   0.808 -1.4147 -0.5769  0.4644
 4845SOL    HW226172   1.728   4.244   0.659 -0.7467 -0.5922 -0.1628
 4846SOL     OW26173   0.957   2.643   9.549 -0.2134  0.0524 -0.2331
 4846SOL    HW126174   0.921   2.715   9.497  0.8754 -0.5637 -1.8351
 4846SOL    HW226175   0.878   2.599   9.582 -0.9700  0.1111 -1.9711
 4847SOL     OW26176   1.093   3.002   6.777 -0.0475 -0.3752  0.0583
 4847SOL    HW126177   1.056   2.913   6.782  0.3172 -0.6158 -1.5123
 4847SOL    HW226178   1.056   3.039   6.858  1.0108 -3.0793  1.7801
 4848SOL     OW26179   0.220   0.535  10.161 -0.2780 -0.1626  0.0254
 4848SOL    HW126180   0.304   0.522  10.204 -0.0649  2.5049  0.4343
 4848SOL    HW226181   0.170   0.549  10.241  0.8689 -0.9346  0.8846
 4849SOL     OW26182   2.923   0.241   3.880  0.1203 -0.1361 -0.3309
 4849SOL    HW126183   2.979   0.164   3.884  1.2282  0.7490  0.9121
 4849SOL    HW226184   2.907   0.274   3.968  1.2394  1.2729 -0.6565
 4850SOL     OW26185   0.625   2.527  12.375  0.0008  0.2913  0.1785
 4850SOL    HW126186   0.719   2.528  12.355  0.2479 -3.6495  1.1126
 4850SOL    HW226187   0.601   2.448  12.328  3.0626 -0.3766 -0.2430
 4851SOL     OW26188   0.692   3.364   9.517 -0.0134  0.9716 -0.2051
 4851SOL    HW126189   0.728   3.322   9.438  2.4111 -0.7587  1.8205
 4851SOL    HW226190   0.766   3.369   9.578 -0.5941 -3.3384  0.8912
 4852SOL     OW26191   4.301   3.547  12.678 -0.3659 -0.0439  0.0227
 4852SOL    HW126192   4.315   3.464  12.632  1.6519  0.2287  0.1255
 4852SOL    HW226193   4.327   3.537  12.770 -1.7237 -0.9948  0.3095
 4853SOL     OW26194   0.556   1.233   8.174  0.1329 -0.3653 -0.2095
 4853SOL    HW126195   0.502   1.155   8.156 -3.9535  2.3380  0.4063
 4853SOL    HW226196   0.568   1.262   8.084  1.8226  2.0842  0.8170
 4854SOL     OW26197   3.998   2.592  12.542  0.3027  0.0919 -0.2246
 4854SOL    HW126198   4.091   2.613  12.548  0.6419 -1.1644 -1.0644
 4854SOL    HW226199   3.956   2.643  12.611 -0.9079 -0.1231 -0.8050
 4855SOL     OW26200   4.294   0.759   4.712  0.5053 -0.0263  0.2539
 4855SOL    HW126201   4.258   0.759   4.800  0.0780 -2.6668  0.0792
 4855SOL    HW226202   4.387   0.758   4.734  0.3669 -0.1060  0.8173
 4856SOL     OW26203   1.119   4.153   0.583 -0.3624 -0.1090  0.5798
 4856SOL    HW126204   1.086   4.078   0.633  1.5216 -0.7288  0.8928
 4856SOL    HW226205   1.173   4.102   0.523  0.3721 -2.0840  2.9301
 4857SOL     OW26206   3.449   1.466  15.551 -0.3894 -0.2455  0.0513
 4857SOL    HW126207   3.487   1.487  15.466 -0.8931  1.2710  0.1945
 4857SOL    HW226208   3.513   1.405  15.587 -1.1012  0.8612  3.2615
 4858SOL     OW26209   3.949   2.130  12.238 -0.2167  0.4067  0.2583
 4858SOL    HW126210   3.983   2.217  12.216  0.2982  0.6672  2.1148
 4858SOL    HW226211   3.983   2.082  12.162  1.6052 -0.7289  1.7936
 4859SOL     OW26212   1.758   3.070   6.491 -0.0043 -0.4625  0.1053
 4859SOL    HW126213   1.759   3.160   6.460  0.9081 -0.4513  0.1470
 4859SOL    HW226214   1.692   3.026   6.438 -0.0965  0.0000 -0.1538
 4860SOL     OW26215   3.116   0.761   8.173 -0.2426  0.0076 -0.5162
 4860SOL    HW126216   3.161   0.680   8.149 -2.6707 -1.7770  0.9575
 4860SOL    HW226217   3.099   0.809   8.092  1.6774 -1.0309 -1.5458
 4861SOL     OW26218   2.477   2.132   7.389  0.8750 -0.2501 -0.1019
 4861SOL    HW126219   2.547   2.094   7.443 -1.6548 -3.8131  0.6146
 4861SOL    HW226220   2.410   2.064   7.391  0.3205  0.2778 -0.8299
 4862SOL     OW26221   1.310   3.741   0.971 -0.4988  0.4534  0.1544
 4862SOL    HW126222   1.341   3.796   0.899 -1.0817 -2.0947 -2.0347
 4862SOL    HW226223   1.232   3.787   1.000  0.6113  2.1416  0.4414
 4863SOL     OW26224   2.050   4.310  13.788  0.2057  0.4580 -0.1826
 4863SOL    HW126225   2.135   4.271  13.806  0.1140  0.5623  0.4980
 4863SOL    HW226226   2.036   4.282  13.697  1.4231  0.6229 -0.4113
 4864SOL     OW26227   0.369   1.816   7.099 -0.4128  0.1576  0.0807
 4864SOL    HW126228   0.305   1.770   7.045  1.1856 -0.6774 -1.0889
 4864SOL    HW226229   0.330   1.901   7.120  0.7655  0.9504 -0.9835
 4865SOL     OW26230   4.600   4.256   7.497  0.1212  0.0067  0.1432
 4865SOL    HW126231   4.520   4.308   7.499  0.8518  1.3388 -4.0610
 4865SOL    HW226232   4.577   4.168   7.526  0.7424 -0.2096 -0.0117
 4866SOL     OW26233   4.028   1.716   6.179  0.9382 -0.2303 -0.8395
 4866SOL    HW126234   3.952   1.674   6.139  1.0616  2.3517 -3.8206
 4866SOL    HW226235   4.036   1.679   6.267 -0.2726  0.4547 -0.4473
 4867SOL     OW26236   4.300   2.902  13.927  0.1122  0.2449  0.0718
 4867SOL    HW126237   4.215   2.869  13.955 -0.0723 -0.2578 -1.1099
 4867SOL    HW226238   4.354   2.897  14.006  2.2850 -0.9209 -1.4988
 4868SOL     OW26239   1.294   2.197   8.448  0.1918  0.3078  0.5478
 4868SOL    HW126240   1.199   2.188   8.451  0.3692 -1.4582  0.8562
 4868SOL    HW226241   1.312   2.156   8.363  0.3978  0.7821  0.3598
 4869SOL     OW26242   3.025   3.682   2.591  0.2649 -0.8806 -0.5991
 4869SOL    HW126243   2.980   3.608   2.551 -0.2490 -0.4065 -0.9082
 4869SOL    HW226244   3.045   3.633   2.671 -1.3282 -0.6209 -0.0256
 4870SOL     OW26245   1.649   4.438   5.867  0.1563 -0.5985  0.8019
 4870SOL    HW126246   1.653   4.371   5.936  1.6411 -0.9852  0.3408
 4870SOL    HW226247   1.611   4.514   5.911 -0.5085 -1.3985  1.6051
 4871SOL     OW26248   3.465   3.444  11.394  0.0976 -0.0244  0.2503
 4871SOL    HW126249   3.439   3.352  11.403  1.8963 -0.6131 -0.6538
 4871SOL    HW226250   3.551   3.429  11.355 -0.4332 -4.2284  0.6685
 4872SOL     OW26251   2.167   3.546  16.174  0.4251 -0.0336 -0.1407
 4872SOL    HW126252   2.140   3.505  16.092  0.1673  3.7420 -1.9754
 4872SOL    HW226253   2.251   3.580  16.142  0.9732  0.0499  1.3609
 4873SOL     OW26254   4.342   4.369   4.794  1.1902  0.5930 -0.3175
 4873SOL    HW126255   4.306   4.411   4.872  0.5995 -1.1007  0.3251
 4873SOL    HW226256   4.367   4.450   4.750 -2.0560  1.5820 -0.3387
 4874SOL     OW26257   3.699   3.973   6.474 -0.5476  0.0486  0.1114
 4874SOL    HW126258   3.647   4.023   6.412 -0.9540 -1.8249 -1.0690
 4874SOL    HW226259   3.779   4.025   6.475 -0.2039 -0.4823  0.3314
 4875SOL     OW26260   0.272   4.450   8.496 -0.3425 -0.1162  0.0594
 4875SOL    HW126261   0.221   4.399   8.432 -2.6743  0.0308  1.8046
 4875SOL    HW226262   0.364   4.432   8.476  0.4177  2.8718  0.8615
 4876SOL     OW26263   1.419   4.283  15.789 -0.0180  0.7181 -0.6494
 4876SOL    HW126264   1.357   4.356  15.790 -0.6877  0.1899 -2.8204
 4876SOL    HW226265   1.478   4.316  15.722  1.5987 -0.9868 -0.0616
 4877SOL     OW26266   3.908   1.833  14.411  0.2406 -0.0243 -0.1114
 4877SOL    HW126267   3.891   1.805  14.321 -0.4055 -1.8208  0.5740
 4877SOL    HW226268   3.837   1.897  14.414  0.9106  0.7712 -1.1071
 4878SOL     OW26269   0.718   1.635   3.151  0.2756  0.6543  0.5403
 4878SOL    HW126270   0.677   1.602   3.231  0.7334 -0.6856  0.2088
 4878SOL    HW226271   0.741   1.554   3.106  2.5333  1.4079  0.3299
 4879SOL     OW26272   4.157   2.174  15.031  0.0502 -0.2175  0.9868
 4879SOL    HW126273   4.218   2.217  14.971 -1.4659 -1.1581 -1.2381
 4879SOL    HW226274   4.128   2.095  14.987  0.7201  0.4736 -0.6943
 4880SOL     OW26275   1.545   2.444   5.379 -0.3884 -0.5610  0.3375
 4880SOL    HW126276   1.456   2.479   5.391 -0.3864 -0.4049 -0.0880
 4880SOL    HW226277   1.542   2.393   5.298 -0.4749 -0.8310  0.5138
 4881SOL     OW26278   1.951   2.957   7.180 -0.4340 -0.4960  0.4263
 4881SOL    HW126279   2.034   3.004   7.176 -1.6086  1.4223 -1.7738
 4881SOL    HW226280   1.928   2.962   7.273 -1.6990 -1.1843  0.1539
 4882SOL     OW26281   3.395   2.905   6.421  0.0145  0.4765  0.0813
 4882SOL    HW126282   3.485   2.910   6.454  0.7265 -0.0673 -1.8073
 4882SOL    HW226283   3.364   2.817   6.445 -0.1170  0.1426 -1.3289
 4883SOL     OW26284   0.231   4.032   7.676 -0.0226  0.2545 -0.3316
 4883SOL    HW126285   0.293   3.984   7.622 -0.0441 -0.3837  0.2086
 4883SOL    HW226286   0.186   3.959   7.719  0.9098 -0.1541 -0.0445
 4884SOL     OW26287   1.379   2.555   2.584  0.6526  0.0718  0.0837
 4884SOL    HW126288   1.336   2.489   2.639 -1.1040  1.1079 -0.0371
 4884SOL    HW226289   1.308   2.562   2.520  0.1534 -0.3018  0.6022
 4885SOL     OW26290   0.341   4.282   6.973 -0.0993  0.2271  0.0260
 4885SOL    HW126291   0.315   4.263   7.063  1.3688  1.3012  0.6824
 4885SOL    HW226292   0.397   4.204   6.970 -0.3371  0.0481  0.3275
 4886SOL     OW26293   0.661   1.000   4.964  0.0642 -0.1643  0.9004
 4886SOL    HW126294   0.701   0.961   5.041 -0.4992 -0.7829  0.8788
 4886SOL    HW226295   0.711   1.082   4.960 -0.4004  0.0525 -0.5018
 4887SOL     OW26296   2.347   0.637   3.339 -0.9090 -0.0267  0.0218
 4887SOL    HW126297   2.333   0.603   3.251 -4.6820  0.9412  0.2852
 4887SOL    HW226298   2.342   0.731   3.323  0.1663  0.0591  0.1436
 4888SOL     OW26299   4.485   3.694   7.333 -0.3101 -0.2199 -0.2111
 4888SOL    HW126300   4.553   3.680   7.399  1.4296  2.5304 -1.4385
 4888SOL    HW226301   4.406   3.691   7.387 -0.4903 -0.4482 -0.4909
 4889SOL     OW26302   3.555   4.575  15.652  0.1184  0.1231  0.1996
 4889SOL    HW126303   3.491   4.537  15.713  0.6454 -3.1963 -1.3563
 4889SOL    HW226304   3.511   4.559  15.569 -3.1536  1.2836  1.7191
 4890SOL     OW26305   4.412   0.276  10.963  0.4788  0.1110 -0.2433
 4890SOL    HW126306   4.465   0.205  10.999 -0.3284 -0.8894 -1.0227
 4890SOL    HW226307   4.334   0.269  11.018 -1.2926 -1.6167 -2.9742
 4891SOL     OW26308   1.813   2.894   2.472 -0.2410  0.0968  0.0674
 4891SOL    HW126309   1.803   2.870   2.380  1.8551  1.0001 -0.3858
 4891SOL    HW226310   1.739   2.846   2.509 -0.6182 -0.0076 -0.8174
 4892SOL     OW26311   2.814   3.321   8.779  0.3843  0.0639 -0.0844
 4892SOL    HW126312   2.812   3.403   8.729  1.0120 -1.1203 -2.0417
 4892SOL    HW226313   2.722   3.298   8.772  0.7976 -1.5471 -0.2171
 4893SOL     OW26314   0.602   0.188   6.331 -0.7612 -0.3666 -0.4283
 4893SOL    HW126315   0.625   0.256   6.394 -2.1474 -0.4821  0.1915
 4893SOL    HW226316   0.585   0.124   6.399  1.6242 -2.4486 -1.7772
 4894SOL     OW26317   0.958   1.204   3.174  0.0759 -0.2798 -0.5960
 4894SOL    HW126318   1.030   1.202   3.237  0.8185 -0.7291 -1.4532
 4894SOL    HW226319   0.886   1.200   3.236  1.4519  0.4567  1.0541
 4895SOL     OW26320   2.708   4.039   5.108 -0.4693 -0.5034 -0.8976
 4895SOL    HW126321   2.786   3.999   5.068  1.1986  1.3934  0.4492
 4895SOL    HW226322   2.708   4.002   5.196  1.2530  1.3342 -0.1334
 4896SOL     OW26323   1.717   1.062   3.584  0.0883 -0.0506  0.0986
 4896SOL    HW126324   1.808   1.034   3.591  0.4710  0.8736 -1.2960
 4896SOL    HW226325   1.707   1.083   3.491 -0.2552  0.9399  0.3538
 4897SOL     OW26326   4.146   4.196   4.663 -0.2219 -0.4720  0.1640
 4897SOL    HW126327   4.146   4.237   4.576  2.4409  1.5268  1.1099
 4897SOL    HW226328   4.212   4.251   4.704  1.4413 -0.4704 -2.4993
 4898SOL     OW26329   1.321   3.742  12.382 -0.0637 -0.0131  0.0150
 4898SOL    HW126330   1.310   3.827  12.424  0.2434  0.0806 -0.0933
 4898SOL    HW226331   1.407   3.720  12.418  0.4475 -1.1637 -1.8574
 4899SOL     OW26332   3.000   3.989  10.622 -0.3592 -0.5488  0.1771
 4899SOL    HW126333   2.999   3.964  10.529 -2.6154 -0.4037  0.1761
 4899SOL    HW226334   3.092   4.011  10.639 -0.0636  0.6311 -2.9272
 4900SOL     OW26335   4.128   1.789   8.007 -0.5955  0.0343  1.2054
 4900SOL    HW126336   4.075   1.791   8.087 -1.8519  0.9149  0.3586
 4900SOL    HW226337   4.200   1.843   8.036  0.2308 -0.6925  0.5109
 4901SOL     OW26338   1.969   2.565   5.790  0.3085  0.0035 -0.6357
 4901SOL    HW126339   1.898   2.522   5.744 -1.7554  1.5970  1.0684
 4901SOL    HW226340   1.979   2.642   5.734 -1.3155  0.3550 -0.4304
 4902SOL     OW26341   3.209   3.554  16.882  0.1368 -0.4674 -0.4362
 4902SOL    HW126342   3.231   3.472  16.926 -0.4792 -0.2315  0.3052
 4902SOL    HW226343   3.246   3.522  16.799  2.1850  1.4615 -0.2530
 4903SOL     OW26344   0.378   0.691  14.142 -0.2646  0.1024  0.4745
 4903SOL    HW126345   0.296   0.643  14.156  0.4583 -1.8473 -1.9690
 4903SOL    HW226346   0.357   0.756  14.074 -0.7630  0.6384  1.1348
 4904SOL     OW26347   2.483   2.909   5.368  0.5068  0.4852  0.1371
 4904SOL    HW126348   2.529   2.899   5.452 -1.4074 -3.5122  0.6960
 4904SOL    HW226349   2.465   2.816   5.354  1.7372  0.2146  0.2898
 4905SOL     OW26350   2.575   2.566   4.772 -0.3822  0.1568  0.1232
 4905SOL    HW126351   2.657   2.550   4.727  0.3229  3.4692  0.2172
 4905SOL    HW226352   2.523   2.518   4.707 -0.3556  2.6496 -1.7348
 4906SOL     OW26353   3.198   0.625   2.028 -0.2025  0.0326 -0.2742
 4906SOL    HW126354   3.137   0.654   1.960 -2.3958 -2.8787  0.4838
 4906SOL    HW226355   3.277   0.648   1.980  0.5535  1.5681  1.6745
 4907SOL     OW26356   1.810   0.939  12.240 -0.0309  0.7416  0.6043
 4907SOL    HW126357   1.769   0.955  12.156  0.4691 -3.7557 -0.5193
 4907SOL    HW226358   1.739   0.952  12.303 -1.6954  0.7507 -1.2924
 4908SOL     OW26359   2.509   0.024   0.936  0.5234 -0.1117  1.1052
 4908SOL    HW126360   2.572   4.697   0.972  0.8430 -0.1469  0.4852
 4908SOL    HW226361   2.442   0.020   1.004 -1.1381 -1.2936 -0.5932
 4909SOL     OW26362   1.795   3.121   9.616 -0.1735 -0.4629  0.1331
 4909SOL    HW126363   1.886   3.130   9.589 -0.1417  0.1913  0.4426
 4909SOL    HW226364   1.788   3.212   9.647 -3.1427 -0.1713 -1.2738
 4910SOL     OW26365   1.119   1.656   3.943 -0.3194 -0.1523 -0.4640
 4910SOL    HW126366   1.040   1.709   3.950 -0.7856 -1.0726  1.1203
 4910SOL    HW226367   1.184   1.719   3.973 -1.9958  1.4730 -0.2501
 4911SOL     OW26368   0.280   0.261  12.802 -0.2308 -0.0938 -0.5752
 4911SOL    HW126369   0.291   0.355  12.817 -1.3793 -0.0185 -0.1891
 4911SOL    HW226370   0.361   0.237  12.756  0.8601  2.8553 -0.2086
 4912SOL     OW26371   1.130   0.609   5.260  0.6235 -0.1978 -0.3801
 4912SOL    HW126372   1.061   0.654   5.309  0.1445 -0.4662 -0.8105
 4912SOL    HW226373   1.164   0.543   5.320 -2.4188 -1.1620  0.2451
 4913SOL     OW26374   2.708   3.102   8.086 -0.0735 -0.3441  0.7305
 4913SOL    HW126375   2.709   3.185   8.133  0.3464  0.3685 -0.5267
 4913SOL    HW226376   2.638   3.049   8.125 -0.8137 -0.7562 -1.1055
 4914SOL     OW26377   4.505   2.358   1.215 -0.2428  0.5799  0.4752
 4914SOL    HW126378   4.421   2.402   1.201 -0.9736 -0.3709  1.8108
 4914SOL    HW226379   4.476   2.269   1.237  1.3274 -0.3806 -1.3053
 4915SOL     OW26380   4.088   4.497   6.304  0.2555  0.3042  0.1713
 4915SOL    HW126381   4.103   4.590   6.286 -0.5598  0.7095  1.5489
 4915SOL    HW226382   4.174   4.468   6.333  0.4587  0.0009 -0.7420
 4916SOL     OW26383   2.594   4.250   0.810 -0.2551 -0.0618 -0.3073
 4916SOL    HW126384   2.565   4.182   0.870  0.4719  0.9344  1.1723
 4916SOL    HW226385   2.685   4.223   0.803 -0.2147  0.0074 -0.0520
 4917SOL     OW26386   0.868   2.215   5.328  0.0166 -0.7707  0.7558
 4917SOL    HW126387   0.916   2.242   5.250 -0.7946  0.1089  0.5446
 4917SOL    HW226388   0.919   2.137   5.348  1.3199 -0.2833 -0.7097
 4918SOL     OW26389   1.532   0.187   2.776  0.3229 -0.0842  0.4103
 4918SOL    HW126390   1.443   0.184   2.742  0.0295 -0.5898  1.2306
 4918SOL    HW226391   1.512   0.230   2.859 -2.3902  2.5121 -1.6096
 4919SOL     OW26392   4.205   1.814   2.250 -0.5674  0.4151 -0.5083
 4919SOL    HW126393   4.177   1.782   2.336  2.7748  1.5598  1.0027
 4919SOL    HW226394   4.128   1.816   2.193 -0.9455  0.0665 -0.0229
 4920SOL     OW26395   1.847   2.120  10.930  0.3852 -0.1990 -0.4067
 4920SOL    HW126396   1.878   2.210  10.941 -1.9008  0.6532 -0.9412
 4920SOL    HW226397   1.808   2.103  11.015  1.7898 -2.3120 -0.1785
 4921SOL     OW26398   1.437   2.415   8.345 -1.1709  0.9310  0.3534
 4921SOL    HW126399   1.402   2.334   8.384 -1.2478  0.7748 -0.0373
 4921SOL    HW226400   1.530   2.392   8.343 -1.9375 -2.2182 -0.2462
 4922SOL     OW26401   2.478   1.827  14.141  0.4188  0.2322  0.3120
 4922SOL    HW126402   2.450   1.894  14.203  0.7171  1.1429 -0.5390
 4922SOL    HW226403   2.403   1.818  14.082 -1.4220  0.0935  2.6534
 4923SOL     OW26404   3.608   4.180  12.648  0.4378 -0.1982  0.1235
 4923SOL    HW126405   3.550   4.189  12.572  0.6976  3.1530  0.3214
 4923SOL    HW226406   3.570   4.258  12.689  1.4475  0.3153  0.0877
 4924SOL     OW26407   4.676   2.317  13.326 -1.0827  0.2063 -0.1670
 4924SOL    HW126408   4.689   2.254  13.397 -5.2944 -1.7062 -1.1495
 4924SOL    HW226409   0.000   2.383  13.363  1.4050 -2.5273  0.8171
 4925SOL     OW26410   2.089   4.352   5.208  0.1071 -0.3049  0.0081
 4925SOL    HW126411   2.086   4.373   5.301  0.5275  0.3801 -0.1387
 4925SOL    HW226412   1.999   4.322   5.193  0.3079 -1.1528  0.4722
 4926SOL     OW26413   4.103   3.608   7.919  0.6702  0.3493  0.2411
 4926SOL    HW126414   4.030   3.548   7.908  0.5930  1.0327 -2.9674
 4926SOL    HW226415   4.121   3.587   8.011  0.2042  0.3926  0.3424
 4927SOL     OW26416   0.605   2.880  12.909  0.2705 -0.2499 -0.0891
 4927SOL    HW126417   0.551   2.830  12.848  1.1901 -2.3510  0.7928
 4927SOL    HW226418   0.686   2.897  12.861  0.5992 -2.8923 -0.4651
 4928SOL     OW26419   0.260   4.044   0.204 -0.4504  0.2409 -0.0135
 4928SOL    HW126420   0.330   4.109   0.201 -1.1417  0.9157 -1.8970
 4928SOL    HW226421   0.186   4.093   0.168  0.5965  0.8114 -1.3759
 4929SOL     OW26422   0.799   2.907  17.196 -0.8796 -0.0675  0.6003
 4929SOL    HW126423   0.883   2.950  17.180 -0.0771 -1.6781  0.5167
 4929SOL    HW226424   0.770   2.904  17.105  0.4293 -0.0305  0.1779
 4930SOL     OW26425   3.413   4.185   1.244 -0.0225 -0.3462 -0.6323
 4930SOL    HW126426   3.330   4.157   1.205 -0.0828 -0.5327 -0.3685
 4930SOL    HW226427   3.475   4.124   1.204  2.7539  1.9443  0.2495
 4931SOL     OW26428   1.357   3.139   9.593  0.3547  0.2851  0.3310
 4931SOL    HW126429   1.428   3.078   9.574  0.1226 -0.1531  0.8821
 4931SOL    HW226430   1.408   3.213   9.560  1.1894 -0.2713  0.3709
 4932SOL     OW26431   3.945   0.652   3.916  0.0462 -0.0091  0.6924
 4932SOL    HW126432   3.947   0.646   3.821 -0.6596 -0.6575  0.7146
 4932SOL    HW226433   4.012   0.720   3.921 -0.7498  0.7648  0.8176
 4933SOL     OW26434   3.416   1.239   2.281 -0.1616 -0.6930 -0.0893
 4933SOL    HW126435   3.447   1.290   2.356  0.2897 -0.6306 -0.3188
 4933SOL    HW226436   3.333   1.206   2.316 -0.9708 -0.3817 -1.6873
 4934SOL     OW26437   4.529   3.481   3.464  0.3693  0.2052  0.2047
 4934SOL    HW126438   4.557   3.567   3.433  1.7503 -0.4892 -0.4849
 4934SOL    HW226439   4.454   3.469   3.404 -0.0260  4.4208 -0.1762
 4935SOL     OW26440   4.644   1.601   8.066  0.2162  0.4048 -0.2348
 4935SOL    HW126441   4.732   1.569   8.050 -0.3068 -1.8395  1.3558
 4935SOL    HW226442   4.598   1.581   7.985  0.4388 -1.0516 -0.0015
 4936SOL     OW26443   1.102   0.571  17.008 -0.0301  0.1040 -0.4600
 4936SOL    HW126444   1.165   0.579  17.079 -1.0573 -3.3761  0.8320
 4936SOL    HW226445   1.073   0.480  17.015  0.1726  0.0597 -0.1672
 4937SOL     OW26446   2.661   1.187   7.853 -0.0202 -0.4651 -0.1086
 4937SOL    HW126447   2.625   1.176   7.764  0.1348 -0.2626 -0.1969
 4937SOL    HW226448   2.595   1.238   7.899 -0.5289  2.3619 -3.9746
 4938SOL     OW26449   1.384   1.627   6.272 -0.3046 -0.1695  0.0555
 4938SOL    HW126450   1.322   1.658   6.206 -1.1398  0.5192  1.1776
 4938SOL    HW226451   1.323   1.626   6.345 -0.3516 -2.8143  0.0008
 4939SOL     OW26452   1.444   3.403   9.510 -0.2117 -0.0188 -0.3857
 4939SOL    HW126453   1.381   3.427   9.442 -0.4326 -0.4290 -0.3262
 4939SOL    HW226454   1.515   3.404   9.447  0.2636 -1.3401  0.1268
 4940SOL     OW26455   0.039   1.581  17.600 -0.4691  0.8141 -0.1213
 4940SOL    HW126456   0.098   1.586  17.676 -0.3555  1.2365 -0.2386
 4940SOL    HW226457   4.730   1.666  17.596 -0.4239  0.7473 -1.9078
 4941SOL     OW26458   0.853   2.670   7.382 -0.1871  0.0538 -0.1176
 4941SOL    HW126459   0.941   2.707   7.391 -0.6141  1.3937 -1.4605
 4941SOL    HW226460   0.821   2.708   7.465  0.6095 -0.5177  0.4460
 4942SOL     OW26461   4.378   0.316  15.100 -0.1931 -0.3799  0.3499
 4942SOL    HW126462   4.453   0.358  15.058 -0.1261  1.6020  2.4614
 4942SOL    HW226463   4.310   0.339  15.037  0.6292  0.6389 -0.1652
 4943SOL     OW26464   2.011   1.579   3.571 -0.6345 -0.1360  0.6508
 4943SOL    HW126465   2.103   1.569   3.547 -1.0704 -0.1417 -1.0270
 4943SOL    HW226466   1.975   1.625   3.495 -0.2296 -1.0470 -0.0932
 4944SOL     OW26467   0.073   0.478   4.144  0.3638  0.1359 -0.4291
 4944SOL    HW126468   0.050   0.542   4.077 -2.5156 -1.7635 -1.2300
 4944SOL    HW226469   0.167   0.478   4.128  0.4436  0.2581  0.0411
 4945SOL     OW26470   2.831   0.994   8.908  0.0219  0.0472  0.8855
 4945SOL    HW126471   2.811   1.046   8.986  2.0843  0.3443  1.2188
 4945SOL    HW226472   2.889   0.926   8.943 -0.7294 -0.3046  1.4403
 4946SOL     OW26473   2.581   4.723   3.356 -0.4000 -0.0959 -0.2483
 4946SOL    HW126474   2.587   0.061   3.293 -1.4030 -0.3246 -0.6111
 4946SOL    HW226475   2.627   0.021   3.433  1.8502  0.7470 -1.9437
 4947SOL     OW26476   1.554   0.700   1.700  0.0647  0.1905  0.5161
 4947SOL    HW126477   1.534   0.700   1.793 -0.0312  0.1171  0.4958
 4947SOL    HW226478   1.485   0.761   1.674  0.4866  0.7832  0.7878
 4948SOL     OW26479   0.915   1.025   8.889 -0.1397 -0.6335 -0.1874
 4948SOL    HW126480   1.005   0.995   8.903  0.0002 -1.1139 -2.1941
 4948SOL    HW226481   0.923   1.015   8.794  2.6044  1.2817 -0.1344
 4949SOL     OW26482   1.628   3.085   3.642  0.1424  0.9085 -0.4259
 4949SOL    HW126483   1.615   3.113   3.733  0.3288  1.6542 -0.6322
 4949SOL    HW226484   1.548   3.116   3.601 -0.0248  0.5445 -0.3798
 4950SOL     OW26485   3.116   4.257   4.385  0.4302 -0.1100 -0.3151
 4950SOL    HW126486   3.145   4.339   4.346 -1.3136  0.1145 -1.1305
 4950SOL    HW226487   3.129   4.193   4.315  1.3988 -1.0646  0.7336
 4951SOL     OW26488   2.300   2.826  11.731  0.0029  0.2871  0.0203
 4951SOL    HW126489   2.276   2.834  11.639 -0.2424 -0.7939 -0.0124
 4951SOL    HW226490   2.395   2.831  11.730  0.0923 -1.0780  0.7450
 4952SOL     OW26491   4.701   1.420   2.479 -0.5817  0.0510 -0.6506
 4952SOL    HW126492   4.701   1.326   2.464 -0.8672 -0.8631  5.1516
 4952SOL    HW226493   4.645   1.444   2.406  1.7565  0.0869 -2.4333
 4953SOL     OW26494   0.923   2.697  16.821  0.2176  0.1717 -0.2998
 4953SOL    HW126495   1.011   2.733  16.810  0.2363  0.3875  0.5596
 4953SOL    HW226496   0.884   2.703  16.734 -0.3006  0.2260 -0.0637
 4954SOL     OW26497   4.353   3.062   4.625 -0.1429  0.3399  0.4942
 4954SOL    HW126498   4.334   3.092   4.536 -0.1313 -1.8853 -0.2538
 4954SOL    HW226499   4.364   3.146   4.669 -1.0673  0.2632  0.8673
 4955SOL     OW26500   3.513   3.171  12.665  0.2502 -0.3392  0.7758
 4955SOL    HW126501   3.567   3.094  12.648  0.9456  0.4474 -0.5781
 4955SOL    HW226502   3.562   3.221  12.730 -0.3086  1.4591 -0.1803
 4956SOL     OW26503   4.628   2.871  14.085  0.4847  0.8645  0.0958
 4956SOL    HW126504   4.568   2.883  14.159  1.7211 -0.2402  1.2857
 4956SOL    HW226505   4.641   2.958  14.047  0.9445 -0.1043 -1.9498
 4957SOL     OW26506   4.352   2.863   9.330 -0.6037  0.3011 -0.2072
 4957SOL    HW126507   4.301   2.794   9.373  1.5014  1.0094  3.4881
 4957SOL    HW226508   4.344   2.835   9.239 -1.4629 -2.7003  0.7736
 4958SOL     OW26509   0.644   1.719  12.263  0.1649  0.3470  0.0165
 4958SOL    HW126510   0.564   1.768  12.245  1.5459  2.7375  0.4799
 4958SOL    HW226511   0.662   1.728  12.356 -2.1952 -0.4682  0.5416
 4959SOL     OW26512   4.317   1.990  14.460 -0.7224 -0.0332 -0.1696
 4959SOL    HW126513   4.315   1.988  14.364  2.2350 -0.1156 -0.2292
 4959SOL    HW226514   4.402   1.956  14.487 -0.6613  0.8433  0.7490
 4960SOL     OW26515   3.002   3.171   4.480  0.1738 -0.0825 -0.0666
 4960SOL    HW126516   3.060   3.209   4.546 -1.0476  1.4580  0.1056
 4960SOL    HW226517   2.986   3.237   4.413 -3.1937  0.5202  1.3103
 4961SOL     OW26518   2.316   0.876   3.234 -0.4122  0.4631 -0.0576
 4961SOL    HW126519   2.340   0.909   3.147 -0.1612  0.3986 -0.0131
 4961SOL    HW226520   2.228   0.913   3.241  0.0661  1.3203  1.3043
 4962SOL     OW26521   1.372   2.353   4.614 -0.0512 -0.0338 -0.7749
 4962SOL    HW126522   1.319   2.432   4.603  0.1214  0.1214 -0.4699
 4962SOL    HW226523   1.359   2.324   4.523  1.2103 -2.1909 -0.2764
 4963SOL     OW26524   3.547   1.635  12.717 -0.3153  0.5297  0.3155
 4963SOL    HW126525   3.605   1.703  12.683  1.1156  0.2928  2.2468
 4963SOL    HW226526   3.535   1.575  12.644 -0.0896  0.6306  0.1987
 4964SOL     OW26527   4.710   3.679   7.522 -0.1880  0.4891  0.0380
 4964SOL    HW126528   4.706   3.681   7.618  0.1223  1.6125  0.0264
 4964SOL    HW226529   0.069   3.672   7.506 -0.0283  1.6573  0.4639
 4965SOL     OW26530   0.528   0.708   4.155 -0.2534  0.1155  0.7782
 4965SOL    HW126531   0.566   0.624   4.130  0.6472  0.9043 -0.4382
 4965SOL    HW226532   0.598   0.768   4.131 -1.8803  1.4879 -0.5233
 4966SOL     OW26533   0.108   1.069   5.005 -0.3729  0.1066  0.5222
 4966SOL    HW126534   0.064   1.092   5.086  0.5946 -0.4456  1.2074
 4966SOL    HW226535   0.195   1.106   5.021 -0.3019  0.2907 -0.2913
 4967SOL     OW26536   1.996   4.174   4.117  0.1096  0.1230 -0.1331
 4967SOL    HW126537   1.909   4.139   4.132  0.2678 -0.0904  0.2901
 4967SOL    HW226538   2.034   4.153   4.202 -1.3195  0.9839  0.7036
 4968SOL     OW26539   3.181   2.376   6.678 -0.4358  0.0319  0.3906
 4968SOL    HW126540   3.243   2.404   6.611 -2.5985  1.5222 -0.9977
 4968SOL    HW226541   3.105   2.432   6.663 -0.5546  0.2323  1.7049
 4969SOL     OW26542   1.592   3.047   4.734  0.0815  0.1608 -0.7052
 4969SOL    HW126543   1.547   2.963   4.730  0.8217 -0.2746  0.0139
 4969SOL    HW226544   1.521   3.106   4.710  0.3592  0.8767  0.1858
 4970SOL     OW26545   1.132   0.856   1.525 -0.2747 -0.1557  0.2404
 4970SOL    HW126546   1.071   0.927   1.507 -0.5824 -0.3425  0.5416
 4970SOL    HW226547   1.070   0.784   1.526  2.8245 -2.8210  2.6454
 4971SOL     OW26548   4.733   4.673   4.461 -0.5507 -0.1845  0.3476
 4971SOL    HW126549   0.079   4.716   4.486 -0.0987 -1.5825  1.3234
 4971SOL    HW226550   4.677   0.009   4.430 -0.6582 -1.1551 -1.6603
 4972SOL     OW26551   0.503   0.935   3.084  0.6936  0.2632  0.7371
 4972SOL    HW126552   0.443   0.937   3.009  1.4720  1.4002  0.1523
 4972SOL    HW226553   0.453   0.869   3.133 -1.7685  2.3822  1.0452
 4973SOL     OW26554   0.154   3.874   6.790 -0.1465 -0.0312 -0.1415
 4973SOL    HW126555   0.062   3.869   6.817 -0.6668  0.1946 -1.8731
 4973SOL    HW226556   0.203   3.864   6.871 -0.6700  0.3898  0.2277
 4974SOL     OW26557   1.099   1.028   5.767  0.5912  0.0135  0.1947
 4974SOL    HW126558   1.036   0.967   5.806 -0.1769  0.0363 -0.9991
 4974SOL    HW226559   1.170   1.021   5.831 -0.7871 -0.2158  1.7137
 4975SOL     OW26560   3.782   2.694   1.723 -0.3242  0.4439 -0.2405
 4975SOL    HW126561   3.856   2.701   1.664 -2.1195  2.2898 -2.2916
 4975SOL    HW226562   3.772   2.787   1.741 -1.7592  0.4274 -0.9335
 4976SOL     OW26563   4.443   4.446   0.424  0.4471 -0.0291  0.3311
 4976SOL    HW126564   4.458   4.425   0.332 -1.6508  1.1122 -0.2488
 4976SOL    HW226565   4.514   4.507   0.442  0.9513 -0.2385 -0.9613
 4977SOL     OW26566   2.396   2.280  10.992  0.0531 -0.6742  0.2341
 4977SOL    HW126567   2.454   2.282  10.916 -2.8790  0.4625 -2.0037
 4977SOL    HW226568   2.425   2.203  11.040  0.1551 -0.7116  0.1128
 4978SOL     OW26569   1.115   3.731   1.938 -0.4729 -0.3365 -0.0871
 4978SOL    HW126570   1.024   3.714   1.964 -2.1801  4.0976 -3.1374
 4978SOL    HW226571   1.148   3.791   2.005  0.5550 -1.3754  0.3374
 4979SOL     OW26572   1.671   0.074   6.255 -0.0950  0.3167 -0.1456
 4979SOL    HW126573   1.599   0.012   6.243 -0.8578  1.1625  0.0025
 4979SOL    HW226574   1.630   0.161   6.259  1.0978  0.8052  1.3659
 4980SOL     OW26575   3.261   3.770   9.864  0.2757 -0.2220  0.1750
 4980SOL    HW126576   3.347   3.773   9.824 -0.6657  1.0402 -1.7608
 4980SOL    HW226577   3.253   3.853   9.912  1.4204 -0.9258  1.5705
 4981SOL     OW26578   1.916   2.925  12.903 -0.1147 -0.6977 -0.2814
 4981SOL    HW126579   1.985   2.865  12.875  1.9577  2.3499 -1.7668
 4981SOL    HW226580   1.940   3.003  12.853  2.9680 -1.7437 -0.4286
 4982SOL     OW26581   2.911   2.385   3.484 -0.0114 -0.0540 -0.0217
 4982SOL    HW126582   2.928   2.442   3.559  1.1723  0.7584 -0.9149
 4982SOL    HW226583   3.000   2.363   3.456  0.7888  3.0190  0.1747
 4983SOL     OW26584   2.238   3.700   6.554  0.0510 -0.1984 -0.0447
 4983SOL    HW126585   2.324   3.731   6.526  0.3419 -1.1249 -0.1700
 4983SOL    HW226586   2.256   3.636   6.623 -0.0952  0.8075  0.9140
 4984SOL     OW26587   4.110   2.669  10.234 -0.4870  0.0749 -0.1121
 4984SOL    HW126588   4.120   2.764  10.229  0.1206 -0.0907 -1.9469
 4984SOL    HW226589   4.086   2.636  10.147 -0.5384  1.1394 -0.5029
 4985SOL     OW26590   4.568   1.198  11.161  0.4376 -0.2098  0.2772
 4985SOL    HW126591   4.489   1.143  11.160  0.7251 -0.6299  0.9303
 4985SOL    HW226592   4.620   1.153  11.094 -0.5905  0.4000 -0.9231
 4986SOL     OW26593   0.386   1.574  15.460  0.0267  0.7638 -0.5374
 4986SOL    HW126594   0.313   1.619  15.418  0.5304  0.6797 -1.4805
 4986SOL    HW226595   0.367   1.485  15.433 -0.4250 -0.0281  2.3092
 4987SOL     OW26596   2.108   4.127   8.041 -0.3523 -0.0308  0.0086
 4987SOL    HW126597   2.132   4.156   8.129  2.4316  1.0000 -1.0988
 4987SOL    HW226598   2.090   4.035   8.058  3.0905 -0.4024  1.6140
 4988SOL     OW26599   3.534   2.818   4.241 -0.1230 -0.0373  0.6412
 4988SOL    HW126600   3.455   2.851   4.284 -0.4657  0.1799 -0.1609
 4988SOL    HW226601   3.584   2.894   4.212 -2.1553  1.8068  1.9947
 4989SOL     OW26602   3.045   2.927   7.787 -0.1263  0.2578 -0.0095
 4989SOL    HW126603   3.010   2.839   7.801  1.8139 -0.3637  0.9303
 4989SOL    HW226604   2.960   2.967   7.770 -0.4967 -1.8271 -2.8802
 4990SOL     OW26605   4.504   4.563   2.793 -0.3835 -0.2121 -0.4182
 4990SOL    HW126606   4.550   4.505   2.733  2.1325 -1.7539  2.9479
 4990SOL    HW226607   4.573   4.600   2.848  1.0602 -1.8261 -1.1230
 4991SOL     OW26608   4.401   1.980   5.599 -0.2666  0.5993  0.2386
 4991SOL    HW126609   4.470   2.043   5.579 -0.0322  0.9849  2.2090
 4991SOL    HW226610   4.431   1.967   5.689  2.1440  0.3797 -0.6052
 4992SOL     OW26611   2.273   0.656   0.843  0.1806 -1.1256 -0.1130
 4992SOL    HW126612   2.222   0.693   0.771  1.0434  0.6207  0.1908
 4992SOL    HW226613   2.338   0.607   0.793  0.5306 -1.3598  0.5661
 4993SOL     OW26614   0.460   3.558   9.533  0.1642  0.1295 -0.1841
 4993SOL    HW126615   0.424   3.474   9.563 -1.1109  0.4179 -0.9049
 4993SOL    HW226616   0.548   3.526   9.514 -0.2429 -1.1980  0.1556
 4994SOL     OW26617   0.724   1.220   7.535  0.3325 -0.1859  0.3131
 4994SOL    HW126618   0.795   1.167   7.501 -0.8174 -0.2703 -2.0111
 4994SOL    HW226619   0.669   1.229   7.457 -1.0873  1.0411  1.4394
 4995SOL     OW26620   1.367   2.620   1.603 -0.9066 -0.8442 -0.1813
 4995SOL    HW126621   1.413   2.663   1.531 -0.6549  0.5226  0.8023
 4995SOL    HW226622   1.359   2.693   1.664  0.2576 -0.1166 -0.8870
 4996SOL     OW26623   1.876   2.664  10.207  0.0420 -0.0934 -0.4117
 4996SOL    HW126624   1.829   2.670  10.291 -1.1117 -0.7893 -1.0081
 4996SOL    HW226625   1.930   2.586  10.222 -0.8733 -0.3712  1.5931
 4997SOL     OW26626   3.874   4.187   4.678 -0.2261 -0.2140  0.0063
 4997SOL    HW126627   3.868   4.139   4.761 -1.5096  0.4741  0.3110
 4997SOL    HW226628   3.967   4.181   4.656 -0.0969 -1.3538  0.8500
 4998SOL     OW26629   4.589   1.300   5.034 -0.1389  0.1063 -0.0770
 4998SOL    HW126630   4.600   1.347   5.117  3.7974 -0.2242 -0.3784
 4998SOL    HW226631   4.651   1.349   4.979 -0.1241 -0.7662 -0.8285
 4999SOL     OW26632   3.114   1.689   3.668  0.7019 -0.0192 -0.2166
 4999SOL    HW126633   3.131   1.783   3.657  2.0831 -0.4493 -1.7000
 4999SOL    HW226634   3.132   1.691   3.762 -0.5317  0.7110  0.0048
 5000SOL     OW26635   2.404   3.510   8.681 -0.1503  0.4548 -0.0394
 5000SOL    HW126636   2.399   3.464   8.597 -0.6895  1.8908 -0.7838
 5000SOL    HW226637   2.498   3.522   8.691 -0.4611  1.1522  1.9639
 5001SOL     OW26638   2.076   0.304   2.962  1.0485 -0.0029  0.7159
 5001SOL    HW126639   2.072   0.213   2.990 -2.0510  0.5268  1.9463
 5001SOL    HW226640   2.160   0.314   2.917 -1.0978  0.8799 -3.1534
 5002SOL     OW26641   4.628   3.234   6.137  0.3697 -0.3821  0.5512
 5002SOL    HW126642   4.663   3.251   6.050 -0.3681 -0.5443  0.2264
 5002SOL    HW226643   4.565   3.164   6.117 -1.3001  1.4271 -0.4634
 5003SOL     OW26644   4.674   2.574   3.540 -0.0664 -0.6040 -0.1203
 5003SOL    HW126645   4.679   2.484   3.573  0.9410 -0.5880 -0.2153
 5003SOL    HW226646   4.628   2.562   3.457  0.7093  0.1034 -0.6494
 5004SOL     OW26647   2.569   4.629   4.844  0.0194  0.3567  0.6039
 5004SOL    HW126648   2.485   4.630   4.799  0.9246  0.5077 -1.0570
 5004SOL    HW226649   2.627   4.589   4.780  0.1596  1.6616 -0.0777
 5005SOL     OW26650   2.103   1.970   4.964  0.0903 -0.2028  0.5538
 5005SOL    HW126651   2.120   1.876   4.965 -1.1334 -0.4115  1.3224
 5005SOL    HW226652   2.089   1.983   4.870 -0.6237 -0.8248  0.5723
 5006SOL     OW26653   3.294   3.336   2.974 -0.5290 -0.4228  0.5501
 5006SOL    HW126654   3.370   3.286   3.005  0.4694  0.8972  0.2401
 5006SOL    HW226655   3.247   3.271   2.922  1.0759 -0.4486 -0.9009
 5007SOL     OW26656   4.407   0.076  17.656 -0.3740 -0.6113  0.4187
 5007SOL    HW126657   4.414   0.138  17.728 -1.3995 -0.6890  0.5898
 5007SOL    HW226658   4.433   0.126  17.578 -0.9260 -1.5877 -0.4077
 5008SOL     OW26659   3.278   2.052   4.816  0.1575  0.3937 -0.2194
 5008SOL    HW126660   3.234   2.006   4.745 -0.4132  0.5037  0.0612
 5008SOL    HW226661   3.208   2.110   4.845 -0.3275  0.1657 -0.9475
 5009SOL     OW26662   3.827   0.051   6.017 -0.1982  0.4680 -0.2595
 5009SOL    HW126663   3.770   4.712   6.040  0.8335 -0.2200  0.0869
 5009SOL    HW226664   3.787   0.078   5.934  0.3624  1.5171 -0.1784
 5010SOL     OW26665   0.424   0.566   4.963  0.9010 -0.8762  0.5025
 5010SOL    HW126666   0.390   0.626   5.030 -0.8584 -1.3844  0.0575
 5010SOL    HW226667   0.375   0.598   4.887  0.7829 -3.4095 -0.4807
 5011SOL     OW26668   3.368   1.593   4.797 -0.3294 -0.7062  0.7067
 5011SOL    HW126669   3.279   1.587   4.762  0.8397  0.2296 -2.5159
 5011SOL    HW226670   3.401   1.660   4.737 -0.1892 -0.9573  0.5041
 5012SOL     OW26671   0.471   3.904   6.874 -0.0447  0.1438  0.3131
 5012SOL    HW126672   0.461   3.848   6.950  0.7173  1.2601  1.2356
 5012SOL    HW226673   0.552   3.948   6.899 -0.3881  0.8087  0.2525
 5013SOL     OW26674   3.630   2.708   0.070 -0.3626 -0.1572 -0.3053
 5013SOL    HW126675   3.658   2.646   0.003  1.3921  0.2406  0.0587
 5013SOL    HW226676   3.648   2.645   0.140  0.6978  1.7884  1.1753
 5014SOL     OW26677   2.483   4.485   8.562 -0.2306  0.0220 -0.0402
 5014SOL    HW126678   2.551   4.489   8.629 -2.5769  1.7453  2.2557
 5014SOL    HW226679   2.424   4.417   8.595  2.1560 -0.2292  3.7291
 5015SOL     OW26680   0.830   3.247   9.311  0.3187 -0.1847 -0.0072
 5015SOL    HW126681   0.898   3.303   9.274  1.9827 -2.1019  0.1953
 5015SOL    HW226682   0.800   3.191   9.239  2.6348 -1.3068 -0.0875
 5016SOL     OW26683   3.794   3.145   0.693  0.2879  0.5452  0.6039
 5016SOL    HW126684   3.864   3.191   0.648  1.3355 -1.5099  0.1333
 5016SOL    HW226685   3.771   3.203   0.766  0.0862  0.0891  0.9077
 5017SOL     OW26686   2.903   1.863   3.371  0.9355 -0.0959  0.4098
 5017SOL    HW126687   2.926   1.951   3.338  1.3673 -0.8432 -1.3165
 5017SOL    HW226688   2.809   1.878   3.380  0.8183  1.1093 -2.5115
 5018SOL     OW26689   3.038   3.483   4.016  0.1169 -0.5327  0.0385
 5018SOL    HW126690   2.992   3.561   3.987  1.1792 -0.2056 -0.7550
 5018SOL    HW226691   3.086   3.464   3.936 -0.0513  0.3479 -0.2679
 5019SOL     OW26692   1.653   1.174   5.706  0.0329  0.2126 -0.8008
 5019SOL    HW126693   1.711   1.240   5.669 -0.0575  1.1795  0.7742
 5019SOL    HW226694   1.670   1.104   5.643 -1.1161 -0.8176  0.0455
 5020SOL     OW26695   3.076   1.883   1.199  0.3567 -0.1420  0.3419
 5020SOL    HW126696   3.143   1.827   1.158 -0.0566 -2.1563  2.3904
 5020SOL    HW226697   3.087   1.854   1.290 -2.2653 -0.0828  0.6742
 5021SOL     OW26698   2.083   3.515   2.882 -0.0166 -0.5414 -0.2458
 5021SOL    HW126699   2.012   3.525   2.819 -1.1468  1.4938  1.3411
 5021SOL    HW226700   2.049   3.570   2.953  3.4765 -0.1679  1.1219
 5022SOL     OW26701   2.610   3.142  10.460  0.5671 -0.0398  0.0849
 5022SOL    HW126702   2.582   3.217  10.407  1.6402  0.3626  0.0799
 5022SOL    HW226703   2.678   3.095  10.412 -0.4051 -0.4097 -0.9012
 5023SOL     OW26704   1.835   0.811   4.705 -0.0724  0.7068  0.4755
 5023SOL    HW126705   1.904   0.829   4.769  1.1799  0.0007 -0.6673
 5023SOL    HW226706   1.761   0.847   4.754 -0.2595 -1.6535  1.9209
 5024SOL     OW26707   4.693   4.290   2.335  0.2636 -1.2007  0.0860
 5024SOL    HW126708   4.697   4.277   2.241 -2.9682  1.2822 -0.4095
 5024SOL    HW226709   0.030   4.230   2.356  2.2646  0.7992 -1.1611
 5025SOL     OW26710   2.547   0.164  14.719  0.1386 -0.2849 -0.6860
 5025SOL    HW126711   2.555   0.255  14.690 -0.8038 -0.2388 -0.8175
 5025SOL    HW226712   2.553   0.171  14.815  1.8879 -0.7075 -0.7820
 5026SOL     OW26713   2.353   1.947  13.904 -0.1751  0.3162  0.1541
 5026SOL    HW126714   2.398   1.914  13.827 -0.3192  2.1603 -0.7140
 5026SOL    HW226715   2.272   1.985  13.868  0.4504  0.9269 -0.5946
 5027SOL     OW26716   3.451   0.171   5.174 -0.3719 -0.4036 -0.0422
 5027SOL    HW126717   3.358   0.156   5.194 -0.1596 -2.0356 -0.2184
 5027SOL    HW226718   3.487   0.169   5.263  1.0685 -2.5224 -0.6576
 5028SOL     OW26719   0.143   4.717   3.259  0.1504 -0.0405  0.8102
 5028SOL    HW126720   0.052   4.700   3.281 -0.0440  0.3257  0.2713
 5028SOL    HW226721   0.135   0.008   3.167 -0.3503  0.5892  1.0326
 5029SOL     OW26722   0.820   2.997   9.919  0.0079  0.3633  0.1412
 5029SOL    HW126723   0.871   2.945   9.982 -1.8236 -1.1409  0.3801
 5029SOL    HW226724   0.896   3.039   9.877 -0.3854 -0.3046 -1.2265
 5030SOL     OW26725   3.662   2.486   1.863 -0.1533 -0.0834  0.1588
 5030SOL    HW126726   3.696   2.568   1.828 -0.4655  0.8559  2.0969
 5030SOL    HW226727   3.602   2.508   1.934 -1.5867 -1.5350 -0.5860
 5031SOL     OW26728   4.332   1.008   4.514 -0.8717  0.0328  0.0626
 5031SOL    HW126729   4.351   0.948   4.586  1.0611 -1.4480 -1.7042
 5031SOL    HW226730   4.247   1.040   4.546 -1.8401  0.2697 -2.7461
 5032SOL     OW26731   4.704   4.725   8.801  0.8107 -0.1120  0.3849
 5032SOL    HW126732   4.721   4.674   8.722 -3.0916 -0.7478 -0.0300
 5032SOL    HW226733   4.614   4.702   8.823  0.8418 -0.3160  0.2942
 5033SOL     OW26734   0.906   4.127   1.752  0.5866  0.4920 -0.2265
 5033SOL    HW126735   0.925   4.140   1.845  2.0425  2.8924 -0.8633
 5033SOL    HW226736   0.873   4.037   1.759  0.6991  0.5754  1.4861
 5034SOL     OW26737   4.606   1.107   2.373 -0.2512 -0.0180 -0.1091
 5034SOL    HW126738   4.529   1.139   2.421 -0.6669  0.2798 -0.9798
 5034SOL    HW226739   4.650   1.084   2.455 -2.6146  3.0409  1.9890
 5035SOL     OW26740   0.949   3.460  13.448 -0.5988  0.3009  0.0676
 5035SOL    HW126741   0.919   3.473  13.357 -0.7465 -0.5375 -0.0047
 5035SOL    HW226742   0.893   3.513  13.504 -0.6469 -1.2858  1.5121
 5036SOL     OW26743   2.684   0.102   3.602 -0.6077 -0.0553 -0.5421
 5036SOL    HW126744   2.766   0.114   3.554  0.3692  2.0418  1.6798
 5036SOL    HW226745   2.659   0.193   3.615  2.0490  0.5933  0.1201
 5037SOL     OW26746   4.432   4.638   7.997  0.2167  0.0612  0.8159
 5037SOL    HW126747   4.393   4.580   7.932  0.4493  1.3693 -0.4797
 5037SOL    HW226748   4.454   4.715   7.945 -1.7726  0.6710  0.8681
 5038SOL     OW26749   0.461   0.964  13.533 -0.0745 -0.1875 -0.5917
 5038SOL    HW126750   0.438   0.935  13.622  1.7606 -2.5930 -0.9184
 5038SOL    HW226751   0.508   0.887  13.503 -1.2712 -1.0807 -0.1739
 5039SOL     OW26752   0.513   4.696  15.022  0.0450  0.5050 -0.4414
 5039SOL    HW126753   0.482   4.665  15.107  1.2462  1.0039  0.1772
 5039SOL    HW226754   0.521   0.057  15.028 -0.5404  0.5347 -0.1916
 5040SOL     OW26755   3.349   0.156   8.027  0.2916 -0.3787  0.1321
 5040SOL    HW126756   3.386   0.225   7.972  1.5483  0.1705  1.6451
 5040SOL    HW226757   3.395   0.175   8.109  1.1405  3.7569 -1.2639
 5041SOL     OW26758   4.538   1.511   4.320  0.3128 -0.3606 -0.0907
 5041SOL    HW126759   4.496   1.581   4.370 -1.9105 -0.6970 -1.5249
 5041SOL    HW226760   4.499   1.526   4.234 -1.2727  1.1482  0.8922
 5042SOL     OW26761   0.519   2.491   8.140 -0.5967  0.6677 -0.2649
 5042SOL    HW126762   0.552   2.402   8.149 -0.4525  0.6275 -1.2497
 5042SOL    HW226763   0.492   2.490   8.049  0.9688 -0.7388 -0.7231
 5043SOL     OW26764   4.405   0.933   6.373 -0.2814  0.3727  0.4231
 5043SOL    HW126765   4.495   0.961   6.390 -0.2605  0.3873  0.2871
 5043SOL    HW226766   4.372   0.940   6.463 -2.3113  1.7925 -0.4206
 5044SOL     OW26767   4.066   0.106   1.427 -0.2825 -0.1058 -0.0019
 5044SOL    HW126768   4.059   0.154   1.510  1.4055 -0.7114  0.4845
 5044SOL    HW226769   4.039   0.021   1.462 -1.1730 -0.2986 -1.1550
 5045SOL     OW26770   2.999   2.967  11.600 -0.1729 -0.1197 -0.4133
 5045SOL    HW126771   3.029   3.041  11.546 -3.4228 -0.1886 -2.2539
 5045SOL    HW226772   2.987   2.899  11.535  0.8211 -1.7276  1.1006
 5046SOL     OW26773   0.137   2.169   8.951  0.0478 -0.0262  0.6993
 5046SOL    HW126774   0.125   2.204   8.863 -1.6852  1.5677  1.5582
 5046SOL    HW226775   0.194   2.235   8.990  0.4603  0.0951 -0.1317
 5047SOL     OW26776   4.571   3.027  13.115  1.0377 -0.4846 -0.4335
 5047SOL    HW126777   4.640   2.961  13.105 -0.0593 -1.7512  0.4129
 5047SOL    HW226778   4.617   3.098  13.160  2.6027 -0.7537 -1.6123
 5048SOL     OW26779   4.565   0.765   4.647  0.0996 -0.1048  0.0741
 5048SOL    HW126780   4.534   0.725   4.567  0.3379 -2.0733  0.9652
 5048SOL    HW226781   4.659   0.776   4.630 -0.4974  0.4757 -2.8072
 5049SOL     OW26782   3.951   0.346  16.801 -0.2757  0.3218  0.1777
 5049SOL    HW126783   4.037   0.315  16.830 -0.4811  0.2941  0.7508
 5049SOL    HW226784   3.948   0.300  16.717 -0.3280  1.3804 -0.3980
 5050SOL     OW26785   1.360   4.547   5.994 -0.1441 -0.3778  0.1358
 5050SOL    HW126786   1.341   4.461   5.957 -1.1447  0.0637 -0.3798
 5050SOL    HW226787   1.275   4.566   6.034 -0.0940 -1.9480  1.0250
 5051SOL     OW26788   2.525   0.364   8.048 -0.0175 -0.6397  0.3346
 5051SOL    HW126789   2.573   0.447   8.047 -1.6475  0.2653 -0.7560
 5051SOL    HW226790   2.596   0.302   8.067  1.0954  0.1455 -1.2875
 5052SOL     OW26791   2.835   2.358  12.951 -0.3514  0.5233  0.2308
 5052SOL    HW126792   2.845   2.432  12.891  0.2770  2.2036  2.4098
 5052SOL    HW226793   2.748   2.370  12.989  0.4645 -0.6941  2.5208
 5053SOL     OW26794   0.078   1.329   6.336  0.1946  0.7773  0.1177
 5053SOL    HW126795   0.084   1.268   6.263  1.2903  0.9205  0.0897
 5053SOL    HW226796   0.110   1.280   6.412 -0.4204  0.4678  0.1754
 5054SOL     OW26797   2.678   0.420  10.739  0.0195 -0.2743  0.7806
 5054SOL    HW126798   2.685   0.477  10.662  1.6327 -0.1576  1.0024
 5054SOL    HW226799   2.693   0.485  10.808 -2.7839  2.6824 -1.3765
 5055SOL     OW26800   4.354   0.412   8.050  0.2682  0.0931 -0.2183
 5055SOL    HW126801   4.269   0.395   8.092 -0.2453  1.3300 -0.7458
 5055SOL    HW226802   4.368   0.337   7.993 -2.4517  1.0684 -2.2304
 5056SOL     OW26803   4.277   3.268   7.642  0.7308  0.0086  0.0381
 5056SOL    HW126804   4.241   3.335   7.584  0.4561 -0.6746 -0.5816
 5056SOL    HW226805   4.359   3.313   7.662  0.0052  0.4353  2.1052
 5057SOL     OW26806   3.834   4.444   1.566  0.1313  0.0847  0.3735
 5057SOL    HW126807   3.762   4.386   1.540  0.9484  0.5479 -2.9431
 5057SOL    HW226808   3.901   4.384   1.598  0.1736  0.9588  1.9381
 5058SOL     OW26809   3.920   0.126   3.652 -0.2626 -0.6318 -0.1314
 5058SOL    HW126810   3.993   0.135   3.714 -0.2028  0.3739 -0.3590
 5058SOL    HW226811   3.850   0.077   3.695  0.3145  0.3997  2.0055
 5059SOL     OW26812   1.032   2.525   4.136 -0.5267 -0.5408  0.3531
 5059SOL    HW126813   0.984   2.597   4.093  1.3763  1.3266  1.3357
 5059SOL    HW226814   1.003   2.451   4.083 -3.6121  1.6151 -1.0461
 5060SOL     OW26815   0.463   2.842   8.224  0.2100 -0.5531  0.1852
 5060SOL    HW126816   0.491   2.828   8.133 -0.6314  0.9600 -0.3163
 5060SOL    HW226817   0.524   2.784   8.270  2.5029  2.0105  0.4390
 5061SOL     OW26818   0.976   2.499   6.913  0.4935 -0.4348 -0.4522
 5061SOL    HW126819   1.043   2.440   6.946 -1.3599 -1.3066  1.7560
 5061SOL    HW226820   0.937   2.531   6.994 -3.8413 -0.4040 -2.5334
 5062SOL     OW26821   0.946   0.067   5.539  0.0987  0.2338 -0.2258
 5062SOL    HW126822   0.935   0.161   5.530 -0.8071  0.1664  0.2555
 5062SOL    HW226823   0.887   0.044   5.611  2.5496  0.3747  1.8564
 5063SOL     OW26824   2.380   2.226   0.818 -0.6209 -0.0232  0.4133
 5063SOL    HW126825   2.396   2.133   0.801  1.8908  0.8499 -1.9775
 5063SOL    HW226826   2.470   2.258   0.822  0.5527 -3.4013  1.1867
 5064SOL     OW26827   0.605   2.665   3.550 -0.2070  0.0397  0.2088
 5064SOL    HW126828   0.603   2.701   3.461 -0.3035 -0.2538  0.0931
 5064SOL    HW226829   0.699   2.667   3.570 -0.3170  0.9130  0.6389
 5065SOL     OW26830   0.122   1.777  11.461  0.1095 -0.7025  0.9302
 5065SOL    HW126831   0.069   1.716  11.411  0.9542  0.4909 -1.4531
 5065SOL    HW226832   0.181   1.728  11.519  0.7156  0.0381  0.9409
 5066SOL     OW26833   2.118   4.076   5.422  0.0710  0.4958  0.1005
 5066SOL    HW126834   2.114   4.032   5.506 -0.4355 -0.6706 -0.5454
 5066SOL    HW226835   2.085   4.161   5.451  3.0664  1.6641  0.1097
 5067SOL     OW26836   3.213   2.941   8.871 -0.2630 -0.2097  0.2765
 5067SOL    HW126837   3.273   2.868   8.887  2.5387  1.8641 -0.6217
 5067SOL    HW226838   3.165   2.907   8.796 -0.0604  2.3137 -1.0124
 5068SOL     OW26839   4.718   3.229   5.438  0.6078 -0.2159  0.1511
 5068SOL    HW126840   4.640   3.189   5.401 -0.0986 -0.3102  1.7626
 5068SOL    HW226841   0.051   3.206   5.374 -1.3331  0.8957 -2.2719
 5069SOL     OW26842   1.578   0.130   7.897 -0.5493 -0.1968  0.0273
 5069SOL    HW126843   1.597   0.051   7.948 -0.0543  0.7074  1.2259
 5069SOL    HW226844   1.613   0.190   7.962  0.3783  0.3504 -0.9754
 5070SOL     OW26845   4.097   1.562   6.371  0.1738  0.2577 -0.3144
 5070SOL    HW126846   4.133   1.517   6.294  1.1734  0.0299  0.2884
 5070SOL    HW226847   4.164   1.540   6.436 -0.9301 -3.0064 -0.2476
 5071SOL     OW26848   0.359   2.869   4.928 -1.0239 -0.3112 -0.0421
 5071SOL    HW126849   0.279   2.908   4.892 -2.0530 -1.2412  1.2699
 5071SOL    HW226850   0.343   2.879   5.021  0.0904 -0.3488  0.1588
 5072SOL     OW26851   2.187   1.860   0.738  0.6905  0.8262  0.0046
 5072SOL    HW126852   2.125   1.791   0.763  0.3294  0.5553 -1.6202
 5072SOL    HW226853   2.129   1.908   0.679 -0.0662 -0.4116 -0.2745
 5073SOL     OW26854   1.960   1.247   3.362 -0.5830 -0.5911  0.0460
 5073SOL    HW126855   1.900   1.314   3.329  0.1734  0.0273 -0.0933
 5073SOL    HW226856   2.026   1.296   3.411 -1.4214 -0.0802  0.6750
 5074SOL     OW26857   3.383   0.275  16.666  0.0117 -0.1701  0.4011
 5074SOL    HW126858   3.459   0.232  16.627 -0.7641 -0.1673 -1.1345
 5074SOL    HW226859   3.398   0.284  16.760 -0.9542  0.5008  0.4963
 5075SOL     OW26860   0.977   0.940   9.897  0.1311  0.0994  0.0297
 5075SOL    HW126861   0.973   0.892   9.980 -1.1661  1.3141  0.6692
 5075SOL    HW226862   1.069   0.964   9.889  0.1692  0.4256  1.3952
 5076SOL     OW26863   1.098   1.454   5.769 -0.2190 -0.7140  0.0466
 5076SOL    HW126864   1.009   1.418   5.766 -1.4075  2.1472  0.7578
 5076SOL    HW226865   1.127   1.421   5.854 -0.0715 -1.7380 -0.4107
 5077SOL     OW26866   4.463   0.598  16.126  0.2880 -0.4570  0.3899
 5077SOL    HW126867   4.436   0.670  16.183  0.6103 -0.7847  0.9479
 5077SOL    HW226868   4.544   0.573  16.171  0.1299 -1.4518  0.1146
 5078SOL     OW26869   1.529   1.778   3.075  0.5182  0.1187  0.3318
 5078SOL    HW126870   1.511   1.863   3.034  1.2176  0.8783  1.6165
 5078SOL    HW226871   1.476   1.733   3.009 -2.1101  1.7948  1.2988
 5079SOL     OW26872   0.038   2.132   1.246  0.2678 -0.1277  0.0425
 5079SOL    HW126873   0.027   2.202   1.182  1.6147 -0.4086 -0.4966
 5079SOL    HW226874   0.118   2.092   1.211 -0.2572 -0.9174 -0.2521
 5080SOL     OW26875   1.270   3.451   9.717 -0.1286  0.1232 -0.3966
 5080SOL    HW126876   1.247   3.361   9.738 -0.7588 -0.0282 -1.7624
 5080SOL    HW226877   1.305   3.436   9.629  1.6343 -0.5219  0.4162
 5081SOL     OW26878   3.375   2.198   9.171 -0.5061  0.4680  0.1866
 5081SOL    HW126879   3.467   2.214   9.190 -0.4619  1.8028 -1.2151
 5081SOL    HW226880   3.351   2.288   9.150  0.7034  1.0304  1.2404
 5082SOL     OW26881   3.675   0.696  16.955  0.3551  0.4733 -0.1592
 5082SOL    HW126882   3.747   0.638  16.982  0.3712  1.0485  1.0279
 5082SOL    HW226883   3.645   0.653  16.875 -0.8294 -0.0651  0.5648
 5083SOL     OW26884   0.890   2.450   9.044 -0.0077  0.3011  0.0224
 5083SOL    HW126885   0.861   2.385   8.979  2.6656 -1.4933  0.6559
 5083SOL    HW226886   0.946   2.505   8.990 -0.1065 -0.4270 -0.8234
 5084SOL     OW26887   3.279   2.423   8.404  0.2340 -0.1416  0.1764
 5084SOL    HW126888   3.296   2.517   8.413  0.2690 -0.1907  0.6580
 5084SOL    HW226889   3.307   2.406   8.314  2.0868 -1.4639  0.9920
 5085SOL     OW26890   4.677   2.083   5.248  0.1542  0.1813 -0.4605
 5085SOL    HW126891   4.585   2.066   5.230  0.0154 -1.0288  1.3822
 5085SOL    HW226892   4.669   2.118   5.337 -1.2514 -1.8263  0.2043
 5086SOL     OW26893   3.936   3.241   6.146  0.9040 -0.6718 -0.2765
 5086SOL    HW126894   3.900   3.157   6.116 -0.3226 -0.5885  1.0028
 5086SOL    HW226895   3.877   3.262   6.218  1.4430  3.1101 -0.9453
 5087SOL     OW26896   4.083   4.035  15.276  0.0866 -0.0643 -0.4781
 5087SOL    HW126897   4.008   3.976  15.271  1.1240 -1.2663 -1.6433
 5087SOL    HW226898   4.044   4.123  15.281 -0.2095 -0.2925  1.2545
 5088SOL     OW26899   3.183   3.742   2.019  0.3481 -0.3483 -0.3443
 5088SOL    HW126900   3.260   3.783   2.059  0.1878  0.2054 -0.6058
 5088SOL    HW226901   3.115   3.779   2.076 -0.2211  0.3803 -1.4935
 5089SOL     OW26902   1.034   4.392   7.768  0.4465  0.3180  0.2952
 5089SOL    HW126903   1.106   4.383   7.705  0.6597  2.1727  0.2661
 5089SOL    HW226904   1.081   4.386   7.851  0.4947  3.7211  0.5130
 5090SOL     OW26905   1.339   2.405   3.862 -0.3893 -0.6065 -0.4219
 5090SOL    HW126906   1.364   2.339   3.927  2.5440  1.9215  1.0441
 5090SOL    HW226907   1.388   2.372   3.787  1.7432  2.4798 -0.3813
 5091SOL     OW26908   1.377   3.295   4.302 -0.8326 -0.2061  0.0661
 5091SOL    HW126909   1.343   3.375   4.343 -1.3155  0.4694 -1.6169
 5091SOL    HW226910   1.300   3.249   4.270 -1.3208  0.3227  0.4785
 5092SOL     OW26911   4.434   0.977   1.060  0.1831  0.0576 -0.9385
 5092SOL    HW126912   4.379   0.967   0.982 -1.4068  0.3406  0.1474
 5092SOL    HW226913   4.519   0.991   1.020 -0.5894  2.2133 -1.8328
 5093SOL     OW26914   0.507   0.081   6.579  0.1191 -0.1030  0.5051
 5093SOL    HW126915   0.540   0.028   6.651  2.2281  1.0195  0.3677
 5093SOL    HW226916   0.482   0.162   6.622 -2.6526 -1.9462  2.3452
 5094SOL     OW26917   1.085   4.500   9.733  0.4139  0.0714  0.0327
 5094SOL    HW126918   0.999   4.458   9.732  0.2598  0.3872  0.0329
 5094SOL    HW226919   1.060   4.591   9.721 -0.4217 -0.2827 -0.8684
 5095SOL     OW26920   1.807   0.609   9.854  0.2340  0.4520 -0.2338
 5095SOL    HW126921   1.806   0.672   9.782 -2.4440 -0.1163 -0.6855
 5095SOL    HW226922   1.768   0.528   9.822  0.8244 -0.7844  2.2031
 5096SOL     OW26923   2.320   2.045   8.332 -0.4729  0.5502 -0.2552
 5096SOL    HW126924   2.382   2.015   8.265  0.5715 -0.1991  1.0369
 5096SOL    HW226925   2.238   2.030   8.284  1.4105 -1.5738 -2.8120
 5097SOL     OW26926   0.953   0.324  16.978  0.4386 -0.7937 -0.2497
 5097SOL    HW126927   0.911   0.292  17.058 -1.4980  1.5811 -0.2937
 5097SOL    HW226928   0.882   0.312  16.915  0.2247  1.5757 -0.4927
 5098SOL     OW26929   1.749   1.048  15.354  0.0468 -0.0083 -0.0497
 5098SOL    HW126930   1.681   0.981  15.353  1.1953 -1.2021  0.4431
 5098SOL    HW226931   1.807   1.016  15.284  0.0025  0.6601 -0.3916
 5099SOL     OW26932   3.878   4.559   7.614 -0.0996  0.3233 -0.2830
 5099SOL    HW126933   3.816   4.625   7.647 -0.2251  0.2674 -0.4091
 5099SOL    HW226934   3.819   4.489   7.588 -1.7875  0.6386  2.6754
 5100SOL     OW26935   3.886   3.921   5.895  0.5013  0.5752  0.0714
 5100SOL    HW126936   3.861   3.921   5.803  0.7633  0.5960 -0.0002
 5100SOL    HW226937   3.955   3.855   5.884 -1.6503 -1.4350 -1.2689
 5101SOL     OW26938   3.739   0.857  14.340 -0.0725  0.4125 -0.3582
 5101SOL    HW126939   3.647   0.866  14.315  0.3261  1.0178 -1.5882
 5101SOL    HW226940   3.768   0.829  14.253 -1.6800 -1.1818 -0.3813
 5102SOL     OW26941   2.632   2.670   3.997  0.5857 -0.2889  0.2585
 5102SOL    HW126942   2.716   2.649   3.957 -0.1363 -1.4777 -0.6090
 5102SOL    HW226943   2.622   2.586   4.041  0.0602  0.2661  1.1891
 5103SOL     OW26944   4.513   3.417   4.485  0.2027  0.4119  0.8773
 5103SOL    HW126945   4.504   3.512   4.494  1.1753  0.4162  1.7486
 5103SOL    HW226946   4.489   3.404   4.393 -0.1693  0.3345  0.9864
 5104SOL     OW26947   1.969   3.292  15.358 -0.6383  0.0590 -0.4802
 5104SOL    HW126948   2.039   3.279  15.293  0.4185  2.9412  0.0884
 5104SOL    HW226949   1.979   3.218  15.418 -0.9580  2.3154  2.3240
 5105SOL     OW26950   1.967   1.554  17.006 -0.1825  0.0238  0.1024
 5105SOL    HW126951   1.892   1.532  16.950 -0.7652  1.9858  0.1191
 5105SOL    HW226952   1.989   1.476  17.057  2.7656  0.0683 -1.0972
 5106SOL     OW26953   2.973   3.517   2.249 -0.2702 -0.4174 -0.0780
 5106SOL    HW126954   2.954   3.496   2.158 -3.8671  0.6648  0.4503
 5106SOL    HW226955   3.028   3.593   2.233 -2.2955  0.9472 -0.4542
 5107SOL     OW26956   3.082   3.146   0.411  0.2781 -0.4109 -0.2504
 5107SOL    HW126957   3.160   3.187   0.450  0.6304 -0.3752 -0.9831
 5107SOL    HW226958   3.017   3.183   0.471 -1.4351 -0.9744 -1.7699
 5108SOL     OW26959   3.087   0.255   3.454 -0.2899 -0.5416  1.0728
 5108SOL    HW126960   3.051   0.333   3.496 -0.8604 -0.3098  0.1574
 5108SOL    HW226961   3.097   0.285   3.364 -0.4170  0.1874  1.3052
 5109SOL     OW26962   0.816   4.543   4.603  0.1156  0.0795  0.2152
 5109SOL    HW126963   0.905   4.511   4.618  0.3139 -0.0615 -1.2320
 5109SOL    HW226964   0.780   4.475   4.546  0.7828  0.6833 -0.9207
 5110SOL     OW26965   2.795   2.883   3.795  0.2341 -0.1360 -0.5448
 5110SOL    HW126966   2.847   2.949   3.840  2.1364 -2.7838  1.1015
 5110SOL    HW226967   2.824   2.803   3.840  0.7740  1.0897  1.2515
 5111SOL     OW26968   2.066   1.659   6.266  0.2550 -0.1493  0.5712
 5111SOL    HW126969   2.138   1.629   6.210 -0.0283  1.3033 -0.5789
 5111SOL    HW226970   2.121   1.720   6.316  2.2662 -0.6658 -0.9774
 5112SOL     OW26971   4.615   0.173   5.516 -0.4748 -0.0726  0.0721
 5112SOL    HW126972   4.582   0.256   5.551 -1.4914 -0.3116 -0.3109
 5112SOL    HW226973   4.601   0.178   5.421 -1.1791  2.8632  0.3435
 5113SOL     OW26974   1.026   3.594  14.115  0.2766  0.1636 -0.0185
 5113SOL    HW126975   0.975   3.673  14.098  0.1145  0.3543  1.2794
 5113SOL    HW226976   1.042   3.602  14.210  1.4645 -1.7694 -0.0593
 5114SOL     OW26977   2.529   2.322   6.724 -0.4612  0.1207 -0.2205
 5114SOL    HW126978   2.510   2.295   6.814  1.5769  0.9239  0.4618
 5114SOL    HW226979   2.475   2.401   6.720 -0.4660  0.1679  0.6695
 5115SOL     OW26980   3.681   2.651  17.309 -0.1983  0.0341  0.3643
 5115SOL    HW126981   3.738   2.586  17.269  1.6887  1.1332  1.2416
 5115SOL    HW226982   3.681   2.724  17.247 -0.9274 -0.9427 -0.7866
 5116SOL     OW26983   2.533   2.259   5.110  0.2602  0.0313 -0.4244
 5116SOL    HW126984   2.607   2.306   5.070  0.0503 -0.0661 -0.9336
 5116SOL    HW226985   2.521   2.313   5.188 -2.4830 -3.0079  1.2102
 5117SOL     OW26986   2.722   4.176  16.319 -0.3760  0.5866  0.3701
 5117SOL    HW126987   2.758   4.264  16.305 -0.8453  0.6347 -0.5822
 5117SOL    HW226988   2.686   4.181  16.407  2.6344 -1.2541  1.7025
 5118SOL     OW26989   4.138   0.559  17.425  0.3818  0.2366 -0.3330
 5118SOL    HW126990   4.106   0.610  17.351 -1.1867  2.0391  1.5899
 5118SOL    HW226991   4.131   0.613  17.504  0.7316 -0.1955 -0.0102
 5119SOL     OW26992   0.065   3.553   6.402 -0.1454  0.0974  0.2779
 5119SOL    HW126993   4.706   3.568   6.392 -0.6882 -1.1234  3.3699
 5119SOL    HW226994   0.068   3.457   6.399  1.5617  0.1647  0.1200
 5120SOL     OW26995   2.740   2.804  15.919  0.0914 -0.1004  0.2982
 5120SOL    HW126996   2.671   2.743  15.945  1.0630 -0.7254  1.4237
 5120SOL    HW226997   2.803   2.744  15.879 -0.1645 -1.4669  1.9357
 5121SOL     OW26998   0.942   1.734   5.409  0.0416  0.3143  0.5305
 5121SOL    HW126999   1.020   1.709   5.458  0.2861  0.0208 -0.0077
 5121SOL    HW227000   0.958   1.829   5.410 -2.8682  0.8039  0.3321
 5122SOL     OW27001   4.145   0.406   2.500 -0.1015 -0.3712 -0.0206
 5122SOL    HW127002   4.120   0.477   2.441  0.1027 -0.3579 -0.0896
 5122SOL    HW227003   4.116   0.333   2.445  0.4962  0.5024 -1.5051
 5123SOL     OW27004   3.855   1.447   0.332  0.4192 -0.3480 -0.4532
 5123SOL    HW127005   3.895   1.404   0.256  0.1112 -2.2517  0.4803
 5123SOL    HW227006   3.917   1.520   0.332  2.2061 -1.8723 -0.7690
 5124SOL     OW27007   3.498   2.462   6.142 -0.4729  0.4152  0.0790
 5124SOL    HW127008   3.511   2.371   6.118 -1.4276  0.1840  0.4203
 5124SOL    HW227009   3.576   2.480   6.194 -1.3167  3.1813  0.4038
 5125SOL     OW27010   0.816   0.032   5.828  0.2356  0.3394 -0.4231
 5125SOL    HW127011   0.772   4.688   5.795 -0.9101  1.0618 -0.6036
 5125SOL    HW227012   0.744   0.070   5.878  1.4649  0.1841  1.4543
 5126SOL     OW27013   0.524   2.280   7.531 -0.5045  0.0127  0.5257
 5126SOL    HW127014   0.550   2.193   7.499  2.6848  1.6050 -1.1537
 5126SOL    HW227015   0.480   2.311   7.452 -1.3157  1.1913  1.4676
 5127SOL     OW27016   4.513   4.175   6.268 -0.6801  0.0177  0.0216
 5127SOL    HW127017   4.571   4.117   6.317 -0.4229  1.4232  1.3841
 5127SOL    HW227018   4.435   4.122   6.253  0.1088 -0.9583 -0.6468
 5128SOL     OW27019   3.090   3.296   4.185 -0.1969 -0.4200  0.4815
 5128SOL    HW127020   3.056   3.364   4.126 -1.8452 -2.2006 -0.6121
 5128SOL    HW227021   3.110   3.229   4.121  1.6517 -1.3704  2.0622
 5129SOL     OW27022   1.880   1.297  12.886 -0.3529 -0.3496 -0.0040
 5129SOL    HW127023   1.970   1.324  12.869 -0.0057 -0.7571  1.1306
 5129SOL    HW227024   1.855   1.281  12.795 -1.8876 -1.2789  0.5876
 5130SOL     OW27025   3.844   2.388  11.251 -0.2377 -0.0655  0.2145
 5130SOL    HW127026   3.770   2.438  11.286 -1.2271 -1.0468 -0.5195
 5130SOL    HW227027   3.801   2.321  11.199  0.0000 -0.0855  0.0433
 5131SOL     OW27028   0.558   0.680   4.479 -1.0122  0.1777  0.0238
 5131SOL    HW127029   0.624   0.620   4.515 -0.9408  1.6728  2.3477
 5131SOL    HW227030   0.519   0.642   4.400 -0.2418  0.9393 -0.7274
 5132SOL     OW27031   2.139   3.083  17.555  0.1534 -0.4909 -0.2194
 5132SOL    HW127032   2.185   3.011  17.512  0.2881 -0.0372 -0.8355
 5132SOL    HW227033   2.052   3.049  17.576 -0.5129  0.0113 -2.1311
 5133SOL     OW27034   1.675   2.559   3.613 -0.6440  0.1147 -0.2570
 5133SOL    HW127035   1.635   2.644   3.593 -0.1513 -0.1928 -2.4972
 5133SOL    HW227036   1.747   2.558   3.550 -1.2761  0.6207 -0.9904
 5134SOL     OW27037   4.534   2.384  17.623  0.4891  0.1757  0.0156
 5134SOL    HW127038   4.588   2.435  17.684 -0.7736  0.7448  0.6609
 5134SOL    HW227039   4.597   2.320  17.591  0.7855 -1.2124  3.4091
 5135SOL     OW27040   4.364   1.918  16.031 -0.2200  0.5929  0.0263
 5135SOL    HW127041   4.345   1.834  15.990 -2.9131  1.5616 -0.7113
 5135SOL    HW227042   4.329   1.902  16.118  0.4130 -0.6766  0.0427
 5136SOL     OW27043   0.207   3.198  13.445 -0.3061  0.5358  0.4167
 5136SOL    HW127044   0.130   3.250  13.426 -0.5074  0.6114  1.4923
 5136SOL    HW227045   0.276   3.252  13.406 -0.6310  0.6214 -0.0448
 5137SOL     OW27046   0.698   0.747   4.861 -0.1854  0.0535  0.4670
 5137SOL    HW127047   0.631   0.681   4.879  1.5866 -2.0625 -0.6313
 5137SOL    HW227048   0.649   0.822   4.893 -0.7727 -0.4829  0.8409
 5138SOL     OW27049   0.716   1.830   2.989  0.2443  0.0114 -0.5158
 5138SOL    HW127050   0.704   1.751   3.042 -0.1066 -0.4066 -1.2301
 5138SOL    HW227051   0.759   1.886   3.054  1.3625 -0.4089 -0.8965
 5139SOL     OW27052   2.941   0.374   4.164 -0.4671  0.0587  0.2003
 5139SOL    HW127053   3.018   0.384   4.220 -1.0341  2.1967  0.5861
 5139SOL    HW227054   2.888   0.313   4.216 -0.6048 -1.7379 -2.0691
 5140SOL     OW27055   2.000   3.247  16.092 -0.1603  0.1095 -0.0697
 5140SOL    HW127056   1.933   3.308  16.123  0.0053 -0.3478  1.1826
 5140SOL    HW227057   2.044   3.301  16.026  0.5427  0.2472  0.5184
 5141SOL     OW27058   0.639   0.385   5.069 -0.1193 -0.0248 -0.2087
 5141SOL    HW127059   0.617   0.303   5.025  2.3165  1.2731 -3.8357
 5141SOL    HW227060   0.582   0.447   5.024 -1.7696 -2.0325 -0.9166
 5142SOL     OW27061   2.804   2.589   2.853 -0.0564 -0.1307  0.3331
 5142SOL    HW127062   2.744   2.636   2.796 -1.3437 -0.1715  1.6333
 5142SOL    HW227063   2.761   2.503   2.855 -0.3127  0.0107  1.2328
 5143SOL     OW27064   2.891   2.762   3.033 -0.6481 -0.9800 -0.1491
 5143SOL    HW127065   2.982   2.751   3.008  0.2495  1.3833  2.0035
 5143SOL    HW227066   2.850   2.707   2.967 -0.0652 -0.0695 -1.2561
 5144SOL     OW27067   4.135   3.902   7.471 -0.2504 -0.0507 -0.5591
 5144SOL    HW127068   4.042   3.898   7.449 -0.5501 -0.2205  0.7239
 5144SOL    HW227069   4.133   3.993   7.502 -0.8164 -0.9377  2.0327
 5145SOL     OW27070   4.586   4.274  15.589  0.0532 -0.8092 -0.0002
 5145SOL    HW127071   4.668   4.226  15.599  1.5123  1.6551 -0.0386
 5145SOL    HW227072   4.531   4.238  15.659 -0.6866  2.0562  0.9022
 5146SOL     OW27073   4.449   3.465   4.999 -0.0529  0.0886  0.2262
 5146SOL    HW127074   4.365   3.420   5.008  0.4270 -0.9315 -0.5336
 5146SOL    HW227075   4.450   3.516   5.081 -0.6799  1.6788 -0.7516
 5147SOL     OW27076   2.749   2.996   5.071  0.0203 -0.0220 -0.2443
 5147SOL    HW127077   2.655   3.012   5.073 -0.1359 -0.8739 -0.7236
 5147SOL    HW227078   2.769   3.039   4.988 -0.1933  1.9546  0.7398
 5148SOL     OW27079   1.040   1.986   0.492  0.5268 -0.4755 -0.1076
 5148SOL    HW127080   0.961   1.943   0.524  0.2041  0.5962  0.5409
 5148SOL    HW227081   1.088   2.002   0.573  0.6905  0.4651 -0.3915
 5149SOL     OW27082   1.767   3.625   7.410 -0.1048 -0.1583 -0.2311
 5149SOL    HW127083   1.673   3.618   7.393  0.1395  1.1830 -2.1064
 5149SOL    HW227084   1.748   3.587   7.496  0.1622  4.3455  1.7986
 5150SOL     OW27085   3.757   2.704   2.610  0.0599  0.0098  0.1202
 5150SOL    HW127086   3.810   2.715   2.530 -3.3975  0.9921 -2.0209
 5150SOL    HW227087   3.672   2.688   2.570  0.9469 -0.7497 -1.4868
 5151SOL     OW27088   4.223   2.716   4.596 -0.3288 -0.2154  0.6214
 5151SOL    HW127089   4.186   2.638   4.555  0.2374 -0.7347  1.1058
 5151SOL    HW227090   4.145   2.743   4.644  0.5198 -2.9995  3.5380
 5152SOL     OW27091   2.513   4.131   3.694  0.6052 -0.1811 -0.0052
 5152SOL    HW127092   2.495   4.223   3.713  0.9121 -0.4310  1.5124
 5152SOL    HW227093   2.562   4.112   3.774 -1.6834 -1.6427  1.0694
 5153SOL     OW27094   4.477   0.341   1.573 -0.0833 -0.1169 -1.0805
 5153SOL    HW127095   4.475   0.403   1.646 -1.7112 -0.7833 -0.5641
 5153SOL    HW227096   4.401   0.373   1.523  0.3763  0.4758 -1.4026
 5154SOL     OW27097   2.027   1.682   8.355  0.0616 -0.3870 -0.0779
 5154SOL    HW127098   2.013   1.766   8.398 -1.4374 -0.8207  0.2830
 5154SOL    HW227099   2.069   1.635   8.427  1.4810 -1.7721 -1.7857
 5155SOL     OW27100   0.790   0.711   3.463  0.1678  0.3131  0.0861
 5155SOL    HW127101   0.826   0.623   3.476  0.0714  0.2240 -0.2478
 5155SOL    HW227102   0.839   0.776   3.514  2.3523 -1.5517  0.4127
 5156SOL     OW27103   0.072   4.669   1.809  0.1134  0.6377  0.3297
 5156SOL    HW127104   0.008   4.604   1.779  1.4359 -2.4741  4.3951
 5156SOL    HW227105   0.024   0.010   1.773 -0.6410 -1.1968 -2.5037
 5157SOL     OW27106   2.576   4.119  12.678  0.2651  0.2898 -0.8132
 5157SOL    HW127107   2.631   4.097  12.603 -0.1858 -2.4988 -0.3053
 5157SOL    HW227108   2.626   4.194  12.711  1.2084  0.0175 -1.6306
 5158SOL     OW27109   2.804   3.281   9.692  0.6587  0.4129 -0.4578
 5158SOL    HW127110   2.802   3.287   9.597  1.4529 -0.6637 -0.5481
 5158SOL    HW227111   2.764   3.364   9.718  0.2128 -0.2830  1.1201
 5159SOL     OW27112   0.720   0.548  13.744 -0.2361 -0.5883 -0.3391
 5159SOL    HW127113   0.735   0.503  13.661 -1.7236 -0.8161 -0.4816
 5159SOL    HW227114   0.721   0.477  13.809  4.4618 -1.6334 -1.5718
 5160SOL     OW27115   2.575   0.662   3.718 -0.1087 -0.7412  0.3609
 5160SOL    HW127116   2.614   0.641   3.633 -1.7539  2.5351 -1.1782
 5160SOL    HW227117   2.637   0.627   3.782  2.5724  0.5703 -1.5110
 5161SOL     OW27118   1.339   1.310   3.427  0.1150 -0.2482  0.3353
 5161SOL    HW127119   1.403   1.371   3.463 -0.4838  0.7332 -0.2629
 5161SOL    HW227120   1.395   1.232   3.428 -1.5399 -1.4481 -1.7177
 5162SOL     OW27121   3.284   0.667   3.662  0.4726  0.0208  1.0262
 5162SOL    HW127122   3.353   0.606   3.634  0.4941  0.9177 -0.8527
 5162SOL    HW227123   3.260   0.615   3.739  0.3020  0.2894  1.1539
 5163SOL     OW27124   0.837   3.784   1.566  0.2720  0.1519  0.3300
 5163SOL    HW127125   0.846   3.689   1.562  0.1991  0.1838 -0.7724
 5163SOL    HW227126   0.757   3.797   1.515  0.3206  1.3344  0.5473
 5164SOL     OW27127   4.165   1.057  17.677  1.7153 -0.2534  0.6148
 5164SOL    HW127128   4.155   1.054  17.582 -2.2293  2.1292  0.9525
 5164SOL    HW227129   4.137   0.974  17.715 -2.6017  0.2273 -1.4597
 5165SOL     OW27130   1.631   4.459  12.984 -0.2649 -0.4584 -0.1938
 5165SOL    HW127131   1.680   4.442  12.903 -1.1079 -1.3422 -0.5072
 5165SOL    HW227132   1.572   4.531  12.959  3.3205  2.6192  0.1140
 5166SOL     OW27133   0.857   0.104   9.443 -0.0118  0.4142  0.4147
 5166SOL    HW127134   0.942   0.066   9.421 -0.7873 -1.5546  0.8884
 5166SOL    HW227135   0.878   0.150   9.525 -2.0589  0.1116  1.0923
 5167SOL     OW27136   1.339   2.435   5.619  0.0161 -0.2698  0.3402
 5167SOL    HW127137   1.326   2.459   5.711 -0.7470  1.0674 -0.1250
 5167SOL    HW227138   1.351   2.515   5.570  0.2821  0.7917  2.1308
 5168SOL     OW27139   2.356   2.953   1.560  0.0180 -0.5484  0.1220
 5168SOL    HW127140   2.313   2.983   1.640  1.0947 -0.7707  0.7911
 5168SOL    HW227141   2.366   2.858   1.571 -0.6654 -0.7138 -0.7636
 5169SOL     OW27142   1.928   3.894  13.138 -0.4256  0.9087  0.3105
 5169SOL    HW127143   1.869   3.891  13.214  0.2503 -0.0101  0.8058
 5169SOL    HW227144   1.875   3.887  13.059  0.8075  0.4020 -0.4684
 5170SOL     OW27145   0.671   3.573   7.873 -0.1283  0.0903 -0.1677
 5170SOL    HW127146   0.600   3.608   7.820 -1.8966 -1.0445  1.4293
 5170SOL    HW227147   0.643   3.489   7.910  0.9187 -0.2055 -0.0385
 5171SOL     OW27148   3.278   0.686   7.135  0.4854  0.3348  0.0328
 5171SOL    HW127149   3.208   0.635   7.094 -0.1717  0.3740  1.1016
 5171SOL    HW227150   3.331   0.699   7.056 -0.6135  1.2965 -0.5434
 5172SOL     OW27151   2.478   1.014   4.304  0.3099  0.2037 -0.0434
 5172SOL    HW127152   2.387   1.027   4.279  0.2197  1.0887  0.7413
 5172SOL    HW227153   2.531   0.976   4.234 -2.7124 -1.8345 -1.2060
 5173SOL     OW27154   4.007   4.603  15.264 -0.2113  0.0309 -0.4844
 5173SOL    HW127155   3.946   4.548  15.214  1.1448 -0.3577 -1.7244
 5173SOL    HW227156   4.090   4.588  15.219 -0.2588 -1.1707 -0.1642
 5174SOL     OW27157   1.647   1.914   4.411  0.4469  0.6655 -0.2153
 5174SOL    HW127158   1.578   1.943   4.469  1.6358  1.5584  0.7541
 5174SOL    HW227159   1.590   1.892   4.337 -0.9513 -2.7482  1.8428
 5175SOL     OW27160   3.931   3.790   4.056 -0.2038  0.2426 -0.6331
 5175SOL    HW127161   3.887   3.770   3.974  1.4480 -1.9836 -0.9754
 5175SOL    HW227162   4.019   3.810   4.025 -0.6966  1.5040 -1.2338
 5176SOL     OW27163   0.758   2.772   7.622  0.8178  0.3595  0.3263
 5176SOL    HW127164   0.767   2.706   7.690 -4.1896  0.1365  0.7227
 5176SOL    HW227165   0.821   2.833   7.660  0.1758  2.4370 -1.9370
 5177SOL     OW27166   1.532   2.816   6.137  0.2650  1.1379 -0.1308
 5177SOL    HW127167   1.617   2.814   6.092 -0.1432 -0.5334 -0.8547
 5177SOL    HW227168   1.554   2.861   6.218 -0.6659  0.6192  0.4059
 5178SOL     OW27169   2.129   2.799   9.501 -0.3440  0.0212 -0.6724
 5178SOL    HW127170   2.035   2.791   9.512 -0.5242  1.9560 -0.8710
 5178SOL    HW227171   2.160   2.741   9.570 -1.2411  0.3025 -0.0361
 5179SOL     OW27172   1.518   1.438  12.289  0.4818 -0.6327 -0.6482
 5179SOL    HW127173   1.496   1.531  12.280  1.2956 -0.4780 -1.1046
 5179SOL    HW227174   1.486   1.424  12.378 -0.1320  0.2000 -0.7365
 5180SOL     OW27175   2.140   1.804   5.951 -0.5218 -0.1132 -0.4433
 5180SOL    HW127176   2.104   1.808   5.862 -0.2678  1.4031 -0.4808
 5180SOL    HW227177   2.092   1.875   5.993  2.5861  0.5914  1.9201
 5181SOL     OW27178   0.396   0.872  13.764 -0.5895 -0.0937  0.5432
 5181SOL    HW127179   0.342   0.890  13.841  0.2766 -0.9562  1.3462
 5181SOL    HW227180   0.416   0.780  13.782 -3.7781 -1.4566 -2.8854
 5182SOL     OW27181   3.210   2.117   1.782  0.3528  0.2911 -0.1714
 5182SOL    HW127182   3.164   2.043   1.821  2.3060 -0.9525 -0.2001
 5182SOL    HW227183   3.265   2.065   1.724  0.7806  0.9347 -0.3450
 5183SOL     OW27184   4.579   3.670   1.694  0.3421  0.5079 -0.3547
 5183SOL    HW127185   4.535   3.680   1.779  3.1458 -1.3581  1.3040
 5183SOL    HW227186   4.514   3.617   1.648  0.4957  0.9133 -1.0373
 5184SOL     OW27187   3.236   1.458  11.274  0.3497 -0.6562  0.4329
 5184SOL    HW127188   3.164   1.521  11.283 -0.9498 -2.0632  0.0899
 5184SOL    HW227189   3.205   1.404  11.201 -2.0128  2.5397 -0.9384
 5185SOL     OW27190   0.538   2.574   0.145 -0.2248  0.1895 -0.4786
 5185SOL    HW127191   0.605   2.530   0.197  1.1324  2.4498 -0.3472
 5185SOL    HW227192   0.548   2.667   0.165  1.8301 -0.2947  0.7243
 5186SOL     OW27193   3.824   0.941   3.821  0.2898 -0.2422  0.2845
 5186SOL    HW127194   3.842   1.021   3.772  0.8964 -0.4316  0.1986
 5186SOL    HW227195   3.830   0.972   3.911  0.5907  1.2342 -0.2322
 5187SOL     OW27196   2.927   1.913  16.255  0.1610  0.3720  0.1536
 5187SOL    HW127197   2.884   1.883  16.175 -1.9984  0.5014  1.2673
 5187SOL    HW227198   2.973   1.984  16.210  0.0783  1.3210  1.5663
 5188SOL     OW27199   2.031   1.219   5.979  0.0208 -0.4217  0.3129
 5188SOL    HW127200   1.971   1.292   5.993  1.5070  0.7987  0.2259
 5188SOL    HW227201   2.010   1.176   6.063 -0.6727  0.2544  0.4913
 5189SOL     OW27202   0.979   4.286   2.227 -0.5376  0.0922 -0.5376
 5189SOL    HW127203   1.055   4.236   2.256  1.8977  3.0447 -1.8303
 5189SOL    HW227204   0.957   4.234   2.151 -0.6137 -0.3761 -0.1927
 5190SOL     OW27205   4.303   4.487  11.679  0.1451  0.3364  0.0769
 5190SOL    HW127206   4.258   4.567  11.707 -1.2773  0.0717 -1.4082
 5190SOL    HW227207   4.269   4.426  11.745 -0.5753 -0.6141 -1.1611
 5191SOL     OW27208   2.522   0.830   9.042 -0.1504 -0.5061  0.4215
 5191SOL    HW127209   2.607   0.787   9.032  1.2462  2.6779 -1.6571
 5191SOL    HW227210   2.503   0.801   9.131  0.5029 -0.7449  0.4848
 5192SOL     OW27211   3.883   1.925   4.765 -0.1929  0.3070  0.0171
 5192SOL    HW127212   3.920   1.926   4.677  0.3935  1.4172  0.2806
 5192SOL    HW227213   3.837   2.009   4.768  0.9593  1.0880 -3.8237
 5193SOL     OW27214   2.126   1.795   1.547  0.3143  0.1460 -0.6766
 5193SOL    HW127215   2.075   1.723   1.511  0.2811 -0.0280 -0.2818
 5193SOL    HW227216   2.191   1.749   1.600 -2.1006 -1.0469  1.2566
 5194SOL     OW27217   4.170   3.759   2.248  0.2108 -0.2406  0.7137
 5194SOL    HW127218   4.222   3.805   2.314  1.7092  0.8650 -1.2344
 5194SOL    HW227219   4.239   3.700   2.217  1.5425  0.9308  1.4725
 5195SOL     OW27220   0.733   0.931   8.026 -0.0312  0.3732  0.9321
 5195SOL    HW127221   0.790   0.862   7.994 -0.1822 -0.0159  1.5007
 5195SOL    HW227222   0.650   0.906   7.985  0.4278  0.0934  0.1687
 5196SOL     OW27223   2.311   3.145   3.019 -0.2932  0.4354 -0.2744
 5196SOL    HW127224   2.286   3.235   3.037  0.9344  0.8349 -0.5259
 5196SOL    HW227225   2.351   3.104   3.096 -0.3895 -0.0866 -0.4985
 5197SOL     OW27226   3.387   1.021   4.576 -0.2240  0.4839 -0.2334
 5197SOL    HW127227   3.324   1.003   4.646 -0.2121 -0.7075 -0.5214
 5197SOL    HW227228   3.464   1.033   4.631 -1.4035  0.2599  1.4537
 5198SOL     OW27229   0.817   3.691   6.428 -0.0453 -0.4284 -0.6148
 5198SOL    HW127230   0.749   3.634   6.465 -0.5691  2.4949  2.9865
 5198SOL    HW227231   0.896   3.668   6.478 -0.0390  1.9161  0.4547
 5199SOL     OW27232   1.232   3.272  12.511 -0.1805  0.1414  0.4529
 5199SOL    HW127233   1.148   3.227  12.523  0.1295 -0.6273 -0.2353
 5199SOL    HW227234   1.200   3.362  12.508  1.0006  0.5886  1.4550
 5200SOL     OW27235   3.519   3.913   5.809 -0.0062  0.2561  0.1437
 5200SOL    HW127236   3.582   3.919   5.881 -0.7844 -0.5229  0.8993
 5200SOL    HW227237   3.570   3.934   5.731 -0.3118 -1.2197 -0.4672
 5201SOL     OW27238   2.037   4.071   0.080  0.2882 -0.5104 -0.0182
 5201SOL    HW127239   1.994   4.102  17.738 -0.6659 -1.9148 -0.0408
 5201SOL    HW227240   2.038   4.150   0.133 -1.3216 -0.6738  0.2593
 5202SOL     OW27241   1.497   0.843   0.271 -1.2455 -0.3016  0.1517
 5202SOL    HW127242   1.434   0.908   0.240 -0.6371  0.7023  1.0150
 5202SOL    HW227243   1.517   0.796   0.190  0.5497 -0.5961  0.7672
 5203SOL     OW27244   4.511   2.067  16.305 -0.1032 -0.4834 -0.4045
 5203SOL    HW127245   4.526   2.140  16.365 -0.1709 -1.1051  0.3592
 5203SOL    HW227246   4.600   2.031  16.305  0.1173  0.0514 -1.9061
 5204SOL     OW27247   1.125   1.299   9.123  1.0361 -0.1377 -0.0303
 5204SOL    HW127248   1.149   1.217   9.166  0.2605 -1.1008 -1.4058
 5204SOL    HW227249   1.072   1.341   9.190 -0.4080 -1.6720 -0.1935
 5205SOL     OW27250   1.320   3.006   6.601 -0.5379  0.2856 -0.4243
 5205SOL    HW127251   1.234   3.019   6.642  0.1906  0.9142  0.9235
 5205SOL    HW227252   1.302   2.963   6.518  1.7655  0.4717 -0.9929
 5206SOL     OW27253   1.959   4.012  12.792  0.2409 -0.0657  0.2258
 5206SOL    HW127254   2.004   4.096  12.793 -0.5366  0.3406  1.1587
 5206SOL    HW227255   1.873   4.052  12.778 -0.4019 -1.6730 -0.4557
 5207SOL     OW27256   0.873   2.746  14.711 -0.4523 -0.7610  0.2831
 5207SOL    HW127257   0.897   2.774  14.799  0.8492  1.3482 -0.7360
 5207SOL    HW227258   0.819   2.819  14.680  1.7593  0.0442 -1.7044
 5208SOL     OW27259   1.450   1.252   2.264  0.1331  0.5305  0.4332
 5208SOL    HW127260   1.415   1.166   2.244  0.7830  0.2770  0.4019
 5208SOL    HW227261   1.532   1.265   2.217 -1.6101 -0.3886 -2.9016
 5209SOL     OW27262   4.031   1.050   4.868  0.3501  0.4486 -0.1580
 5209SOL    HW127263   4.023   0.955   4.861  2.2565  0.4989 -2.6406
 5209SOL    HW227264   3.990   1.064   4.954 -1.0368  1.0529 -0.9237
 5210SOL     OW27265   1.556   4.579  15.629  0.0606 -0.2767 -0.1504
 5210SOL    HW127266   1.603   4.644  15.576 -0.4316  1.0653  1.0522
 5210SOL    HW227267   1.543   4.632  15.708 -0.2507 -1.2438  0.4387
 5211SOL     OW27268   0.587   1.954  13.734 -0.2928 -0.0822 -0.1429
 5211SOL    HW127269   0.571   2.023  13.669 -0.0199  0.4023  0.3049
 5211SOL    HW227270   0.642   1.898  13.679  0.4630 -1.6095  2.1713
 5212SOL     OW27271   0.471   3.560   8.726 -0.1185 -0.3705 -0.0439
 5212SOL    HW127272   0.562   3.582   8.705  0.0341 -0.3650  0.6156
 5212SOL    HW227273   0.448   3.637   8.778  0.6690 -0.8952  1.0601
 5213SOL     OW27274   4.395   3.637   5.279 -0.4523 -0.1778 -0.0032
 5213SOL    HW127275   4.480   3.606   5.311 -0.6480 -1.4031 -0.6542
 5213SOL    HW227276   4.343   3.618   5.357 -0.3771  0.3767  0.1752
 5214SOL     OW27277   3.470   4.093   2.260  0.1669 -0.3421 -0.3581
 5214SOL    HW127278   3.495   4.115   2.171  2.1517  0.9001  0.4827
 5214SOL    HW227279   3.560   4.073   2.288  0.4687  0.6790 -0.5889
 5215SOL     OW27280   3.984   3.755  11.783  0.0824  0.0423  0.8505
 5215SOL    HW127281   4.026   3.689  11.838  2.0092 -0.8199 -1.6085
 5215SOL    HW227282   4.006   3.720  11.696 -0.8763 -2.4479  1.6132
 5216SOL     OW27283   0.393   1.046   4.997 -0.5901 -0.5760 -0.0966
 5216SOL    HW127284   0.475   1.006   4.968  0.6100  1.7086  0.1085
 5216SOL    HW227285   0.424   1.119   5.051 -0.1496 -0.0980 -0.9917
 5217SOL     OW27286   1.407   1.015  11.923 -0.5582 -0.0833 -0.2185
 5217SOL    HW127287   1.370   1.103  11.919 -0.9146 -0.2668 -0.9874
 5217SOL    HW227288   1.382   0.985  11.836 -3.2759  0.3860  0.3754
 5218SOL     OW27289   0.524   3.906   5.846 -0.5314 -0.8268 -0.8907
 5218SOL    HW127290   0.468   3.845   5.799  1.1160 -2.4965 -0.7171
 5218SOL    HW227291   0.613   3.870   5.852 -1.0776 -2.0622 -0.2948
 5219SOL     OW27292   2.285   0.721   4.287  0.0333  0.2098 -0.2734
 5219SOL    HW127293   2.312   0.751   4.373  1.1909  0.8417 -0.8616
 5219SOL    HW227294   2.252   0.803   4.250 -2.2233 -0.3356  0.5037
 5220SOL     OW27295   2.460   4.687   8.172  0.1128 -0.4648 -0.0597
 5220SOL    HW127296   2.513   4.611   8.197 -0.2624 -0.5299  0.5142
 5220SOL    HW227297   2.413   4.708   8.252  1.1089  1.3376  0.0379
 5221SOL     OW27298   3.061   0.550  14.366 -0.1754 -0.2244 -0.5789
 5221SOL    HW127299   3.042   0.456  14.358  0.5023 -0.4942  0.8603
 5221SOL    HW227300   2.969   0.576  14.364 -0.5939 -1.8037 -1.9508
 5222SOL     OW27301   3.338   1.632   9.341 -0.1338  0.0039 -0.3957
 5222SOL    HW127302   3.261   1.689   9.341  1.2990  1.9299  0.6590
 5222SOL    HW227303   3.391   1.684   9.280 -0.4794  1.2560  0.3693
 5223SOL     OW27304   1.798   1.987  17.014 -0.3150  0.2745 -0.3586
 5223SOL    HW127305   1.768   1.950  17.097 -0.5360 -0.1541 -0.6311
 5223SOL    HW227306   1.879   1.936  17.008 -1.9444 -2.3355 -0.1593
 5224SOL     OW27307   0.359   1.245   0.673 -0.3318  0.3230 -0.1716
 5224SOL    HW127308   0.379   1.209   0.759  1.0830  0.4482 -0.4549
 5224SOL    HW227309   0.277   1.201   0.649 -0.4970  0.9235 -0.7118
 5225SOL     OW27310   0.172   2.655   7.357  0.6203 -0.0304 -0.2107
 5225SOL    HW127311   0.263   2.624   7.365  1.3736  2.2050 -0.1447
 5225SOL    HW227312   0.166   2.730   7.416  0.0613 -0.4377  0.2496
 5226SOL     OW27313   0.630   1.145   9.693 -0.1602 -0.2327 -0.7517
 5226SOL    HW127314   0.725   1.137   9.685 -0.1702  2.1469 -3.0206
 5226SOL    HW227315   0.604   1.088   9.620  1.5083 -2.5822  0.4864
 5227SOL     OW27316   0.759   0.118   5.167 -0.5550  0.0469  0.6546
 5227SOL    HW127317   0.837   0.166   5.192 -0.0535 -1.2845  1.6620
 5227SOL    HW227318   0.723   0.188   5.113 -0.2013 -1.9706 -2.2032
 5228SOL     OW27319   1.119   2.126  15.140  0.4940 -0.3299  0.1879
 5228SOL    HW127320   1.206   2.088  15.151  1.7403  2.0194 -1.5410
 5228SOL    HW227321   1.066   2.048  15.126 -0.5726  0.4936 -0.3487
 5229SOL     OW27322   0.227   1.565   1.847 -0.3624 -0.5140 -0.0612
 5229SOL    HW127323   0.142   1.591   1.814  1.4276  3.2733 -1.6123
 5229SOL    HW227324   0.214   1.583   1.940 -1.3224 -0.8193 -0.1395
 5230SOL     OW27325   1.200   0.231   3.132  0.6545 -0.3675 -0.6133
 5230SOL    HW127326   1.159   0.249   3.048  1.0433 -2.0347 -1.1585
 5230SOL    HW227327   1.182   0.137   3.140 -1.7028  0.2633  1.6229
 5231SOL     OW27328   2.515   0.107   0.435 -0.5503  0.3645 -0.0714
 5231SOL    HW127329   2.473   0.074   0.515  0.1343 -0.0313  0.1249
 5231SOL    HW227330   2.526   0.199   0.459 -2.2655  0.1930  1.3981
 5232SOL     OW27331   1.680   4.254  13.187 -0.2122  1.0114 -0.0241
 5232SOL    HW127332   1.773   4.265  13.167 -0.2835  0.2899 -0.7347
 5232SOL    HW227333   1.640   4.336  13.160  2.7105  2.3988 -0.1522
 5233SOL     OW27334   2.998   1.433   6.353  0.3509 -0.7526  0.0627
 5233SOL    HW127335   3.025   1.413   6.263 -1.2663 -0.8445 -0.4002
 5233SOL    HW227336   3.021   1.352   6.397 -1.7279 -2.0437 -1.2444
 5234SOL     OW27337   3.943   3.986   2.891  0.5913  0.3623 -0.3475
 5234SOL    HW127338   4.025   3.943   2.867 -0.9793 -2.5945 -0.3506
 5234SOL    HW227339   3.951   4.076   2.858 -1.2724  0.4180 -0.6654
 5235SOL     OW27340   3.302   2.671   6.550  0.7242 -0.1497 -0.6322
 5235SOL    HW127341   3.207   2.669   6.557  0.6748  2.6959 -0.4928
 5235SOL    HW227342   3.332   2.580   6.548  0.0451 -0.4068  1.5369
 5236SOL     OW27343   2.515   4.682  13.302  0.6419  0.1897 -0.1855
 5236SOL    HW127344   2.439   4.643  13.345  0.8221 -0.1488 -0.1763
 5236SOL    HW227345   2.585   4.675  13.367  2.5622 -1.5549 -2.4300
 5237SOL     OW27346   1.814   3.460   0.532  0.5699  0.0641 -0.4131
 5237SOL    HW127347   1.756   3.517   0.582  1.7913  1.4442 -0.5906
 5237SOL    HW227348   1.903   3.492   0.545  1.1683 -1.5834 -0.4627
 5238SOL     OW27349   4.582   0.595   0.478  0.8136 -0.3013 -0.5641
 5238SOL    HW127350   4.506   0.578   0.534  0.4374 -1.8681 -1.5252
 5238SOL    HW227351   4.656   0.560   0.527  0.6069  0.0469 -0.0134
 5239SOL     OW27352   2.413   2.486   6.318 -0.4504  0.1024  0.9629
 5239SOL    HW127353   2.321   2.467   6.304 -0.8184  1.5560  1.4971
 5239SOL    HW227354   2.442   2.397   6.342  0.7010 -0.5382 -2.8124
 5240SOL     OW27355   0.192   2.017   5.157  0.4291 -0.1517  0.1297
 5240SOL    HW127356   0.105   2.050   5.183  0.5100  1.2389 -1.3117
 5240SOL    HW227357   0.204   1.946   5.219 -2.0310  0.2683  1.0909
 5241SOL     OW27358   0.447   2.830   0.214 -0.8463  0.1515 -0.4835
 5241SOL    HW127359   0.368   2.827   0.161 -0.2303 -3.1043 -1.2392
 5241SOL    HW227360   0.507   2.880   0.159 -0.2550 -0.6335 -0.5550
 5242SOL     OW27361   2.749   3.011   8.408 -0.0869  0.4927 -0.0321
 5242SOL    HW127362   2.757   3.096   8.365  0.6165  0.0363 -0.7984
 5242SOL    HW227363   2.812   3.019   8.480  1.6193  0.7736 -1.5645
 5243SOL     OW27364   0.638   1.253   5.512 -0.5620  0.1626  0.2060
 5243SOL    HW127365   0.650   1.239   5.606  0.1787 -1.8612 -0.1992
 5243SOL    HW227366   0.571   1.193   5.479  0.8330 -1.3935  0.2092
 5244SOL     OW27367   1.316   2.319  13.290  0.0180 -0.5155 -0.1705
 5244SOL    HW127368   1.371   2.395  13.274  0.2504 -0.1355  2.3658
 5244SOL    HW227369   1.231   2.362  13.295  0.8173  1.1014 -0.4629
 5245SOL     OW27370   2.142   2.823  17.396  0.3302  0.9013  0.6466
 5245SOL    HW127371   2.088   2.845  17.321 -0.5545 -0.8961  0.7586
 5245SOL    HW227372   2.233   2.819  17.365 -0.4987  1.0322 -1.8105
 5246SOL     OW27373   1.513   1.883   2.406 -0.1253 -0.2116  0.2694
 5246SOL    HW127374   1.441   1.941   2.432 -0.7905 -1.7846  1.9172
 5246SOL    HW227375   1.593   1.934   2.394 -0.5197  0.1956 -0.6527
 5247SOL     OW27376   3.210   3.650  14.524 -0.2346 -0.3341  0.0218
 5247SOL    HW127377   3.138   3.657  14.588 -0.3718  0.5079 -0.2173
 5247SOL    HW227378   3.264   3.720  14.561 -0.4457 -0.4997  0.6485
 5248SOL     OW27379   0.398   1.978   6.622 -0.2905 -0.0462  0.0002
 5248SOL    HW127380   0.492   1.976   6.605 -0.2018  0.1450  0.4742
 5248SOL    HW227381   0.404   1.987   6.717 -0.9980 -3.2503  0.3601
 5249SOL     OW27382   3.249   1.479   8.308 -0.1004  0.6061  0.1309
 5249SOL    HW127383   3.294   1.412   8.358  1.4109  1.7220  0.2627
 5249SOL    HW227384   3.170   1.484   8.363  0.3087  0.3288  0.7443
 5250SOL     OW27385   3.063   0.495   0.322  0.1877 -0.1996  0.5656
 5250SOL    HW127386   3.111   0.463   0.245 -0.4194 -0.5977  0.3524
 5250SOL    HW227387   3.111   0.574   0.347 -1.0329  0.4856  0.7529
 5251SOL     OW27388   2.330   1.396   3.608  0.0525 -0.0664  0.0364
 5251SOL    HW127389   2.319   1.330   3.676  1.3335  0.1999  0.4881
 5251SOL    HW227390   2.419   1.427   3.624  0.1983  1.3427 -3.4244
 5252SOL     OW27391   2.310   2.454   3.391 -0.2161  0.1635  0.4789
 5252SOL    HW127392   2.288   2.516   3.460 -0.8927 -0.7763  1.1087
 5252SOL    HW227393   2.317   2.366   3.428 -1.4934 -0.6058 -1.1020
 5253SOL     OW27394   1.182   0.968   7.390 -0.1128  0.3422  0.0613
 5253SOL    HW127395   1.227   0.901   7.441 -0.0571  0.5300  0.2564
 5253SOL    HW227396   1.247   0.992   7.324  0.7395  1.9443  1.5008
 5254SOL     OW27397   2.913   1.350  15.760 -0.4335  0.1455 -0.3073
 5254SOL    HW127398   2.841   1.306  15.716  1.1532 -0.2375 -2.5096
 5254SOL    HW227399   2.896   1.444  15.753  2.0977  0.4632 -2.2225
 5255SOL     OW27400   0.378   0.245  14.215  0.6405  0.4867  0.4015
 5255SOL    HW127401   0.377   0.177  14.283  0.0015 -0.0243 -0.1129
 5255SOL    HW227402   0.438   0.204  14.152 -1.0842 -0.3113 -0.7204
 5256SOL     OW27403   4.460   1.943   5.303  0.2099  0.4500 -0.4816
 5256SOL    HW127404   4.405   1.970   5.377 -1.1184 -0.1222 -1.2520
 5256SOL    HW227405   4.498   1.866   5.346  0.8783 -0.3969 -2.5663
 5257SOL     OW27406   3.628   4.035   5.545 -0.7364  0.2867  0.2803
 5257SOL    HW127407   3.565   4.014   5.475  1.8403  1.6283 -2.4209
 5257SOL    HW227408   3.623   4.130   5.544  0.0668  0.3306  1.1462
 5258SOL     OW27409   3.512   2.537   4.112 -0.4390 -0.5930  0.1755
 5258SOL    HW127410   3.441   2.474   4.100 -0.6623 -0.1443 -0.8172
 5258SOL    HW227411   3.470   2.603   4.167  0.4635 -1.3263  1.7852
 5259SOL     OW27412   1.180   1.700   7.327  0.3423 -0.0763  0.0799
 5259SOL    HW127413   1.113   1.713   7.393  0.5829  1.6098 -0.0173
 5259SOL    HW227414   1.254   1.687   7.386 -1.2280 -1.0790  1.8286
 5260SOL     OW27415   2.596   0.645   7.517  0.7710 -0.1751  0.0199
 5260SOL    HW127416   2.692   0.646   7.524  0.6690 -0.3524  1.5369
 5260SOL    HW227417   2.582   0.739   7.529  0.9343 -0.1598  0.1001
 5261SOL     OW27418   4.199   3.409   6.155 -0.0189 -0.0014 -0.1950
 5261SOL    HW127419   4.168   3.500   6.151  0.6469  0.2906  1.3544
 5261SOL    HW227420   4.116   3.366   6.177 -2.0145  3.0397 -1.7064
 5262SOL     OW27421   2.797   3.991   3.706  0.1444 -0.9557  0.0665
 5262SOL    HW127422   2.864   4.049   3.673  0.3151 -1.6714 -0.8448
 5262SOL    HW227423   2.783   4.023   3.795  3.6504 -1.3824  0.7331
 5263SOL     OW27424   2.660   2.530  13.680  0.2091  0.8057 -0.3646
 5263SOL    HW127425   2.722   2.552  13.750 -0.0521  0.2646  0.0367
 5263SOL    HW227426   2.662   2.435  13.683  2.2643  0.7778 -2.3297
 5264SOL     OW27427   4.376   1.484   6.493  0.4470 -0.4779 -0.3609
 5264SOL    HW127428   4.378   1.389   6.492  0.6479 -0.4932  1.5110
 5264SOL    HW227429   4.469   1.502   6.502  0.3421 -0.6330  1.0457
 5265SOL     OW27430   2.322   1.096   6.470  0.2015 -0.3373 -0.3572
 5265SOL    HW127431   2.233   1.132   6.471  0.2841 -0.1149 -1.1038
 5265SOL    HW227432   2.316   1.024   6.533 -1.5461  0.5122  0.4605
 5266SOL     OW27433   2.602   2.511   1.347  0.3525 -0.1378 -0.0762
 5266SOL    HW127434   2.599   2.591   1.294  1.4971  1.3641  2.1092
 5266SOL    HW227435   2.624   2.453   1.275  1.3213 -1.6308  1.4188
 5267SOL     OW27436   2.783   0.383   7.693 -0.7094 -0.6217 -0.0572
 5267SOL    HW127437   2.810   0.395   7.602  0.6251 -1.9849  0.1529
 5267SOL    HW227438   2.688   0.373   7.688 -0.8667  1.2552 -0.4782
 5268SOL     OW27439   2.485   2.044   5.399 -0.5354 -0.4539  0.0918
 5268SOL    HW127440   2.519   1.955   5.397  4.4000  1.4342 -1.5268
 5268SOL    HW227441   2.564   2.092   5.372  0.5176 -1.5487  1.1862
 5269SOL     OW27442   2.577   4.364   4.608 -0.2503 -0.0322 -0.1964
 5269SOL    HW127443   2.598   4.344   4.516 -2.2439 -2.9529 -0.0162
 5269SOL    HW227444   2.553   4.277   4.641  0.3187  0.2956  1.0800
 5270SOL     OW27445   1.326   3.731   3.201 -0.8127 -0.1765  0.6642
 5270SOL    HW127446   1.399   3.761   3.147  1.0757 -2.3371  2.0192
 5270SOL    HW227447   1.368   3.719   3.286 -0.9310  0.3310  0.7976
 5271SOL     OW27448   3.494   4.113   1.999  0.0853 -0.1538  0.4062
 5271SOL    HW127449   3.445   4.195   2.004  1.5436  0.7158  0.7617
 5271SOL    HW227450   3.440   4.069   1.935 -2.3724  0.5910  1.9732
 5272SOL     OW27451   4.461   1.893  11.862  0.4752  0.0124 -0.3622
 5272SOL    HW127452   4.511   1.972  11.841 -0.9541  0.8859 -0.4819
 5272SOL    HW227453   4.528   1.824  11.856  0.4528 -0.0508  0.0735
 5273SOL     OW27454   3.414   2.097  12.129  0.0379 -0.2018  0.7629
 5273SOL    HW127455   3.400   2.018  12.075  0.1373  0.3000 -0.0021
 5273SOL    HW227456   3.327   2.135  12.132  0.8274  1.6494  0.0876
 5274SOL     OW27457   4.127   3.285   2.036 -0.3430  0.9251  0.2631
 5274SOL    HW127458   4.107   3.328   2.119  1.0455  0.3735  0.8830
 5274SOL    HW227459   4.187   3.214   2.060  0.7770  1.7682 -0.0539
 5275SOL     OW27460   1.267   0.919   5.944  0.6210 -0.0960  0.8944
 5275SOL    HW127461   1.362   0.929   5.937  0.5569 -0.0518  0.0590
 5275SOL    HW227462   1.257   0.829   5.913 -2.0959  0.8423 -0.9909
 5276SOL     OW27463   3.468   3.380  12.445 -0.2523 -0.0056  0.5775
 5276SOL    HW127464   3.501   3.297  12.481  2.4546 -0.2169 -2.4172
 5276SOL    HW227465   3.395   3.396  12.505 -0.5599  1.7887 -0.3113
 5277SOL     OW27466   4.442   4.323   3.845  0.0855 -0.1823 -0.8727
 5277SOL    HW127467   4.490   4.403   3.822  1.4344 -1.0664 -1.1048
 5277SOL    HW227468   4.497   4.293   3.917 -1.5162  1.4518  1.0460
 5278SOL     OW27469   3.822   4.595   0.847  0.3684 -0.2684 -0.4707
 5278SOL    HW127470   3.818   4.546   0.929  1.5857  0.0909 -0.1991
 5278SOL    HW227471   3.897   4.563   0.797  0.9914 -0.7738  0.7967
 5279SOL     OW27472   4.705   2.410   6.890  0.0274 -0.1077 -0.5908
 5279SOL    HW127473   4.620   2.424   6.849  0.4525 -0.2742 -1.5091
 5279SOL    HW227474   4.694   2.477   6.958  2.6190 -2.1922  1.9034
 5280SOL     OW27475   3.232   1.630   1.579 -0.0882  0.2371  0.6656
 5280SOL    HW127476   3.281   1.558   1.539  2.9496  1.6071  1.9415
 5280SOL    HW227477   3.288   1.660   1.651 -1.0512  3.1643  0.1848
 5281SOL     OW27478   0.090   1.753   4.241  0.3340  0.2691  0.1605
 5281SOL    HW127479   0.033   1.830   4.241 -0.5358 -0.3578  0.6395
 5281SOL    HW227480   0.123   1.735   4.329  2.1458  0.7363 -0.4319
 5282SOL     OW27481   3.120   0.707   5.895 -0.0482  0.8534  0.2158
 5282SOL    HW127482   3.128   0.792   5.853 -2.0773  1.3012  0.7390
 5282SOL    HW227483   3.135   0.643   5.825  0.9556  0.6086  0.6453
 5283SOL     OW27484   3.457   4.070   8.663 -0.0094  0.0277 -0.2012
 5283SOL    HW127485   3.403   3.991   8.665  1.1536 -0.7629 -0.2478
 5283SOL    HW227486   3.538   4.035   8.700  1.0077  0.4307 -2.0282
 5284SOL     OW27487   4.045   3.003   6.402  0.1187 -0.0090 -0.0711
 5284SOL    HW127488   3.991   2.994   6.323 -1.2365 -1.9667  1.0904
 5284SOL    HW227489   4.055   3.097   6.410  1.2572 -0.2145  0.8782
 5285SOL     OW27490   4.143   4.124   7.950  0.1554  0.7942  0.1017
 5285SOL    HW127491   4.087   4.185   7.999 -0.8464 -1.2642  1.5120
 5285SOL    HW227492   4.134   4.046   8.005  0.5285  0.2363 -0.6360
 5286SOL     OW27493   0.551   3.851   6.116 -0.2936  0.0582  0.2044
 5286SOL    HW127494   0.527   3.896   6.035  0.8825  0.8943  0.3143
 5286SOL    HW227495   0.464   3.824   6.144 -0.1607  0.4920  1.0394
 5287SOL     OW27496   2.841   0.765   7.899 -0.4437 -0.1778  0.4836
 5287SOL    HW127497   2.911   0.820   7.935 -0.0794  0.7349 -1.5976
 5287SOL    HW227498   2.884   0.709   7.834  0.5654 -0.7987  1.6999
 5288SOL     OW27499   1.851   1.306   1.826 -0.1468  0.2372 -0.2447
 5288SOL    HW127500   1.872   1.217   1.854  1.4124  0.5201 -0.5235
 5288SOL    HW227501   1.918   1.334   1.763 -0.8865 -0.8242 -1.4900
 5289SOL     OW27502   4.434   1.244   2.554 -0.2065  0.1377 -0.2212
 5289SOL    HW127503   4.393   1.321   2.515 -0.2463 -0.1491 -0.7437
 5289SOL    HW227504   4.364   1.184   2.578  1.2446 -1.1902  0.7085
 5290SOL     OW27505   3.567   1.653   5.122  0.4222  0.2819  0.1791
 5290SOL    HW127506   3.565   1.717   5.050  1.0270  0.8511  0.6738
 5290SOL    HW227507   3.638   1.688   5.176 -0.7159  0.3872  1.5977
 5291SOL     OW27508   0.803   2.515  13.462 -0.5089  0.1886 -0.3182
 5291SOL    HW127509   0.864   2.584  13.489 -1.1741 -0.0779  1.9081
 5291SOL    HW227510   0.740   2.578  13.427  0.5775  0.8425 -1.1050
 5292SOL     OW27511   2.038   1.239   0.345 -0.8265 -0.3670  0.5306
 5292SOL    HW127512   1.989   1.172   0.393 -0.9030 -0.4831  0.2945
 5292SOL    HW227513   2.103   1.278   0.402 -1.0401  2.5716 -1.2618
 5293SOL     OW27514   3.477   1.895  15.622 -0.5400 -0.8391 -0.7923
 5293SOL    HW127515   3.452   1.987  15.610  1.4886 -0.4005 -1.7371
 5293SOL    HW227516   3.424   1.876  15.700 -1.3647  0.3357 -1.0647
 5294SOL     OW27517   0.361   2.156   1.203  0.0163  0.9714 -0.2294
 5294SOL    HW127518   0.414   2.086   1.240  0.5772  1.4550 -0.1201
 5294SOL    HW227519   0.352   2.138   1.109  1.2311  0.2792 -0.2163
 5295SOL     OW27520   0.040   3.803   4.684  0.1424  0.1984 -0.0358
 5295SOL    HW127521   0.062   3.850   4.764 -0.7545 -0.9397  0.8707
 5295SOL    HW227522   4.680   3.816   4.680 -0.0906 -1.3673  0.3821
 5296SOL     OW27523   2.567   3.152   3.248 -0.1855  0.4694 -1.0031
 5296SOL    HW127524   2.496   3.205   3.284 -0.9922 -1.1684 -0.1764
 5296SOL    HW227525   2.610   3.218   3.194  0.1780  0.1751 -1.0687
 5297SOL     OW27526   3.978   4.252   8.102  0.7183  0.0776 -0.2145
 5297SOL    HW127527   3.962   4.317   8.171  0.7291 -0.0589 -0.0841
 5297SOL    HW227528   3.891   4.219   8.081  0.4957  0.4982  0.0428
 5298SOL     OW27529   1.447   3.727  13.136 -0.2655 -0.0240  0.1128
 5298SOL    HW127530   1.445   3.632  13.149  1.3424  0.0552  0.9538
 5298SOL    HW227531   1.534   3.745  13.099 -0.9055 -0.4662 -1.6306
 5299SOL     OW27532   0.955   4.704   4.327 -0.2120 -0.0179 -0.1529
 5299SOL    HW127533   0.859   4.709   4.321 -0.3282  1.1824  2.5413
 5299SOL    HW227534   0.958   4.609   4.333  0.9808  0.0400  0.1327
 5300SOL     OW27535   1.699   2.800  16.985 -0.5938 -0.4291 -0.2127
 5300SOL    HW127536   1.721   2.862  16.915 -0.9731 -2.2285 -1.9459
 5300SOL    HW227537   1.716   2.714  16.946 -0.6438  0.1355 -1.4953
 5301SOL     OW27538   0.057   2.949  14.371  0.0715 -0.6535  0.8237
 5301SOL    HW127539   4.699   2.936  14.386 -0.3261  1.0659 -0.1572
 5301SOL    HW227540   0.088   2.860  14.352 -1.9269 -0.8053 -1.7001
 5302SOL     OW27541   0.169   4.535  14.984  0.1099 -0.2436  0.0460
 5302SOL    HW127542   0.135   4.453  15.018  1.2532 -0.2090  1.3010
 5302SOL    HW227543   0.259   4.520  15.013  0.1527 -0.5572 -0.2549
 5303SOL     OW27544   1.184   2.582   4.575  0.0805  0.1144  0.6063
 5303SOL    HW127545   1.109   2.570   4.517 -0.7359  0.0255  1.6905
 5303SOL    HW227546   1.214   2.664   4.537  0.5468  0.1225  0.9852
 5304SOL     OW27547   2.262   2.606   8.454 -0.5501 -0.1907 -0.3070
 5304SOL    HW127548   2.168   2.608   8.474 -0.1578 -1.3753  1.6549
 5304SOL    HW227549   2.310   2.634   8.532  0.5198 -1.3647 -0.5479
 5305SOL     OW27550   3.277   4.679   2.323  0.3448  0.3741  0.5348
 5305SOL    HW127551   3.194   4.635   2.304  1.3456 -1.8209  1.2738
 5305SOL    HW227552   3.239   0.009   2.382 -1.5423 -1.6254  1.4937
 5306SOL     OW27553   0.861   4.472   7.173  0.7968 -0.2893  0.6188
 5306SOL    HW127554   0.956   4.467   7.159  0.8464 -0.4722  1.0065
 5306SOL    HW227555   0.844   4.560   7.142  2.4773 -0.1586  0.0734
 5307SOL     OW27556   0.401   2.801  13.726  0.0883 -0.4357 -0.3979
 5307SOL    HW127557   0.373   2.892  13.715 -2.9470 -1.3547 -0.2299
 5307SOL    HW227558   0.313   2.763  13.726  0.2012 -0.7102 -2.8308
 5308SOL     OW27559   3.080   1.270  11.000 -0.4001  0.3317  0.5134
 5308SOL    HW127560   2.988   1.288  10.982  0.1570  1.3807 -1.2892
 5308SOL    HW227561   3.126   1.312  10.927 -2.5525 -0.0531 -1.0316
 5309SOL     OW27562   1.387   2.036  17.737 -0.4360  0.0671 -0.4868
 5309SOL    HW127563   1.415   2.080   0.079  0.8396  0.1867 -0.9942
 5309SOL    HW227564   1.357   2.115  17.692  0.9685  0.4958 -0.6775
 5310SOL     OW27565   1.062   1.457   3.126 -0.0627 -0.2728  0.0480
 5310SOL    HW127566   1.021   1.375   3.154  0.3865  0.2332  2.2351
 5310SOL    HW227567   1.025   1.465   3.039 -0.2303  1.3161  0.2642
 5311SOL     OW27568   3.800   3.986   1.653  0.6523 -0.1127  0.3306
 5311SOL    HW127569   3.717   3.959   1.690  0.0156  1.6255  0.1953
 5311SOL    HW227570   3.796   3.937   1.571 -1.7701  0.8636 -0.1406
 5312SOL     OW27571   0.213   2.962   3.570  0.4260  0.4821 -0.0165
 5312SOL    HW127572   0.192   2.884   3.621 -0.5214 -0.2588 -1.5324
 5312SOL    HW227573   0.158   2.939   3.495  1.8956 -0.7228 -0.7129
 5313SOL     OW27574   1.847   0.612  14.662  0.4013 -0.1668  0.2994
 5313SOL    HW127575   1.808   0.696  14.638 -0.8970 -0.6782  0.6027
 5313SOL    HW227576   1.857   0.564  14.580 -1.6902 -0.4882  0.2463
 5314SOL     OW27577   2.332   3.130  12.394 -0.2464 -0.2290 -0.1495
 5314SOL    HW127578   2.403   3.194  12.400  1.5667 -1.9315 -3.3575
 5314SOL    HW227579   2.308   3.138  12.302  0.2989 -0.9039 -0.3528
 5315SOL     OW27580   3.594   4.308   5.596 -0.0179  0.1629  0.6063
 5315SOL    HW127581   3.508   4.301   5.553  0.7024 -0.3640 -0.7585
 5315SOL    HW227582   3.620   4.398   5.580 -1.3526  0.3361 -0.5790
 5316SOL     OW27583   4.404   1.805   6.446 -0.1525 -0.5581  0.4585
 5316SOL    HW127584   4.365   1.818   6.532 -2.1334 -3.9931  0.0605
 5316SOL    HW227585   4.411   1.710   6.436  0.3768 -0.3174 -1.5839
 5317SOL     OW27586   3.137   0.511   3.830 -0.2933  0.4524 -0.0807
 5317SOL    HW127587   3.108   0.550   3.913 -2.1173  1.2029 -1.0663
 5317SOL    HW227588   3.170   0.430   3.868  1.0343  0.3402 -1.4700
 5318SOL     OW27589   3.565   4.305   0.477 -1.2047  0.1706  0.5350
 5318SOL    HW127590   3.512   4.283   0.400  1.6351 -1.2270 -1.0300
 5318SOL    HW227591   3.501   4.359   0.523 -2.8298 -0.0072 -1.5226
 5319SOL     OW27592   0.661   1.445  17.108  0.1457 -0.0123  0.0498
 5319SOL    HW127593   0.616   1.426  17.191 -0.6478 -0.2188 -0.4291
 5319SOL    HW227594   0.606   1.404  17.041 -0.1538 -0.8548  0.8108
 5320SOL     OW27595   3.545   3.447   7.989  0.1153  0.0102  0.7776
 5320SOL    HW127596   3.537   3.415   8.079  1.5965 -1.4845  0.3846
 5320SOL    HW227597   3.629   3.492   7.988  1.2944 -2.1503  1.9212
 5321SOL     OW27598   1.614   3.724   5.154  0.0963  0.1965 -0.0464
 5321SOL    HW127599   1.560   3.772   5.217  1.0782 -1.6279  2.1983
 5321SOL    HW227600   1.674   3.671   5.207  0.1199  1.1399  0.8760
 5322SOL     OW27601   0.849   4.283   7.640 -0.2289 -0.3811  0.6005
 5322SOL    HW127602   0.800   4.251   7.715 -0.1041 -2.5151 -0.2181
 5322SOL    HW227603   0.916   4.330   7.690  0.0052  1.7629 -1.7300
 5323SOL     OW27604   4.165   2.758  16.499 -0.3256  0.1882 -0.1618
 5323SOL    HW127605   4.148   2.851  16.514 -0.2209  0.2601 -0.4883
 5323SOL    HW227606   4.186   2.726  16.587  0.3628  0.4443 -0.2305
 5324SOL     OW27607   1.051   4.611   7.379 -0.0146  0.1780  0.3376
 5324SOL    HW127608   1.055   4.524   7.419  0.4090  0.4352  0.8603
 5324SOL    HW227609   0.965   4.623   7.341  0.3046 -0.2449 -0.5042
 5325SOL     OW27610   0.402   3.323   6.324  0.1956  0.0405  0.0109
 5325SOL    HW127611   0.496   3.326   6.304 -0.2323  0.7823 -1.9046
 5325SOL    HW227612   0.398   3.352   6.415  0.4331 -2.4588  0.8060
 5326SOL     OW27613   2.255   0.942   3.686 -0.3148  0.4463  0.2001
 5326SOL    HW127614   2.328   0.943   3.625  0.4733  1.2825  1.1732
 5326SOL    HW227615   2.298   0.890   3.753 -0.5375 -1.3363 -1.0333
 5327SOL     OW27616   4.591   4.665   3.269 -0.1252  0.3740  0.3249
 5327SOL    HW127617   4.517   4.716   3.303 -0.1459  0.0907  0.7074
 5327SOL    HW227618   4.555   4.644   3.183  1.3261 -1.3826  0.1635
 5328SOL     OW27619   0.388   3.401  13.345  0.0334 -0.5100  0.6426
 5328SOL    HW127620   0.385   3.374  13.253  4.0898  1.8858 -0.1932
 5328SOL    HW227621   0.333   3.479  13.338  0.3074 -0.4151 -0.4585
 5329SOL     OW27622   3.419   3.106   7.819  0.0125 -0.1622 -0.4417
 5329SOL    HW127623   3.510   3.078   7.814  0.3735  0.6302  1.5354
 5329SOL    HW227624   3.381   3.026   7.784 -0.0769 -0.7536  1.0363
 5330SOL     OW27625   0.419   2.130   8.749  0.5378 -0.2331  0.4735
 5330SOL    HW127626   0.450   2.217   8.723 -1.7010 -0.7215 -3.8710
 5330SOL    HW227627   0.434   2.118   8.842 -0.3760  1.0775  0.7946
 5331SOL     OW27628   2.480   2.051   0.024  0.5023 -0.5671  0.1756
 5331SOL    HW127629   2.572   2.039   0.050  0.2261 -0.8516  1.0053
 5331SOL    HW227630   2.467   2.144   0.041  0.4130 -0.2838 -1.3943
 5332SOL     OW27631   1.680   0.804   2.780  0.2072  0.0692 -0.0036
 5332SOL    HW127632   1.658   0.714   2.804 -0.3823  0.5658  1.2967
 5332SOL    HW227633   1.602   0.858   2.794  0.3724  0.1673  0.5335
 5333SOL     OW27634   4.207   0.062  11.122 -0.3192 -0.0293 -0.0165
 5333SOL    HW127635   4.258   4.718  11.102 -1.1484  0.4951 -4.0576
 5333SOL    HW227636   4.246   0.091  11.205 -0.9826  0.0491  0.2655
 5334SOL     OW27637   1.497   3.735   6.232  0.6506  0.1862 -0.4153
 5334SOL    HW127638   1.529   3.778   6.311  0.1385  0.2572 -0.2456
 5334SOL    HW227639   1.494   3.640   6.245 -0.0362 -0.1770 -3.2395
 5335SOL     OW27640   0.210   0.972   5.858  0.1263 -0.2633 -0.0198
 5335SOL    HW127641   0.159   0.894   5.878 -0.3553  0.0737  0.0585
 5335SOL    HW227642   0.191   0.979   5.764 -2.1400 -0.1393  0.4654
 5336SOL     OW27643   1.062   3.599  14.398  0.9247 -0.0288  0.6121
 5336SOL    HW127644   0.983   3.569  14.442  0.1827 -0.2417 -0.8607
 5336SOL    HW227645   1.065   3.692  14.421  1.7671 -0.0780  0.7257
 5337SOL     OW27646   4.206   3.839   4.086  0.0494  0.1498 -0.2150
 5337SOL    HW127647   4.197   3.871   4.175  0.3875  0.8957 -0.4457
 5337SOL    HW227648   4.243   3.751   4.096  1.5432  1.2926  4.1104
 5338SOL     OW27649   2.909   0.447  12.297  0.4184  0.1276 -0.2200
 5338SOL    HW127650   2.954   0.457  12.214 -0.7276  0.9314 -0.7390
 5338SOL    HW227651   2.983   0.438  12.357  0.4436 -2.5643 -0.6186
 5339SOL     OW27652   2.068   2.902   8.137 -0.4038 -0.1472 -0.2733
 5339SOL    HW127653   2.162   2.893   8.123 -0.6974 -1.1653 -1.5801
 5339SOL    HW227654   2.069   2.948   8.221  1.0202  1.5673 -1.2367
 5340SOL     OW27655   0.124   1.728   6.477 -0.7643  0.2401 -0.3256
 5340SOL    HW127656   0.214   1.751   6.455 -1.3606  0.7988 -2.1886
 5340SOL    HW227657   0.100   1.807   6.526  1.2342  0.7078 -0.1066
 5341SOL     OW27658   0.190   0.307   8.003 -0.1421  0.5752 -0.5429
 5341SOL    HW127659   0.135   0.383   8.025 -0.1397  1.1640 -2.5337
 5341SOL    HW227660   0.227   0.344   7.923  0.7182  0.2272 -0.3066
 5342SOL     OW27661   3.872   3.914   7.437 -0.1691 -0.2610  0.0569
 5342SOL    HW127662   3.814   3.887   7.508  0.4434 -0.1618  0.5975
 5342SOL    HW227663   3.826   3.859   7.375  0.0622 -0.0948 -0.2633
 5343SOL     OW27664   0.476   4.469   3.972  0.1314  0.2399  0.1876
 5343SOL    HW127665   0.426   4.526   3.912 -1.5080 -1.5236 -0.1389
 5343SOL    HW227666   0.506   4.393   3.923  1.6414  0.9018  0.0789
 5344SOL     OW27667   4.106   1.920   2.915  0.0949 -0.0787  0.4488
 5344SOL    HW127668   4.058   1.892   2.992  0.2586 -1.1422  0.1708
 5344SOL    HW227669   4.100   1.839   2.863  1.3874 -0.4382  0.8624
 5345SOL     OW27670   2.801   0.994  16.503  0.0487 -0.5417 -0.3512
 5345SOL    HW127671   2.889   0.959  16.491  0.6296  0.2850  1.5238
 5345SOL    HW227672   2.737   0.946  16.450  0.5287 -0.8771 -0.6278
 5346SOL     OW27673   2.608   1.606  16.164 -0.1894  0.5535  0.0347
 5346SOL    HW127674   2.587   1.697  16.188 -0.9284 -0.1385  2.0111
 5346SOL    HW227675   2.590   1.555  16.243 -1.6674 -0.4883 -0.9869
 5347SOL     OW27676   0.005   1.931   0.861  0.4892  0.5398 -0.6944
 5347SOL    HW127677   4.655   1.972   0.878 -0.8076 -1.9427 -1.1687
 5347SOL    HW227678   4.734   1.875   0.939  0.3318  1.3208 -0.1378
 5348SOL     OW27679   4.079   0.588   2.277 -0.0345 -0.7535  0.4218
 5348SOL    HW127680   4.110   0.512   2.228  1.9847 -0.2280  0.8819
 5348SOL    HW227681   4.008   0.610   2.217  0.0135 -0.2374  0.5529
 5349SOL     OW27682   0.290   3.044   8.190 -0.0333 -0.0957 -0.8497
 5349SOL    HW127683   0.334   3.071   8.110 -0.6795 -0.0188 -1.1765
 5349SOL    HW227684   0.332   2.958   8.200 -1.8674 -1.0320 -1.2207
 5350SOL     OW27685   0.240   0.264   1.661  0.2660  0.1458  0.3239
 5350SOL    HW127686   0.257   0.336   1.600  1.7218  0.6473  1.3215
 5350SOL    HW227687   0.224   0.200   1.592 -2.3643  0.6394  0.4768
 5351SOL     OW27688   0.718   4.456   1.024  0.1393 -0.3081  0.5311
 5351SOL    HW127689   0.775   4.513   0.973 -0.8471 -1.2112 -1.5612
 5351SOL    HW227690   0.764   4.373   1.019  2.0107  0.6229  2.5423
 5352SOL     OW27691   0.610   1.182   2.389  0.3237  0.0779 -0.0429
 5352SOL    HW127692   0.676   1.137   2.442 -0.6026 -2.6040 -1.1217
 5352SOL    HW227693   0.545   1.112   2.382 -2.5734  2.5863  1.9594
 5353SOL     OW27694   1.860   3.017  17.551  0.4565 -0.3553  0.5215
 5353SOL    HW127695   1.851   3.004  17.646  0.7285  0.3495  0.6471
 5353SOL    HW227696   1.779   2.974  17.525  0.4887  1.0615 -1.9226
 5354SOL     OW27697   1.974   3.288  12.991 -0.4460 -0.2637 -0.5862
 5354SOL    HW127698   2.045   3.352  12.981  0.4420 -1.3331 -1.2110
 5354SOL    HW227699   2.013   3.220  12.934 -2.0020  0.3483 -2.3883
 5355SOL     OW27700   1.461   0.332   8.964  0.0503  0.4266  0.0051
 5355SOL    HW127701   1.454   0.251   9.014 -0.2399 -0.1789 -1.0341
 5355SOL    HW227702   1.555   0.335   8.944  0.0518 -1.0643 -0.1805
 5356SOL     OW27703   0.946   1.704   3.262  0.0440  0.3815 -0.0775
 5356SOL    HW127704   0.983   1.638   3.203  0.7118  0.0526  0.7061
 5356SOL    HW227705   0.854   1.713   3.236  0.2420  2.4316 -0.0884
 5357SOL     OW27706   1.500   3.060   2.672 -0.3658 -0.4416 -0.0482
 5357SOL    HW127707   1.529   3.006   2.598  1.7059  1.8093 -0.8358
 5357SOL    HW227708   1.463   3.135   2.626  3.4860  2.1802  1.1691
 5358SOL     OW27709   3.896   3.214   1.900  0.1135 -0.8049  0.9084
 5358SOL    HW127710   3.846   3.291   1.928  2.2418  0.7715  0.3705
 5358SOL    HW227711   3.971   3.240   1.953  1.2509  2.2578 -2.2446
 5359SOL     OW27712   2.666   4.550   5.404  0.0858  0.2605  0.2337
 5359SOL    HW127713   2.577   4.521   5.383  0.4350  1.5276 -3.0008
 5359SOL    HW227714   2.702   4.562   5.316 -3.4297  1.2925 -1.0953
 5360SOL     OW27715   0.889   2.264   2.491  0.4547 -0.3203 -0.5295
 5360SOL    HW127716   0.876   2.333   2.426 -0.6757  0.2501  0.2986
 5360SOL    HW227717   0.961   2.219   2.447  0.6233  0.5165 -1.0948
 5361SOL     OW27718   1.224   0.029   4.288 -0.5872 -0.0448 -0.4142
 5361SOL    HW127719   1.196   0.107   4.240  0.2589 -1.0022 -2.4599
 5361SOL    HW227720   1.141   4.717   4.292 -0.5586 -0.0470  0.1118
 5362SOL     OW27721   1.202   3.526   2.278 -1.0031 -0.0733 -0.3154
 5362SOL    HW127722   1.137   3.573   2.331 -1.6438 -1.2883 -0.0211
 5362SOL    HW227723   1.263   3.598   2.260 -0.4257 -0.1638  1.2501
 5363SOL     OW27724   0.998   3.120   0.240  0.2023  0.4619  0.2526
 5363SOL    HW127725   0.924   3.101   0.297 -1.1341  2.6537 -0.7815
 5363SOL    HW227726   0.982   3.054   0.172  1.0706  0.0286  0.4678
 5364SOL     OW27727   0.887   2.250   8.049  0.0884 -0.1990 -0.4586
 5364SOL    HW127728   0.907   2.316   7.982 -1.7592  0.9213  0.0745
 5364SOL    HW227729   0.796   2.272   8.070  0.6812 -0.6882  2.7346
 5365SOL     OW27730   4.570   4.434   9.554 -0.0544  0.5256  0.2717
 5365SOL    HW127731   4.488   4.473   9.586  1.0054  0.7015  2.8178
 5365SOL    HW227732   4.557   4.343   9.578 -1.4077  0.4186 -0.8891
 5366SOL     OW27733   1.541   4.068  13.358  0.5260 -0.4067  0.0771
 5366SOL    HW127734   1.518   4.149  13.403 -0.9412 -0.6010 -0.3197
 5366SOL    HW227735   1.572   4.111  13.279 -1.2630  3.7942  1.6951
 5367SOL     OW27736   0.216   0.095   4.451  0.0693  0.5710 -0.4722
 5367SOL    HW127737   0.305   0.130   4.447  1.6271 -3.3507 -0.2590
 5367SOL    HW227738   0.180   0.133   4.371  0.3170 -0.5042 -1.0925
 5368SOL     OW27739   0.925   1.947  16.974 -0.1625  0.3241  0.2577
 5368SOL    HW127740   0.921   1.858  17.011 -2.7937  0.6844  0.8377
 5368SOL    HW227741   0.917   1.930  16.881  1.7965 -1.3413  0.3958
 5369SOL     OW27742   1.392   0.337   4.045 -0.2326  0.4673  0.0061
 5369SOL    HW127743   1.368   0.367   4.132 -0.2379 -0.2904  0.2619
 5369SOL    HW227744   1.314   0.292   4.014  0.6556 -2.0410  1.4465
 5370SOL     OW27745   2.265   3.242   3.474 -0.5169  0.3375 -0.0084
 5370SOL    HW127746   2.239   3.326   3.513 -1.0006  1.0122 -1.8187
 5370SOL    HW227747   2.298   3.278   3.392  0.6801  2.6021  1.4566
 5371SOL     OW27748   0.227   2.749   2.988  0.4212 -0.0680  0.0079
 5371SOL    HW127749   0.311   2.709   3.012 -0.1592 -0.1291  1.9003
 5371SOL    HW227750   0.177   2.668   2.978  1.5626 -0.7138 -0.4960
 5372SOL     OW27751   4.706   4.437   4.325  0.1807  0.3257 -0.1580
 5372SOL    HW127752   4.725   4.515   4.376 -3.8537  2.4864 -1.9917
 5372SOL    HW227753   4.616   4.419   4.353 -0.4073  2.3784 -0.7580
 5373SOL     OW27754   1.677   0.949  11.989 -0.3429 -0.3977  0.5309
 5373SOL    HW127755   1.704   0.861  11.962  0.1596 -0.6331  1.8197
 5373SOL    HW227756   1.585   0.936  12.010 -0.6494  0.6919 -0.1237
 5374SOL     OW27757   2.074   0.135   7.051  0.6058 -0.2010 -0.3679
 5374SOL    HW127758   2.015   0.128   7.126 -0.5748  0.9999 -1.1798
 5374SOL    HW227759   2.154   0.151   7.101  0.0937  2.7171 -0.4999
 5375SOL     OW27760   2.937   3.553  12.777  0.1433 -0.2539  0.3098
 5375SOL    HW127761   3.017   3.601  12.755  0.5188 -1.4430 -0.9486
 5375SOL    HW227762   2.910   3.529  12.689 -4.2260  2.9489  0.8048
 5376SOL     OW27763   4.092   4.587   7.330 -0.3363 -0.2180  0.0948
 5376SOL    HW127764   4.020   4.537   7.367 -0.1478 -1.4547 -1.2502
 5376SOL    HW227765   4.049   4.619   7.251  1.1514  0.8618 -0.2735
 5377SOL     OW27766   1.866   1.082   2.429 -0.2096 -0.0510 -0.1323
 5377SOL    HW127767   1.902   1.128   2.504  0.6485 -0.8904 -0.0270
 5377SOL    HW227768   1.778   1.061   2.461 -0.8584  1.9325 -0.6492
 5378SOL     OW27769   2.795   2.694   3.275 -0.0761 -0.4801  0.3173
 5378SOL    HW127770   2.734   2.768   3.276 -0.5730 -0.8735 -2.1312
 5378SOL    HW227771   2.838   2.702   3.190 -0.0677  1.1381  0.4795
 5379SOL     OW27772   0.692   0.720   2.585  0.1131  0.1205 -0.8129
 5379SOL    HW127773   0.640   0.667   2.525  2.7516 -2.6721 -0.6173
 5379SOL    HW227774   0.757   0.652   2.603 -0.7709 -0.6730 -0.6702
 5380SOL     OW27775   4.283   4.195   4.387  0.5241  0.0822  0.1211
 5380SOL    HW127776   4.254   4.185   4.297 -0.0013  0.1443  0.2803
 5380SOL    HW227777   4.332   4.278   4.388 -0.0274  0.4231 -3.0906
 5381SOL     OW27778   3.943   4.730   7.893 -0.2878 -0.4525 -0.3220
 5381SOL    HW127779   3.931   0.043   7.974  0.3388 -1.2036  0.2167
 5381SOL    HW227780   4.015   0.045   7.854 -1.4101  1.3509 -0.0879
 5382SOL     OW27781   0.953   2.945   6.371 -0.0352  0.1998  0.2476
 5382SOL    HW127782   0.882   3.009   6.360 -1.2947 -0.9884  1.4977
 5382SOL    HW227783   1.010   2.971   6.298 -0.0112 -1.1681 -0.2229
 5383SOL     OW27784   1.878   3.583  12.477  0.2212  0.0690 -0.0427
 5383SOL    HW127785   1.813   3.514  12.491  0.4227 -0.0252  0.4366
 5383SOL    HW227786   1.868   3.630  12.560  0.2810  0.1376 -0.0741
 5384SOL     OW27787   1.284   0.478  11.544 -0.1356  0.0102  0.7206
 5384SOL    HW127788   1.250   0.418  11.477 -0.3874 -1.7923  2.4595
 5384SOL    HW227789   1.273   0.565  11.506  2.2595  0.4057  0.8891
 5385SOL     OW27790   1.588   0.701   6.357 -0.2820 -0.5151  0.1952
 5385SOL    HW127791   1.497   0.697   6.388 -0.5997 -0.3484 -0.7020
 5385SOL    HW227792   1.588   0.655   6.273  1.5639  1.2107 -0.7380
 5386SOL     OW27793   0.868   0.219   2.704 -0.2014  1.0185 -0.2528
 5386SOL    HW127794   0.780   0.246   2.677 -0.4422 -1.0161 -1.4731
 5386SOL    HW227795   0.872   0.125   2.689  2.5254  0.9221  1.1233
 5387SOL     OW27796   0.735   3.870   2.297  0.2812  0.5965 -0.0323
 5387SOL    HW127797   0.734   3.937   2.366 -0.4988  0.6937 -0.1421
 5387SOL    HW227798   0.687   3.918   2.230  1.1970  1.8640  0.2144
 5388SOL     OW27799   2.855   4.342   3.597  0.2874 -0.7527  0.9256
 5388SOL    HW127800   2.771   4.297   3.580  0.1972 -0.4644  0.6155
 5388SOL    HW227801   2.865   4.385   3.512 -1.4727 -0.8487  0.6691
 5389SOL     OW27802   3.322   4.211  17.152  0.1954  0.3969 -0.0898
 5389SOL    HW127803   3.340   4.191  17.244  1.9870  0.0707 -0.5144
 5389SOL    HW227804   3.396   4.265  17.125 -1.7241  1.4714 -3.1784
 5390SOL     OW27805   2.713   3.022   8.947  0.0061 -0.7284  0.1574
 5390SOL    HW127806   2.663   3.077   8.887 -3.6624 -2.7024  1.4516
 5390SOL    HW227807   2.636   2.986   8.991 -0.1605 -1.1888 -0.5129
 5391SOL     OW27808   3.525   3.242   5.708  0.1192  0.4655 -0.4481
 5391SOL    HW127809   3.600   3.195   5.672  0.2850  0.0139  0.4691
 5391SOL    HW227810   3.471   3.171   5.742  1.7857 -1.4990 -1.8800
 5392SOL     OW27811   3.294   1.381   7.148  0.3947  0.3768  0.2373
 5392SOL    HW127812   3.267   1.473   7.142 -1.6631 -0.3592 -1.9588
 5392SOL    HW227813   3.388   1.399   7.146  0.2857  0.8930 -0.1266
 5393SOL     OW27814   3.335   4.262   8.835  0.0155 -0.3993 -0.0807
 5393SOL    HW127815   3.393   4.207   8.782  0.4352 -0.1873  0.1561
 5393SOL    HW227816   3.296   4.198   8.894 -2.0069  0.6971 -0.2260
 5394SOL     OW27817   1.631   3.043  17.161  0.3424 -0.2158  0.2077
 5394SOL    HW127818   1.561   2.986  17.194  1.3802 -0.5842  1.7298
 5394SOL    HW227819   1.619   3.043  17.066 -0.0181 -0.6821  0.2504
 5395SOL     OW27820   4.638   1.575   5.962  0.2001 -0.1516 -0.1950
 5395SOL    HW127821   4.670   1.484   5.955  1.6845  0.2539  1.1036
 5395SOL    HW227822   4.632   1.595   6.055 -1.8336  1.5319 -0.7024
 5396SOL     OW27823   4.252   3.950   2.806  0.3614 -0.0439 -0.4276
 5396SOL    HW127824   4.319   4.005   2.845  0.3984  0.0858 -0.6718
 5396SOL    HW227825   4.310   3.893   2.756  0.1717 -0.7847  0.1847
 5397SOL     OW27826   4.565   2.884   7.527  0.3361 -0.2008 -0.0858
 5397SOL    HW127827   4.570   2.978   7.546  0.3961 -0.2431  0.1056
 5397SOL    HW227828   4.559   2.848   7.615 -1.7680 -0.9693 -0.5567
 5398SOL     OW27829   4.534   2.030   1.694  0.2108  0.4511  0.2824
 5398SOL    HW127830   4.504   1.964   1.632  0.2923 -0.8426  1.6258
 5398SOL    HW227831   4.560   2.095   1.629 -0.0401  0.4898  0.2214
 5399SOL     OW27832   3.560   2.027   9.872  0.0816 -0.3929 -0.3762
 5399SOL    HW127833   3.626   1.968   9.908  0.2303 -0.8514 -1.3961
 5399SOL    HW227834   3.481   1.981   9.900  0.7839 -1.6127 -0.3860
 5400SOL     OW27835   1.527   0.617   6.638  0.2756  0.8182  0.0550
 5400SOL    HW127836   1.614   0.597   6.603 -0.7650 -1.3574 -1.2528
 5400SOL    HW227837   1.543   0.678   6.711  0.0671  0.2091  0.6088
 5401SOL     OW27838   2.459   0.361  15.106  0.3935 -0.0708  0.0764
 5401SOL    HW127839   2.530   0.308  15.069  0.1575 -0.4233  0.1359
 5401SOL    HW227840   2.426   0.401  15.025 -1.8899 -1.3011  0.4123
 5402SOL     OW27841   2.701   4.368   4.339  0.0842 -0.7615 -0.8682
 5402SOL    HW127842   2.772   4.368   4.275  1.0317  1.9685  0.2004
 5402SOL    HW227843   2.657   4.452   4.329 -0.6215 -1.2053 -1.4642
 5403SOL     OW27844   0.937   2.430   5.846  0.2921 -0.1104  0.1006
 5403SOL    HW127845   0.906   2.345   5.813 -0.4405 -0.3662  1.4646
 5403SOL    HW227846   0.877   2.494   5.809 -1.6068 -1.9495  0.0200
 5404SOL     OW27847   3.204   2.044   3.971 -0.2052 -0.7166 -0.1027
 5404SOL    HW127848   3.168   2.089   3.895  0.8614  3.0333  1.5808
 5404SOL    HW227849   3.168   2.089   4.048  0.7673 -1.0038  0.5238
 5405SOL     OW27850   0.803   4.299   5.509 -0.2282  0.3139 -0.3665
 5405SOL    HW127851   0.837   4.261   5.428  2.2795 -0.5936  1.1149
 5405SOL    HW227852   0.865   4.371   5.521  0.4012 -0.2050 -0.4968
 5406SOL     OW27853   3.783   2.146   2.213  0.0522  0.0859 -0.1426
 5406SOL    HW127854   3.826   2.063   2.189 -1.9469 -1.3716  1.2641
 5406SOL    HW227855   3.791   2.180   2.124  0.3067 -3.5661 -1.5179
 5407SOL     OW27856   1.022   0.375   6.132 -0.1043  0.3452 -0.3333
 5407SOL    HW127857   1.026   0.289   6.172 -0.1835  0.0483 -0.9700
 5407SOL    HW227858   1.092   0.415   6.185  1.6353 -0.4628 -2.0222
 5408SOL     OW27859   4.481   2.843   4.136 -0.4448  0.5190 -0.3556
 5408SOL    HW127860   4.483   2.872   4.045  0.3598  1.3816 -0.0639
 5408SOL    HW227861   4.510   2.920   4.185  2.2455 -0.9203  0.3567
 5409SOL     OW27862   1.274   4.337   2.644  0.6338 -0.4395  0.4271
 5409SOL    HW127863   1.303   4.390   2.570  1.1153  1.1401  1.7331
 5409SOL    HW227864   1.335   4.371   2.710  0.1688 -0.0985  0.6822
 5410SOL     OW27865   0.062   3.385   3.819 -0.6349  0.2293 -0.4357
 5410SOL    HW127866   0.109   3.322   3.765 -2.2674 -1.0842 -0.3245
 5410SOL    HW227867   4.732   3.407   3.752 -0.4672 -0.2681 -0.7594
 5411SOL     OW27868   0.998   0.033  17.041 -0.1572 -0.2162  0.5151
 5411SOL    HW127869   0.914   4.730  17.065 -0.0059 -0.0174  1.3582
 5411SOL    HW227870   0.971   0.070  16.957 -0.2961  0.3430  0.8060
 5412SOL     OW27871   3.250   2.090   5.373  0.6536  0.3830 -0.0408
 5412SOL    HW127872   3.260   2.035   5.451  0.0582  0.9655  0.4341
 5412SOL    HW227873   3.298   2.033   5.312  1.3154 -1.2660  2.0120
 5413SOL     OW27874   1.581   3.103  10.311  0.2535  0.2619  0.1552
 5413SOL    HW127875   1.614   3.161  10.379  3.0068  0.4417 -1.3309
 5413SOL    HW227876   1.613   3.022  10.349 -0.6875 -0.5988 -0.8828
 5414SOL     OW27877   3.555   1.720  11.437 -0.0313  0.0742 -0.4559
 5414SOL    HW127878   3.562   1.815  11.428  1.0346 -0.0029 -0.3856
 5414SOL    HW227879   3.587   1.705  11.526  0.2538 -3.1441 -1.1152
 5415SOL     OW27880   0.150   1.089  11.578 -0.2705  0.1406  0.0466
 5415SOL    HW127881   0.080   1.030  11.604  0.9348 -1.2398  0.1551
 5415SOL    HW227882   0.144   1.092  11.483  0.8691 -1.8871 -0.0838
 5416SOL     OW27883   2.390   0.252  15.822  0.0232  0.1920  0.0739
 5416SOL    HW127884   2.376   0.246  15.728  0.9707  0.8938 -0.1094
 5416SOL    HW227885   2.361   0.163  15.843 -1.5381  1.2974  2.7296
 5417SOL     OW27886   1.690   2.387  10.764  0.2402  0.5284  0.0438
 5417SOL    HW127887   1.740   2.438  10.700  1.9240 -1.0528  0.0887
 5417SOL    HW227888   1.769   2.350  10.803  1.1980 -1.4960 -3.7889
 5418SOL     OW27889   3.882   0.066   4.544  0.3032 -0.1810  0.1271
 5418SOL    HW127890   3.965   0.035   4.507  0.0323  0.2241 -0.8376
 5418SOL    HW227891   3.837   4.717   4.557 -1.3647  0.9564  1.6030
 5419SOL     OW27892   3.102   1.920   5.151  0.5956  0.8081 -0.2418
 5419SOL    HW127893   3.193   1.948   5.149 -0.1313  3.2415  0.6266
 5419SOL    HW227894   3.121   1.833   5.185  1.9709  2.2107  2.5281
 5420SOL     OW27895   0.490   1.475   4.897 -0.5343  0.7472  0.6342
 5420SOL    HW127896   0.526   1.475   4.986  3.2086 -0.5708 -0.8593
 5420SOL    HW227897   0.466   1.568   4.895  2.4336  1.5411  1.1219
 5421SOL     OW27898   0.293   1.105   7.071 -0.7171  0.0968 -0.5915
 5421SOL    HW127899   0.320   1.192   7.040 -2.6052  0.8494 -0.1874
 5421SOL    HW227900   0.237   1.121   7.147 -1.6187  1.0293 -1.4346
 5422SOL     OW27901   1.524   0.508   0.229  0.2991  0.0361 -1.0509
 5422SOL    HW127902   1.440   0.536   0.195  0.1985  0.4861 -0.4209
 5422SOL    HW227903   1.517   0.548   0.316 -0.0300 -0.1485 -0.9940
 5423SOL     OW27904   0.879   3.332   4.658 -0.3298  0.2262  0.4332
 5423SOL    HW127905   0.884   3.237   4.655  3.0667  0.3331  2.9431
 5423SOL    HW227906   0.795   3.338   4.704 -1.1471 -0.4717 -0.9737
 5424SOL     OW27907   3.270   3.826  10.285  0.0188 -0.2787 -0.5100
 5424SOL    HW127908   3.208   3.846  10.215  0.4968  1.5111 -0.4294
 5424SOL    HW227909   3.223   3.745  10.302 -1.0821  0.0101 -2.2312
 5425SOL     OW27910   0.720   2.702   1.270  0.3818  0.2784  0.5208
 5425SOL    HW127911   0.756   2.778   1.224 -1.3858 -0.0984 -1.4593
 5425SOL    HW227912   0.645   2.743   1.312 -1.1233 -0.5578 -1.3939
 5426SOL     OW27913   1.377   2.339   6.410 -0.2604 -0.1186 -0.7960
 5426SOL    HW127914   1.403   2.426   6.379  0.4198 -0.3204 -0.8014
 5426SOL    HW227915   1.403   2.299   6.328  1.0584 -1.0120  0.0561
 5427SOL     OW27916   4.365   1.367   7.794 -0.2704 -0.2825  0.0813
 5427SOL    HW127917   4.375   1.462   7.806  2.6609 -0.6074  0.3713
 5427SOL    HW227918   4.426   1.330   7.859 -0.7328 -3.0610 -1.0706
 5428SOL     OW27919   1.142   0.190   7.838 -0.4455  0.4329 -0.1055
 5428SOL    HW127920   1.102   0.191   7.925 -0.4639  1.8843 -0.1398
 5428SOL    HW227921   1.103   0.110   7.802 -0.4557  0.3909 -0.0005
 5429SOL     OW27922   0.916   2.943   7.757  0.1051  0.3817 -0.1707
 5429SOL    HW127923   0.988   2.992   7.716  0.8066 -0.1250  0.4372
 5429SOL    HW227924   0.907   2.995   7.837 -1.2791  1.6011 -1.1204
 5430SOL     OW27925   1.726   0.731   4.350 -0.6119  0.5152  0.2182
 5430SOL    HW127926   1.709   0.647   4.308  1.3447 -0.1461  0.7443
 5430SOL    HW227927   1.725   0.799   4.282 -0.2584  1.7555  1.4504
 5431SOL     OW27928   2.578   1.373   5.257 -0.0023  0.0735  0.1771
 5431SOL    HW127929   2.631   1.294   5.243 -2.8850 -1.8484  0.0336
 5431SOL    HW227930   2.616   1.436   5.197  0.7506 -0.5005  0.0435
 5432SOL     OW27931   4.491   0.487   2.122  0.6274 -0.5676 -0.9592
 5432SOL    HW127932   4.531   0.414   2.073 -1.0580 -0.6066 -2.2520
 5432SOL    HW227933   4.493   0.545   2.046  1.8838 -0.1935 -0.6428
 5433SOL     OW27934   3.553   1.072  11.953  0.0497 -0.0680 -0.0770
 5433SOL    HW127935   3.505   1.113  11.880  0.7205  1.1945  0.1854
 5433SOL    HW227936   3.502   0.993  11.972  0.4234 -0.3197 -0.1427
 5434SOL     OW27937   0.111   0.385   5.522 -0.5176  0.2012 -0.0677
 5434SOL    HW127938   0.177   0.399   5.454 -0.6639  0.0475 -0.2421
 5434SOL    HW227939   0.149   0.312   5.571 -0.3410 -0.9808 -1.9922
 5435SOL     OW27940   3.080   1.855  11.627 -0.2385 -0.4112 -0.1762
 5435SOL    HW127941   3.058   1.872  11.718  0.0102 -2.4461  0.2545
 5435SOL    HW227942   3.146   1.787  11.638  2.2909  1.9934 -0.2532
 5436SOL     OW27943   2.826   1.612  15.718 -0.0250  0.4036  0.7354
 5436SOL    HW127944   2.751   1.651  15.763 -0.7625  1.1330 -1.1114
 5436SOL    HW227945   2.826   1.666  15.640  2.2517 -2.3870 -1.2123
 5437SOL     OW27946   2.542   4.089   1.017 -0.2522 -0.1624  0.0465
 5437SOL    HW127947   2.600   4.025   1.060  0.4416  0.3218 -0.1596
 5437SOL    HW227948   2.479   4.101   1.088  1.0251  0.6775  1.0319
 5438SOL     OW27949   2.797   0.309   4.793  0.6410 -0.2409  0.2285
 5438SOL    HW127950   2.863   0.322   4.725 -0.9139  0.3774 -1.1775
 5438SOL    HW227951   2.792   0.393   4.838 -0.8330 -0.5978  0.7268
 5439SOL     OW27952   0.844   0.328   2.078  0.1380 -0.0535 -0.0924
 5439SOL    HW127953   0.924   0.310   2.127 -0.4223 -0.3739  0.7100
 5439SOL    HW227954   0.866   0.402   2.021 -0.6573 -1.5868 -2.3989
 5440SOL     OW27955   4.459   4.674   5.324 -0.6882  0.0571 -0.0298
 5440SOL    HW127956   4.382   4.686   5.268  1.4395  2.5415 -2.4332
 5440SOL    HW227957   4.431   4.703   5.411  0.1832 -1.3141  0.7030
 5441SOL     OW27958   4.317   1.870  16.284 -0.0629 -0.3078  0.0384
 5441SOL    HW127959   4.376   1.943  16.300  0.5783 -1.3670  2.5478
 5441SOL    HW227960   4.295   1.849  16.375 -2.0669  0.7509 -0.1966
 5442SOL     OW27961   2.107   2.041   7.521  0.7320 -0.0223  0.0474
 5442SOL    HW127962   2.104   2.136   7.528 -0.6141 -0.0087 -0.6349
 5442SOL    HW227963   2.064   2.007   7.600 -1.0473 -1.3906 -1.4928
 5443SOL     OW27964   0.296   3.457   3.497 -0.1221  0.0059  0.2399
 5443SOL    HW127965   0.380   3.461   3.452 -0.2993  0.0871 -0.0910
 5443SOL    HW227966   0.325   3.428   3.583  1.2103  3.0129  0.7852
 5444SOL     OW27967   2.736   2.185   3.483 -0.4251 -0.3548  0.2229
 5444SOL    HW127968   2.671   2.237   3.530 -0.8889 -0.0545 -0.7582
 5444SOL    HW227969   2.809   2.247   3.487 -0.1809 -0.7420  1.9808
 5445SOL     OW27970   3.559   3.239   2.572  0.2134 -0.1118  0.4818
 5445SOL    HW127971   3.618   3.314   2.563 -1.0408  0.7767 -0.2505
 5445SOL    HW227972   3.499   3.262   2.501  0.8475  0.5549  0.1574
 5446SOL     OW27973   4.118   2.274  16.640 -0.0300 -0.1211  0.4285
 5446SOL    HW127974   4.101   2.368  16.632 -0.8917 -0.2509  0.7336
 5446SOL    HW227975   4.066   2.235  16.570 -1.4425  1.8086  0.4034
 5447SOL     OW27976   2.792   0.126  16.094  0.0608 -0.2120 -0.2390
 5447SOL    HW127977   2.783   0.221  16.084  1.4979 -0.2923 -2.1991
 5447SOL    HW227978   2.801   0.096  16.004 -1.4905 -0.1135 -0.4223
 5448SOL     OW27979   0.793   3.079   5.166 -0.2326 -0.5829  0.4233
 5448SOL    HW127980   0.761   3.028   5.240 -1.4855 -0.5956 -0.1233
 5448SOL    HW227981   0.830   3.156   5.210  0.1274 -0.4275 -0.1584
 5449SOL     OW27982   0.042   3.927  11.641 -0.0182 -0.5696  0.1178
 5449SOL    HW127983   0.072   3.976  11.718 -0.4652  0.9167 -0.6502
 5449SOL    HW227984   4.716   3.993  11.608 -0.3642  0.1269  2.1156
 5450SOL     OW27985   4.145   2.271   4.107 -0.3253 -0.6390  0.1256
 5450SOL    HW127986   4.170   2.338   4.170 -0.4297  1.6197 -2.2167
 5450SOL    HW227987   4.118   2.327   4.034  1.8843  0.6992  0.3277
 5451SOL     OW27988   4.560   4.431   1.282 -0.0638  0.1583 -0.2701
 5451SOL    HW127989   4.506   4.393   1.351 -0.0195 -0.2827 -0.4808
 5451SOL    HW227990   4.493   4.492   1.251  0.1105 -0.7294 -2.4225
 5452SOL     OW27991   1.433   0.021  15.368 -0.1922 -0.4564  0.2087
 5452SOL    HW127992   1.372   4.682  15.362  0.7395 -1.3188  1.3301
 5452SOL    HW227993   1.450   0.023  15.462 -0.5152  0.2105  0.2541
 5453SOL     OW27994   2.396   0.346   1.238 -0.6793 -0.4169 -0.0928
 5453SOL    HW127995   2.360   0.422   1.193  1.1991  0.4004 -0.2121
 5453SOL    HW227996   2.407   0.283   1.167 -1.1358 -1.8716  1.1195
 5454SOL     OW27997   1.715   4.041   6.178 -0.4097  0.4539  0.8964
 5454SOL    HW127998   1.675   4.013   6.259 -1.6584 -0.7348 -0.1464
 5454SOL    HW227999   1.790   4.093   6.209  0.0588 -0.4470  1.2628
 5455SOL     OW28000   0.525   0.135   9.059 -0.0900 -0.7633  0.0950
 5455SOL    HW128001   0.472   0.156   8.982 -0.5392  0.3785  0.7219
 5455SOL    HW228002   0.517   0.206   9.122  1.3821  0.9430 -1.6784
 5456SOL     OW28003   1.738   2.142  11.220 -0.0237 -0.4010  0.2367
 5456SOL    HW128004   1.682   2.183  11.285  0.5638 -1.3835  1.3776
 5456SOL    HW228005   1.693   2.171  11.140  1.6976 -0.7117 -0.8445
 5457SOL     OW28006   0.849   2.644   7.128  0.2551 -0.1217  0.5123
 5457SOL    HW128007   0.871   2.653   7.221 -0.8599  1.4178  0.6088
 5457SOL    HW228008   0.831   2.732   7.096  0.7959 -0.2776 -0.2236
 5458SOL     OW28009   2.229   0.392   1.995 -0.3583 -0.0265 -0.2125
 5458SOL    HW128010   2.292   0.404   2.067 -0.3267  0.6400 -0.3476
 5458SOL    HW228011   2.147   0.398   2.045 -0.0711 -1.6432  0.4388
 5459SOL     OW28012   4.629   2.466   2.022  0.0214  0.3161  0.0180
 5459SOL    HW128013   4.614   2.533   2.088 -2.1054  1.3997 -1.5799
 5459SOL    HW228014   4.677   2.402   2.074  3.0487  1.3861 -1.4141
 5460SOL     OW28015   3.727   0.575   2.472 -0.3787 -0.2106  0.0084
 5460SOL    HW128016   3.652   0.567   2.413 -0.5337  0.7580  0.0730
 5460SOL    HW228017   3.728   0.670   2.480 -1.6070 -0.1614 -0.2989
 5461SOL     OW28018   0.373   2.073  16.393 -0.7938 -0.4457 -0.2731
 5461SOL    HW128019   0.437   2.054  16.324  0.1452  1.3900  0.1071
 5461SOL    HW228020   0.380   2.168  16.395  0.8303 -0.5619 -0.6465
 5462SOL     OW28021   3.521   0.173  13.648 -0.6230 -0.2349  0.1464
 5462SOL    HW128022   3.495   0.207  13.562  2.2909 -0.6429 -0.8978
 5462SOL    HW228023   3.439   0.128  13.669 -2.0220  1.1773 -2.2926
 5463SOL     OW28024   4.609   4.240   4.062 -0.1257 -0.1863  0.3001
 5463SOL    HW128025   4.665   4.231   4.140  0.7189  1.2817 -0.1498
 5463SOL    HW228026   4.544   4.174   4.088  1.6941 -1.3578  1.9445
 5464SOL     OW28027   3.428   2.251  16.307  0.3062  0.2033 -0.1540
 5464SOL    HW128028   3.351   2.242  16.250  0.0046  0.0291  0.2804
 5464SOL    HW228029   3.432   2.341  16.337  0.8946 -0.5262  1.9532
 5465SOL     OW28030   0.400   3.167   7.464 -0.3011 -0.4022 -0.0398
 5465SOL    HW128031   0.354   3.245   7.433  0.2261 -0.3021 -0.5788
 5465SOL    HW228032   0.362   3.099   7.408  0.2855  0.4869 -1.5340
 5466SOL     OW28033   4.676   0.834   7.268 -0.4999  0.9967 -0.1037
 5466SOL    HW128034   4.708   0.761   7.215  0.2020  1.1113  0.1630
 5466SOL    HW228035   4.713   0.808   7.352 -0.9274  0.8085  0.0241
 5467SOL     OW28036   4.566   4.617  16.083 -0.2007 -0.5536 -0.2410
 5467SOL    HW128037   4.476   4.608  16.051  0.6894  0.9778 -3.2159
 5467SOL    HW228038   4.614   4.616  16.000 -0.0763 -1.6317 -0.1590
 5468SOL     OW28039   0.315   4.468   7.639 -0.1344  0.5638  0.4863
 5468SOL    HW128040   0.231   4.421   7.634  0.3730 -0.4178  1.3972
 5468SOL    HW228041   0.344   4.460   7.729 -0.1242  2.8917  0.6829
 5469SOL     OW28042   1.374   0.437  14.049  0.1710  0.2403  0.3517
 5469SOL    HW128043   1.346   0.351  14.080 -1.8676  1.1519  1.0059
 5469SOL    HW228044   1.372   0.420  13.955 -1.9007  0.7603  0.3021
 5470SOL     OW28045   0.182   3.249   2.016 -0.1379  0.1663 -0.1230
 5470SOL    HW128046   0.137   3.266   2.098 -0.9179  0.9687 -0.7113
 5470SOL    HW228047   0.125   3.178   1.984  0.2351 -0.5492  0.8152
 5471SOL     OW28048   1.586   0.752   5.859  0.7915 -0.2163 -0.0298
 5471SOL    HW128049   1.548   0.829   5.901  0.9609  1.9266 -3.8725
 5471SOL    HW228050   1.681   0.753   5.871  0.8320 -1.3375 -0.2495
 5472SOL     OW28051   3.761   1.905   5.187 -0.7696  0.8886  0.1106
 5472SOL    HW128052   3.833   1.874   5.134 -0.0714  0.9665  1.0094
 5472SOL    HW228053   3.707   1.942   5.118 -0.1329  0.5462 -0.5626
 5473SOL     OW28054   3.910   1.973  15.648  0.3256 -0.5786  0.2136
 5473SOL    HW128055   3.976   2.028  15.689 -0.8910  0.7032  0.4576
 5473SOL    HW228056   3.954   1.893  15.676  1.7258 -0.2962 -1.1479
 5474SOL     OW28057   4.225   3.091   8.002  0.2127 -1.0157 -0.1084
 5474SOL    HW128058   4.318   3.073   7.998  0.8262  2.4238 -1.0813
 5474SOL    HW228059   4.184   3.030   8.064 -1.6130 -2.0190 -2.2478
 5475SOL     OW28060   4.390   2.060  14.825  0.1685 -0.4324  0.9905
 5475SOL    HW128061   4.402   2.151  14.797 -1.4497 -0.0703  1.4459
 5475SOL    HW228062   4.421   2.007  14.752 -1.9164  1.1306 -1.0497
 5476SOL     OW28063   1.455   3.149   9.071 -0.3246 -0.6473  0.1562
 5476SOL    HW128064   1.431   3.076   9.128  0.2308  0.1714  1.4473
 5476SOL    HW228065   1.527   3.119   9.016  0.9391 -1.5964  2.3320
 5477SOL     OW28066   3.787   1.178   4.020  0.2119 -0.3713  0.3935
 5477SOL    HW128067   3.710   1.216   4.062  0.1057 -0.0352 -0.1160
 5477SOL    HW228068   3.857   1.227   4.063  0.8433  0.9568 -2.1595
 5478SOL     OW28069   2.342   4.351   3.740  0.2767  0.1437 -0.1984
 5478SOL    HW128070   2.292   4.293   3.797  2.7130 -1.6235  0.1101
 5478SOL    HW228071   2.341   4.434   3.788  0.5751  0.1232 -0.1565
 5479SOL     OW28072   0.611   0.451   4.012 -0.1228 -0.0370 -0.1943
 5479SOL    HW128073   0.571   0.485   3.932 -0.6447 -0.9861 -0.3391
 5479SOL    HW228074   0.642   0.370   3.973  0.8840 -0.2533  1.0486
 5480SOL     OW28075   0.950   0.764   2.311 -0.3905 -0.0752 -0.4644
 5480SOL    HW128076   0.866   0.724   2.286 -1.1745  1.3325 -0.1018
 5480SOL    HW228077   1.015   0.703   2.276  0.2255  0.3664 -0.0732
 5481SOL     OW28078   0.536   3.526   2.052 -0.4211 -0.6137  0.3670
 5481SOL    HW128079   0.614   3.476   2.074  0.6266  0.2609 -1.2909
 5481SOL    HW228080   0.486   3.450   2.022 -1.2315  0.1768 -0.3023
 5482SOL     OW28081   2.861   2.400   5.704  0.3882 -0.7801  0.2357
 5482SOL    HW128082   2.941   2.375   5.659  0.2419  0.6274 -0.8263
 5482SOL    HW228083   2.818   2.315   5.713 -3.0580  1.1051  1.7983
 5483SOL     OW28084   2.464   4.170   9.776 -0.2030  0.6187  0.1516
 5483SOL    HW128085   2.480   4.262   9.797  1.7358  0.1428  0.7695
 5483SOL    HW228086   2.381   4.178   9.729 -0.6150 -0.1845  0.7362
 5484SOL     OW28087   0.171   1.478   2.648 -0.4602 -0.8258  0.0476
 5484SOL    HW128088   0.138   1.564   2.674 -0.0191 -0.5332 -0.3749
 5484SOL    HW228089   0.110   1.460   2.577  1.1361  0.3887 -1.6157
 5485SOL     OW28090   0.358   3.314   8.644 -0.0300 -0.1129  0.3332
 5485SOL    HW128091   0.421   3.385   8.655  1.0320 -0.8754 -0.7220
 5485SOL    HW228092   0.382   3.292   8.554  0.0385  0.0561  0.3102
 5486SOL     OW28093   3.065   2.965   6.315  0.4423 -0.3986 -0.1309
 5486SOL    HW128094   3.066   3.021   6.238  1.0076  1.1729  0.9987
 5486SOL    HW228095   3.102   2.886   6.275  1.8239 -0.6985  1.7173
 5487SOL     OW28096   0.264   4.608   5.627 -0.8424  0.5439 -0.1174
 5487SOL    HW128097   0.319   4.533   5.604 -0.2596  0.6846  0.8267
 5487SOL    HW228098   0.196   4.589   5.563  0.4283  2.6542 -2.0772
 5488SOL     OW28099   4.021   4.153   0.594 -0.2078 -0.7088  0.6092
 5488SOL    HW128100   4.101   4.200   0.570 -1.2681  0.0865 -1.3355
 5488SOL    HW228101   3.960   4.226   0.594  1.4560  0.6701 -0.1789
 5489SOL     OW28102   0.553   2.478  11.017 -0.3041  0.7320 -0.1453
 5489SOL    HW128103   0.536   2.561  11.061 -2.2454 -0.2869  1.0594
 5489SOL    HW228104   0.515   2.496  10.931 -0.0942 -0.4262 -0.4731
 5490SOL     OW28105   3.134   0.520   6.704 -0.1724 -0.6269 -0.1700
 5490SOL    HW128106   3.092   0.605   6.693 -0.6851 -1.0856 -1.8263
 5490SOL    HW228107   3.224   0.537   6.678 -0.7219 -2.7215 -3.4908
 5491SOL     OW28108   1.576   0.713   0.780 -0.3650  0.7592 -0.3454
 5491SOL    HW128109   1.559   0.623   0.751  3.1485 -0.6018  1.7904
 5491SOL    HW228110   1.485   0.742   0.783 -0.9599 -1.2771  1.1360
 5492SOL     OW28111   4.054   3.490   3.137 -0.1181 -0.0683 -0.2070
 5492SOL    HW128112   4.026   3.405   3.102 -2.1174  0.7660 -0.6594
 5492SOL    HW228113   4.096   3.532   3.062 -0.7545 -1.2359 -1.2332
 5493SOL     OW28114   2.502   2.300   5.621 -0.2363 -0.0998 -0.2540
 5493SOL    HW128115   2.423   2.305   5.675  1.1545  1.1267  1.6892
 5493SOL    HW228116   2.575   2.280   5.680  0.0806 -1.0066 -0.9617
 5494SOL     OW28117   4.469   1.977   3.691  0.0948  0.3707 -0.1959
 5494SOL    HW128118   4.535   2.010   3.630  0.4629  1.4438  0.8106
 5494SOL    HW228119   4.464   1.884   3.665  2.6594  0.3419 -0.5796
 5495SOL     OW28120   3.227   0.961   3.289 -0.0318 -0.2076 -0.3254
 5495SOL    HW128121   3.231   0.886   3.231 -2.8793  0.2838 -1.1687
 5495SOL    HW228122   3.194   0.928   3.373 -1.4833 -0.6318 -1.0653
 5496SOL     OW28123   0.104   3.964  16.000 -0.2327  0.7657 -0.3445
 5496SOL    HW128124   0.150   4.012  16.069  1.5662 -0.6898 -0.5290
 5496SOL    HW228125   0.051   3.906  16.053 -0.9758  0.2379 -1.6554
 5497SOL     OW28126   4.600   2.511   7.730 -0.4538  0.2929  0.5160
 5497SOL    HW128127   4.516   2.466   7.742  0.2934 -1.0130  0.7628
 5497SOL    HW228128   4.650   2.438   7.695  0.2393  1.1750 -0.3460
 5498SOL     OW28129   3.174   0.403  16.024 -0.5930 -0.2689 -0.2831
 5498SOL    HW128130   3.101   0.352  15.987 -0.0602 -0.9912 -0.3428
 5498SOL    HW228131   3.240   0.344  16.061 -0.3959 -0.2399 -0.5989
 5499SOL     OW28132   1.864   4.307   7.241 -0.6830  0.1484 -0.1215
 5499SOL    HW128133   1.916   4.226   7.236 -0.6928  0.0971  0.7678
 5499SOL    HW228134   1.789   4.289   7.185 -1.1431  3.0937 -0.4228
 5500SOL     OW28135   2.835   1.316  10.880 -0.0583  0.6776 -0.0433
 5500SOL    HW128136   2.808   1.254  10.813  0.2325 -0.2031  0.6587
 5500SOL    HW228137   2.798   1.394  10.838 -1.3831 -0.8316 -1.7178
 5501SOL     OW28138   3.429   0.173   6.130  0.1760 -0.2039 -0.4732
 5501SOL    HW128139   3.390   0.100   6.082 -1.6464  1.4656 -1.5761
 5501SOL    HW228140   3.483   0.131   6.196 -1.3328 -0.2904  0.7036
 5502SOL     OW28141   0.701   2.674   8.879 -0.2076 -0.2337  0.4323
 5502SOL    HW128142   0.751   2.752   8.855  1.6739 -2.2806 -2.2957
 5502SOL    HW228143   0.705   2.623   8.798 -0.3857  1.7347 -0.8020
 5503SOL     OW28144   3.580   2.332   8.506  0.2822  0.1406  0.1887
 5503SOL    HW128145   3.635   2.311   8.430  1.1369 -0.3439  0.9513
 5503SOL    HW228146   3.583   2.257   8.565 -1.9159  0.1165  0.2921
 5504SOL     OW28147   4.070   4.426   4.532 -0.2519  0.0718 -0.7464
 5504SOL    HW128148   4.051   4.443   4.624  3.4417  1.0110 -0.1715
 5504SOL    HW228149   4.142   4.488   4.520  0.7730 -0.9103  0.3629
 5505SOL     OW28150   3.507   2.206   5.721 -0.3716  0.1960 -0.0726
 5505SOL    HW128151   3.496   2.277   5.658  0.2843 -0.5575 -1.0249
 5505SOL    HW228152   3.437   2.238   5.778 -0.4151 -0.4858  0.2560
 5506SOL     OW28153   2.781   2.199   8.564 -0.4972 -0.5881 -0.1735
 5506SOL    HW128154   2.851   2.246   8.518 -1.4290  0.8657 -0.1137
 5506SOL    HW228155   2.706   2.197   8.505  0.4028 -1.5332 -1.2742
 5507SOL     OW28156   1.916   3.532  15.220  0.1766  0.2425  0.1158
 5507SOL    HW128157   1.865   3.517  15.140  1.6544 -2.0642 -0.4122
 5507SOL    HW228158   1.937   3.446  15.257  0.9530  0.1228 -0.5934
 5508SOL     OW28159   3.412   0.118   3.879  0.5944  0.5124  0.2911
 5508SOL    HW128160   3.493   0.151   3.840  1.1008 -0.5491  0.4455
 5508SOL    HW228161   3.349   0.120   3.808 -0.7452 -0.7179  1.4537
 5509SOL     OW28162   3.973   1.691   2.614  0.4073 -0.2860 -0.0299
 5509SOL    HW128163   3.939   1.775   2.645  1.8821  0.9085 -1.6818
 5509SOL    HW228164   3.886   1.654   2.601  0.9170 -1.6448  0.3178
 5510SOL     OW28165   2.863   0.752  14.602 -0.4627  0.0560  1.6397
 5510SOL    HW128166   2.853   0.657  14.610 -0.2979  0.0097  1.2748
 5510SOL    HW228167   2.774   0.778  14.627 -0.3892  1.4859  0.3720
 5511SOL     OW28168   2.322   0.957  15.642 -0.3683 -0.4178 -0.1040
 5511SOL    HW128169   2.366   0.875  15.664  0.1453 -0.5872 -1.7052
 5511SOL    HW228170   2.368   0.966  15.558  2.2181 -1.5967  1.1768
 5512SOL     OW28171   3.423   0.852   4.276 -0.0952  0.2103 -0.2332
 5512SOL    HW128172   3.457   0.940   4.257  3.5109 -0.9844  0.6090
 5512SOL    HW228173   3.367   0.857   4.354 -0.6923  0.5436 -0.6798
 5513SOL     OW28174   1.445   1.048   7.677  0.1477 -0.2617  0.2538
 5513SOL    HW128175   1.479   0.959   7.664  0.9913  0.2313 -0.9472
 5513SOL    HW228176   1.487   1.084   7.599 -0.6622  1.1124  0.4489
 5514SOL     OW28177   3.336   0.806  10.076  0.5291 -0.2667 -0.0906
 5514SOL    HW128178   3.365   0.774  10.161  0.9219  1.8567  0.5567
 5514SOL    HW228179   3.330   0.897  10.104  1.2192 -0.8887  2.0772
 5515SOL     OW28180   3.376   2.358  12.425 -0.0541  0.1511 -0.0130
 5515SOL    HW128181   3.454   2.370  12.479  0.1574  0.2256 -0.3375
 5515SOL    HW228182   3.371   2.263  12.436 -0.4726  0.3551  1.4933
 5516SOL     OW28183   2.728   0.058   7.775 -0.2962  0.4893 -0.1205
 5516SOL    HW128184   2.758   4.733   7.707  0.6994  1.8919 -0.9145
 5516SOL    HW228185   2.767   0.143   7.752  1.4236 -0.6558 -1.4185
 5517SOL     OW28186   4.156   2.193  12.485 -0.1533  0.9854  0.7514
 5517SOL    HW128187   4.197   2.169  12.403  0.8067  3.0864  0.6105
 5517SOL    HW228188   4.080   2.135  12.484  0.3342  0.3715 -0.5966
 5518SOL     OW28189   2.149   2.181   7.809 -0.1301 -0.2812  0.2709
 5518SOL    HW128190   2.103   2.240   7.868  1.9301  1.8889 -0.3189
 5518SOL    HW228191   2.074   2.142   7.764  0.7502  0.3125 -1.7022
 5519SOL     OW28192   0.135   4.653   5.896  0.0118 -0.3833 -0.2175
 5519SOL    HW128193   0.197   4.637   5.825 -0.4672  0.0574 -0.7403
 5519SOL    HW228194   0.182   4.707   5.960  0.6757 -3.5127  1.9056
 5520SOL     OW28195   2.204   2.190   1.048 -0.0217  0.4140 -0.1523
 5520SOL    HW128196   2.247   2.205   0.964  1.1919 -1.9801  0.0373
 5520SOL    HW228197   2.259   2.240   1.108 -0.4540  1.3008 -0.4953
 5521SOL     OW28198   4.410   1.475  16.718  0.2694  0.5452 -0.4870
 5521SOL    HW128199   4.497   1.442  16.695 -0.3371 -1.6194  0.2827
 5521SOL    HW228200   4.352   1.438  16.651  1.5655 -2.2310 -0.0513
 5522SOL     OW28201   1.631   1.943   7.646 -0.2764 -0.6894  0.2694
 5522SOL    HW128202   1.568   1.872   7.663  4.0358 -4.7700 -0.6713
 5522SOL    HW228203   1.625   2.000   7.722 -4.4979 -1.0747  0.2061
 5523SOL     OW28204   1.759   3.957   2.501 -0.3327 -0.2401 -0.3702
 5523SOL    HW128205   1.679   3.994   2.464  0.4776  3.0756  1.1895
 5523SOL    HW228206   1.781   3.890   2.436 -0.4895 -0.1294 -0.5346
 5524SOL     OW28207   0.796   4.243   4.945  0.1770  0.3253 -0.2571
 5524SOL    HW128208   0.800   4.177   4.876 -0.0997  0.8118 -0.7297
 5524SOL    HW228209   0.883   4.243   4.986  0.4315  1.4035 -0.8016
 5525SOL     OW28210   4.417   4.491  15.648  0.5283 -0.3582  0.2301
 5525SOL    HW128211   4.448   4.580  15.659  0.4751 -0.2140 -0.8465
 5525SOL    HW228212   4.494   4.435  15.635  2.1612  1.8251  0.6250
 5526SOL     OW28213   2.753   1.210   5.011 -0.2932  0.1314  0.7065
 5526SOL    HW128214   2.847   1.192   5.004 -0.6201 -1.1583 -0.4895
 5526SOL    HW228215   2.743   1.167   5.096 -0.3140 -1.4155 -0.0651
 5527SOL     OW28216   3.760   3.408   2.532  0.0336 -0.0655 -0.2674
 5527SOL    HW128217   3.777   3.448   2.447 -2.7002 -1.0623 -1.2903
 5527SOL    HW228218   3.846   3.407   2.572 -0.2927  3.1017  0.5143
 5528SOL     OW28219   2.767   2.880  13.790 -0.4911 -0.4036  0.0597
 5528SOL    HW128220   2.826   2.816  13.753  0.6129  0.4653  0.3218
 5528SOL    HW228221   2.689   2.829  13.812 -1.5084  0.9286 -0.4708
 5529SOL     OW28222   4.561   2.324   4.808 -0.3107  0.1020 -0.3425
 5529SOL    HW128223   4.524   2.409   4.783 -3.4982 -1.3445 -0.4767
 5529SOL    HW228224   4.584   2.284   4.725  0.1925  0.5754 -0.4362
 5530SOL     OW28225   3.025   0.587   3.286 -0.1985 -0.2202  0.7461
 5530SOL    HW128226   3.019   0.579   3.381  1.5005 -1.0054  0.8035
 5530SOL    HW228227   3.100   0.646   3.274  0.9818 -1.7131  0.8367
 5531SOL     OW28228   0.044   4.288   1.248 -0.0113  0.9183  0.1739
 5531SOL    HW128229   4.706   4.350   1.252 -2.6624 -2.0793 -2.1422
 5531SOL    HW228230   4.727   4.208   1.239 -0.8573  1.5226 -0.3323
 5532SOL     OW28231   0.038   4.597   0.940 -0.0972  0.0065  0.2705
 5532SOL    HW128232   0.005   4.686   0.929 -0.6503 -0.1937  0.3494
 5532SOL    HW228233   0.011   4.591   1.031 -1.9299  1.4563 -0.1869
 5533SOL     OW28234   1.870   2.100   0.933  0.5030 -0.1568  0.4045
 5533SOL    HW128235   1.875   2.041   0.858 -2.5079 -1.2185  1.0370
 5533SOL    HW228236   1.884   2.048   1.013  1.4482 -0.0198  0.3201
 5534SOL     OW28237   0.603   0.602   8.842  0.3389  0.0281 -0.0784
 5534SOL    HW128238   0.680   0.559   8.805  1.4568  2.4940 -0.6113
 5534SOL    HW228239   0.646   0.677   8.883 -0.0929 -0.0648  0.5423
 5535SOL     OW28240   3.584   3.777   4.757  1.0662 -0.7794 -0.5317
 5535SOL    HW128241   3.604   3.864   4.793  2.1153 -0.8373 -0.9753
 5535SOL    HW228242   3.527   3.736   4.822  1.2295 -0.0758  0.0639
 5536SOL     OW28243   2.852   3.092   3.469  0.3140 -0.1811 -0.5419
 5536SOL    HW128244   2.854   3.074   3.375 -1.4214 -0.4172 -0.5330
 5536SOL    HW228245   2.781   3.029   3.482 -0.9315  1.0903 -1.1599
 5537SOL     OW28246   2.729   3.211   6.321  0.4557 -0.1126  0.3373
 5537SOL    HW128247   2.754   3.153   6.393 -1.7596  0.2105  1.3722
 5537SOL    HW228248   2.702   3.288   6.371  1.0560  1.3014 -1.5135
 5538SOL     OW28249   1.250   1.537   5.427  0.4565  0.1473 -0.0261
 5538SOL    HW128250   1.319   1.601   5.408  0.6400  0.6111  2.1699
 5538SOL    HW228251   1.207   1.578   5.502  0.2898  0.3389 -0.2260
 5539SOL     OW28252   3.727   2.962  12.580  0.0878 -0.3837  0.2476
 5539SOL    HW128253   3.785   3.002  12.643 -0.5551  2.8746 -1.2483
 5539SOL    HW228254   3.792   2.946  12.512  0.0454  0.0607  0.1036
 5540SOL     OW28255   1.117   4.431   4.672  0.7860  0.2762 -0.2164
 5540SOL    HW128256   1.125   4.414   4.766  0.6733 -0.9628 -0.4250
 5540SOL    HW228257   1.206   4.464   4.660  0.8867  0.0507 -0.0779
 5541SOL     OW28258   2.916   2.722   2.350 -0.5867  0.1503  0.2632
 5541SOL    HW128259   2.873   2.637   2.362  0.9715 -0.3564  2.2639
 5541SOL    HW228260   2.905   2.771   2.432  1.0015 -0.6012  0.9170
 5542SOL     OW28261   3.278   3.978   4.254 -0.1227  0.4508 -0.2647
 5542SOL    HW128262   3.283   3.909   4.320  2.9588  1.3604  0.4722
 5542SOL    HW228263   3.371   4.002   4.256  0.2280 -0.9615  0.4466
 5543SOL     OW28264   3.965   1.137   8.028  0.1071  0.2397 -0.2782
 5543SOL    HW128265   3.985   1.187   7.949 -0.1468 -1.2671 -1.3073
 5543SOL    HW228266   4.052   1.120   8.064 -0.5986 -0.3170  1.1516
 5544SOL     OW28267   3.099   1.860   2.313  0.0494 -0.2152 -0.2512
 5544SOL    HW128268   3.047   1.861   2.233 -0.0047  2.3177 -0.1757
 5544SOL    HW228269   3.143   1.944   2.319  0.9387 -0.5867 -1.7068
 5545SOL     OW28270   2.552   2.080  15.158  0.2434  0.3994 -0.0568
 5545SOL    HW128271   2.607   2.109  15.084 -0.6371  2.6274  0.1701
 5545SOL    HW228272   2.466   2.068  15.118 -0.3536  0.3657  1.2485
 5546SOL     OW28273   3.290   2.068   3.420  0.2118  0.1047  0.7355
 5546SOL    HW128274   3.246   2.148   3.391  1.9140 -0.3379 -2.9651
 5546SOL    HW228275   3.251   2.003   3.361  2.0546 -1.3720  1.1248
 5547SOL     OW28276   2.259   0.317  10.564  0.0855  0.5418  0.3986
 5547SOL    HW128277   2.350   0.300  10.538 -0.8787 -1.4736 -1.6892
 5547SOL    HW228278   2.264   0.323  10.659  1.0159  0.3103  0.3677
 5548SOL     OW28279   4.581   2.227  10.376  0.7060 -0.4979 -0.1867
 5548SOL    HW128280   4.583   2.200  10.284 -0.8543  1.1609 -0.6948
 5548SOL    HW228281   4.572   2.147  10.429  0.5973  0.8553  1.8307
 5549SOL     OW28282   4.540   3.147  12.543 -0.3542 -0.1118  0.0098
 5549SOL    HW128283   4.633   3.164  12.556 -0.4933  0.8096 -0.2123
 5549SOL    HW228284   4.516   3.239  12.529 -0.9190 -0.0657  1.2577
 5550SOL     OW28285   3.491   0.830   8.260  0.2455 -0.2534  0.1055
 5550SOL    HW128286   3.576   0.867   8.234  0.0780 -1.1740 -1.7462
 5550SOL    HW228287   3.457   0.793   8.179  2.7966  2.3496 -2.2104
 5551SOL     OW28288   4.408   2.233   8.669  0.9611  0.3385 -0.7927
 5551SOL    HW128289   4.314   2.234   8.684  0.4724  0.0714 -3.9243
 5551SOL    HW228290   4.437   2.157   8.720  1.9574  2.4261  1.7768
 5552SOL     OW28291   0.445   0.116   2.638  0.1020 -0.1611 -0.3117
 5552SOL    HW128292   0.446   0.094   2.731 -2.1591 -0.8959 -0.4534
 5552SOL    HW228293   0.533   0.148   2.615  0.5625 -1.2099  0.0102
 5553SOL     OW28294   1.938   3.779   4.640  0.1083 -0.1316  0.4709
 5553SOL    HW128295   1.957   3.700   4.689 -0.4160 -0.4796  0.1094
 5553SOL    HW228296   1.891   3.739   4.567  0.1336  0.5294  0.0870
 5554SOL     OW28297   3.542   1.296   3.310  0.0778 -0.2681 -0.2985
 5554SOL    HW128298   3.456   1.263   3.283 -0.6953 -1.5722  3.8338
 5554SOL    HW228299   3.575   1.351   3.239 -1.4049  2.4484  1.1095
 5555SOL     OW28300   2.219   3.103   8.806 -0.4333  0.9372 -0.7158
 5555SOL    HW128301   2.226   3.051   8.886  0.2917  2.0662 -0.0395
 5555SOL    HW228302   2.254   3.187   8.836  1.2490 -0.0862  0.1616
 5556SOL     OW28303   1.817   0.868   0.378 -0.1015  0.0075  0.1259
 5556SOL    HW128304   1.850   0.884   0.290  1.1600  0.4831  0.6927
 5556SOL    HW228305   1.839   0.778   0.401  1.0380  0.3999  0.5669
 5557SOL     OW28306   3.428   3.329   2.366 -0.2611 -0.8551 -0.2166
 5557SOL    HW128307   3.347   3.287   2.337 -0.6383 -0.1031 -0.2650
 5557SOL    HW228308   3.408   3.422   2.355 -0.8741 -0.9333  0.2684
 5558SOL     OW28309   1.250   2.025   7.026 -0.0576 -0.4185 -0.2294
 5558SOL    HW128310   1.342   2.051   7.019 -0.6354  0.9905 -2.7425
 5558SOL    HW228311   1.275   1.935   7.005 -0.1181 -0.7334  1.0841
 5559SOL     OW28312   0.939   2.632   1.443  0.0651  0.5335 -0.6111
 5559SOL    HW128313   0.996   2.698   1.403  0.9567 -0.1589 -0.4762
 5559SOL    HW228314   0.859   2.662   1.400 -0.5304 -0.7787 -0.4019
 5560SOL     OW28315   2.178   0.381   6.398  0.8762  0.3656  0.4576
 5560SOL    HW128316   2.259   0.431   6.383  0.3784  0.9001 -0.3999
 5560SOL    HW228317   2.152   0.411   6.485  0.7562 -1.4930  1.0673
 5561SOL     OW28318   2.142   1.520   2.757  0.2024 -0.6197 -0.3229
 5561SOL    HW128319   2.068   1.567   2.720  1.7794  0.9622 -1.4750
 5561SOL    HW228320   2.211   1.565   2.708 -1.1078 -0.3553 -1.9096
 5562SOL     OW28321   4.376   2.333   6.867  0.1420  0.2215  0.3450
 5562SOL    HW128322   4.368   2.270   6.796  1.9550  0.6695 -0.2753
 5562SOL    HW228323   4.415   2.408   6.822  1.2636 -0.4237  0.2277
 5563SOL     OW28324   2.123   1.984   6.582 -0.1933  0.6558 -0.6232
 5563SOL    HW128325   2.045   2.032   6.611 -1.3842 -2.2992  1.0485
 5563SOL    HW228326   2.189   2.040   6.623  0.6320 -0.5209 -0.3660
 5564SOL     OW28327   3.875   2.062   6.477 -0.3259  0.0465  0.6508
 5564SOL    HW128328   3.882   2.097   6.566 -0.1574  3.8064 -0.8499
 5564SOL    HW228329   3.807   1.997   6.495  1.6216 -2.0183  0.3688
 5565SOL     OW28330   0.349   3.301   9.662 -1.2449  0.5779 -0.1122
 5565SOL    HW128331   0.402   3.234   9.618  1.3957  0.3928  3.3496
 5565SOL    HW228332   0.296   3.259   9.729 -1.2851 -0.7126 -0.9588
 5566SOL     OW28333   3.428   3.842   2.201  0.4220 -0.1923 -0.4942
 5566SOL    HW128334   3.400   3.929   2.227  1.4838 -0.0770  0.2338
 5566SOL    HW228335   3.473   3.817   2.282  1.0253 -0.5392 -0.9358
 5567SOL     OW28336   1.833   3.770   2.286  0.1373 -0.1051  0.0475
 5567SOL    HW128337   1.783   3.692   2.309 -0.8638  0.9603  1.3978
 5567SOL    HW228338   1.905   3.722   2.245  0.1264  0.2324 -0.3759
 5568SOL     OW28339   1.000   4.648  10.436  0.3204  0.4261  0.3136
 5568SOL    HW128340   0.970   4.698  10.360  0.8719 -0.8208 -0.7155
 5568SOL    HW228341   1.091   4.677  10.438  0.8365 -1.1206 -0.6936
 5569SOL     OW28342   3.981   4.420  11.701  0.3864 -0.0246 -0.2861
 5569SOL    HW128343   4.013   4.340  11.659 -0.3849  0.5795 -2.0221
 5569SOL    HW228344   4.042   4.412  11.774  0.3209 -1.9429 -0.4420
 5570SOL     OW28345   2.421   1.676   4.215  0.3107  0.1516  0.1758
 5570SOL    HW128346   2.512   1.646   4.209  0.5694  0.8858  0.4788
 5570SOL    HW228347   2.428   1.681   4.311 -1.0834  0.9228  0.2232
 5571SOL     OW28348   2.340   3.934   6.339 -0.2915 -0.6205 -0.1477
 5571SOL    HW128349   2.360   3.858   6.284  2.8719 -0.2078  0.4160
 5571SOL    HW228350   2.427   3.956   6.372  1.0596 -0.7366 -3.6348
 5572SOL     OW28351   0.632   2.375  11.464 -0.2332  0.5028 -0.0633
 5572SOL    HW128352   0.678   2.373  11.548 -0.4821  2.0939  0.1080
 5572SOL    HW228353   0.552   2.425  11.482 -3.7221 -4.6106 -1.5215
 5573SOL     OW28354   2.291   0.039   2.021  0.2812 -0.0804 -0.3880
 5573SOL    HW128355   2.355   0.092   2.069 -0.8853  0.1189  0.9453
 5573SOL    HW228356   2.287   4.700   2.082 -0.6546  0.6206  0.4150
 5574SOL     OW28357   2.083   0.768   8.037  0.2059  0.0191  0.3747
 5574SOL    HW128358   2.003   0.757   7.985  1.2613  0.2922 -1.2985
 5574SOL    HW228359   2.089   0.681   8.076 -1.4507  0.0646  0.7285
 5575SOL     OW28360   3.508   1.180  11.710  0.1309 -0.0723  0.1272
 5575SOL    HW128361   3.601   1.195  11.693  0.0063  1.2988  0.6345
 5575SOL    HW228362   3.482   1.268  11.682 -1.3069 -0.5638 -0.0883
 5576SOL     OW28363   0.133   4.083   8.784 -0.2852 -0.0125 -0.1778
 5576SOL    HW128364   0.041   4.062   8.767 -0.8480  2.7058 -0.3884
 5576SOL    HW228365   0.123   4.178   8.785  1.9038  0.2152  1.0654
 5577SOL     OW28366   2.226   1.135   7.884 -0.2428  0.1299 -0.1846
 5577SOL    HW128367   2.240   1.072   7.814  0.2201 -0.8207  0.7713
 5577SOL    HW228368   2.209   1.222   7.848  1.6377 -0.3990 -2.3726
 5578SOL     OW28369   4.731   2.022   8.650  0.0994  0.3162  0.0596
 5578SOL    HW128370   0.018   2.116   8.650  2.2945 -0.1764  1.3567
 5578SOL    HW228371   0.033   1.991   8.567  0.8517  1.3393  0.0002
 5579SOL     OW28372   2.933   3.034  13.312 -0.1712 -0.2814  0.2442
 5579SOL    HW128373   2.842   3.011  13.332 -0.5161  0.3613 -0.5999
 5579SOL    HW228374   2.936   3.098  13.383  1.2152 -1.1939  1.0136
 5580SOL     OW28375   0.285   4.624  10.158 -0.2846 -0.3704 -0.0913
 5580SOL    HW128376   0.307   4.714  10.132  0.6207 -0.7068 -0.4957
 5580SOL    HW228377   0.298   4.576  10.077  0.1108  0.4281 -0.4987
 5581SOL     OW28378   0.356   1.607  14.162 -0.1754  0.1377  0.4426
 5581SOL    HW128379   0.448   1.585  14.149  0.1566  0.7424  1.8208
 5581SOL    HW228380   0.333   1.614  14.069 -2.1817  0.4086  0.9638
 5582SOL     OW28381   0.885   3.165   5.473  0.4404  0.0645  0.1324
 5582SOL    HW128382   0.854   3.221   5.401  0.2081  0.6763  0.7164
 5582SOL    HW228383   0.975   3.149   5.446  0.5113 -0.0413  0.4345
 5583SOL     OW28384   4.296   2.603   2.007 -0.5742  0.0095  0.0464
 5583SOL    HW128385   4.289   2.508   1.996  0.4019 -0.0836  0.2732
 5583SOL    HW228386   4.270   2.606   2.099  0.3811 -0.6097  0.3366
 5584SOL     OW28387   2.106   4.026   4.372  0.2825 -0.0814 -0.6414
 5584SOL    HW128388   2.134   3.935   4.376 -4.2986 -1.6353 -3.1902
 5584SOL    HW228389   2.179   4.077   4.406  0.9109 -1.4776  0.0674
 5585SOL     OW28390   3.045   3.113   7.263  0.0499 -0.8152 -0.0392
 5585SOL    HW128391   2.992   3.054   7.317 -2.6754 -0.4617 -2.3481
 5585SOL    HW228392   2.984   3.182   7.238  1.2868  0.9476  1.8229
 5586SOL     OW28393   2.300   2.950   9.009 -0.1541 -0.1589  0.6342
 5586SOL    HW128394   2.328   2.892   8.939 -0.6786 -0.1575  0.4232
 5586SOL    HW228395   2.370   2.934   9.073 -1.1964 -1.7843  1.3674
 5587SOL     OW28396   0.718   0.222  13.551 -0.1929  1.1458 -0.2126
 5587SOL    HW128397   0.699   0.132  13.579  3.2955  0.7385  0.8776
 5587SOL    HW228398   0.632   0.257  13.529 -1.0787  0.9791  2.9287
 5588SOL     OW28399   3.431   3.961   5.039  0.8561  0.1444 -0.5365
 5588SOL    HW128400   3.427   3.896   5.108  1.3327 -0.0750 -0.7147
 5588SOL    HW228401   3.338   3.983   5.039  1.0179  0.8204  0.5328
 5589SOL     OW28402   0.641   2.796  16.013 -0.1736 -0.2857 -0.8384
 5589SOL    HW128403   0.592   2.731  16.062  1.2280 -0.9694 -0.3604
 5589SOL    HW228404   0.685   2.842  16.084  0.5725  1.4439 -2.4026
 5590SOL     OW28405   0.396   2.381   9.847 -0.2170 -0.6901  0.1407
 5590SOL    HW128406   0.443   2.371   9.930 -3.2550 -1.5586  1.7609
 5590SOL    HW228407   0.452   2.443   9.799  1.4026 -0.1280  2.7468
 5591SOL     OW28408   2.440   0.748   9.813  0.3624 -0.1060  0.2917
 5591SOL    HW128409   2.416   0.738   9.905 -2.0034  0.0798 -0.3004
 5591SOL    HW228410   2.504   0.817   9.831  0.1980  0.2167 -0.3732
 5592SOL     OW28411   4.585   1.554   1.004  0.0603  0.0680  0.5116
 5592SOL    HW128412   4.531   1.624   0.967  0.9027  1.6104  2.2195
 5592SOL    HW228413   4.665   1.601   1.027  0.8250 -0.8940 -0.1792
 5593SOL     OW28414   4.507   1.267  15.292  0.6065 -0.2307 -0.0494
 5593SOL    HW128415   4.465   1.353  15.300 -0.7102 -0.8308 -0.4399
 5593SOL    HW228416   4.430   1.209  15.286 -1.0290  1.9559 -0.3549
 5594SOL     OW28417   2.508   2.057  11.093 -0.7252  0.3239 -0.4706
 5594SOL    HW128418   2.579   2.074  11.155 -1.4995  1.6468  0.0354
 5594SOL    HW228419   2.490   1.965  11.113 -2.0382  1.0437  1.6746
 5595SOL     OW28420   0.371   1.026   8.166 -0.0871 -0.6751 -0.3592
 5595SOL    HW128421   0.377   0.980   8.249 -0.6125 -1.2548 -0.6418
 5595SOL    HW228422   0.276   1.032   8.156  0.0326  1.5777 -0.0611
 5596SOL     OW28423   4.513   4.171   5.547  0.0360  0.1572 -0.3840
 5596SOL    HW128424   4.531   4.122   5.467 -1.5377 -0.9615 -0.0365
 5596SOL    HW228425   4.442   4.117   5.581 -0.1351  0.6483  0.0364
 5597SOL     OW28426   4.607   4.383   5.722 -0.1517  0.0601  0.4607
 5597SOL    HW128427   4.575   4.312   5.666 -0.7215 -0.0610  0.9328
 5597SOL    HW228428   4.702   4.384   5.708  0.0093 -2.1429  1.3909
 5598SOL     OW28429   4.240   0.537   5.966 -0.2159 -0.0050  0.7828
 5598SOL    HW128430   4.247   0.498   5.879 -1.1094  1.2952  0.1214
 5598SOL    HW228431   4.251   0.631   5.950  0.5662 -0.0817  0.8561
 5599SOL     OW28432   3.454   0.100  10.333  0.5276  0.6208  0.0864
 5599SOL    HW128433   3.439   0.045  10.410  0.7260 -0.9279 -0.9735
 5599SOL    HW228434   3.384   0.071  10.274  1.2398 -0.0777 -0.4164
 5600SOL     OW28435   3.798   0.643   5.391 -0.4817 -0.5572 -0.2220
 5600SOL    HW128436   3.828   0.569   5.338 -0.3756 -0.5421 -0.1824
 5600SOL    HW228437   3.768   0.602   5.472 -0.0363  0.8481  0.6489
 5601SOL     OW28438   0.217   0.995  10.192 -0.1672 -0.6372 -0.1626
 5601SOL    HW128439   0.171   1.066  10.147 -1.0106  0.9497  3.2235
 5601SOL    HW228440   0.192   0.913  10.149 -1.5088 -0.7566  0.8535
 5602SOL     OW28441   0.559   1.449   8.690  0.1053  0.2414 -0.3614
 5602SOL    HW128442   0.469   1.462   8.662 -0.1036  0.4677  0.4037
 5602SOL    HW228443   0.549   1.455   8.785 -1.6962  0.8783 -0.5994
 5603SOL     OW28444   1.302   3.184   8.596 -0.2170 -0.4114 -0.6737
 5603SOL    HW128445   1.289   3.252   8.530  1.7503  0.1422 -0.4937
 5603SOL    HW228446   1.325   3.227   8.679  0.3459 -1.1140 -0.4686
 5604SOL     OW28447   3.236   1.488   9.134  0.3642  0.4644  0.2744
 5604SOL    HW128448   3.153   1.442   9.149  0.4921  0.2947  0.4667
 5604SOL    HW228449   3.245   1.537   9.216 -0.1780  2.5099 -0.8846
 5605SOL     OW28450   1.764   2.517   7.922  0.4124  0.5479  0.6882
 5605SOL    HW128451   1.669   2.513   7.915  0.2774 -0.2488  3.0286
 5605SOL    HW228452   1.795   2.566   7.846  1.3768 -1.0449  0.0440
 5606SOL     OW28453   1.766   2.538  16.946 -0.2604  0.4124 -0.3398
 5606SOL    HW128454   1.851   2.548  16.990 -0.3030 -1.0241  0.0621
 5606SOL    HW228455   1.730   2.467  17.000 -2.8150 -0.2505 -2.9037
 5607SOL     OW28456   0.736   4.388   3.117  0.4875  0.4443  0.7395
 5607SOL    HW128457   0.672   4.459   3.129 -1.4349 -1.1033 -0.3094
 5607SOL    HW228458   0.688   4.331   3.177 -1.1125  0.7481 -0.2452
 5608SOL     OW28459   3.557   3.301   7.632 -0.2485 -0.4083  0.0494
 5608SOL    HW128460   3.499   3.267   7.699 -1.2358 -1.1877 -1.1996
 5608SOL    HW228461   3.575   3.221   7.583 -0.1256  0.0387 -0.6415
 5609SOL     OW28462   3.498   2.225   9.534 -0.1972  0.6274 -0.1638
 5609SOL    HW128463   3.520   2.238   9.442 -0.8365  1.7031 -0.1633
 5609SOL    HW228464   3.405   2.247   9.530 -0.7352 -1.7950 -1.0990
 5610SOL     OW28465   3.006   0.282  14.415 -0.0436 -0.2547 -0.3542
 5610SOL    HW128466   2.924   0.243  14.385  0.3976 -1.4040 -0.0685
 5610SOL    HW228467   3.077   0.241  14.366 -0.8355 -0.8083 -1.0271
 5611SOL     OW28468   0.824   0.880   7.518 -0.4466 -0.0325 -0.2563
 5611SOL    HW128469   0.753   0.882   7.453  0.8397  1.7833 -1.5850
 5611SOL    HW228470   0.899   0.874   7.460 -0.7262 -0.4253 -0.5760
 5612SOL     OW28471   2.920   2.075   5.578  0.4583 -0.1124  0.0594
 5612SOL    HW128472   2.896   1.990   5.616  1.2767 -0.2075  0.3591
 5612SOL    HW228473   2.990   2.103   5.637 -1.1608  3.0637  0.4087
 5613SOL     OW28474   1.445   1.392   4.719 -0.0061 -0.0574 -0.4050
 5613SOL    HW128475   1.437   1.406   4.813  0.8779 -1.3872 -0.1360
 5613SOL    HW228476   1.515   1.457   4.712 -0.1203  0.3716  2.4197
 5614SOL     OW28477   4.439   4.620   1.707  0.0472 -0.3014 -0.4415
 5614SOL    HW128478   4.372   4.580   1.761  0.5244 -2.8123 -1.7011
 5614SOL    HW228479   4.517   4.568   1.727 -1.4252 -1.5029  2.1032
 5615SOL     OW28480   4.678   2.327   5.792  0.4816 -0.1100  0.0512
 5615SOL    HW128481   4.712   2.245   5.828  1.4422 -1.0883 -3.0556
 5615SOL    HW228482   0.029   2.369   5.783  1.2916 -1.5762  0.9234
 5616SOL     OW28483   2.388   1.327   8.567 -0.2299 -0.2262  0.3654
 5616SOL    HW128484   2.409   1.350   8.477  1.2400  0.1649  0.7979
 5616SOL    HW228485   2.351   1.413   8.587 -0.8381 -0.7519  1.5381
 5617SOL     OW28486   1.857   2.840   4.758 -0.4201 -0.2184  0.4248
 5617SOL    HW128487   1.799   2.907   4.721 -0.0649  0.4097  0.9993
 5617SOL    HW228488   1.799   2.796   4.820 -0.9326  2.4916  1.8624
 5618SOL     OW28489   2.844   1.612  14.776  0.0290 -0.0253 -0.4832
 5618SOL    HW128490   2.751   1.634  14.779  0.2540  0.5205  2.4612
 5618SOL    HW228491   2.883   1.695  14.804  1.2016 -0.6098 -0.3689
 5619SOL     OW28492   0.206   2.438   4.941 -0.0914  0.1667 -0.4941
 5619SOL    HW128493   0.145   2.501   4.980  0.2225  1.3925 -1.9510
 5619SOL    HW228494   0.147   2.364   4.929  0.5863 -0.3804 -0.4190
 5620SOL     OW28495   4.374   0.563   0.711 -0.1020 -0.2632 -0.1556
 5620SOL    HW128496   4.317   0.576   0.786  0.7132  3.4120 -0.1781
 5620SOL    HW228497   4.438   0.497   0.737  0.9274  1.6205  2.0548
 5621SOL     OW28498   0.691   2.215   4.269 -0.0623  0.7534 -0.5650
 5621SOL    HW128499   0.787   2.205   4.267  0.0800  1.5961  1.7433
 5621SOL    HW228500   0.677   2.201   4.363  0.7441  0.0205 -0.5508
 5622SOL     OW28501   1.349   3.363   7.871 -0.1360 -0.2671 -0.0232
 5622SOL    HW128502   1.379   3.346   7.960  0.9208 -0.5804 -0.4471
 5622SOL    HW228503   1.408   3.433   7.844  1.3533 -1.4851  0.1202
 5623SOL     OW28504   1.933   2.316   4.025  0.2307 -0.0445  0.0110
 5623SOL    HW128505   1.865   2.335   3.960 -0.2114 -1.2003  0.1403
 5623SOL    HW228506   1.999   2.382   4.005  0.9422 -0.7766 -0.0142
 5624SOL     OW28507   2.612   2.814   7.727 -0.2695 -0.4817 -0.7204
 5624SOL    HW128508   2.536   2.787   7.675  0.1763  0.4545 -1.8678
 5624SOL    HW228509   2.643   2.734   7.769  1.3786  0.9887  0.8189
 5625SOL     OW28510   4.311   4.254   0.763  0.3209  0.5197  0.4844
 5625SOL    HW128511   4.340   4.345   0.751  1.6080 -0.0750 -0.8337
 5625SOL    HW228512   4.342   4.216   0.682  0.9327  0.9434  0.5187
 5626SOL     OW28513   1.358   0.449   4.288  0.1222 -0.5477  0.1633
 5626SOL    HW128514   1.277   0.496   4.268  1.7023  1.9003 -0.4515
 5626SOL    HW228515   1.377   0.479   4.377  0.6247  1.8782 -0.7542
 5627SOL     OW28516   1.089   0.861   8.097 -0.5962  0.7144  0.4480
 5627SOL    HW128517   1.181   0.852   8.070 -1.1848  0.9758 -1.6661
 5627SOL    HW228518   1.059   0.771   8.087  4.7867 -1.3894  2.9172
 5628SOL     OW28519   0.077   3.469   5.518 -0.7307 -0.3816  0.0319
 5628SOL    HW128520   0.046   3.390   5.472  3.6983 -0.6788 -2.4543
 5628SOL    HW228521   4.724   3.495   5.545  0.1028  0.6777  1.7146
 5629SOL     OW28522   2.579   2.012   6.242  0.6204 -0.0568  0.0713
 5629SOL    HW128523   2.601   1.997   6.334 -2.6228 -0.9596  0.7099
 5629SOL    HW228524   2.519   1.937   6.238  0.9254 -0.3776  1.4794
 5630SOL     OW28525   3.588   4.726   9.550 -0.2323  0.0888  0.0773
 5630SOL    HW128526   3.609   0.065   9.607  0.6097 -0.1722  0.1118
 5630SOL    HW228527   3.665   4.670   9.552 -1.2050 -1.2737 -1.1852
 5631SOL     OW28528   3.097   1.184   7.939 -0.0900 -0.1301  0.2479
 5631SOL    HW128529   3.103   1.172   8.034 -0.4472 -0.7588  0.1886
 5631SOL    HW228530   3.188   1.205   7.915 -0.2751  0.1623 -0.2092
 5632SOL     OW28531   1.505   2.177  16.347  1.3220 -0.7068 -0.2311
 5632SOL    HW128532   1.414   2.195  16.369  1.1778 -1.1464 -0.4858
 5632SOL    HW228533   1.555   2.183  16.429  1.5049 -1.4562 -0.2859
 5633SOL     OW28534   2.336   3.005   4.444  0.2814 -0.1042  0.3357
 5633SOL    HW128535   2.416   3.057   4.441  0.4144 -0.1926  2.6136
 5633SOL    HW228536   2.371   2.923   4.479 -1.2084 -1.0532 -0.3815
 5634SOL     OW28537   3.135   2.745   0.381  0.1140  0.1787  0.3220
 5634SOL    HW128538   3.086   2.666   0.359 -2.3763  1.7315  0.3304
 5634SOL    HW228539   3.070   2.792   0.432  2.1438  2.7713  0.5239
 5635SOL     OW28540   0.604   1.492   5.143 -0.4172  0.0500 -0.3564
 5635SOL    HW128541   0.691   1.528   5.157 -0.8237  0.9234 -0.0692
 5635SOL    HW228542   0.545   1.546   5.195  0.7648 -0.0886  1.1152
 5636SOL     OW28543   4.612   1.502  11.078 -0.2189 -0.4413  0.0876
 5636SOL    HW128544   4.571   1.449  11.009  1.2296 -0.2458 -0.9311
 5636SOL    HW228545   4.704   1.478  11.069 -0.2066 -0.4790  0.3238
 5637SOL     OW28546   2.198   1.338  14.667  0.0623  0.7249  0.4419
 5637SOL    HW128547   2.110   1.308  14.642 -0.2638  2.0767 -0.0186
 5637SOL    HW228548   2.243   1.296  14.594 -0.1127 -1.0830  1.3797
 5638SOL     OW28549   4.112   0.420   1.859 -0.0702  0.2736 -0.3291
 5638SOL    HW128550   4.067   0.504   1.856 -1.3630 -0.4783 -2.1523
 5638SOL    HW228551   4.150   0.430   1.946 -1.2878 -0.8386  0.3472
 5639SOL     OW28552   2.121   4.244  15.721  0.8638  0.0991  0.1663
 5639SOL    HW128553   2.139   4.333  15.691 -0.3200  0.1547 -0.3968
 5639SOL    HW228554   2.135   4.260  15.814  0.2233 -0.8162  0.4207
 5640SOL     OW28555   2.228   1.305   1.784  0.2052  0.8674 -0.3069
 5640SOL    HW128556   2.287   1.289   1.711  0.4318  0.8204 -0.1165
 5640SOL    HW228557   2.162   1.353   1.735  0.1258  0.7579 -0.3069
 5641SOL     OW28558   3.865   4.301   3.388  0.0252 -0.1723  0.8125
 5641SOL    HW128559   3.837   4.336   3.473  0.5682 -1.8975  1.7061
 5641SOL    HW228560   3.953   4.271   3.412  0.3715 -0.8216 -1.3286
 5642SOL     OW28561   2.397   4.346   7.685  0.3259  0.0384  0.0633
 5642SOL    HW128562   2.319   4.391   7.651 -1.1648 -0.7968  2.3732
 5642SOL    HW228563   2.372   4.328   7.775 -0.8730 -0.2057 -0.3051
 5643SOL     OW28564   3.679   0.458   9.130 -0.0596 -0.2770 -0.6717
 5643SOL    HW128565   3.584   0.452   9.120 -0.1384  1.1044 -0.7720
 5643SOL    HW228566   3.706   0.529   9.072 -2.0838  0.8459 -0.2463
 5644SOL     OW28567   4.655   3.555   1.947 -0.4013 -0.3498 -0.3798
 5644SOL    HW128568   4.603   3.500   1.887 -1.2276 -1.2299  1.1520
 5644SOL    HW228569   0.001   3.550   1.896 -1.0789  0.5740 -1.5539
 5645SOL     OW28570   1.354   1.314   7.748  0.0636 -0.1790  0.2359
 5645SOL    HW128571   1.389   1.227   7.725 -0.0104 -0.0038 -0.5516
 5645SOL    HW228572   1.267   1.289   7.779 -0.1182  0.5913  0.3352
 5646SOL     OW28573   1.125   2.064   3.089  0.1040  0.2937  0.0180
 5646SOL    HW128574   1.045   2.116   3.085 -0.4511 -0.6088 -0.5595
 5646SOL    HW228575   1.176   2.103   3.160 -0.9772  1.3018  0.2465
 5647SOL     OW28576   0.818   1.763   2.720 -0.9746  0.2489 -0.2685
 5647SOL    HW128577   0.729   1.764   2.684 -0.9292 -0.8819 -0.4124
 5647SOL    HW228578   0.797   1.774   2.813 -0.5392 -1.1735 -0.0125
 5648SOL     OW28579   3.160   2.474   2.819  0.0901  0.0433  0.0872
 5648SOL    HW128580   3.213   2.408   2.774 -0.4175 -0.8001  0.7243
 5648SOL    HW228581   3.226   2.527   2.863  0.7989 -2.2918  1.8968
 5649SOL     OW28582   1.280   0.563   8.850  0.2753 -0.2857  0.1239
 5649SOL    HW128583   1.334   0.504   8.902 -1.0789 -1.5192  0.1212
 5649SOL    HW228584   1.327   0.646   8.859  1.8825 -1.2377  0.4719
 5650SOL     OW28585   1.582   0.917  17.695 -0.0620 -0.2940  0.0277
 5650SOL    HW128586   1.598   1.010  17.712  0.2068 -0.1701 -0.8731
 5650SOL    HW228587   1.669   0.881  17.712 -1.0139 -2.4844  0.2929
 5651SOL     OW28588   4.663   4.060  11.241 -0.3755  0.3040  0.0991
 5651SOL    HW128589   4.658   4.108  11.158  1.3171 -0.9904 -0.7453
 5651SOL    HW228590   0.021   4.056  11.264 -0.9091 -0.1479  2.1094
 5652SOL     OW28591   4.184   2.737   5.611 -0.2391  0.0542  0.7504
 5652SOL    HW128592   4.188   2.803   5.681  1.6699  0.3091  0.4049
 5652SOL    HW228593   4.105   2.689   5.637 -0.6970 -0.0359 -0.8206
 5653SOL     OW28594   1.513   0.908   3.819  0.1804 -0.5239 -0.5674
 5653SOL    HW128595   1.604   0.937   3.809 -0.8713  2.7927 -0.4683
 5653SOL    HW228596   1.465   0.986   3.850 -1.6394 -0.8330 -2.5822
 5654SOL     OW28597   0.907   3.397   5.691 -0.1812 -0.7982  0.1086
 5654SOL    HW128598   0.903   3.433   5.602  1.0068 -1.2688 -0.1365
 5654SOL    HW228599   0.896   3.474   5.747 -0.4126  1.6942 -3.3366
 5655SOL     OW28600   2.690   4.110   8.833 -0.1820  0.4449  0.2889
 5655SOL    HW128601   2.754   4.121   8.904  3.3741  0.9222 -2.9632
 5655SOL    HW228602   2.665   4.196   8.801 -1.1263  0.4951  1.1588
 5656SOL     OW28603   1.281   0.405  14.977 -0.1070 -0.6342 -0.1760
 5656SOL    HW128604   1.213   0.470  14.996  0.3013 -0.4592  0.6919
 5656SOL    HW228605   1.238   0.351  14.911 -0.4873  0.2580 -0.6604
 5657SOL     OW28606   3.603   3.805   9.008 -0.2673 -0.1407 -0.7353
 5657SOL    HW128607   3.512   3.793   9.036 -0.3669 -0.9736 -1.4544
 5657SOL    HW228608   3.584   3.802   8.915  0.6437 -0.3623 -0.9056
 5658SOL     OW28609   3.665   2.236   9.745 -0.0532  0.0974 -0.4672
 5658SOL    HW128610   3.601   2.246   9.674  1.2607  1.9556 -1.4120
 5658SOL    HW228611   3.623   2.157   9.778  0.3730  0.3927  0.7796
 5659SOL     OW28612   2.026   4.687   7.939 -0.3579  0.0722 -0.1405
 5659SOL    HW128613   2.019   0.042   7.970  0.5247  0.4959 -1.1754
 5659SOL    HW228614   2.063   4.703   7.852 -1.4421  1.5353 -0.3280
 5660SOL     OW28615   1.098   3.317   6.509 -0.4772 -0.6925 -0.0273
 5660SOL    HW128616   1.084   3.228   6.479 -0.4903 -2.2928  4.8379
 5660SOL    HW228617   1.126   3.364   6.430  0.5633  0.5072  1.0452
 5661SOL     OW28618   2.461   1.719   7.231  0.0891  0.3686 -0.3776
 5661SOL    HW128619   2.447   1.783   7.302  0.8370  0.5229 -0.3774
 5661SOL    HW228620   2.556   1.720   7.230  0.0900 -0.9707 -0.7798
 5662SOL     OW28621   0.366   2.426   2.001 -0.3245  0.0671  0.2850
 5662SOL    HW128622   0.350   2.336   1.971 -0.6284 -0.0833  0.8993
 5662SOL    HW228623   0.322   2.429   2.087 -0.6108 -1.3576  0.1843
 5663SOL     OW28624   0.048   1.456   8.335 -0.3689  0.4456  0.3246
 5663SOL    HW128625   0.064   1.363   8.349  3.2532  1.2590  1.4347
 5663SOL    HW228626   0.084   1.466   8.246 -0.7729 -1.0471 -0.0000
 5664SOL     OW28627   3.261   2.661   2.066 -0.2714 -0.0556  0.4941
 5664SOL    HW128628   3.307   2.745   2.070 -1.7659  0.8507 -1.2432
 5664SOL    HW228629   3.329   2.595   2.049  0.1931  0.6163 -0.2311
 5665SOL     OW28630   0.860   0.121   8.543  0.0638 -0.9285 -0.5108
 5665SOL    HW128631   0.794   0.060   8.511  0.2860 -1.9863  1.0513
 5665SOL    HW228632   0.847   0.193   8.482  1.1886 -1.8396 -1.8402
 5666SOL     OW28633   3.625   2.920   3.462  0.3206 -0.2619  0.4419
 5666SOL    HW128634   3.629   2.866   3.540 -2.3470 -1.5190 -0.3053
 5666SOL    HW228635   3.578   3.000   3.486 -0.3073 -0.2840 -0.6671
 5667SOL     OW28636   2.569   1.868  10.863  0.4023 -0.4685  0.2939
 5667SOL    HW128637   2.506   1.916  10.916  0.6904 -0.5632  0.7143
 5667SOL    HW228638   2.586   1.921  10.785  0.1311  0.6495  0.9853
 5668SOL     OW28639   1.112   2.390   7.422 -0.1390 -0.3105 -0.6665
 5668SOL    HW128640   1.028   2.361   7.387 -0.6144  1.6025 -1.1042
 5668SOL    HW228641   1.164   2.314   7.396  0.5886 -0.0945  0.1254
 5669SOL     OW28642   2.840   1.830   5.651 -0.1947 -0.0913  0.2368
 5669SOL    HW128643   2.844   1.753   5.708  0.7596  0.0389  0.3358
 5669SOL    HW228644   2.879   1.794   5.571 -1.4466 -1.9410  0.4510
 5670SOL     OW28645   2.346   3.775   5.353  0.0595  0.3694  0.1050
 5670SOL    HW128646   2.422   3.803   5.303  0.3216 -0.1069  0.2374
 5670SOL    HW228647   2.285   3.764   5.280  0.5264  1.4987 -0.4492
 5671SOL     OW28648   3.601   1.749   8.734  0.2977  0.4920  0.1046
 5671SOL    HW128649   3.508   1.769   8.719  0.1529 -0.4637 -0.3330
 5671SOL    HW228650   3.613   1.671   8.679 -0.1276  1.1135 -0.8601
 5672SOL     OW28651   3.712   4.420   3.226 -0.6133 -0.6667  0.3178
 5672SOL    HW128652   3.636   4.363   3.226 -3.0413  2.5972  0.8996
 5672SOL    HW228653   3.763   4.374   3.293 -3.7246 -1.6035  2.0283
 5673SOL     OW28654   2.643   2.307   0.841 -0.0199 -0.4142 -0.7989
 5673SOL    HW128655   2.673   2.216   0.849 -0.1752 -0.4764 -0.9397
 5673SOL    HW228656   2.711   2.348   0.787  0.7488 -0.5790  0.0520
 5674SOL     OW28657   1.063   2.378   6.422  0.0317 -0.9345  0.3432
 5674SOL    HW128658   1.048   2.402   6.331 -0.2823  1.2022  0.9508
 5674SOL    HW228659   1.157   2.359   6.416  0.0121 -0.1488 -2.5622
 5675SOL     OW28660   1.886   0.941  15.600 -0.6995 -0.1170  0.3815
 5675SOL    HW128661   1.964   0.992  15.581 -2.6143  1.9778 -1.8683
 5675SOL    HW228662   1.841   0.953  15.517  0.6806 -0.5909 -0.4264
 5676SOL     OW28663   1.656   0.270  16.224  0.5291  0.0136  0.1674
 5676SOL    HW128664   1.603   0.199  16.260 -1.7515  1.1381 -1.0038
 5676SOL    HW228665   1.728   0.259  16.287 -1.1982 -0.3740  2.0908
 5677SOL     OW28666   2.226   4.088  10.578  0.0338 -0.0983 -0.2942
 5677SOL    HW128667   2.252   4.016  10.521 -0.9628  0.9413 -2.0563
 5677SOL    HW228668   2.170   4.056  10.648  0.9193  1.1981  1.0270
 5678SOL     OW28669   3.708   0.910   9.625 -0.3887 -0.2388  0.0722
 5678SOL    HW128670   3.798   0.938   9.641 -0.7294  0.1211  1.3071
 5678SOL    HW228671   3.703   0.840   9.690  0.3615  0.3617  0.7826
 5679SOL     OW28672   0.385   2.928   5.206  0.4711 -0.0506  0.1261
 5679SOL    HW128673   0.379   2.832   5.210  0.4731  0.1617  4.9528
 5679SOL    HW228674   0.468   2.939   5.253  0.3714 -0.0181  0.2924
 5680SOL     OW28675   2.813   4.294   3.049  0.4159  0.0764  0.0049
 5680SOL    HW128676   2.831   4.303   3.143 -0.8077  1.8806  0.0533
 5680SOL    HW228677   2.842   4.204   3.031  1.0451  0.1411  0.7237
 5681SOL     OW28678   2.979   4.382   4.820 -0.2336 -0.2631  0.0847
 5681SOL    HW128679   3.057   4.350   4.775  0.2098 -0.2274  0.8142
 5681SOL    HW228680   2.916   4.364   4.751 -0.7060 -0.9623  0.6869
 5682SOL     OW28681   1.355   1.736   2.096  0.0283  0.3851 -0.2510
 5682SOL    HW128682   1.435   1.747   2.147 -0.6010 -0.4160  0.8956
 5682SOL    HW228683   1.377   1.797   2.025 -2.0254  0.5262 -0.7542
 5683SOL     OW28684   1.219   3.152  16.846 -0.4445 -0.4317  0.5352
 5683SOL    HW128685   1.199   3.115  16.760  3.8912 -1.6632  0.0906
 5683SOL    HW228686   1.304   3.194  16.834 -0.8130  0.2243  0.1859
 5684SOL     OW28687   4.546   1.225   3.748 -0.2283  0.0227 -0.3742
 5684SOL    HW128688   4.493   1.205   3.826 -0.7837 -0.0632 -0.7735
 5684SOL    HW228689   4.519   1.314   3.726 -0.2835  0.3746  1.1098
 5685SOL     OW28690   2.407   3.635   2.729 -0.0748  0.0988  0.5752
 5685SOL    HW128691   2.485   3.594   2.691 -0.7476  1.2169 -2.0139
 5685SOL    HW228692   2.346   3.572   2.690 -0.3151 -0.2879  1.5752
 5686SOL     OW28693   0.568   1.206  17.533 -0.3180 -0.2045 -0.5429
 5686SOL    HW128694   0.573   1.261  17.455 -1.0593 -0.5502 -0.8370
 5686SOL    HW228695   0.632   1.136  17.522 -1.0125 -1.0171  0.5677
 5687SOL     OW28696   1.736   0.746   8.151 -0.2725  0.3848 -0.2501
 5687SOL    HW128697   1.801   0.746   8.222 -0.8375  0.5403  0.2678
 5687SOL    HW228698   1.779   0.760   8.067 -0.3486 -0.7559 -0.4752
 5688SOL     OW28699   0.641   1.931   5.033 -0.2687  0.4544  0.4251
 5688SOL    HW128700   0.723   1.972   5.007 -0.3831  1.7629  2.1473
 5688SOL    HW228701   0.582   1.986   4.982 -0.8069 -1.6590 -1.2363
 5689SOL     OW28702   0.333   3.591   0.797  0.6226 -0.0910 -0.3026
 5689SOL    HW128703   0.358   3.504   0.829  1.5543  1.0882  2.1413
 5689SOL    HW228704   0.382   3.580   0.715 -0.7000  1.0929 -1.2584
 5690SOL     OW28705   1.252   4.719   6.727  0.2006 -0.1142 -0.6615
 5690SOL    HW128706   1.299   4.728   6.644  1.3708  1.0167  0.1265
 5690SOL    HW228707   1.325   4.709   6.789  2.2145  1.2247 -2.8108
 5691SOL     OW28708   3.364   3.328   8.407  0.4287 -0.1162 -0.3407
 5691SOL    HW128709   3.271   3.308   8.410  0.1530  1.1950 -0.2512
 5691SOL    HW228710   3.396   3.241   8.431 -0.1288  0.3227  1.9082
 5692SOL     OW28711   2.691   0.278   1.315 -0.0905 -0.3496  0.5468
 5692SOL    HW128712   2.764   0.307   1.262 -0.4584 -0.3541  0.0384
 5692SOL    HW228713   2.618   0.324   1.273  1.8931  1.1175 -1.2575
 5693SOL     OW28714   2.619   4.614   5.114 -0.1421  0.3991  0.3799
 5693SOL    HW128715   2.527   4.598   5.134 -0.0256 -1.5928 -0.6476
 5693SOL    HW228716   2.615   4.608   5.018  0.2803  1.0099  0.3221
 5694SOL     OW28717   0.497   2.490  17.631 -0.2542 -0.4233  0.3514
 5694SOL    HW128718   0.493   2.516  17.723  1.0224  1.1298 -0.0358
 5694SOL    HW228719   0.578   2.441  17.647 -0.9781 -2.4223 -2.1183
 5695SOL     OW28720   4.669   1.467   7.014 -0.1769  0.3510  0.0622
 5695SOL    HW128721   4.630   1.384   7.041  1.8527 -0.4041  0.7029
 5695SOL    HW228722   4.652   1.512   7.097 -3.8726 -1.0992  0.0839
 5696SOL     OW28723   2.362   2.998  10.294  0.3550 -0.2324 -0.2046
 5696SOL    HW128724   2.383   3.016  10.203  1.5459  2.1398  0.5336
 5696SOL    HW228725   2.354   3.088  10.326  1.8774  0.3204 -1.4073
 5697SOL     OW28726   2.662   0.423  16.564  0.1092  0.2656  0.2353
 5697SOL    HW128727   2.718   0.461  16.495 -0.5781 -2.6651 -1.9235
 5697SOL    HW228728   2.726   0.386  16.624  0.8387 -0.0397 -0.7178
 5698SOL     OW28729   0.489   1.737   4.424  0.2474 -0.1114 -0.3467
 5698SOL    HW128730   0.445   1.741   4.509  1.4202 -1.0823  0.3060
 5698SOL    HW228731   0.574   1.771   4.452  0.4267 -2.1258  1.5803
 5699SOL     OW28732   3.551   4.255  16.691  0.2166  0.2435  0.0506
 5699SOL    HW128733   3.485   4.252  16.622 -1.7005  0.3304  1.8608
 5699SOL    HW228734   3.571   4.163  16.706  1.2391  0.1994 -1.5735
 5700SOL     OW28735   3.848   3.717   3.804 -0.1676  0.3914  0.2372
 5700SOL    HW128736   3.761   3.694   3.773  0.1167 -0.7107  0.2693
 5700SOL    HW228737   3.877   3.790   3.749  1.6512 -1.8367 -1.7529
 5701SOL     OW28738   0.654   2.459   0.537 -0.1087  0.0339  0.3339
 5701SOL    HW128739   0.563   2.433   0.520 -0.0712  1.0777 -1.5077
 5701SOL    HW228740   0.665   2.552   0.520  1.2304  0.2775  2.5604
 5702SOL     OW28741   1.369   0.089  12.524 -0.1716  0.3680  0.1622
 5702SOL    HW128742   1.336   0.162  12.472  1.8513  1.0764 -0.1105
 5702SOL    HW228743   1.423   0.139  12.585 -0.6230  0.4172  0.5270
 5703SOL     OW28744   4.089   3.293   6.476  0.0963 -0.0747  0.0007
 5703SOL    HW128745   4.106   3.325   6.564 -0.2131 -0.1316  0.0804
 5703SOL    HW228746   4.033   3.360   6.436 -0.2902 -0.2519  0.2387
 5704SOL     OW28747   3.494   2.651   1.641  0.5608  0.2685 -0.0540
 5704SOL    HW128748   3.490   2.710   1.566 -0.9862 -1.0292 -0.9810
 5704SOL    HW228749   3.588   2.654   1.658  0.3831  1.6506  0.7223
 5705SOL     OW28750   0.897   1.943   7.105  0.8731  0.1850  0.4906
 5705SOL    HW128751   0.822   1.885   7.119  0.6903  0.0029 -1.2226
 5705SOL    HW228752   0.946   1.929   7.186  2.6383 -1.0841 -0.8148
 5706SOL     OW28753   2.276   1.936   0.151  0.4688  0.2909  0.0416
 5706SOL    HW128754   2.364   1.940   0.114 -0.4545  3.1832 -1.8173
 5706SOL    HW228755   2.285   1.903   0.240  1.4229 -1.2646 -0.6439
 5707SOL     OW28756   3.343   2.737   0.958 -0.1680  0.1233  0.3700
 5707SOL    HW128757   3.406   2.755   1.028  1.1582  1.2380 -1.1068
 5707SOL    HW228758   3.350   2.642   0.952 -0.1111  0.0497  1.5245
 5708SOL     OW28759   0.114   3.118  17.038 -0.2388  0.1094  0.0997
 5708SOL    HW128760   0.182   3.159  16.985 -1.9615  1.9887 -0.6567
 5708SOL    HW228761   0.047   3.103  16.971 -1.8747  2.6939  1.1812
 5709SOL     OW28762   2.039   2.646   7.339  0.2807  0.3771 -0.3810
 5709SOL    HW128763   2.010   2.676   7.252 -0.4746  0.9101  0.0531
 5709SOL    HW228764   1.989   2.568   7.362  2.2581 -0.5386  0.7709
 5710SOL     OW28765   0.776   4.224  16.734 -0.1675  0.1353 -0.2664
 5710SOL    HW128766   0.797   4.186  16.648 -0.2752  3.1343 -1.5974
 5710SOL    HW228767   0.804   4.150  16.788  0.1599 -1.3974 -2.4890
 5711SOL     OW28768   1.714   1.343   3.026  0.0411 -0.0944 -0.4119
 5711SOL    HW128769   1.734   1.385   2.943  1.1074 -1.8008 -1.0128
 5711SOL    HW228770   1.719   1.415   3.088 -2.3926  0.0689 -0.3883
 5712SOL     OW28771   2.587   1.288   5.722  0.5313  0.3861 -0.2669
 5712SOL    HW128772   2.615   1.344   5.650 -0.3080  0.6018 -0.4289
 5712SOL    HW228773   2.509   1.257   5.676  0.5757 -1.0859  0.6170
 5713SOL     OW28774   1.166   3.068   4.257 -0.1023  0.1440 -0.1389
 5713SOL    HW128775   1.218   3.013   4.199 -2.3590  0.5414 -2.5296
 5713SOL    HW228776   1.206   3.028   4.335 -0.3827 -0.9955 -0.5877
 5714SOL     OW28777   1.709   2.554   9.980 -0.2489 -0.5405  0.2968
 5714SOL    HW128778   1.696   2.476  10.033 -1.0305  0.0464  0.9664
 5714SOL    HW228779   1.714   2.622  10.047 -0.9874 -0.1440 -0.0498
 5715SOL     OW28780   1.404   0.129   5.866  0.7138  0.5111  0.2514
 5715SOL    HW128781   1.329   0.117   5.809  0.4728  0.2776  0.6109
 5715SOL    HW228782   1.440   0.206   5.822  0.1145  0.1025 -0.9502
 5716SOL     OW28783   2.830   4.561  11.332  0.0401  0.0808  0.1277
 5716SOL    HW128784   2.852   4.489  11.391 -2.1734 -1.7069 -1.2666
 5716SOL    HW228785   2.799   4.629  11.393  0.4241  0.9113 -0.6164
 5717SOL     OW28786   3.368   2.626  12.692  0.0732  0.0461  0.1371
 5717SOL    HW128787   3.449   2.668  12.662  1.7193 -3.2051  0.0018
 5717SOL    HW228788   3.394   2.539  12.722  0.4184 -0.5506 -1.8793
 5718SOL     OW28789   1.938   3.958   5.688 -0.5558  0.2215  0.3973
 5718SOL    HW128790   1.889   3.883   5.723  1.4719 -0.8683  0.9388
 5718SOL    HW228791   1.865   4.006   5.649 -0.8300 -0.1573  0.4464
 5719SOL     OW28792   1.108   0.803   4.642 -0.1549  0.0183 -0.9594
 5719SOL    HW128793   1.017   0.772   4.639 -0.7301  1.4038  2.4821
 5719SOL    HW228794   1.105   0.885   4.691  1.5803 -0.2252 -0.4667
 5720SOL     OW28795   1.377   2.558   4.944  0.2142 -0.3881 -0.4247
 5720SOL    HW128796   1.410   2.485   4.997  0.4302  0.0612  0.0656
 5720SOL    HW228797   1.295   2.519   4.915 -0.9344  1.1350  0.8471
 5721SOL     OW28798   3.084   2.130  11.540 -0.0262 -0.2533  0.0035
 5721SOL    HW128799   3.033   2.094  11.613 -0.8999 -2.5601 -1.7715
 5721SOL    HW228800   3.105   2.044  11.503  0.1570 -0.3906  0.4276
 5722SOL     OW28801   0.275   2.153   6.391 -0.3921  0.9545 -0.3002
 5722SOL    HW128802   0.295   2.156   6.484 -1.0577 -2.1919 -0.0548
 5722SOL    HW228803   0.348   2.104   6.352 -0.4587  3.5045 -3.5826
 5723SOL     OW28804   3.582   0.481  11.848 -0.2169 -0.0066  0.9526
 5723SOL    HW128805   3.520   0.449  11.783  1.6960  0.6591 -1.1866
 5723SOL    HW228806   3.553   0.572  11.858  1.5775  0.3482  2.9435
 5724SOL     OW28807   1.247   4.514   8.944  0.4021  0.0561 -0.2704
 5724SOL    HW128808   1.318   4.466   8.988  1.2817  1.2812 -0.3644
 5724SOL    HW228809   1.288   4.600   8.935 -0.0755  0.3050 -0.0711
 5725SOL     OW28810   1.799   1.644   3.411 -0.4945 -0.1523  1.1358
 5725SOL    HW128811   1.768   1.735   3.408  0.8314  0.3350  1.7796
 5725SOL    HW228812   1.781   1.609   3.324  0.8663  1.6224  0.1293
 5726SOL     OW28813   2.139   2.141   8.974  0.8239 -0.0430  0.2293
 5726SOL    HW128814   2.140   2.215   9.033  0.0020  1.0554 -1.1314
 5726SOL    HW228815   2.102   2.067   9.022  1.0887 -0.0323  0.4487
 5727SOL     OW28816   2.987   1.619  16.343 -0.4649 -0.6525  0.0517
 5727SOL    HW128817   2.938   1.539  16.324 -1.6021 -0.0232  0.3367
 5727SOL    HW228818   2.924   1.679  16.302 -0.1142 -1.1528 -1.2363
 5728SOL     OW28819   1.272   0.006  12.107 -0.2266 -0.3805 -0.1483
 5728SOL    HW128820   1.188   4.704  12.134  0.1171 -1.1101 -0.0677
 5728SOL    HW228821   1.297   4.714  12.019 -0.5598 -0.7050 -0.1452
 5729SOL     OW28822   1.129   0.334   4.565 -0.1480 -0.3546 -0.1767
 5729SOL    HW128823   1.197   0.400   4.552 -0.9234  0.8238  1.7689
 5729SOL    HW228824   1.169   0.275   4.629 -1.3575 -0.4738  0.4820
 5730SOL     OW28825   0.727   3.310  10.603 -0.2912  0.4442  0.0254
 5730SOL    HW128826   0.779   3.336  10.680 -1.3389  0.8530  0.5978
 5730SOL    HW228827   0.657   3.254  10.637  0.1052  0.1775  0.4062
 5731SOL     OW28828   3.235   0.666  15.932  0.5107  0.2067  0.7128
 5731SOL    HW128829   3.320   0.623  15.938  0.7301  0.5805  0.2842
 5731SOL    HW228830   3.187   0.601  15.982 -0.7107 -1.1647 -2.2333
 5732SOL     OW28831   2.982   4.314   8.315 -0.4851 -0.0591  0.3986
 5732SOL    HW128832   3.033   4.394   8.300  0.1084 -0.2717  1.3196
 5732SOL    HW228833   3.026   4.270   8.387  0.8861  0.9796  0.2013
 5733SOL     OW28834   3.258   3.098  16.826  0.2724  0.6156  0.9339
 5733SOL    HW128835   3.268   3.191  16.805  3.2150  0.1627  0.2982
 5733SOL    HW228836   3.313   3.069  16.754 -2.3495  0.2016 -0.8973
 5734SOL     OW28837   3.620   3.517   3.817  0.9488  0.2925  0.2742
 5734SOL    HW128838   3.555   3.479   3.876 -0.6002  0.9137 -1.0309
 5734SOL    HW228839   3.575   3.597   3.789 -0.9093 -1.2318 -1.1772
 5735SOL     OW28840   3.682   0.545   6.021  0.3453  0.2291  0.9046
 5735SOL    HW128841   3.695   0.601   6.097 -0.5277 -0.8307  1.8184
 5735SOL    HW228842   3.752   0.480   6.016  0.5766  0.5491  0.0337
 5736SOL     OW28843   3.706   3.243   8.529 -0.7846 -0.5945  0.1045
 5736SOL    HW128844   3.628   3.188   8.524 -1.3686  0.2224  0.4093
 5736SOL    HW228845   3.764   3.204   8.594 -0.0772 -0.9954 -0.7569
 5737SOL     OW28846   2.956   1.359   2.832 -0.3870 -0.1546 -0.0110
 5737SOL    HW128847   2.885   1.387   2.891 -0.7861 -1.1815 -0.0124
 5737SOL    HW228848   3.032   1.396   2.877  0.3664  1.0930 -2.2881
 5738SOL     OW28849   0.998   3.214  10.130  0.3994 -0.6385  0.0874
 5738SOL    HW128850   1.053   3.139  10.156  2.5976  1.2952  1.0368
 5738SOL    HW228851   0.946   3.241  10.206  0.9601 -0.9125  0.5721
 5739SOL     OW28852   4.180   2.832  12.425  0.2591 -0.2391 -0.0713
 5739SOL    HW128853   4.237   2.874  12.359 -1.1484  1.8208  0.0254
 5739SOL    HW228854   4.219   2.869  12.504 -0.5606  0.0426  0.1980
 5740SOL     OW28855   3.680   0.624  15.115 -0.0503 -0.0611 -0.2258
 5740SOL    HW128856   3.651   0.668  15.195  0.7574 -0.9991  0.5945
 5740SOL    HW228857   3.745   0.687  15.083 -0.9104  0.2487 -1.3500
 5741SOL     OW28858   2.934   4.731   4.404  0.0725 -0.1665  0.1853
 5741SOL    HW128859   2.842   4.722   4.379 -0.2239 -1.3341  1.7122
 5741SOL    HW228860   2.973   4.712   4.319 -1.8178 -2.1668 -0.2239
 5742SOL     OW28861   1.431   4.192   5.551  0.0259 -0.0510  0.4103
 5742SOL    HW128862   1.449   4.285   5.538  2.5859 -0.7492 -1.1036
 5742SOL    HW228863   1.510   4.156   5.590  0.0774 -0.7795 -0.3558
 5743SOL     OW28864   4.032   3.604  13.951  0.5041  0.0935 -0.1308
 5743SOL    HW128865   3.990   3.535  13.899  0.8338 -1.1992  1.3349
 5743SOL    HW228866   3.955   3.649  13.986  2.6073  2.1200  1.8204
 5744SOL     OW28867   1.254   1.662  16.552  0.1834  0.1301  0.2336
 5744SOL    HW128868   1.281   1.704  16.470 -1.7323 -0.2571 -0.5861
 5744SOL    HW228869   1.335   1.621  16.582 -0.6735 -2.0831 -0.4769
 5745SOL     OW28870   0.094   3.531   7.737 -0.1567  0.0753  0.0438
 5745SOL    HW128871   0.159   3.523   7.808 -0.6097 -3.8487  0.0049
 5745SOL    HW228872   0.152   3.516   7.663  0.1241  0.1572  0.2445
 5746SOL     OW28873   4.332   1.150   4.260  0.2786  0.2109 -0.5062
 5746SOL    HW128874   4.348   1.112   4.346  2.1009 -0.3413 -1.0763
 5746SOL    HW228875   4.284   1.225   4.294 -2.1255 -1.8139  0.5330
 5747SOL     OW28876   1.997   2.403   8.273 -0.3466  0.2589  0.3583
 5747SOL    HW128877   2.007   2.492   8.240 -2.4929  0.3196 -0.1144
 5747SOL    HW228878   2.033   2.422   8.360  0.7200  1.8878 -0.4379
 5748SOL     OW28879   0.587   3.838  15.180  0.3094  0.4224  0.1670
 5748SOL    HW128880   0.579   3.782  15.103 -0.9056  4.2961 -2.5120
 5748SOL    HW228881   0.674   3.875  15.167  0.9933 -1.7078 -1.3847
 5749SOL     OW28882   3.254   3.019   2.638  0.8050 -0.0478  0.7459
 5749SOL    HW128883   3.343   2.988   2.625 -0.5139 -2.0055 -3.9648
 5749SOL    HW228884   3.213   2.936   2.661 -1.1335  0.6677 -0.1001
 5750SOL     OW28885   3.453   1.673   1.767 -0.0861 -0.0525  0.4429
 5750SOL    HW128886   3.515   1.715   1.827  0.4212  2.1156 -1.5722
 5750SOL    HW228887   3.514   1.656   1.696  0.0053  1.3225  0.1753
 5751SOL     OW28888   0.690   2.462   7.342 -0.2438 -0.1131  0.2977
 5751SOL    HW128889   0.758   2.396   7.356 -0.3134 -0.4173 -0.7672
 5751SOL    HW228890   0.747   2.538   7.332 -0.8645  0.3171 -0.0283
 5752SOL     OW28891   3.374   1.701   9.607 -0.1605 -0.0275 -0.5574
 5752SOL    HW128892   3.399   1.793   9.601  0.2288 -0.0584  0.5601
 5752SOL    HW228893   3.366   1.660   9.521 -0.3624 -2.1199  0.4602
 5753SOL     OW28894   2.202   3.738  13.134  0.0642  0.1235  0.1408
 5753SOL    HW128895   2.142   3.801  13.174  0.8002  0.5991  0.4931
 5753SOL    HW228896   2.212   3.770  13.044 -0.8433 -0.4412 -0.1600
 5754SOL     OW28897   3.663   3.908   2.762 -0.3696  0.7688 -0.3753
 5754SOL    HW128898   3.747   3.936   2.797 -0.5637 -0.8174  1.3572
 5754SOL    HW228899   3.639   3.989   2.717  3.0682  2.5940  1.0917
 5755SOL     OW28900   3.733   2.501   6.264 -0.3825 -0.0590 -0.8887
 5755SOL    HW128901   3.786   2.510   6.344  0.7709  3.1335 -1.9937
 5755SOL    HW228902   3.766   2.416   6.236  1.5615  0.7036 -0.9413
 5756SOL     OW28903   4.507   0.686  10.634  0.3963  0.7034  0.3602
 5756SOL    HW128904   4.586   0.728  10.600 -0.9038  1.7923 -1.3102
 5756SOL    HW228905   4.526   0.702  10.727 -0.5042  0.4189  0.6013
 5757SOL     OW28906   0.738   2.339   4.552 -0.0632 -0.0728  0.1545
 5757SOL    HW128907   0.707   2.428   4.538 -1.9322 -0.5688  1.1341
 5757SOL    HW228908   0.705   2.326   4.641  2.2777  0.3508  1.0726
 5758SOL     OW28909   3.058   1.012   8.659  0.1151 -0.1367  0.3672
 5758SOL    HW128910   3.023   1.069   8.727 -0.1332 -1.5831  1.4414
 5758SOL    HW228911   2.976   0.972   8.631 -0.4689  1.8080 -0.6999
 5759SOL     OW28912   4.658   4.173  15.928  0.5867 -0.1237  0.0741
 5759SOL    HW128913   4.715   4.224  15.870 -0.6488  1.7887  0.5428
 5759SOL    HW228914   4.693   4.084  15.933  0.4645 -0.0980  1.2840
 5760SOL     OW28915   1.064   1.230   5.158  0.0859 -0.0161  0.6488
 5760SOL    HW128916   1.133   1.217   5.093  2.1339  0.8199  2.6526
 5760SOL    HW228917   1.034   1.141   5.176  0.2752 -0.2032  0.0526
 5761SOL     OW28918   1.396   4.007   9.624  0.1926 -0.0807 -0.3904
 5761SOL    HW128919   1.373   4.044   9.709  0.6650 -1.5172  0.3533
 5761SOL    HW228920   1.316   4.013   9.572 -1.0912  0.9727  1.7392
 5762SOL     OW28921   3.550   2.895   7.067 -0.1226 -0.0446 -0.0588
 5762SOL    HW128922   3.492   2.873   7.140  1.4855  0.4404  1.3419
 5762SOL    HW228923   3.611   2.822   7.069 -1.2195 -1.0123 -1.4920
 5763SOL     OW28924   1.362   0.909   4.720  0.0967  0.2440 -0.4281
 5763SOL    HW128925   1.357   0.869   4.633  2.2548 -0.5142 -0.1928
 5763SOL    HW228926   1.356   1.002   4.698 -0.2227 -0.3927 -3.0395
 5764SOL     OW28927   3.484   0.283   8.273  0.3163  0.1401 -0.4398
 5764SOL    HW128928   3.566   0.321   8.239  1.9511 -0.3674  2.9494
 5764SOL    HW228929   3.524   0.210   8.320  3.4998  1.2844 -1.3390
 5765SOL     OW28930   1.027   1.224  10.920 -0.3523  0.5706  0.1594
 5765SOL    HW128931   0.935   1.225  10.945 -0.3213 -0.5951  0.2890
 5765SOL    HW228932   1.073   1.155  10.968  0.6930 -0.7900 -2.8124
 5766SOL     OW28933   3.417   3.570   6.907 -0.1458  0.0532  0.7270
 5766SOL    HW128934   3.506   3.598   6.887 -0.0788  0.5732  1.7928
 5766SOL    HW228935   3.437   3.534   6.993 -1.9032 -5.1884 -1.0919
 5767SOL     OW28936   4.530   4.304  16.114 -0.5774 -0.3589 -0.3007
 5767SOL    HW128937   4.574   4.385  16.088 -0.0716  0.0824  1.9848
 5767SOL    HW228938   4.578   4.247  16.053 -0.7706  0.3535 -1.1287
 5768SOL     OW28939   0.033   3.629  15.882 -0.3157  0.3306 -0.3070
 5768SOL    HW128940   4.685   3.677  15.889 -0.7859 -0.1655 -2.3316
 5768SOL    HW228941   0.006   3.557  15.938 -0.5593 -0.8211 -1.8863
 5769SOL     OW28942   0.057   2.522   2.962  0.4071  0.3042 -0.2454
 5769SOL    HW128943   0.103   2.438   2.965 -0.6222 -0.2645 -0.3141
 5769SOL    HW228944   4.709   2.486   2.995 -0.5210  1.3547 -1.4351
 5770SOL     OW28945   2.951   1.454  17.425  0.4812 -0.2943  0.1615
 5770SOL    HW128946   2.993   1.466  17.340 -1.0094  1.0779 -0.3791
 5770SOL    HW228947   3.025   1.463  17.485  0.3110 -1.6011  0.5636
 5771SOL     OW28948   0.929   1.726   7.512 -0.0952 -0.1494  0.5682
 5771SOL    HW128949   0.895   1.724   7.602 -1.5784  1.1578  0.0476
 5771SOL    HW228950   0.859   1.679   7.466  0.3012  1.1474 -1.3421
 5772SOL     OW28951   3.463   4.417   9.431  0.1893 -0.4208  0.0581
 5772SOL    HW128952   3.427   4.456   9.510  1.0058  1.8943 -0.7243
 5772SOL    HW228953   3.421   4.331   9.422  1.4967 -1.1961  1.3124
 5773SOL     OW28954   4.000   1.786   8.254  0.7179 -0.1298 -0.2003
 5773SOL    HW128955   4.049   1.826   8.326  0.4432  0.1119 -0.1501
 5773SOL    HW228956   3.945   1.728   8.306  0.9439  0.5395  0.7912
 5774SOL     OW28957   3.225   0.817   8.728  0.2769 -0.2764  0.7568
 5774SOL    HW128958   3.148   0.760   8.723  0.0213  0.2892 -1.5566
 5774SOL    HW228959   3.182   0.896   8.694 -1.3523 -0.9385  1.2653
 5775SOL     OW28960   1.299   1.261   5.961 -0.1186 -0.1690 -0.6303
 5775SOL    HW128961   1.310   1.236   5.870  1.0525  1.7990 -1.0353
 5775SOL    HW228962   1.369   1.209   6.000 -0.1031  1.1051  1.0828
 5776SOL     OW28963   2.021   2.339   9.154  0.1725  0.3116 -0.2781
 5776SOL    HW128964   1.932   2.367   9.134  0.2599  1.9972  1.6656
 5776SOL    HW228965   2.022   2.332   9.249  0.8385  1.4378 -0.1932
 5777SOL     OW28966   0.857   4.658   9.687 -0.6210 -0.1904  0.5152
 5777SOL    HW128967   0.801   4.586   9.655 -0.1884 -0.4301  0.2941
 5777SOL    HW228968   0.874   4.712   9.611 -1.9819  0.9224  1.0015
 5778SOL     OW28969   0.691   2.122   1.417 -0.0275 -1.0415 -0.6826
 5778SOL    HW128970   0.652   2.209   1.424  0.9846 -0.7056  0.7901
 5778SOL    HW228971   0.751   2.116   1.492 -1.1836  0.8752  0.3984
 5779SOL     OW28972   2.957   3.259   1.164  0.1567  0.0103  0.0293
 5779SOL    HW128973   2.864   3.254   1.187  0.1421 -0.6259 -0.1610
 5779SOL    HW228974   2.961   3.354   1.156  1.4900 -0.0252  0.4105
 5780SOL     OW28975   1.989   2.933   3.110 -0.3710  0.1749 -0.5534
 5780SOL    HW128976   1.931   2.979   3.171 -1.0577 -1.4597  0.0436
 5780SOL    HW228977   2.071   2.926   3.158 -0.8811  3.0643  0.7142
 5781SOL     OW28978   2.498   2.748  13.818  0.0693 -0.3119 -0.4623
 5781SOL    HW128979   2.413   2.756  13.860  0.6769 -0.8444  0.8702
 5781SOL    HW228980   2.495   2.653  13.807 -3.6314 -0.1429 -0.9564
 5782SOL     OW28981   2.771   3.542   9.757 -0.4233  0.1810 -0.3610
 5782SOL    HW128982   2.716   3.543   9.835 -0.1593  3.0596 -0.2477
 5782SOL    HW228983   2.859   3.561   9.787  0.1480 -0.1954 -1.7982
 5783SOL     OW28984   4.217   3.212   8.340  0.5652  0.0716 -0.0738
 5783SOL    HW128985   4.183   3.147   8.278 -0.4291  1.7854 -1.3046
 5783SOL    HW228986   4.310   3.188   8.344  0.5657  0.1817  0.6238
 5784SOL     OW28987   0.290   2.357   8.448 -0.5226  0.1759 -0.2441
 5784SOL    HW128988   0.283   2.296   8.375 -1.1615 -1.3324  1.1001
 5784SOL    HW228989   0.225   2.421   8.417  2.8148  2.3767 -2.6148
 5785SOL     OW28990   1.663   0.291   5.572  0.1570 -0.1905  0.1006
 5785SOL    HW128991   1.722   0.245   5.630  0.4692 -1.1867 -1.0161
 5785SOL    HW228992   1.622   0.219   5.524 -0.0115 -0.4969  0.6981
 5786SOL     OW28993   1.590   1.272   3.756 -0.2694 -0.1127  0.5555
 5786SOL    HW128994   1.621   1.362   3.757  0.7831 -0.4768  0.3299
 5786SOL    HW228995   1.675   1.230   3.741  0.7862  1.1826  2.9923
 5787SOL     OW28996   4.227   0.246  16.768  0.1013 -0.1566  0.1400
 5787SOL    HW128997   4.228   0.250  16.672 -1.8347  0.5699  0.1527
 5787SOL    HW228998   4.293   0.181  16.792  0.3744  0.1130  0.1278
 5788SOL     OW28999   4.593   1.194   6.594 -0.4112  0.0179 -0.4065
 5788SOL    HW129000   4.604   1.270   6.651 -1.0978 -0.4016  0.2948
 5788SOL    HW229001   4.664   1.204   6.530 -0.8647 -2.5525 -1.2984
 5789SOL     OW29002   0.223   1.421   2.180  0.3435 -0.6332  0.1802
 5789SOL    HW129003   0.262   1.395   2.096  0.7296 -0.2310  0.2371
 5789SOL    HW229004   0.186   1.342   2.221 -2.3857  0.0543 -0.9207
 5790SOL     OW29005   0.110   1.701   2.843 -0.4064 -0.1066 -0.4402
 5790SOL    HW129006   0.024   1.683   2.883  0.3215 -0.9845  0.7344
 5790SOL    HW229007   0.165   1.723   2.918  1.2528 -1.0788 -1.3816
 5791SOL     OW29008   1.475   3.263  16.830 -0.7087 -0.1472 -0.9505
 5791SOL    HW129009   1.565   3.234  16.849  0.0848  1.3128 -2.4540
 5791SOL    HW229010   1.502   3.315  16.754  1.0155  1.7048  0.9146
 5792SOL     OW29011   3.182   2.313   8.886 -0.8652 -1.2189  0.1308
 5792SOL    HW129012   3.264   2.323   8.837 -1.5600  1.3872 -0.4885
 5792SOL    HW229013   3.184   2.397   8.932 -2.1751 -0.4275 -1.2641
 5793SOL     OW29014   0.850   4.256   4.171 -0.5024  0.5379 -0.1497
 5793SOL    HW129015   0.827   4.227   4.083  1.2662  1.8231 -1.0211
 5793SOL    HW229016   0.904   4.329   4.141  2.3412 -0.3033  2.8818
 5794SOL     OW29017   1.373   2.565   8.125  0.6742 -0.1793  0.3381
 5794SOL    HW129018   1.285   2.571   8.089  0.5122 -0.0722  0.7450
 5794SOL    HW229019   1.357   2.517   8.207  1.8855 -0.5363  0.3723
 5795SOL     OW29020   0.673   3.283   7.673 -0.2162 -0.2544  0.0963
 5795SOL    HW129021   0.762   3.254   7.653 -0.0780  0.8100 -0.7875
 5795SOL    HW229022   0.645   3.345   7.606  0.8962  3.6269  3.2391
 5796SOL     OW29023   1.918   4.357  10.338 -0.5408 -0.0153 -0.4053
 5796SOL    HW129024   1.985   4.357  10.269  0.1916 -0.5477  0.3148
 5796SOL    HW229025   1.862   4.412  10.282 -0.4544  1.8878  1.3742
 5797SOL     OW29026   3.339   1.064   6.733  0.1648  0.5460 -0.4367
 5797SOL    HW129027   3.357   1.118   6.810  1.0456  0.8739 -0.8686
 5797SOL    HW229028   3.307   1.132   6.674  0.0818 -2.6495 -4.0238
 5798SOL     OW29029   1.139   2.643   5.745  0.6364  0.7346  0.1657
 5798SOL    HW129030   1.150   2.731   5.711  1.5774  0.7001  0.3515
 5798SOL    HW229031   1.058   2.645   5.796  1.1359 -4.7344  1.2525
 5799SOL     OW29032   4.307   2.143  11.662  0.0696 -0.2607 -0.3170
 5799SOL    HW129033   4.227   2.191  11.680  0.2099  0.0540 -0.5215
 5799SOL    HW229034   4.278   2.054  11.643 -0.1371 -0.2235 -0.1793
 5800SOL     OW29035   1.825   3.445  16.160  0.6900  0.0832 -0.0251
 5800SOL    HW129036   1.818   3.494  16.242 -2.3334  1.0864 -0.8621
 5800SOL    HW229037   1.734   3.444  16.129  0.9689 -2.6296 -0.7771
 5801SOL     OW29038   2.249   3.637   2.032  0.3449 -0.1735  0.0294
 5801SOL    HW129039   2.282   3.706   1.974  0.1003 -0.1396 -0.0697
 5801SOL    HW229040   2.290   3.653   2.117  0.4281  1.5772 -0.3379
 5802SOL     OW29041   1.257   3.188   7.155  0.6270  0.1568  0.5954
 5802SOL    HW129042   1.192   3.216   7.091  0.7613 -1.3896 -0.2144
 5802SOL    HW229043   1.254   3.093   7.140 -1.3498  1.1508 -5.2089
 5803SOL     OW29044   0.707   3.256   6.919  0.3253 -0.1550 -0.4353
 5803SOL    HW129045   0.678   3.180   6.869 -0.1307 -0.5295  0.4159
 5803SOL    HW229046   0.800   3.235   6.932 -0.8654 -3.3586  2.7317
 5804SOL     OW29047   4.339   1.179   2.215 -0.6669 -0.3096 -1.0741
 5804SOL    HW129048   4.352   1.086   2.235 -1.4706 -0.0084  0.8494
 5804SOL    HW229049   4.310   1.215   2.298  1.0346 -0.6349 -0.3440
 5805SOL     OW29050   0.096   0.324   0.967 -0.0761 -0.2885  0.3393
 5805SOL    HW129051   0.174   0.283   0.929 -0.0518  1.5483 -1.6039
 5805SOL    HW229052   0.117   0.323   1.061  1.4899 -0.8703 -0.0176
 5806SOL     OW29053   1.301   0.988  17.630 -0.4067  0.4438 -0.4379
 5806SOL    HW129054   1.305   1.067  17.684 -0.3030 -1.1359  1.8730
 5806SOL    HW229055   1.389   0.951  17.644 -1.1759 -0.8584  0.9688
 5807SOL     OW29056   1.190   2.292   4.351  0.7323 -0.1577  0.0439
 5807SOL    HW129057   1.232   2.366   4.307  0.3480 -0.9993 -1.7197
 5807SOL    HW229058   1.212   2.230   4.282 -2.7597  0.3383 -1.5197
 5808SOL     OW29059   4.260   1.424  11.560 -0.6525 -0.2717 -0.2442
 5808SOL    HW129060   4.276   1.356  11.626  0.2714  0.8889  0.7187
 5808SOL    HW229061   4.331   1.485  11.578 -0.2190 -0.5854 -0.8513
 5809SOL     OW29062   2.777   2.184  15.025 -0.0926  0.4173 -0.4638
 5809SOL    HW129063   2.786   2.257  15.086 -0.0985  1.3047 -1.5138
 5809SOL    HW229064   2.864   2.175  14.986 -0.6729  0.0672 -1.6835
 5810SOL     OW29065   4.618   0.262   0.377  0.0152  0.1507 -0.0435
 5810SOL    HW129066   4.703   0.224   0.354  1.0556  2.7338 -0.3748
 5810SOL    HW229067   4.648   0.353   0.377 -0.9100  0.4372 -1.7903
 5811SOL     OW29068   1.594   0.308   8.363  0.5411  0.6379 -0.4308
 5811SOL    HW129069   1.551   0.373   8.420  1.0842  0.3447  0.3216
 5811SOL    HW229070   1.541   0.230   8.380 -1.8705  2.2433 -0.6052
 5812SOL     OW29071   2.496   1.888  16.238 -0.3923 -0.6006  0.2573
 5812SOL    HW129072   2.516   1.882  16.331  2.9929  2.0853 -0.2781
 5812SOL    HW229073   2.423   1.950  16.238  0.9255  0.9397  0.8691
 5813SOL     OW29074   1.724   3.387   3.057  0.5054  0.1794 -0.1654
 5813SOL    HW129075   1.782   3.332   3.004 -3.0305 -2.7225 -1.1142
 5813SOL    HW229076   1.649   3.327   3.057  1.3025 -0.8284  0.8066
 5814SOL     OW29077   1.529   0.911   5.621  0.1113 -0.3390 -0.3868
 5814SOL    HW129078   1.543   0.866   5.538 -1.0137 -3.3795  1.0252
 5814SOL    HW229079   1.523   0.837   5.682 -1.4876  0.7548  0.8108
 5815SOL     OW29080   3.977   1.033   0.534  0.7686 -0.1315  0.0450
 5815SOL    HW129081   3.990   0.948   0.576  0.1180 -0.9405 -1.3786
 5815SOL    HW229082   3.980   0.997   0.445  1.0019  2.4536 -0.9726
 5816SOL     OW29083   0.665   3.449   8.179  0.2834 -0.3510 -0.3082
 5816SOL    HW129084   0.627   3.422   8.095  0.7810  0.0644 -0.6664
 5816SOL    HW229085   0.598   3.513   8.202 -1.7391 -1.3235 -3.4433
 5817SOL     OW29086   2.553   3.324   2.256  0.0611  0.1433  0.4520
 5817SOL    HW129087   2.588   3.303   2.169 -1.7781 -0.4851 -0.1534
 5817SOL    HW229088   2.586   3.243   2.295  0.3195  0.0071 -0.0434
 5818SOL     OW29089   4.176   3.908   3.511 -0.4560 -0.1075 -0.5701
 5818SOL    HW129090   4.192   3.849   3.584 -3.6332 -0.2777 -0.0037
 5818SOL    HW229091   4.239   3.869   3.450  1.6595  0.9384  0.9422
 5819SOL     OW29092   4.698   3.888  15.664  0.3813 -0.2280 -0.2351
 5819SOL    HW129093   4.651   3.858  15.742 -0.2160 -0.5132 -0.7045
 5819SOL    HW229094   4.643   3.852  15.594 -2.0716  2.5965  0.2021
 5820SOL     OW29095   0.957   1.108   4.028 -0.2405 -0.2355 -0.3292
 5820SOL    HW129096   0.957   1.096   3.933  0.2467  1.1575 -0.5019
 5820SOL    HW229097   0.863   1.124   4.039  0.0206  0.5023  0.8472
 5821SOL     OW29098   3.365   1.361   8.084  0.4512  0.3710 -0.3807
 5821SOL    HW129099   3.309   1.376   8.007 -0.5608 -0.6494  0.1665
 5821SOL    HW229100   3.311   1.405   8.150  2.8467  2.2378  0.3342
 5822SOL     OW29101   3.511   3.641   4.993  0.2526 -0.3544 -0.1314
 5822SOL    HW129102   3.426   3.618   5.029  0.4332 -0.8485 -0.0125
 5822SOL    HW229103   3.566   3.665   5.068  0.9398  0.1573 -0.7941
 5823SOL     OW29104   1.029   0.441  11.762 -0.0951  0.3331 -0.0567
 5823SOL    HW129105   1.000   0.420  11.850 -2.0435  1.8215 -0.3361
 5823SOL    HW229106   1.072   0.358  11.741 -0.2411  0.0035  0.9681
 5824SOL     OW29107   0.474   2.735   7.083  0.3946  0.3007 -0.9990
 5824SOL    HW129108   0.540   2.803   7.070  1.5897 -0.7929 -0.6337
 5824SOL    HW229109   0.524   2.653   7.085  0.6049  0.4472 -0.3293
 5825SOL     OW29110   3.500   2.695   9.173 -0.0962 -1.1617  0.2480
 5825SOL    HW129111   3.528   2.604   9.169  0.8769 -0.8854  0.8800
 5825SOL    HW229112   3.540   2.722   9.256  1.3911  0.3114 -0.9520
 5826SOL     OW29113   1.510   2.462   9.721  0.6741 -0.0029 -0.3965
 5826SOL    HW129114   1.513   2.549   9.680 -1.1539 -0.3180 -1.1851
 5826SOL    HW229115   1.572   2.479   9.793  0.6486  3.1199 -1.0772
 5827SOL     OW29116   3.336   3.025   8.301  0.2115 -0.2644  0.2789
 5827SOL    HW129117   3.410   3.020   8.241 -0.6052  2.1018 -0.9414
 5827SOL    HW229118   3.261   3.024   8.241  0.8177  3.1328 -0.5036
 5828SOL     OW29119   2.050   1.207   6.484  0.6020 -0.1153 -1.0137
 5828SOL    HW129120   1.981   1.147   6.508  1.4627 -0.7621 -0.1504
 5828SOL    HW229121   2.034   1.287   6.534 -1.1174 -0.1582 -1.5274
 5829SOL     OW29122   0.422   0.534   6.922  0.2550 -0.2398  0.7651
 5829SOL    HW129123   0.334   0.496   6.930 -1.3065  3.4817  1.0140
 5829SOL    HW229124   0.409   0.625   6.946  0.7177  0.2662 -0.8788
 5830SOL     OW29125   4.324   1.879   7.016 -0.3143 -0.1108  0.1456
 5830SOL    HW129126   4.384   1.949   7.041  2.2243 -2.1748 -0.0958
 5830SOL    HW229127   4.352   1.810   7.076  0.1604  0.5977  0.7368
 5831SOL     OW29128   4.623   2.183   5.506 -0.6050  0.1087  0.3338
 5831SOL    HW129129   4.714   2.155   5.515 -0.9149 -0.6622  1.0967
 5831SOL    HW229130   4.619   2.256   5.568 -3.2059 -0.2675  0.5733
 5832SOL     OW29131   4.420   2.499   9.665 -0.0855  0.5240  0.2592
 5832SOL    HW129132   4.508   2.509   9.701  0.2840  0.2778 -0.5801
 5832SOL    HW229133   4.376   2.503   9.750 -1.8950 -1.3269 -0.5929
 5833SOL     OW29134   1.169   0.357   0.708  0.5097 -0.2077 -0.3155
 5833SOL    HW129135   1.174   0.264   0.731 -1.8020  0.0767  1.3626
 5833SOL    HW229136   1.200   0.357   0.618  1.3538 -0.6096 -0.0336
 5834SOL     OW29137   0.739   2.408   0.266  0.6858  0.0837  0.4548
 5834SOL    HW129138   0.824   2.392   0.225 -0.1794  0.6003 -1.5368
 5834SOL    HW229139   0.743   2.418   0.361 -2.4340 -0.6999  0.6525
 5835SOL     OW29140   3.500   3.981  12.778  0.3414  0.4378  0.0829
 5835SOL    HW129141   3.540   4.026  12.704 -0.0219 -3.2522 -2.3532
 5835SOL    HW229142   3.459   4.052  12.826 -0.8339  0.8679 -1.5593
 5836SOL     OW29143   3.375   2.008   5.075  0.1286  0.7088 -0.0660
 5836SOL    HW129144   3.370   2.103   5.064 -1.4328  0.7633  1.2131
 5836SOL    HW229145   3.366   1.978   4.984 -0.1693  0.0696  0.1777
 5837SOL     OW29146   1.617   4.524  15.941  0.0999  0.3560 -0.6940
 5837SOL    HW129147   1.677   4.503  15.870  2.0497  0.2999  0.9745
 5837SOL    HW229148   1.585   4.608  15.908 -0.3555  0.8794  1.0558
 5838SOL     OW29149   1.863   1.439   2.336 -0.3001  0.1879  0.4569
 5838SOL    HW129150   1.953   1.447   2.366 -0.8545  1.6740  1.7222
 5838SOL    HW229151   1.811   1.482   2.405  0.1476  0.9325  0.3192
 5839SOL     OW29152   4.502   1.053   7.282  0.0224 -0.6347 -0.3852
 5839SOL    HW129153   4.565   0.981   7.275  0.6322 -0.0975 -0.4482
 5839SOL    HW229154   4.423   1.010   7.315  0.4875 -1.3248 -0.1542
 5840SOL     OW29155   4.306   4.580  10.392 -0.5264  0.4036 -0.1248
 5840SOL    HW129156   4.252   4.601  10.316  1.3375 -1.0989 -1.8645
 5840SOL    HW229157   4.246   4.516  10.430 -0.6029 -1.0712 -2.7948
 5841SOL     OW29158   3.996   3.523   2.174  0.1611  0.0629 -0.3987
 5841SOL    HW129159   4.015   3.558   2.086  1.5845 -0.0794 -0.1462
 5841SOL    HW229160   4.081   3.543   2.213 -0.0349  1.7076 -0.8207
 5842SOL     OW29161   1.991   2.924   4.102  0.2411 -0.1613 -0.3585
 5842SOL    HW129162   2.014   3.015   4.118  3.5176 -1.1071  0.4609
 5842SOL    HW229163   1.898   2.928   4.123 -0.3545  0.6242 -3.0945
 5843SOL     OW29164   0.632   0.388   2.664  0.5383 -0.2446  0.0635
 5843SOL    HW129165   0.539   0.384   2.644  0.2868  0.8692  0.9802
 5843SOL    HW229166   0.663   0.444   2.593 -0.0562  0.4817  0.3718
 5844SOL     OW29167   2.022   3.596   8.511 -0.0750  0.5813 -0.3601
 5844SOL    HW129168   2.049   3.593   8.419 -1.8426  0.8109 -0.8829
 5844SOL    HW229169   1.978   3.513   8.526 -1.4839  1.0081 -2.0601
 5845SOL     OW29170   0.216   0.349   4.884 -0.3937  0.4587 -0.1271
 5845SOL    HW129171   0.238   0.392   4.801  0.2027  0.5849  0.0934
 5845SOL    HW229172   0.181   0.265   4.853 -0.8554  0.4943  0.3107
 5846SOL     OW29173   1.373   1.368   6.994 -0.0355 -0.0600  0.3501
 5846SOL    HW129174   1.410   1.413   6.918  1.3828  0.5986  1.4309
 5846SOL    HW229175   1.335   1.289   6.955  0.9287 -0.5867  0.4870
 5847SOL     OW29176   0.129   3.616   7.122 -0.0001  0.2536  0.3791
 5847SOL    HW129177   0.075   3.666   7.184 -0.7359 -0.7514  0.5535
 5847SOL    HW229178   0.219   3.642   7.141  0.6786 -1.5963 -0.3784
 5848SOL     OW29179   2.420   0.449  10.309 -0.3888 -0.3967 -0.9144
 5848SOL    HW129180   2.328   0.426  10.299 -0.3000 -0.5713 -1.3214
 5848SOL    HW229181   2.454   0.402  10.386  1.2584  0.3359 -1.1985
 5849SOL     OW29182   4.476   1.698   8.590  0.3220  0.2142  0.4789
 5849SOL    HW129183   4.520   1.755   8.653  0.9884  0.6972 -0.4267
 5849SOL    HW229184   4.529   1.618   8.596 -0.0047 -0.3032 -3.8797
 5850SOL     OW29185   3.726   1.117   4.435 -0.5879 -0.1462  0.2700
 5850SOL    HW129186   3.748   1.209   4.425 -0.1960 -0.3590 -0.8539
 5850SOL    HW229187   3.656   1.100   4.372 -0.4852  0.2711  0.0505
 5851SOL     OW29188   0.839   2.713   4.044 -0.1111  0.4476  0.2118
 5851SOL    HW129189   0.877   2.778   3.985 -0.5801  0.5223 -0.0096
 5851SOL    HW229190   0.758   2.762   4.054 -0.9541 -1.1213  1.0614
 5852SOL     OW29191   1.231   1.794  12.595 -0.7659 -0.0384  0.0198
 5852SOL    HW129192   1.321   1.819  12.619 -0.7503 -0.9494  0.9027
 5852SOL    HW229193   1.211   1.722  12.656 -0.5599 -0.7137 -0.7073
 5853SOL     OW29194   2.395   1.998   4.526 -0.3255 -0.0032 -0.2302
 5853SOL    HW129195   2.317   1.978   4.475 -0.7120  3.3044 -0.9087
 5853SOL    HW229196   2.367   2.080   4.565 -0.8227  0.7220 -2.1258
 5854SOL     OW29197   4.511   0.608   5.960  0.2971 -0.1490 -0.6199
 5854SOL    HW129198   4.469   0.643   5.882 -0.3754  0.2833 -0.0682
 5854SOL    HW229199   4.472   0.521   5.961 -0.9216  0.4135  0.6239
 5855SOL     OW29200   2.905   4.668  16.239  0.1541  0.0187 -0.1078
 5855SOL    HW129201   2.993   4.702  16.225  0.7396 -1.2150  0.5438
 5855SOL    HW229202   2.853   4.728  16.186 -0.8436  2.2837  3.4371
 5856SOL     OW29203   4.294   0.270   9.708  0.4257  0.8811  0.2782
 5856SOL    HW129204   4.382   0.237   9.692  0.3737  1.1118 -0.4907
 5856SOL    HW229205   4.252   0.220   9.638  2.1086  1.3928 -1.1048
 5857SOL     OW29206   4.029   1.905   7.795 -0.3892 -0.0810 -0.3093
 5857SOL    HW129207   4.088   1.874   7.727 -0.8401  1.4979 -1.4204
 5857SOL    HW229208   4.062   1.857   7.871 -1.1201 -1.4635 -0.8824
 5858SOL     OW29209   3.050   1.789  15.764 -0.1791  0.1281  0.1687
 5858SOL    HW129210   3.134   1.743  15.754 -1.0810 -1.4568 -0.0766
 5858SOL    HW229211   2.981   1.723  15.766 -1.7845  1.7385 -1.9751
 5859SOL     OW29212   4.130   0.456   4.841  0.1347  0.4020 -0.0752
 5859SOL    HW129213   4.066   0.397   4.881  1.0352 -0.9132 -0.5745
 5859SOL    HW229214   4.132   0.526   4.906 -2.9826  0.1995  0.2363
 5860SOL     OW29215   1.379   3.842  16.568 -0.1613  0.1119  0.5450
 5860SOL    HW129216   1.390   3.891  16.649 -0.8814  2.9198 -1.0584
 5860SOL    HW229217   1.307   3.779  16.575 -1.3862  1.3569 -1.0167
 5861SOL     OW29218   1.525   2.178  13.378  0.1091  0.5012  0.5317
 5861SOL    HW129219   1.491   2.117  13.444  0.4583 -0.5699 -0.2850
 5861SOL    HW229220   1.457   2.210  13.319  1.2662  1.1023 -0.4679
 5862SOL     OW29221   3.958   2.032   6.197 -0.5743 -0.0089  0.2410
 5862SOL    HW129222   3.978   2.044   6.290 -0.1823 -1.3229  0.3274
 5862SOL    HW229223   3.896   1.961   6.205 -0.5332 -0.0157  0.5185
 5863SOL     OW29224   3.184   1.364  13.927  0.3690  0.0788  0.2218
 5863SOL    HW129225   3.242   1.401  13.994 -0.5298  0.4846  0.7806
 5863SOL    HW229226   3.242   1.356  13.851  0.8457 -0.3213  0.6270
 5864SOL     OW29227   0.544   1.958   5.917  0.3929  0.3599  0.6862
 5864SOL    HW129228   0.524   1.870   5.949  0.8599 -0.3984 -1.0787
 5864SOL    HW229229   0.457   1.972   5.880  0.7808  4.0143  1.1540
 5865SOL     OW29230   0.586   2.869   0.967 -0.0703 -0.1974 -0.0764
 5865SOL    HW129231   0.681   2.859   0.972 -0.2550 -1.8333  0.1170
 5865SOL    HW229232   0.554   2.800   0.909  0.5480  0.8482 -1.6468
 5866SOL     OW29233   2.580   2.946   4.018 -0.2026  0.5261  0.5217
 5866SOL    HW129234   2.592   2.852   4.003 -0.4390  0.1825  2.5632
 5866SOL    HW229235   2.528   2.974   3.942  1.1997 -0.6375 -0.8588
 5867SOL     OW29236   4.004   1.364   6.802  0.1943 -0.0020 -0.0178
 5867SOL    HW129237   4.026   1.342   6.712  1.3474  0.8855  0.0493
 5867SOL    HW229238   3.939   1.297   6.824  1.4271 -0.9294  0.7705
 5868SOL     OW29239   3.374   4.465   1.242 -0.0732 -0.7987  0.1179
 5868SOL    HW129240   3.391   4.371   1.239  3.9500 -0.0908  0.4951
 5868SOL    HW229241   3.327   4.478   1.325 -1.4176 -0.3557 -0.7123
 5869SOL     OW29242   1.790   2.046   2.762 -0.5805 -0.0160 -0.0644
 5869SOL    HW129243   1.699   2.050   2.733  0.2170  0.1367 -2.5863
 5869SOL    HW229244   1.824   2.016   2.677 -1.9033  0.5726 -0.7839
 5870SOL     OW29245   0.822   1.717  17.073  0.1173 -0.0358  0.1154
 5870SOL    HW129246   0.750   1.661  17.101  0.9871 -0.3712  1.6871
 5870SOL    HW229247   0.868   1.649  17.024  1.0531  0.7261 -0.0673
 5871SOL     OW29248   0.421   3.166   2.507  0.1529 -0.2678  0.5133
 5871SOL    HW129249   0.464   3.207   2.432 -4.2865  1.8936 -0.8585
 5871SOL    HW229250   0.484   3.184   2.577  2.1857 -1.6768 -0.9625
 5872SOL     OW29251   3.363   4.371  16.268  0.2880 -0.1238 -0.0392
 5872SOL    HW129252   3.333   4.445  16.215  0.3197 -0.9584 -1.2169
 5872SOL    HW229253   3.316   4.303  16.220 -0.3920  0.6891 -0.5303
 5873SOL     OW29254   2.141   3.139   7.136  0.3594 -0.0988  0.1839
 5873SOL    HW129255   2.208   3.207   7.143  0.6777 -0.5442  1.5555
 5873SOL    HW229256   2.104   3.166   7.053  0.1915  0.8449  0.5626
 5874SOL     OW29257   3.368   3.313   7.317 -0.1429  0.0315  0.0682
 5874SOL    HW129258   3.289   3.327   7.265  0.2665  2.5094  0.1421
 5874SOL    HW229259   3.373   3.394   7.367  0.2605 -0.4708  0.8522
 5875SOL     OW29260   1.046   1.193   6.966  0.7932  0.0632 -0.1685
 5875SOL    HW129261   1.011   1.274   6.927 -0.6168 -1.0126 -1.1246
 5875SOL    HW229262   1.097   1.167   6.889  0.4237 -0.0518 -0.3702
 5876SOL     OW29263   0.111   2.914  17.228 -0.5352 -0.1537 -0.4946
 5876SOL    HW129264   0.200   2.901  17.196 -0.4418  1.1870 -0.7879
 5876SOL    HW229265   0.086   2.984  17.167 -1.6346  1.9884  2.3668
 5877SOL     OW29266   4.041   0.589   7.902 -0.4405  0.7593  0.9195
 5877SOL    HW129267   4.068   0.499   7.922  0.2628  0.7213 -0.1997
 5877SOL    HW229268   4.091   0.604   7.821  0.8590 -1.7512  1.2679
 5878SOL     OW29269   3.865   0.312   9.696 -0.1899  0.1948  0.1722
 5878SOL    HW129270   3.780   0.269   9.687 -0.0859  0.2156 -0.9455
 5878SOL    HW229271   3.843   0.383   9.636  2.1717  1.2203  0.4955
 5879SOL     OW29272   4.591   1.072   2.058  0.2110 -0.3679  0.0819
 5879SOL    HW129273   4.601   1.134   2.130 -1.7658  1.8629 -1.5286
 5879SOL    HW229274   4.640   0.992   2.074  1.0427  0.3979  1.3881
 5880SOL     OW29275   0.872   1.308   5.862 -0.2258 -0.0926 -0.1586
 5880SOL    HW129276   0.868   1.324   5.956  1.0694  0.8780 -0.2644
 5880SOL    HW229277   0.778   1.300   5.849 -0.2351 -1.0224  0.5196
 5881SOL     OW29278   0.622   1.496   1.887  0.1532 -0.2507 -0.0162
 5881SOL    HW129279   0.581   1.562   1.832  2.2751 -0.0048 -1.3220
 5881SOL    HW229280   0.694   1.551   1.917 -0.2056  0.1993  0.0168
 5882SOL     OW29281   2.253   3.068   5.139 -0.0237  0.1500  0.1638
 5882SOL    HW129282   2.230   3.137   5.077 -2.9046 -0.0569  0.9598
 5882SOL    HW229283   2.198   2.996   5.107  0.1153  0.7035 -1.3095
 5883SOL     OW29284   3.273   2.112   2.923 -0.2998 -0.1642 -0.6011
 5883SOL    HW129285   3.288   2.154   2.839 -0.4410 -0.6676 -0.8771
 5883SOL    HW229286   3.289   2.178   2.991 -2.0639 -1.0721  0.7248
 5884SOL     OW29287   0.547   2.755   2.961 -0.2126 -1.1313 -0.8534
 5884SOL    HW129288   0.519   2.815   3.030  2.7154 -0.1999 -0.4687
 5884SOL    HW229289   0.530   2.803   2.879 -0.8387 -2.6394 -1.5964
 5885SOL     OW29290   4.193   2.633   3.116  0.3584 -0.1701 -0.0507
 5885SOL    HW129291   4.164   2.579   3.042 -0.1306 -0.0709  0.0664
 5885SOL    HW229292   4.205   2.575   3.191 -1.4647 -1.9439 -1.1174
 5886SOL     OW29293   3.312   4.670   6.046  0.3786  0.5664 -0.4226
 5886SOL    HW129294   3.221   4.681   6.020  0.5764  1.4396 -0.7569
 5886SOL    HW229295   3.299   4.634   6.134  0.6285  1.2993 -0.0803
 5887SOL     OW29296   4.520   0.884   8.199 -0.1186 -0.2488 -0.5394
 5887SOL    HW129297   4.438   0.882   8.150  0.8168 -0.6077 -2.1297
 5887SOL    HW229298   4.561   0.801   8.173  0.3685 -0.1431 -0.0992
 5888SOL     OW29299   3.744   2.191   3.448  0.2758 -0.4633 -0.1721
 5888SOL    HW129300   3.820   2.242   3.474  0.1063  0.4705 -1.4967
 5888SOL    HW229301   3.700   2.170   3.530 -0.5030  1.0714 -0.2023
 5889SOL     OW29302   3.418   2.512  17.272 -0.4691 -0.2074 -0.9938
 5889SOL    HW129303   3.404   2.517  17.178  1.4823 -1.4917 -1.3697
 5889SOL    HW229304   3.501   2.561  17.269 -0.0159 -0.8677  0.7726
 5890SOL     OW29305   2.466   1.320   1.910  0.5809  0.2170  0.6353
 5890SOL    HW129306   2.372   1.318   1.891  0.4569  2.2110  1.0173
 5890SOL    HW229307   2.477   1.415   1.920  2.1905  0.0494  0.4822
 5891SOL     OW29308   3.336   0.036  13.825 -0.2935  0.4336 -0.3516
 5891SOL    HW129309   3.348   4.687  13.780 -0.5314 -0.0820  0.5549
 5891SOL    HW229310   3.300   0.008  13.909  1.4573  1.2032  0.6729
 5892SOL     OW29311   1.251   4.349   7.614 -0.2640 -0.5885 -0.1627
 5892SOL    HW129312   1.224   4.371   7.525  2.8499  0.6349 -0.8050
 5892SOL    HW229313   1.346   4.354   7.604 -0.4868  2.1289 -0.9026
 5893SOL     OW29314   0.620   3.835   1.406  0.1873 -0.2443  0.2999
 5893SOL    HW129315   0.548   3.775   1.389  0.6352 -0.9214  0.8086
 5893SOL    HW229316   0.621   3.881   1.322  0.8742  0.3604  0.6299
 5894SOL     OW29317   4.429   1.204   4.687  0.8780 -0.1432  0.1811
 5894SOL    HW129318   4.521   1.177   4.683  1.7982  2.7852  1.7583
 5894SOL    HW229319   4.391   1.165   4.608  1.6012 -2.1625  0.8225
 5895SOL     OW29320   0.144   4.086  13.585 -0.0308  0.3087  0.7599
 5895SOL    HW129321   0.146   4.072  13.679 -0.2880 -0.5023  0.6417
 5895SOL    HW229322   0.065   4.139  13.574 -0.5458 -0.6362 -0.0430
 5896SOL     OW29323   4.647   0.159  14.931 -0.4995 -0.1094 -0.0111
 5896SOL    HW129324   4.621   0.175  14.840  1.0832 -0.2940 -0.4961
 5896SOL    HW229325   4.650   0.251  14.957 -4.4357  0.4467 -1.4416
 5897SOL     OW29326   4.633   1.844   4.719 -0.5829 -0.0168 -0.6970
 5897SOL    HW129327   4.653   1.762   4.764  0.4036 -0.3082 -1.6478
 5897SOL    HW229328   4.662   1.817   4.632  2.1363  0.3576  0.0929
 5898SOL     OW29329   3.449   2.308   6.994  0.4345  0.1376  0.0214
 5898SOL    HW129330   3.477   2.380   6.938  0.6914 -1.9644 -2.5228
 5898SOL    HW229331   3.532   2.287   7.036  0.3227 -0.7026 -0.1762
 5899SOL     OW29332   2.313   1.027   5.812  0.0361  0.4787 -0.2173
 5899SOL    HW129333   2.268   0.966   5.870  0.4843 -1.5845 -2.0511
 5899SOL    HW229334   2.405   1.006   5.830 -0.4202 -2.3875 -1.1186
 5900SOL     OW29335   4.066   0.762   8.407 -0.8001  0.3566  0.4179
 5900SOL    HW129336   4.097   0.739   8.319 -0.8485  0.4436  0.3785
 5900SOL    HW229337   4.142   0.803   8.449 -3.2126  2.9883  2.1527
 5901SOL     OW29338   1.341   3.399  13.723 -0.1272  0.5394  0.3057
 5901SOL    HW129339   1.358   3.458  13.796 -1.8856  2.8216 -1.1426
 5901SOL    HW229340   1.271   3.446  13.679 -2.4697 -1.1858  2.2105
 5902SOL     OW29341   0.051   0.476   3.248 -0.4067 -0.2152 -0.1989
 5902SOL    HW129342   0.045   0.421   3.326  0.9400  1.2338  0.9439
 5902SOL    HW229343   0.145   0.493   3.238 -0.6116  0.3026 -1.2044
 5903SOL     OW29344   0.049   1.754   2.055 -0.0654  0.6687 -0.0146
 5903SOL    HW129345   4.720   1.686   2.034 -1.6757  0.9978  3.7229
 5903SOL    HW229346   4.734   1.810   2.114  0.5704  3.0398 -1.7582
 5904SOL     OW29347   1.116   0.276   2.847  0.0200 -0.0167 -0.1580
 5904SOL    HW129348   1.155   0.362   2.863  0.3676 -0.5993  2.1703
 5904SOL    HW229349   1.023   0.288   2.830 -0.4112 -0.5113  1.9018
 5905SOL     OW29350   2.159   3.232  15.108 -0.1730  0.3338 -0.7542
 5905SOL    HW129351   2.199   3.306  15.062 -0.5591  1.0871  0.1077
 5905SOL    HW229352   2.131   3.186  15.029 -0.0457  0.5655 -0.9348
 5906SOL     OW29353   3.391   4.051   7.123  0.2321  0.2263  0.1561
 5906SOL    HW129354   3.304   4.086   7.140 -0.5338 -1.9221  0.6636
 5906SOL    HW229355   3.402   3.990   7.195  1.4496 -0.3211 -0.4880
 5907SOL     OW29356   2.790   2.827  12.664 -0.0090 -0.6198 -0.0863
 5907SOL    HW129357   2.782   2.901  12.724  3.6347  0.0876 -0.4412
 5907SOL    HW229358   2.786   2.881  12.585 -1.7417  0.1624  0.5383
 5908SOL     OW29359   4.279   4.624   4.298 -0.0377  0.0131 -0.3100
 5908SOL    HW129360   4.295   4.672   4.217  2.0850  0.5823  0.4481
 5908SOL    HW229361   4.278   4.536   4.260  0.1882  0.4578 -1.3426
 5909SOL     OW29362   0.603   0.189  12.861  0.0320 -0.5681 -0.0500
 5909SOL    HW129363   0.533   0.148  12.913 -0.5003  1.6393  1.0093
 5909SOL    HW229364   0.655   0.239  12.924 -4.2240  0.4622  2.7411
 5910SOL     OW29365   4.196   3.775  13.099  0.2889  0.1362  0.0111
 5910SOL    HW129366   4.273   3.750  13.047  0.4719  1.2788 -0.2710
 5910SOL    HW229367   4.118   3.752  13.049 -0.3497  0.9777  0.6302
 5911SOL     OW29368   0.874   4.126  16.267  0.4129  0.3243  0.2349
 5911SOL    HW129369   0.854   4.155  16.178  0.3088 -1.1020 -0.2058
 5911SOL    HW229370   0.959   4.167  16.279  0.3102  0.2877  1.0984
 5912SOL     OW29371   1.944   2.145   9.554  0.3537 -0.6777  0.1797
 5912SOL    HW129372   1.952   2.241   9.553  0.1177 -0.6621 -0.8643
 5912SOL    HW229373   1.875   2.128   9.617 -1.6450 -0.6949 -1.9917
 5913SOL     OW29374   4.375   2.322   0.126 -0.6108  0.0454  0.0950
 5913SOL    HW129375   4.451   2.338   0.069 -0.6117  0.8832  0.3290
 5913SOL    HW229376   4.409   2.254   0.185  0.0656  0.6410  0.4027
 5914SOL     OW29377   1.766   0.456   4.853 -0.0593  0.1556  0.6161
 5914SOL    HW129378   1.748   0.511   4.776  1.6394  0.0232  0.1219
 5914SOL    HW229379   1.711   0.486   4.924 -2.0515 -2.0595 -0.0252
 5915SOL     OW29380   1.131   0.615  15.125  0.1892 -0.0543  0.0985
 5915SOL    HW129381   1.067   0.544  15.119  0.4186 -0.3939  1.7701
 5915SOL    HW229382   1.092   0.669  15.193 -3.7166 -0.2941 -1.9453
 5916SOL     OW29383   4.574   0.881  13.291 -0.2266 -0.1458  0.6540
 5916SOL    HW129384   4.557   0.844  13.204  1.9209  1.6889 -0.5501
 5916SOL    HW229385   4.563   0.807  13.351  1.5554 -1.4953 -0.6432
 5917SOL     OW29386   2.332   4.103   6.585 -0.7785 -0.1068  0.0738
 5917SOL    HW129387   2.302   4.159   6.513  1.1779  1.2173  0.2773
 5917SOL    HW229388   2.312   4.014   6.556  1.7492 -0.8202  0.5220
 5918SOL     OW29389   4.098   3.546   7.117 -0.0991  0.2940  0.1626
 5918SOL    HW129390   4.081   3.476   7.180 -0.8972  1.1539  0.9150
 5918SOL    HW229391   4.030   3.530   7.051 -0.1797  2.0909 -0.1899
 5919SOL     OW29392   2.888   2.044  12.758 -0.6133 -0.4322 -0.3503
 5919SOL    HW129393   2.966   2.069  12.808 -0.3549 -1.2381 -0.3624
 5919SOL    HW229394   2.893   2.098  12.679  1.3763  1.2825  0.9131
 5920SOL     OW29395   1.319   4.054   3.330  0.0253  0.4443  0.0278
 5920SOL    HW129396   1.348   3.967   3.304  0.4637  0.8493 -0.8254
 5920SOL    HW229397   1.224   4.051   3.342  0.1453 -1.9535  0.4438
 5921SOL     OW29398   0.100   0.899   1.267 -0.0998 -0.6427 -0.5524
 5921SOL    HW129399   0.070   0.809   1.256  1.7414 -1.4237  0.9034
 5921SOL    HW229400   0.057   0.934   1.345  0.4951 -0.1470 -0.4474
 5922SOL     OW29401   1.049   4.689  17.548 -1.0263  0.5632  0.0165
 5922SOL    HW129402   1.141   4.698  17.523 -1.7365 -3.8315 -4.1477
 5922SOL    HW229403   1.040   4.595  17.532  0.1559  0.7211 -1.6111
 5923SOL     OW29404   2.376   4.524   5.238  0.0429 -0.0344 -0.0773
 5923SOL    HW129405   2.297   4.550   5.190  0.9823 -0.1263 -1.6855
 5923SOL    HW229406   2.344   4.499   5.324 -1.5692 -1.2011 -1.0199
 5924SOL     OW29407   3.964   3.651   4.745  0.2965 -0.8729  0.2613
 5924SOL    HW129408   4.042   3.634   4.693 -0.6136 -4.1638 -0.0206
 5924SOL    HW229409   3.998   3.661   4.834  0.6250 -2.9417  0.3712
 5925SOL     OW29410   2.491   4.279   3.288 -0.2810  0.0386  0.3753
 5925SOL    HW129411   2.551   4.336   3.240 -0.5511 -0.5203 -0.6319
 5925SOL    HW229412   2.434   4.242   3.220  1.0620 -2.0567  0.4118
 5926SOL     OW29413   2.710   1.927  16.069  0.1193 -0.0535 -0.4414
 5926SOL    HW129414   2.657   1.874  16.128  1.2404  0.4487  0.9981
 5926SOL    HW229415   2.643   1.980  16.026  0.4266 -0.2927 -1.2293
 5927SOL     OW29416   1.506   2.100   4.992  0.3044  0.7743 -0.7409
 5927SOL    HW129417   1.527   2.056   5.075 -0.8095  1.6307 -0.0083
 5927SOL    HW229418   1.567   2.053   4.935  0.2279  1.8377 -1.6989
 5928SOL     OW29419   1.125   4.453   4.936 -0.2935 -0.9589  0.3861
 5928SOL    HW129420   1.040   4.484   4.966  0.5614  2.0576 -0.3784
 5928SOL    HW229421   1.179   4.530   4.951 -1.9427  0.2491  0.0665
 5929SOL     OW29422   3.995   2.781   9.159 -0.5609  0.1409 -0.2288
 5929SOL    HW129423   4.089   2.784   9.140 -0.7870 -0.7861 -1.4770
 5929SOL    HW229424   3.980   2.868   9.122 -2.1338 -0.5955 -1.3119
 5930SOL     OW29425   3.018   1.464   5.129 -0.2850 -0.3391 -0.1229
 5930SOL    HW129426   2.978   1.540   5.087  0.2460 -0.1081 -0.2069
 5930SOL    HW229427   3.112   1.477   5.115 -0.4604  0.4034 -0.5569
 5931SOL     OW29428   0.341   4.670   3.812 -0.0788 -0.5106  0.2531
 5931SOL    HW129429   0.265   4.683   3.755 -0.0181 -0.6848  0.1321
 5931SOL    HW229430   0.407   4.717   3.761 -2.0086  0.8125 -1.0337
 5932SOL     OW29431   3.075   3.497   7.734 -0.2505 -0.5967 -0.6296
 5932SOL    HW129432   3.148   3.547   7.770 -1.9009  1.4446 -0.1298
 5932SOL    HW229433   3.007   3.565   7.731  0.0887 -0.2184  0.4995
 5933SOL     OW29434   0.498   4.718  12.987  0.4563 -0.2419 -0.8809
 5933SOL    HW129435   0.556   4.642  12.984 -0.8305 -1.1880 -1.8745
 5933SOL    HW229436   0.409   4.681  12.984  0.2673  0.0111  1.4623
 5934SOL     OW29437   4.516   2.111   2.103  0.3662 -0.4909  0.1111
 5934SOL    HW129438   4.506   2.016   2.100 -2.3953 -0.2014  0.2759
 5934SOL    HW229439   4.611   2.120   2.113  0.1041 -0.5599  2.6784
 5935SOL     OW29440   2.832   1.079   9.209 -0.4006  0.6162  0.1795
 5935SOL    HW129441   2.737   1.094   9.214 -0.7894 -1.6876 -0.3399
 5935SOL    HW229442   2.847   0.989   9.237  1.4865  0.6789 -0.6699
 5936SOL     OW29443   4.557   1.843   1.343 -0.2860  0.2579  0.1857
 5936SOL    HW129444   4.485   1.842   1.407  0.0328 -2.2069  0.4946
 5936SOL    HW229445   4.512   1.832   1.260 -0.3338  2.2566 -0.0649
 5937SOL     OW29446   2.960   1.221   8.420 -0.7091 -0.0820  0.0714
 5937SOL    HW129447   2.886   1.251   8.472 -0.0732  2.3462 -0.4113
 5937SOL    HW229448   2.992   1.149   8.474 -1.0806  0.0973  0.5312
 5938SOL     OW29449   4.027   4.535   4.777 -0.0902 -0.2921 -0.5001
 5938SOL    HW129450   3.949   4.568   4.821  0.9722  1.4561  0.0339
 5938SOL    HW229451   4.095   4.593   4.809 -1.7818  0.2674  2.0234
 5939SOL     OW29452   3.651   3.335   5.063  0.1430  0.3944  0.0795
 5939SOL    HW129453   3.641   3.396   4.990 -1.3262  1.6151  1.3121
 5939SOL    HW229454   3.706   3.267   5.024 -1.0356 -0.2469 -0.4574
 5940SOL     OW29455   3.365   1.060  10.172  0.3367  0.1203 -0.7358
 5940SOL    HW129456   3.336   1.104  10.092  2.1591 -0.0792 -1.5206
 5940SOL    HW229457   3.456   1.090  10.183  0.9341 -0.8619 -2.9380
 5941SOL     OW29458   0.514   1.956   1.298 -0.0676  0.1876  0.4299
 5941SOL    HW129459   0.574   2.021   1.336 -0.3817  0.2137  0.8809
 5941SOL    HW229460   0.571   1.895   1.252  0.9051  2.3402 -1.2489
 5942SOL     OW29461   1.068   4.311   8.877  0.6017 -0.4367 -0.2194
 5942SOL    HW129462   1.136   4.378   8.872 -0.6259  0.9479  1.4002
 5942SOL    HW229463   0.999   4.367   8.911  1.0231 -0.2575  0.3428
 5943SOL     OW29464   4.421   4.158  15.813  0.2272  0.5912  0.0884
 5943SOL    HW129465   4.479   4.159  15.889 -0.3032 -0.9452  0.5264
 5943SOL    HW229466   4.411   4.063  15.814 -0.4908  0.6659  0.0738
 5944SOL     OW29467   3.304   2.090   7.640 -0.1483  0.2042 -0.2293
 5944SOL    HW129468   3.212   2.116   7.636 -0.0932  0.3432 -0.6786
 5944SOL    HW229469   3.343   2.175   7.662 -1.2236  0.3088  1.2098
 5945SOL     OW29470   3.631   3.311   2.179 -0.0853  0.5391  0.1976
 5945SOL    HW129471   3.617   3.315   2.085  0.0764  0.3628  0.1651
 5945SOL    HW229472   3.545   3.330   2.215  0.0305 -0.8374  1.2184
 5946SOL     OW29473   1.631   0.486   4.259  0.3954  0.7501 -0.3092
 5946SOL    HW129474   1.649   0.397   4.230 -0.2879 -0.0762  1.8249
 5946SOL    HW229475   1.541   0.502   4.231  0.5258  0.9577 -0.6080
 5947SOL     OW29476   0.469   4.145   7.592  0.1575  0.4174  0.1179
 5947SOL    HW129477   0.399   4.185   7.643  0.3345  2.5480 -1.3090
 5947SOL    HW229478   0.548   4.174   7.638  1.5137 -0.8919 -1.3394
 5948SOL     OW29479   3.064   4.121   5.627  0.0260  0.5669 -0.5271
 5948SOL    HW129480   3.017   4.041   5.604  0.9149 -0.1914  0.3003
 5948SOL    HW229481   3.082   4.160   5.541  2.5831  0.4756 -0.0321
 5949SOL     OW29482   0.598   1.930   5.333 -0.4523  0.4213  0.0184
 5949SOL    HW129483   0.616   1.927   5.239 -0.6359  0.8831 -0.0303
 5949SOL    HW229484   0.643   2.012   5.351 -0.3886  0.3264  0.2865
 5950SOL     OW29485   2.752   3.885   2.510  0.3451 -0.0393 -0.7331
 5950SOL    HW129486   2.761   3.905   2.603 -1.2612 -2.6752 -0.0094
 5950SOL    HW229487   2.748   3.790   2.514 -0.0196 -0.0291 -0.8781
 5951SOL     OW29488   3.986   3.214  11.028  0.5334  0.1355 -0.2685
 5951SOL    HW129489   3.959   3.300  11.058 -1.6551 -0.3226 -0.8728
 5951SOL    HW229490   3.897   3.176  11.027  0.9166 -0.7868  2.4068
 5952SOL     OW29491   3.144   0.343   3.212 -0.1290  0.6408 -0.0455
 5952SOL    HW129492   3.085   0.412   3.182 -0.6137  0.4346  0.4332
 5952SOL    HW229493   3.161   0.283   3.139 -1.0247 -0.0961  0.3468
 5953SOL     OW29494   1.316   3.904   8.422 -0.7925 -0.3483 -0.2398
 5953SOL    HW129495   1.233   3.884   8.379 -2.0890 -1.0039  2.6313
 5953SOL    HW229496   1.371   3.925   8.346 -0.1526 -2.3674 -0.3423
 5954SOL     OW29497   4.190   0.793   5.867  0.3922  0.2525  0.6654
 5954SOL    HW129498   4.189   0.843   5.786 -1.5695 -1.6389 -0.4834
 5954SOL    HW229499   4.101   0.761   5.881 -0.2915  2.2244  0.6846
 5955SOL     OW29500   1.282   2.325   9.799  0.3892  0.3209 -0.0370
 5955SOL    HW129501   1.373   2.348   9.779 -0.3143  2.1700 -1.1266
 5955SOL    HW229502   1.238   2.357   9.720 -1.0474 -0.0181  0.6273
 5956SOL     OW29503   0.344   2.060   6.879 -0.3611  0.2730 -0.2250
 5956SOL    HW129504   0.340   2.097   6.968  0.9033 -0.0948 -0.0163
 5956SOL    HW229505   0.262   2.012   6.869  0.3792 -0.8128 -1.0377
 5957SOL     OW29506   3.277   4.233   0.003 -0.5786  1.4008 -0.1601
 5957SOL    HW129507   3.277   4.253  17.647  0.2624  2.3246  0.0340
 5957SOL    HW229508   3.299   4.141  17.725  1.0742  1.9414 -1.0732
 5958SOL     OW29509   1.578   4.044   3.889  0.9485  0.3288  0.2578
 5958SOL    HW129510   1.615   4.130   3.870  0.2787  0.3922 -0.7788
 5958SOL    HW229511   1.649   3.993   3.850  0.1667 -1.6566  1.4506
 5959SOL     OW29512   0.415   2.354   0.416  0.2526 -0.0975 -0.7074
 5959SOL    HW129513   0.371   2.392   0.340 -1.1428 -0.1730  0.0786
 5959SOL    HW229514   0.394   2.262   0.398  0.4204 -0.5407  1.3043
 5960SOL     OW29515   2.304   1.647   3.435 -0.0853 -0.2419  0.1858
 5960SOL    HW129516   2.351   1.628   3.516  0.0415 -0.8483 -0.0348
 5960SOL    HW229517   2.380   1.691   3.397  0.6351 -0.2959  1.5871
 5961SOL     OW29518   0.279   0.354   0.102  0.1996 -0.5719  0.1901
 5961SOL    HW129519   0.266   0.322   0.013 -0.1213 -1.1842  0.4575
 5961SOL    HW229520   0.301   0.274   0.150  0.5668 -1.1905 -0.9931
 5962SOL     OW29521   2.721   1.697   1.070 -0.2441 -0.2094 -0.2608
 5962SOL    HW129522   2.660   1.663   1.005 -2.0377  2.7409 -0.1111
 5962SOL    HW229523   2.662   1.705   1.144  0.3393  1.5735  0.0242
 5963SOL     OW29524   3.636   1.529   7.419 -0.1368  0.4416  0.2096
 5963SOL    HW129525   3.597   1.574   7.343  2.3614  2.9209  0.3813
 5963SOL    HW229526   3.714   1.495   7.375  0.4302  1.2826  0.5717
 5964SOL     OW29527   2.982   0.626  16.904 -0.0529  1.0621 -0.6579
 5964SOL    HW129528   3.074   0.600  16.905 -0.2530  0.3346 -1.3833
 5964SOL    HW229529   3.008   0.718  16.897  2.2538  0.2171 -3.2334
 5965SOL     OW29530   3.677   3.088   7.462  0.1396 -0.9493  0.0987
 5965SOL    HW129531   3.766   3.053   7.459  0.6981  0.5245 -0.5873
 5965SOL    HW229532   3.625   3.008   7.469  0.2573 -0.8480  2.1926
 5966SOL     OW29533   2.981   3.837   8.045 -0.0592 -0.8017 -0.0194
 5966SOL    HW129534   3.020   3.883   7.971  0.3068 -2.5630 -0.8990
 5966SOL    HW229535   3.052   3.835   8.109  0.9851 -0.9224 -1.1910
 5967SOL     OW29536   2.894   0.915   3.407  0.3823  0.0431 -0.3803
 5967SOL    HW129537   2.857   0.984   3.353  0.5621 -0.0085 -0.5716
 5967SOL    HW229538   2.866   0.938   3.495  0.9068 -0.3706 -0.1025
 5968SOL     OW29539   0.386   4.468   8.855  0.1725  0.3229 -0.3635
 5968SOL    HW129540   0.316   4.410   8.828  0.6358 -0.7647  0.7793
 5968SOL    HW229541   0.431   4.423   8.927  1.1391 -0.0522 -1.2059
 5969SOL     OW29542   0.409   4.478   5.860  0.0035  0.0759  0.4880
 5969SOL    HW129543   0.470   4.411   5.891 -1.9540 -1.5777  0.7765
 5969SOL    HW229544   0.332   4.431   5.827 -0.1708 -0.6972  1.9731
 5970SOL     OW29545   1.595   2.797   2.073  0.0311  0.7017 -0.5536
 5970SOL    HW129546   1.609   2.838   1.988 -0.8329  2.7109  0.2646
 5970SOL    HW229547   1.499   2.800   2.074 -0.1223 -3.5615 -0.5427
 5971SOL     OW29548   0.129   1.191   8.410 -0.3249 -0.5416 -0.0440
 5971SOL    HW129549   0.208   1.146   8.440  0.4778 -0.2246 -1.6602
 5971SOL    HW229550   0.104   1.137   8.335 -2.5154 -0.2868  0.5001
 5972SOL     OW29551   0.357   4.085  17.648 -0.6440  0.2930 -0.5231
 5972SOL    HW129552   0.380   4.131  17.567 -0.0380  1.7881  0.5097
 5972SOL    HW229553   0.284   4.141  17.674 -0.4040  1.5923 -2.6324
 5973SOL     OW29554   1.740   3.646  15.412 -0.2873 -0.8834  0.3646
 5973SOL    HW129555   1.781   3.717  15.461 -1.9518 -0.1860  0.7473
 5973SOL    HW229556   1.820   3.613  15.370 -0.5085 -0.4541 -0.3940
 5974SOL     OW29557   4.489   2.173  16.044  0.0529  0.0546 -0.2420
 5974SOL    HW129558   4.519   2.166  16.134  0.0871  2.2248 -0.0646
 5974SOL    HW229559   4.402   2.136  16.056 -0.3707  1.3366  0.6494
 5975SOL     OW29560   3.995   0.934   9.615  0.1753 -0.1957 -0.5045
 5975SOL    HW129561   4.003   0.887   9.699  0.5864 -1.2393 -1.1268
 5975SOL    HW229562   4.003   0.860   9.555 -0.9819 -1.0992  0.4353
 5976SOL     OW29563   0.911   4.671   3.308 -0.2617 -0.2577 -0.2952
 5976SOL    HW129564   0.949   4.638   3.227  2.1859 -0.2549  0.8614
 5976SOL    HW229565   0.917   0.031   3.290 -2.9683  0.5296  2.9683
 5977SOL     OW29566   0.719   2.676   5.714 -0.2845  0.0060 -0.4975
 5977SOL    HW129567   0.727   2.696   5.621 -0.4159  1.3738 -0.2097
 5977SOL    HW229568   0.644   2.617   5.728  0.7140 -1.2005 -0.1762
 5978SOL     OW29569   1.112   1.303  14.186  0.0424 -0.0662 -0.2518
 5978SOL    HW129570   1.180   1.248  14.145  0.4035 -0.2076  0.5320
 5978SOL    HW229571   1.167   1.329  14.260 -1.2268  0.8689  0.3507
 5979SOL     OW29572   3.788   3.607  16.348 -0.4315 -0.0692 -0.2794
 5979SOL    HW129573   3.785   3.684  16.292  1.3985  1.3800  1.6247
 5979SOL    HW229574   3.719   3.630  16.411  0.2127  0.9210  0.0551
 5980SOL     OW29575   0.695   3.964  11.509  0.6728  0.2215  0.1441
 5980SOL    HW129576   0.658   4.008  11.432 -1.9710 -2.5900 -0.2044
 5980SOL    HW229577   0.609   3.952  11.550  0.8654  0.9612  0.7466
 5981SOL     OW29578   1.364   4.038  16.982  0.3773 -0.0533 -0.3513
 5981SOL    HW129579   1.293   3.977  17.002  1.6187 -0.8555  1.6051
 5981SOL    HW229580   1.341   4.114  17.036  1.8546  0.9045 -1.0709
 5982SOL     OW29581   0.609   4.351   5.277  0.0965  0.6807 -0.4490
 5982SOL    HW129582   0.614   4.335   5.371  0.8605 -1.7187 -0.8960
 5982SOL    HW229583   0.570   4.270   5.245 -0.7127 -0.8192  4.3644
 5983SOL     OW29584   0.499   0.124  14.014  0.1755  0.3725 -0.6128
 5983SOL    HW129585   0.550   0.122  13.933 -0.7294  1.4346 -1.2126
 5983SOL    HW229586   0.418   0.136  13.964  1.5760  0.3135 -2.8936
 5984SOL     OW29587   0.016   2.979   3.895 -0.0997  0.2352 -0.1619
 5984SOL    HW129588   4.724   2.891   3.868  0.8360  0.6994 -2.5745
 5984SOL    HW229589   4.685   3.034   3.852 -0.9590 -2.0647 -1.7932
 5985SOL     OW29590   2.329   1.256   0.449 -0.2855 -0.1590 -0.0111
 5985SOL    HW129591   2.316   1.251   0.355  1.6970 -1.5940 -0.2204
 5985SOL    HW229592   2.356   1.166   0.467  0.3385  0.0508  0.1177
 5986SOL     OW29593   3.040   3.838  10.136 -0.0718 -0.1569  0.4182
 5986SOL    HW129594   2.978   3.815  10.068 -1.1574 -0.6500  1.5732
 5986SOL    HW229595   3.114   3.858  10.078  1.0689 -1.9265  1.2351
 5987SOL     OW29596   1.117   3.763   8.240 -0.3903 -0.7189  0.5491
 5987SOL    HW129597   1.196   3.709   8.235  2.3789  3.3133  0.9528
 5987SOL    HW229598   1.057   3.689   8.247 -0.6151 -0.9989 -4.2980
 5988SOL     OW29599   2.866   0.621  16.634 -0.2348  0.1582  0.1715
 5988SOL    HW129600   2.864   0.541  16.686 -1.2040 -1.0098 -1.7025
 5988SOL    HW229601   2.856   0.685  16.705  0.0339  1.4005 -0.9185
 5989SOL     OW29602   1.940   4.579   7.138 -0.6555  0.4006  0.1845
 5989SOL    HW129603   1.948   4.498   7.188 -0.8908  0.2246 -0.0688
 5989SOL    HW229604   1.922   4.554   7.048  1.4842 -0.9309  0.1296
 5990SOL     OW29605   2.753   2.908   5.907 -0.0215  0.0630 -0.3104
 5990SOL    HW129606   2.760   2.952   5.991  0.5076 -0.0835 -0.2745
 5990SOL    HW229607   2.664   2.873   5.910  0.9623 -2.4303  0.5662
 5991SOL     OW29608   0.804   3.729   7.139 -0.0781 -0.0891 -0.5360
 5991SOL    HW129609   0.773   3.779   7.215 -1.2648  0.6164 -1.4890
 5991SOL    HW229610   0.720   3.702   7.100  0.6738 -1.3795 -1.2517
 5992SOL     OW29611   0.451   2.377   4.827  0.1961  0.0996  0.7452
 5992SOL    HW129612   0.489   2.464   4.840  0.1420  0.2568 -0.1766
 5992SOL    HW229613   0.373   2.388   4.881 -0.0243 -2.3606  0.9356
 5993SOL     OW29614   2.676   0.070   6.038  0.3272 -0.2859 -0.2562
 5993SOL    HW129615   2.688   4.731   5.978  0.2564 -0.0242 -0.5927
 5993SOL    HW229616   2.761   0.113   6.043 -0.2279  1.1056 -2.5998
 5994SOL     OW29617   2.876   2.552   1.064 -0.3055 -0.0073 -0.7649
 5994SOL    HW129618   2.867   2.633   1.115  3.0615 -0.3272  0.2900
 5994SOL    HW229619   2.791   2.512   1.083  1.3457 -2.2140  2.0418
 5995SOL     OW29620   0.121   2.735   3.680 -0.0982  0.9953  0.4383
 5995SOL    HW129621   0.070   2.687   3.616  0.2960 -0.0566  0.9184
 5995SOL    HW229622   0.140   2.680   3.756  1.0121 -1.7832 -1.8832
 5996SOL     OW29623   0.794   3.331   4.069 -0.5725  0.2597  0.3455
 5996SOL    HW129624   0.858   3.285   4.123 -1.6718 -1.3423  0.2904
 5996SOL    HW229625   0.775   3.260   4.008 -1.0320 -0.9035  1.8646
 5997SOL     OW29626   1.778   1.341   4.945  0.4574  0.2902  0.5971
 5997SOL    HW129627   1.695   1.380   4.973 -0.0074 -1.3637  1.5222
 5997SOL    HW229628   1.802   1.286   5.019  0.0863  0.8219  1.1068
 5998SOL     OW29629   1.511   2.646   7.906 -0.3338 -0.1234  0.3252
 5998SOL    HW129630   1.477   2.627   7.994  1.4375  2.2663  1.5207
 5998SOL    HW229631   1.547   2.733   7.921 -0.9357  0.5322 -2.0241
 5999SOL     OW29632   2.375   0.489  17.441  0.1891 -0.1633 -0.6001
 5999SOL    HW129633   2.322   0.410  17.429 -0.3858  0.2366 -0.7022
 5999SOL    HW229634   2.331   0.561  17.396  0.2557 -0.3994 -1.0498
 6000SOL     OW29635   3.029   2.974   4.264 -0.6125 -0.2218  0.2711
 6000SOL    HW129636   2.951   2.997   4.212  0.0447  0.9996 -0.1865
 6000SOL    HW229637   3.023   3.031   4.341 -2.9383  3.0107 -2.3113
 6001SOL     OW29638   0.034   0.203   4.653  0.0564 -0.0675  0.1011
 6001SOL    HW129639   0.097   0.167   4.590  0.9310  1.5330  0.0360
 6001SOL    HW229640   0.013   0.290   4.619 -1.4019  0.4508  2.3397
 6002SOL     OW29641   3.692   4.037   9.206  0.0354  0.0169  0.0049
 6002SOL    HW129642   3.633   3.964   9.191  0.5253 -0.5986  1.0226
 6002SOL    HW229643   3.774   3.990   9.190  0.4580  1.0968 -1.0176
 6003SOL     OW29644   3.389   1.574  14.408 -0.1839 -0.1241 -0.3714
 6003SOL    HW129645   3.421   1.535  14.490  0.7898  1.4890  0.0278
 6003SOL    HW229646   3.309   1.617  14.438  1.3163  2.7975 -0.5350
 6004SOL     OW29647   2.033   2.829   2.830  0.1318  0.1454  0.2217
 6004SOL    HW129648   2.020   2.855   2.921 -0.1489  0.7831 -0.0009
 6004SOL    HW229649   2.008   2.738   2.847 -3.8938  1.2954  0.4937
 6005SOL     OW29650   2.830   0.701   1.219 -0.4797 -0.3448  0.2022
 6005SOL    HW129651   2.873   0.760   1.157 -1.7880 -0.5395 -0.8879
 6005SOL    HW229652   2.877   0.721   1.300  0.9530 -0.5008 -0.5833
 6006SOL     OW29653   2.543   2.048   1.394  0.3124  0.3518 -0.0995
 6006SOL    HW129654   2.530   2.059   1.488 -1.3583  0.0910 -0.2933
 6006SOL    HW229655   2.489   1.971   1.375 -0.2895  1.1462 -1.6387
 6007SOL     OW29656   3.029   3.001   1.107  0.6480  0.0447  0.6486
 6007SOL    HW129657   3.019   3.018   1.014 -2.1512 -1.1736  0.7099
 6007SOL    HW229658   3.012   3.087   1.147 -2.7946 -1.2604  2.0358
 6008SOL     OW29659   2.236   1.563   6.562  0.2687  0.0768  0.2653
 6008SOL    HW129660   2.268   1.521   6.482  1.0233 -0.0205  0.6167
 6008SOL    HW229661   2.308   1.625   6.574 -0.8910  1.6782 -1.1872
 6009SOL     OW29662   3.838   1.789   2.206  0.0962 -0.2733 -0.6107
 6009SOL    HW129663   3.881   1.866   2.168 -1.0950  0.6766 -0.0430
 6009SOL    HW229664   3.803   1.837   2.281  1.8846  1.0797 -0.6201
 6010SOL     OW29665   2.945   3.979   4.695  0.3986  0.2987 -0.2666
 6010SOL    HW129666   2.914   3.936   4.615  1.4366 -1.1506  0.1132
 6010SOL    HW229667   2.902   4.064   4.694 -0.1100  0.0345 -1.2850
 6011SOL     OW29668   1.233   4.235   9.245  0.6871 -0.1589  0.3161
 6011SOL    HW129669   1.191   4.236   9.159  0.8204  3.1793  0.2896
 6011SOL    HW229670   1.306   4.176   9.227  0.5416 -0.0336 -0.6897
 6012SOL     OW29671   3.934   4.001   4.866 -0.1194 -0.1420  0.2960
 6012SOL    HW129672   3.859   3.958   4.907  0.9073 -2.0817  0.1620
 6012SOL    HW229673   4.005   3.945   4.898  0.3361 -0.2769 -0.9322
 6013SOL     OW29674   2.165   2.406   1.966 -0.3936  0.3751 -0.2740
 6013SOL    HW129675   2.090   2.349   1.987  0.5158 -0.0364  1.8389
 6013SOL    HW229676   2.161   2.402   1.870 -1.3200  2.7247 -0.3183
 6014SOL     OW29677   0.643   1.809  14.254 -0.0738 -0.9583  0.4077
 6014SOL    HW129678   0.611   1.821  14.165 -0.3147 -1.2413  0.4545
 6014SOL    HW229679   0.615   1.893  14.291 -0.6172 -1.0809  0.2687
 6015SOL     OW29680   2.774   1.325   6.185 -0.3383  0.5746 -0.1090
 6015SOL    HW129681   2.815   1.262   6.127  1.5092 -0.6706  2.5342
 6015SOL    HW229682   2.852   1.380   6.190  0.7858 -0.9632 -0.8346
 6016SOL     OW29683   1.027   4.084   3.428  0.3365  0.2760  0.0260
 6016SOL    HW129684   0.951   4.030   3.407 -0.5222  1.6862 -0.4181
 6016SOL    HW229685   1.058   4.058   3.515 -0.8757 -2.1107 -0.2567
 6017SOL     OW29686   0.702   0.017   8.834  0.2757  0.4606  0.2963
 6017SOL    HW129687   0.690   4.716   8.922 -0.1345  0.1092  0.0983
 6017SOL    HW229688   0.612   0.032   8.807 -0.0267 -1.0165  0.4930
 6018SOL     OW29689   3.184   4.269  12.725  0.0572 -0.2542  0.0619
 6018SOL    HW129690   3.176   4.335  12.655  0.6567 -1.2860 -0.9777
 6018SOL    HW229691   3.091   4.247  12.728 -0.2162  0.9959  0.8153
 6019SOL     OW29692   3.459   3.622   1.273  0.0431  0.2940  0.1772
 6019SOL    HW129693   3.490   3.586   1.356  0.1186  0.3279  0.1637
 6019SOL    HW229694   3.528   3.683   1.247  0.2269  0.3789  0.8692
 6020SOL     OW29695   0.052   2.153   6.227  0.5165 -0.7829 -0.4004
 6020SOL    HW129696   0.008   2.070   6.244 -0.1802 -0.4606 -0.6251
 6020SOL    HW229697   0.121   2.152   6.293 -1.7538  0.4903  1.9794
 6021SOL     OW29698   4.731   3.840   7.236 -0.5626  0.0938  0.0846
 6021SOL    HW129699   4.668   3.909   7.215 -1.2137 -0.0877  1.4583
 6021SOL    HW229700   4.722   3.833   7.331  2.4411  0.8067  0.4122
 6022SOL     OW29701   0.297   3.390   4.105 -0.0542  0.4410  0.1260
 6022SOL    HW129702   0.321   3.459   4.044  3.0339  1.6586  2.6798
 6022SOL    HW229703   0.384   3.371   4.140 -0.2715 -1.1569 -0.2141
 6023SOL     OW29704   1.274   1.826   0.131  0.0324  0.5802 -0.3823
 6023SOL    HW129705   1.316   1.890   0.074  0.5031  0.9205  0.3451
 6023SOL    HW229706   1.293   1.875   0.211  0.9538  0.8454 -0.7682
 6024SOL     OW29707   2.671   4.461   8.772 -0.2863  0.5341 -0.2293
 6024SOL    HW129708   2.759   4.475   8.806 -0.6039 -0.0076  0.8118
 6024SOL    HW229709   2.621   4.526   8.821 -0.8370  1.4861 -2.0595
 6025SOL     OW29710   4.348   2.721   2.862 -0.4178  0.6189 -0.0780
 6025SOL    HW129711   4.314   2.808   2.881 -0.2218  0.4564  1.0155
 6025SOL    HW229712   4.271   2.669   2.884  0.1721 -1.0560 -2.0439
 6026SOL     OW29713   3.753   0.208   3.053  0.4221 -0.2986  0.3312
 6026SOL    HW129714   3.779   0.134   3.109  0.2313 -1.2601 -0.8618
 6026SOL    HW229715   3.697   0.253   3.116  1.0108 -0.1056  0.7181
 6027SOL     OW29716   2.295   3.576   5.861 -0.0365 -0.2406 -0.1542
 6027SOL    HW129717   2.293   3.607   5.771  1.5608  1.4274  0.3980
 6027SOL    HW229718   2.301   3.481   5.850 -1.4217 -0.4720  1.0221
 6028SOL     OW29719   1.340   4.492  16.642  0.5100 -0.1550 -0.0367
 6028SOL    HW129720   1.425   4.536  16.643  0.3702  0.1131  0.0776
 6028SOL    HW229721   1.343   4.444  16.725  0.2791  3.7699  2.2186
 6029SOL     OW29722   0.411   1.887   2.275 -0.0374  0.1795  0.3278
 6029SOL    HW129723   0.354   1.811   2.282  0.3817 -0.0554  1.1143
 6029SOL    HW229724   0.462   1.890   2.356 -0.1163 -0.8282  0.4105
 6030SOL     OW29725   2.386   0.654   7.040  0.1579 -0.1638  0.0035
 6030SOL    HW129726   2.347   0.741   7.033 -0.7035 -0.5914 -0.6353
 6030SOL    HW229727   2.480   0.662   7.028  0.2233 -1.7960 -0.6817
 6031SOL     OW29728   3.591   0.549   7.065 -0.1970 -0.2939  0.0595
 6031SOL    HW129729   3.607   0.547   7.159  2.2729 -1.3321 -0.3758
 6031SOL    HW229730   3.654   0.489   7.025 -0.9435 -0.0222 -1.5522
 6032SOL     OW29731   1.619   4.072  12.465 -0.6543  0.7895  0.2232
 6032SOL    HW129732   1.648   3.982  12.482  1.1294  1.9627  3.2836
 6032SOL    HW229733   1.620   4.079  12.370 -0.0508 -2.0599  0.0137
 6033SOL     OW29734   3.822   0.355   4.406  0.2756 -0.2835 -0.2877
 6033SOL    HW129735   3.840   0.426   4.469  1.0088  1.1968 -2.1624
 6033SOL    HW229736   3.846   0.281   4.462  0.6559  1.2803  1.6297
 6034SOL     OW29737   0.538   0.132   2.999  0.9636 -0.0722  0.3374
 6034SOL    HW129738   0.565   0.223   3.010 -0.0432  0.2864 -0.1539
 6034SOL    HW229739   0.609   0.093   2.949  1.4116  1.1476  0.0113
 6035SOL     OW29740   2.620   4.049   5.723  0.1545  0.3226  0.3618
 6035SOL    HW129741   2.623   3.974   5.664  0.2489  0.5095  0.1294
 6035SOL    HW229742   2.572   4.003   5.791  0.9828 -1.0710 -0.0051
 6036SOL     OW29743   2.190   0.299   7.491 -0.1325  0.1743  0.0654
 6036SOL    HW129744   2.107   0.337   7.517 -0.4965 -0.2856 -0.4035
 6036SOL    HW229745   2.197   0.328   7.400 -0.8851 -0.8875 -0.3347
 6037SOL     OW29746   2.047   4.067   3.471 -0.7011 -0.8597 -0.0057
 6037SOL    HW129747   2.050   4.161   3.457  1.5986 -1.3011 -2.4439
 6037SOL    HW229748   2.130   4.047   3.513 -0.0713  1.2618 -0.2438
 6038SOL     OW29749   0.545   4.112   1.861  0.9366  0.2963 -0.7537
 6038SOL    HW129750   0.559   4.206   1.865 -0.3825  0.3722  2.2263
 6038SOL    HW229751   0.585   4.099   1.775 -1.8012  0.8813 -2.0955
 6039SOL     OW29752   4.046   3.765   6.635  0.7482 -0.6426 -0.1015
 6039SOL    HW129753   4.138   3.789   6.636  0.7421 -0.7584  2.9185
 6039SOL    HW229754   4.055   3.685   6.583  1.0105  0.2722 -1.4487
 6040SOL     OW29755   0.114   2.130   4.787  0.1851 -0.7063  0.2244
 6040SOL    HW129756   0.063   2.188   4.844  0.3726  0.6537 -0.9987
 6040SOL    HW229757   0.038   2.080   4.756  0.2017  0.6967 -2.0541
 6041SOL     OW29758   1.923   2.053   4.031  0.0076  0.0219 -0.3024
 6041SOL    HW129759   1.954   2.144   4.032  0.2454 -0.0591 -0.4022
 6041SOL    HW229760   1.902   2.047   4.124  0.3162  0.7216 -0.1897
 6042SOL     OW29761   1.577   0.923   2.444  0.4868 -0.0816 -0.4147
 6042SOL    HW129762   1.581   1.011   2.480  2.5209 -0.0541 -0.7436
 6042SOL    HW229763   1.502   0.885   2.492 -0.7710  0.6496 -1.8216
 6043SOL     OW29764   1.658   1.000   5.313  0.3798  0.0148 -0.1557
 6043SOL    HW129765   1.713   1.000   5.391  2.0389  0.7969 -1.3208
 6043SOL    HW229766   1.625   0.910   5.315 -0.3220  0.2525 -0.9912
 6044SOL     OW29767   3.885   2.705   8.335 -0.1568  0.2990 -0.1630
 6044SOL    HW129768   3.827   2.749   8.273 -2.3631 -2.4530 -0.0340
 6044SOL    HW229769   3.932   2.643   8.279 -0.2831  0.4894 -0.4781
 6045SOL     OW29770   1.353   0.408   4.897  0.2110 -0.0921 -0.0650
 6045SOL    HW129771   1.397   0.355   4.829  1.1004  0.6648 -0.0712
 6045SOL    HW229772   1.274   0.357   4.914  0.5412 -1.1528 -1.6063
 6046SOL     OW29773   1.304   0.461   6.583  0.3019  0.0054 -0.0831
 6046SOL    HW129774   1.330   0.415   6.663  1.9950 -0.8736 -1.1448
 6046SOL    HW229775   1.376   0.523   6.581  2.0273 -2.0051  0.4958
 6047SOL     OW29776   1.085   1.339  11.841  0.2677  0.4310  0.0505
 6047SOL    HW129777   1.000   1.310  11.873  0.4725 -0.5920 -0.3353
 6047SOL    HW229778   1.078   1.434  11.829 -1.8655  0.6631  3.1208
 6048SOL     OW29779   0.834   0.762   7.830 -0.4603 -0.0626 -0.0467
 6048SOL    HW129780   0.765   0.750   7.764 -0.0783  1.0835 -0.6478
 6048SOL    HW229781   0.913   0.781   7.780 -0.0984  0.6565  0.8197
 6049SOL     OW29782   0.042   2.642   5.531  0.0619  0.6829  0.0891
 6049SOL    HW129783   4.721   2.583   5.480  0.2808  0.9251 -0.4245
 6049SOL    HW229784   0.130   2.623   5.499 -0.3418 -0.7343 -0.1533
 6050SOL     OW29785   0.691   2.780  11.268  0.5232 -0.3415  0.0538
 6050SOL    HW129786   0.782   2.808  11.263  1.1403 -1.8730  3.0275
 6050SOL    HW229787   0.643   2.860  11.292  0.6776 -0.2269 -0.0178
 6051SOL     OW29788   1.586   3.155  12.309 -0.3518 -0.1489 -0.2267
 6051SOL    HW129789   1.586   3.198  12.394  0.6075  0.2860 -0.4467
 6051SOL    HW229790   1.528   3.080  12.320  1.0365 -1.2284 -0.3530
 6052SOL     OW29791   4.620   4.543  16.902 -0.4518 -0.4519  0.4959
 6052SOL    HW129792   4.581   4.601  16.968 -2.3072  0.6395 -1.5797
 6052SOL    HW229793   4.690   4.591  16.857 -0.7159 -0.6775 -0.1492
 6053SOL     OW29794   2.501   0.961   5.472  1.1059 -0.2397  0.1599
 6053SOL    HW129795   2.443   0.885   5.483 -0.6791  1.3678  1.7101
 6053SOL    HW229796   2.459   1.029   5.523  1.7733 -1.4515  2.3146
 6054SOL     OW29797   0.643   0.506   2.408  0.1275 -0.3397 -0.3300
 6054SOL    HW129798   0.656   0.559   2.329 -0.5697 -0.3805 -0.4667
 6054SOL    HW229799   0.555   0.471   2.395  0.3808 -0.8172 -0.7317
 6055SOL     OW29800   2.515   3.386  17.552 -0.1183 -0.0453 -0.0511
 6055SOL    HW129801   2.421   3.375  17.548 -0.1924  1.1715 -1.7391
 6055SOL    HW229802   2.528   3.395  17.647 -1.7563 -1.4681  0.2861
 6056SOL     OW29803   4.692   2.689   0.317  0.0978  0.2988  0.2815
 6056SOL    HW129804   4.651   2.775   0.308 -1.6226 -0.2999  2.3330
 6056SOL    HW229805   4.609   2.642   0.325 -0.1459  0.6648 -0.1037
 6057SOL     OW29806   1.158   3.035   1.688 -0.2139  0.1418  0.2327
 6057SOL    HW129807   1.216   3.027   1.612  0.5133 -0.3249  0.8232
 6057SOL    HW229808   1.073   3.052   1.649 -0.5222  0.0041  0.8546
 6058SOL     OW29809   0.158   1.006   1.852  0.1714 -0.4107 -0.1381
 6058SOL    HW129810   0.103   0.928   1.845 -0.4760  0.1633 -1.4845
 6058SOL    HW229811   0.240   0.967   1.820  0.5566  0.5987 -0.3774
 6059SOL     OW29812   4.101   3.469   7.442  0.0942 -0.7797  0.3641
 6059SOL    HW129813   4.057   3.396   7.398  1.0838 -1.1934  0.0446
 6059SOL    HW229814   4.020   3.520   7.441  1.1722  0.9767  2.1405
 6060SOL     OW29815   4.266   0.764   0.556 -0.0855 -0.0346 -0.1860
 6060SOL    HW129816   4.304   0.684   0.594 -0.6518 -0.0114  0.4397
 6060SOL    HW229817   4.186   0.783   0.605 -0.8950 -1.1322 -1.0887
 6061SOL     OW29818   2.394   1.178   2.158 -0.5593 -0.2010 -0.0818
 6061SOL    HW129819   2.444   1.213   2.085  2.7274 -2.4813  1.0651
 6061SOL    HW229820   2.347   1.103   2.122 -1.2454 -0.0107  0.4133
 6062SOL     OW29821   0.274   1.480   8.599 -0.6714 -0.2021  0.1031
 6062SOL    HW129822   0.202   1.443   8.548 -0.6468  0.5226 -0.4686
 6062SOL    HW229823   0.223   1.528   8.664  1.6182 -1.8356  3.0514
 6063SOL     OW29824   0.054   4.462   2.692 -0.5237  0.0645 -0.3663
 6063SOL    HW129825   0.120   4.399   2.664 -1.3341 -0.0752 -1.9275
 6063SOL    HW229826   0.099   4.547   2.689  1.0065 -0.7438  0.0993
 6064SOL     OW29827   0.181   2.951   6.718 -0.3578 -0.3671  0.3359
 6064SOL    HW129828   0.169   3.025   6.778  1.2833 -1.2871  1.7694
 6064SOL    HW229829   0.235   2.989   6.648 -1.5963 -1.3366 -1.1564
 6065SOL     OW29830   2.763   0.716   0.315  0.3255  0.0063 -0.3188
 6065SOL    HW129831   2.843   0.752   0.277 -0.1587  2.6917  1.2416
 6065SOL    HW229832   2.787   0.630   0.351  0.5258 -0.0888 -0.6818
 6066SOL     OW29833   0.925   0.257   6.660  0.3421 -0.1344  0.3330
 6066SOL    HW129834   0.894   0.249   6.569  2.7031 -1.9461 -0.3037
 6066SOL    HW229835   0.958   0.347   6.655  3.2873 -1.3350 -1.1957
 6067SOL     OW29836   2.561   3.517   8.143  0.9079 -0.7110 -0.3557
 6067SOL    HW129837   2.559   3.588   8.207 -2.8748 -1.1874  0.0492
 6067SOL    HW229838   2.570   3.554   8.056  0.7644 -0.0194 -0.0769
 6068SOL     OW29839   4.467   2.765   6.434 -0.7583 -0.1380  0.0741
 6068SOL    HW129840   4.514   2.826   6.491 -2.8697 -1.2372  2.9495
 6068SOL    HW229841   4.455   2.830   6.364 -1.0320 -0.4344 -0.1559
 6069SOL     OW29842   3.523   0.415   5.825  0.0619  0.0676  0.2695
 6069SOL    HW129843   3.580   0.478   5.868 -0.1758 -0.7158  1.7389
 6069SOL    HW229844   3.450   0.412   5.886 -0.0009  1.7194  0.2773
 6070SOL     OW29845   3.452   1.883   7.467  0.1417  0.2929  0.8667
 6070SOL    HW129846   3.463   1.948   7.537 -0.1792  3.0926 -1.7045
 6070SOL    HW229847   3.452   1.804   7.521 -0.9425  0.4580  1.1037
 6071SOL     OW29848   4.298   4.373   6.047  0.2001 -0.1104 -0.1539
 6071SOL    HW129849   4.391   4.391   6.058 -0.1266  1.8769 -0.5979
 6071SOL    HW229850   4.252   4.456   6.032 -1.1856 -0.9194 -0.3601
 6072SOL     OW29851   2.669   2.911   3.568  0.0500  0.0231 -0.1930
 6072SOL    HW129852   2.711   2.912   3.653 -0.5270  2.9301  0.0657
 6072SOL    HW229853   2.627   2.825   3.571 -0.8740  0.5206  1.1219
 6073SOL     OW29854   4.578   1.390  17.623  0.2650  0.1221  0.7374
 6073SOL    HW129855   4.568   1.314  17.680  1.4163 -2.5382 -2.5879
 6073SOL    HW229856   4.643   1.449  17.662  0.8173  0.6368 -0.9461
 6074SOL     OW29857   0.650   3.471   9.190  0.0547 -0.2011 -0.1094
 6074SOL    HW129858   0.732   3.441   9.151  0.1816 -0.3386  0.2651
 6074SOL    HW229859   0.680   3.526   9.262 -1.3111  0.1962  0.1545
 6075SOL     OW29860   3.320   4.603  16.153  0.2081 -0.4081 -0.2934
 6075SOL    HW129861   3.387   4.658  16.111  1.4494 -0.9376  0.9979
 6075SOL    HW229862   3.253   4.666  16.180  1.1937  0.3931  0.2909
 6076SOL     OW29863   1.747   2.337   9.085 -0.0382  0.2432  0.0760
 6076SOL    HW129864   1.748   2.243   9.101 -0.8692  0.2435  0.1686
 6076SOL    HW229865   1.659   2.338   9.046 -0.2250  0.3314  0.4929
 6077SOL     OW29866   4.634   0.585   3.537 -0.2014 -0.5609 -0.1395
 6077SOL    HW129867   4.679   0.503   3.519  0.4607 -0.3774  0.6609
 6077SOL    HW229868   4.579   0.591   3.459 -0.8579 -1.4522  0.2433
 6078SOL     OW29869   3.081   0.096  12.130 -0.3036  0.2046  0.0702
 6078SOL    HW129870   3.001   0.096  12.077 -0.7944  2.8413  0.8370
 6078SOL    HW229871   3.060   0.012  12.171 -1.5325  1.1113  1.2946
 6079SOL     OW29872   4.092   0.600  10.930  0.2464  0.7990  0.0812
 6079SOL    HW129873   4.105   0.507  10.912 -1.4271  1.0917 -2.6441
 6079SOL    HW229874   4.172   0.644  10.903 -0.4852  2.1441  0.0742
 6080SOL     OW29875   4.575   2.776   6.761 -0.0277 -0.1132  0.1518
 6080SOL    HW129876   4.552   2.863   6.793 -1.4881 -1.3036  2.3727
 6080SOL    HW229877   4.667   2.790   6.740 -0.3668 -0.1659 -1.3166
 6081SOL     OW29878   0.620   3.089   3.477  0.2054  0.0338  0.8151
 6081SOL    HW129879   0.655   3.149   3.543  0.1103 -0.4613  1.3139
 6081SOL    HW229880   0.573   3.022   3.525 -0.7733  0.1388  0.0175
 6082SOL     OW29881   3.147   4.481   0.362 -0.2136 -0.3185 -0.5685
 6082SOL    HW129882   3.222   4.457   0.306  1.0498  0.7922  0.6597
 6082SOL    HW229883   3.085   4.521   0.302 -0.7111  0.9216  0.7869
 6083SOL     OW29884   1.501   2.098   6.995  0.1395 -0.2417  0.4069
 6083SOL    HW129885   1.547   2.155   6.933  2.2233  1.1154  3.1824
 6083SOL    HW229886   1.528   2.143   7.074  1.0432 -2.1762  1.1958
 6084SOL     OW29887   1.463   4.294  13.517  0.4781  0.5708 -0.4971
 6084SOL    HW129888   1.461   4.371  13.461 -2.1184 -0.6542 -2.1058
 6084SOL    HW229889   1.513   4.330  13.590  0.8190 -0.6142 -0.1475
 6085SOL     OW29890   2.143   3.955   2.407  0.5815 -0.5502 -0.2711
 6085SOL    HW129891   2.165   3.934   2.497  1.2316 -0.7194 -0.4748
 6085SOL    HW229892   2.120   3.868   2.376 -2.8516 -0.6840  2.6119
 6086SOL     OW29893   2.824   2.132   6.182  0.0296  0.1391  0.3008
 6086SOL    HW129894   2.793   2.189   6.112 -1.6274  1.3364  2.0114
 6086SOL    HW229895   2.739   2.101   6.214  1.1338 -1.9604  1.2011
 6087SOL     OW29896   2.335   1.134   4.009  0.1066 -0.2054  0.6921
 6087SOL    HW129897   2.412   1.098   3.964  0.5826 -0.6333  1.8586
 6087SOL    HW229898   2.307   1.199   3.944 -0.3533  0.1652  1.2701
 6088SOL     OW29899   1.947   3.009   9.285  0.5200  0.3259 -0.0584
 6088SOL    HW129900   1.949   3.040   9.375  1.6920 -1.3364  0.4927
 6088SOL    HW229901   1.948   3.096   9.245  0.3560 -0.1115 -1.0226
 6089SOL     OW29902   0.205   2.048  16.621 -0.4418 -0.5539 -0.1679
 6089SOL    HW129903   0.255   2.074  16.544  0.1770  0.2532  0.5022
 6089SOL    HW229904   0.227   1.955  16.629 -3.3664 -1.1713  0.9500
 6090SOL     OW29905   1.190   3.795   4.408  0.3268  0.3119 -0.6246
 6090SOL    HW129906   1.099   3.808   4.437  0.7739 -2.0130  1.8016
 6090SOL    HW229907   1.237   3.855   4.466  0.4471 -1.3597  0.9833
 6091SOL     OW29908   3.355   4.569   6.298  0.7999  0.0103  0.6722
 6091SOL    HW129909   3.302   4.497   6.331  1.2403  0.5886  2.6454
 6091SOL    HW229910   3.328   4.644   6.351 -0.8872 -1.5356  1.9588
 6092SOL     OW29911   3.073   3.448  12.982  0.0868 -0.2749  0.0954
 6092SOL    HW129912   3.014   3.469  12.909  0.1887 -0.4313 -0.0325
 6092SOL    HW229913   3.002   3.457  13.046  0.0904 -3.4839  0.5561
 6093SOL     OW29914   0.394   0.615   1.309 -0.0499 -0.0826 -0.0633
 6093SOL    HW129915   0.370   0.670   1.235  0.8323  0.5839  0.1367
 6093SOL    HW229916   0.488   0.627   1.292  0.3977 -0.8814  1.8865
 6094SOL     OW29917   3.270   2.796   2.410  0.0575  0.3275 -0.6047
 6094SOL    HW129918   3.232   2.805   2.497 -0.2543 -0.0721 -0.7016
 6094SOL    HW229919   3.239   2.709   2.383  1.2468 -0.8037  1.6480
 6095SOL     OW29920   4.580   1.374  11.359  0.1135  0.0305 -0.2675
 6095SOL    HW129921   4.573   1.305  11.424 -1.3422 -1.0839 -1.5974
 6095SOL    HW229922   4.598   1.319  11.283 -0.8105  1.0432 -1.2271
 6096SOL     OW29923   1.926   2.565   2.214 -1.0407 -0.9075  0.0534
 6096SOL    HW129924   1.849   2.516   2.189  0.0905 -2.2655 -0.7445
 6096SOL    HW229925   1.993   2.497   2.222  1.2757  1.5616  2.1763
 6097SOL     OW29926   2.461   2.422   4.561 -0.1569  0.3267 -0.5339
 6097SOL    HW129927   2.521   2.351   4.539 -0.4457  0.4401 -1.6674
 6097SOL    HW229928   2.489   2.475   4.486  1.2996 -0.5587 -0.6186
 6098SOL     OW29929   3.461   1.854   0.346  0.6752  0.0213 -0.9747
 6098SOL    HW129930   3.414   1.839   0.263 -1.7560  0.5516  0.2913
 6098SOL    HW229931   3.548   1.868   0.309  0.5637  2.6642 -0.2312
 6099SOL     OW29932   4.442   3.471  15.921  0.2218  0.3863  0.4970
 6099SOL    HW129933   4.365   3.454  15.974 -2.1514  3.4173 -2.0051
 6099SOL    HW229934   4.465   3.383  15.889  1.0656  0.8171 -0.1143
 6100SOL     OW29935   2.831   2.330   7.208  0.1019 -0.1348  0.1581
 6100SOL    HW129936   2.902   2.283   7.251 -0.3912 -1.4298 -0.4602
 6100SOL    HW229937   2.874   2.410   7.178  0.8202  0.1163  1.8667
 6101SOL     OW29938   3.379   3.623   5.435 -0.0975 -0.0764 -0.4707
 6101SOL    HW129939   3.319   3.549   5.421 -0.6391  0.1510  0.6969
 6101SOL    HW229940   3.333   3.673   5.502 -0.5328 -1.2703  0.1362
 6102SOL     OW29941   1.785   1.125   4.772 -0.0785 -0.2193 -0.3778
 6102SOL    HW129942   1.810   1.158   4.685 -2.1285  0.3503 -0.7544
 6102SOL    HW229943   1.792   1.202   4.829 -1.1042  1.5463 -2.6314
 6103SOL     OW29944   2.001   2.523   6.358 -0.5992 -1.0913  0.1348
 6103SOL    HW129945   1.961   2.508   6.443  1.3702  0.1048  1.2908
 6103SOL    HW229946   1.932   2.519   6.292 -0.9649  0.8430  0.3909
 6104SOL     OW29947   0.108   1.467  12.525 -0.0898 -0.5912 -0.3058
 6104SOL    HW129948   0.032   1.525  12.518  0.6993  0.4971  0.2170
 6104SOL    HW229949   0.083   1.433  12.611 -1.8465  0.1973 -0.5066
 6105SOL     OW29950   4.161   2.228   3.419  0.1309 -0.0514  0.2251
 6105SOL    HW129951   4.114   2.153   3.454 -0.8947  1.1081  1.3277
 6105SOL    HW229952   4.249   2.195   3.434 -0.2188 -0.7722  0.6799
 6106SOL     OW29953   0.195   4.699   7.901 -0.4189 -0.1562  0.0559
 6106SOL    HW129954   0.135   0.034   7.928 -0.8242 -0.1242 -0.9327
 6106SOL    HW229955   0.149   4.617   7.886 -0.6922  0.1094 -0.6069
 6107SOL     OW29956   4.417   2.041  15.140 -0.7463  0.1289  0.0839
 6107SOL    HW129957   4.325   2.057  15.161 -0.5746  0.7920  0.3368
 6107SOL    HW229958   4.427   2.073  15.050  2.2453  1.2997  0.8306
 6108SOL     OW29959   2.936   0.594   6.319  0.2476  0.1389 -0.4532
 6108SOL    HW129960   2.999   0.657   6.353 -0.1358  0.8268 -1.0168
 6108SOL    HW229961   2.867   0.599   6.385 -0.8346 -1.6250 -1.4661
 6109SOL     OW29962   4.568   0.167   5.220  0.2828  0.0191 -0.2543
 6109SOL    HW129963   4.556   0.083   5.265  1.7266 -0.0852 -0.0520
 6109SOL    HW229964   4.479   0.199   5.205  0.3486 -0.0776 -0.8591
 6110SOL     OW29965   3.853   2.089  14.882 -0.5481  0.0437  0.1838
 6110SOL    HW129966   3.834   2.057  14.970 -0.5197 -0.5462 -0.0280
 6110SOL    HW229967   3.864   2.182  14.902  0.9423  0.2450 -1.6011
 6111SOL     OW29968   0.572   3.485   6.991 -0.7010 -0.0602  0.5748
 6111SOL    HW129969   0.490   3.448   6.958 -0.5955 -0.3972  0.6891
 6111SOL    HW229970   0.637   3.415   6.981  1.3082  2.0454 -1.2785
 6112SOL     OW29971   1.171   0.157   2.579  0.4892  0.5350 -0.0760
 6112SOL    HW129972   1.190   0.247   2.552 -1.9465  0.7243 -1.1791
 6112SOL    HW229973   1.104   0.179   2.644  0.7425 -1.0322  0.7320
 6113SOL     OW29974   3.200   4.391   9.148  0.0961  0.0050  0.0046
 6113SOL    HW129975   3.266   4.325   9.126 -1.4698 -2.1747  1.9082
 6113SOL    HW229976   3.179   4.364   9.237 -0.4732 -2.5220 -0.9189
 6114SOL     OW29977   3.693   0.289  12.266  0.0802 -0.1385  0.0660
 6114SOL    HW129978   3.722   0.372  12.304 -2.1660 -0.1804  1.8890
 6114SOL    HW229979   3.682   0.235  12.345  2.3602 -0.8169 -0.0639
 6115SOL     OW29980   3.436   0.846   0.092 -0.0330 -0.4982  0.8053
 6115SOL    HW129981   3.440   0.942   0.095 -2.6807 -0.3559 -0.3907
 6115SOL    HW229982   3.446   0.840  17.735 -0.7554 -1.1420  0.7737
 6116SOL     OW29983   1.741   1.425  12.457 -0.1975  0.1566 -0.3134
 6116SOL    HW129984   1.685   1.437  12.380 -2.5987  0.2815  1.4864
 6116SOL    HW229985   1.789   1.343  12.441  1.2674  0.8756  0.4354
 6117SOL     OW29986   0.867   1.033   6.566  0.2969 -0.3984  0.3380
 6117SOL    HW129987   0.959   1.050   6.546  0.4277 -0.2356  1.0643
 6117SOL    HW229988   0.835   1.064   6.481  2.6642  2.1270  0.3650
 6118SOL     OW29989   4.237   2.590   1.462  0.2932  0.6977  0.3704
 6118SOL    HW129990   4.268   2.585   1.371 -0.2428  0.4110  0.2040
 6118SOL    HW229991   4.293   2.522   1.498  0.0605  0.8579  1.0234
 6119SOL     OW29992   3.377   3.029  17.522 -0.6152  0.2916  0.5413
 6119SOL    HW129993   3.427   3.045  17.443 -2.8152 -3.1255 -1.5605
 6119SOL    HW229994   3.376   3.120  17.550  1.3886  0.6294 -0.5036
 6120SOL     OW29995   0.085   2.979   5.899 -0.1345 -0.1221 -0.1112
 6120SOL    HW129996   0.116   3.057   5.946  1.3168  0.3857 -1.9224
 6120SOL    HW229997   0.057   2.928   5.975 -0.4630  4.4910  2.8971
 6121SOL     OW29998   3.732   3.075   3.230 -0.0649  0.0639 -0.1752
 6121SOL    HW129999   3.698   3.122   3.306 -1.2024  1.4815 -1.5545
 6121SOL    HW230000   3.777   3.006   3.279  1.0513  1.9060  1.4030
 6122SOL     OW30001   0.670   3.885  14.371  0.1516 -0.7191 -0.4295
 6122SOL    HW130002   0.741   3.850  14.317  0.7190  1.1844 -0.9342
 6122SOL    HW230003   0.726   3.934  14.432 -1.6485  0.4081  0.3195
 6123SOL     OW30004   3.624   0.302   3.274  0.1160 -0.0965  0.0138
 6123SOL    HW130005   3.681   0.272   3.345 -0.0789 -0.9771 -0.1941
 6123SOL    HW230006   3.543   0.332   3.314  0.3289  0.9352 -0.3235
 6124SOL     OW30007   0.944   1.717   9.282 -0.0457  0.0556  0.3276
 6124SOL    HW130008   0.944   1.741   9.190  0.0259 -1.8303 -0.1595
 6124SOL    HW230009   0.876   1.779   9.307 -1.2166 -0.5794 -1.3301
 6125SOL     OW30010   2.535   1.003   6.849  0.5700  0.3174 -0.6267
 6125SOL    HW130011   2.445   0.980   6.829  1.8178 -2.5798 -2.9471
 6125SOL    HW230012   2.530   1.097   6.871 -1.4133  0.0302  0.1633
 6126SOL     OW30013   2.867   1.769   7.403  0.3842 -0.1999  0.2626
 6126SOL    HW130014   2.813   1.690   7.412 -0.0379  0.2402  1.4990
 6126SOL    HW230015   2.819   1.827   7.344  0.5209 -0.6198 -0.2718
 6127SOL     OW30016   3.225   3.391   6.099 -0.1222 -0.1128 -0.1284
 6127SOL    HW130017   3.263   3.361   6.182  0.8289  0.3445 -0.4058
 6127SOL    HW230018   3.213   3.483   6.120  1.7533 -0.2789  1.6370
 6128SOL     OW30019   2.947   0.895  14.977  0.1926  0.2318  0.0776
 6128SOL    HW130020   2.911   0.980  15.000  0.0765  0.2056 -0.0109
 6128SOL    HW230021   2.868   0.841  14.985 -1.5269  3.0319  1.6167
 6129SOL     OW30022   3.116   1.786   6.410 -0.1945 -0.0714 -0.3562
 6129SOL    HW130023   3.173   1.856   6.442 -1.7020  1.6432 -1.4179
 6129SOL    HW230024   3.166   1.705   6.421  0.8260  0.7687  1.2160
 6130SOL     OW30025   2.521   1.718   8.389 -0.6858  0.1967  0.6512
 6130SOL    HW130026   2.614   1.697   8.384 -0.3045  1.7204  1.2616
 6130SOL    HW230027   2.504   1.778   8.316 -1.4707 -1.6126 -0.6768
 6131SOL     OW30028   1.174   3.799   7.815 -0.3099  0.3419  0.0566
 6131SOL    HW130029   1.134   3.885   7.799  1.2488  0.4814 -3.1310
 6131SOL    HW230030   1.111   3.763   7.877  0.5471 -1.5056 -0.1593
 6132SOL     OW30031   1.135   3.523  12.509 -0.2094  0.0124 -0.6964
 6132SOL    HW130032   1.188   3.599  12.488  0.1235 -0.8546 -2.9984
 6132SOL    HW230033   1.052   3.569  12.524 -0.5389 -1.0443  0.7232
 6133SOL     OW30034   4.216   2.188   4.593 -0.2724  0.0687  0.2015
 6133SOL    HW130035   4.288   2.125   4.597  1.0155  1.4284 -1.4096
 6133SOL    HW230036   4.178   2.156   4.510 -0.2956 -0.9171  0.5877
 6134SOL     OW30037   3.348   4.619   2.924  0.0647 -0.5033 -0.7875
 6134SOL    HW130038   3.255   4.615   2.948  0.5645 -0.8950  1.0824
 6134SOL    HW230039   3.386   4.683   2.984  1.6934 -1.0833 -1.2160
 6135SOL     OW30040   1.271   2.316  14.073  0.3010 -0.0332 -0.5772
 6135SOL    HW130041   1.215   2.277  14.140  2.0961 -0.5722  0.6137
 6135SOL    HW230042   1.247   2.408  14.085  2.4387  0.5940 -1.1175
 6136SOL     OW30043   1.057   2.664  11.453 -0.1537  0.6109 -0.7683
 6136SOL    HW130044   0.969   2.627  11.458 -0.3188  1.2826  1.2329
 6136SOL    HW230045   1.100   2.579  11.451 -1.5610 -0.1517  1.5574
 6137SOL     OW30046   2.885   2.668   7.955 -0.4114 -0.4176  0.1753
 6137SOL    HW130047   2.796   2.633   7.951 -0.2734 -0.6485 -0.7187
 6137SOL    HW230048   2.926   2.582   7.961  1.6958  0.4959 -1.3292
 6138SOL     OW30049   3.555   1.172  12.760  0.0901  0.1246  0.0662
 6138SOL    HW130050   3.479   1.228  12.777 -2.9721 -4.2212  0.9596
 6138SOL    HW230051   3.634   1.210  12.799 -2.1970  3.6682  1.2206
 6139SOL     OW30052   1.768   4.191   1.690  0.4810  0.2019  0.1589
 6139SOL    HW130053   1.716   4.214   1.614 -0.3105 -3.2179 -0.3337
 6139SOL    HW230054   1.752   4.097   1.694 -0.9580  0.5397  2.5473
 6140SOL     OW30055   2.492   2.853   9.600  0.0653  0.1661  0.0640
 6140SOL    HW130056   2.486   2.790   9.529  1.5327 -0.5717  0.5805
 6140SOL    HW230057   2.482   2.792   9.673 -1.4305  0.2297 -0.0950
 6141SOL     OW30058   2.036   0.625  16.047  0.3999  0.2242 -0.2850
 6141SOL    HW130059   2.126   0.653  16.034  0.7905 -0.8170  0.2073
 6141SOL    HW230060   1.998   0.711  16.068  0.1301 -0.1204  0.6354
 6142SOL     OW30061   4.605   0.448  15.028 -0.5355 -0.6218 -0.5423
 6142SOL    HW130062   4.641   0.473  14.943  0.6969  0.7563  0.3765
 6142SOL    HW230063   4.661   0.503  15.084 -1.6319  0.6135 -0.6638
 6143SOL     OW30064   2.713   2.634   6.604 -0.5615 -0.0860 -0.0639
 6143SOL    HW130065   2.666   2.711   6.571  0.6150 -0.0162 -1.5520
 6143SOL    HW230066   2.634   2.582   6.622 -0.8728 -0.2783 -1.9966
 6144SOL     OW30067   0.862   2.422  17.623 -0.3508 -0.2347 -0.6347
 6144SOL    HW130068   0.794   2.381  17.570 -1.2270  0.2708  0.0978
 6144SOL    HW230069   0.910   2.347  17.657  0.8459 -0.0666 -1.9347
 6145SOL     OW30070   1.383   3.877   0.764 -1.0063 -0.3440 -0.4904
 6145SOL    HW130071   1.393   3.818   0.690  0.1692 -0.0428 -0.5778
 6145SOL    HW230072   1.412   3.958   0.721 -0.0591 -0.1396  0.5304
 6146SOL     OW30073   2.626   0.756   3.019 -0.3640  0.2821  0.5134
 6146SOL    HW130074   2.667   0.841   3.032 -1.3948  1.1068 -1.6351
 6146SOL    HW230075   2.536   0.789   3.015 -0.8846 -1.4049 -1.6595
 6147SOL     OW30076   1.396   3.561   4.077 -0.0677  0.6628  0.6902
 6147SOL    HW130077   1.301   3.560   4.091  0.0090  0.4039  1.1777
 6147SOL    HW230078   1.412   3.655   4.089 -1.3618  0.7174  2.0881
 6148SOL     OW30079   2.594   2.889   2.896 -0.2850  0.4058 -0.0879
 6148SOL    HW130080   2.676   2.844   2.916 -1.4439 -1.8939 -0.5913
 6148SOL    HW230081   2.621   2.956   2.833 -2.8696  0.1942 -1.3983
 6149SOL     OW30082   2.774   4.298   5.135  0.9351  0.5139  0.3322
 6149SOL    HW130083   2.727   4.347   5.068 -1.9658 -1.4142  0.9078
 6149SOL    HW230084   2.722   4.219   5.153  1.4297  0.6237  2.2604
 6150SOL     OW30085   1.675   2.251   6.819 -1.0438  0.7904  0.4602
 6150SOL    HW130086   1.647   2.206   6.739 -0.1275  0.3118  0.4112
 6150SOL    HW230087   1.631   2.336   6.809 -2.1611  0.1887  0.3159
 6151SOL     OW30088   3.175   0.856   3.527  0.2520 -0.9065  0.4205
 6151SOL    HW130089   3.215   0.784   3.576  0.5156  0.1084  1.6901
 6151SOL    HW230090   3.083   0.832   3.518 -0.2766  1.2285  0.1329
 6152SOL     OW30091   0.607   1.620   8.064  0.0771  0.3060 -0.2886
 6152SOL    HW130092   0.651   1.556   8.008  0.0357 -0.1461  0.1877
 6152SOL    HW230093   0.517   1.616   8.031 -0.0672 -3.3724  0.5195
 6153SOL     OW30094   3.957   1.821   3.112  1.0147  0.3968  0.2945
 6153SOL    HW130095   3.880   1.788   3.066  0.3842  0.6436  1.1601
 6153SOL    HW230096   3.921   1.895   3.161  1.0425  0.8488 -0.3714
 6154SOL     OW30097   2.721   1.418   6.692 -0.0365  0.2297  0.2209
 6154SOL    HW130098   2.651   1.383   6.746 -1.0118  0.6733 -0.7470
 6154SOL    HW230099   2.676   1.438   6.610  1.4133 -0.7933 -0.8346
 6155SOL     OW30100   4.525   1.088  12.661  0.2315 -0.6545  0.2466
 6155SOL    HW130101   4.449   1.145  12.649  0.0712 -0.9543 -0.1477
 6155SOL    HW230102   4.595   1.149  12.688  0.4895 -0.5506 -0.6536
 6156SOL     OW30103   0.695   4.545   2.593  1.1173 -0.7639 -0.6141
 6156SOL    HW130104   0.614   4.497   2.578 -0.7299  2.1838  0.0196
 6156SOL    HW230105   0.763   4.486   2.559  0.1105 -1.5268 -1.2826
 6157SOL     OW30106   0.321   2.754   8.883  0.1935 -0.4894  0.4220
 6157SOL    HW130107   0.252   2.815   8.858  0.6772  0.2547  0.9080
 6157SOL    HW230108   0.397   2.794   8.841  1.2013 -2.4907  0.3421
 6158SOL     OW30109   0.413   0.513   2.873  0.5708  0.1347  0.3058
 6158SOL    HW130110   0.456   0.453   2.934  1.9136  1.4428  0.6386
 6158SOL    HW230111   0.468   0.592   2.871  1.2570 -0.3627 -0.1590
 6159SOL     OW30112   2.822   2.568  12.761 -0.3024  0.6729 -0.2650
 6159SOL    HW130113   2.880   2.640  12.785 -0.0571 -0.2457  1.8827
 6159SOL    HW230114   2.756   2.622  12.718  0.9694  0.6043 -2.3016
 6160SOL     OW30115   2.413   0.495   8.730 -0.0965 -0.1708  0.1330
 6160SOL    HW130116   2.345   0.557   8.704  0.5936 -0.0897 -1.4824
 6160SOL    HW230117   2.498   0.533   8.707  0.6756 -1.9167  0.1268
 6161SOL     OW30118   3.116   2.971  17.606  0.3044 -0.3735  0.5863
 6161SOL    HW130119   3.148   2.952  17.694  0.4089  0.6299  0.7674
 6161SOL    HW230120   3.204   2.982  17.570 -0.4731  0.4172 -1.0769
 6162SOL     OW30121   4.265   0.134  14.716 -0.4300 -0.0068  0.5545
 6162SOL    HW130122   4.170   0.126  14.725 -0.6542  3.8483  1.3925
 6162SOL    HW230123   4.271   0.228  14.729 -1.1236  0.1718 -0.3589
 6163SOL     OW30124   0.978   0.835  16.080 -0.3397 -0.0514 -0.2370
 6163SOL    HW130125   0.974   0.908  16.142 -0.1857  0.4560 -0.8237
 6163SOL    HW230126   1.017   0.770  16.139  0.6639 -1.5787 -2.6027
 6164SOL     OW30127   0.034   1.556  16.934 -1.0712  0.1216 -0.3436
 6164SOL    HW130128   0.108   1.604  16.969 -0.1589 -0.2061 -1.8092
 6164SOL    HW230129   4.703   1.545  17.003 -0.8667  2.6511  0.2291
 6165SOL     OW30130   1.938   1.583   4.490 -0.0612 -0.3150  0.1804
 6165SOL    HW130131   1.941   1.537   4.573 -0.3781  1.6024  1.2594
 6165SOL    HW230132   1.895   1.517   4.435  1.3471 -0.8635 -0.2672
 6166SOL     OW30133   1.050   3.094   8.473  0.4428  0.0402  0.7679
 6166SOL    HW130134   1.133   3.087   8.519  1.7224  2.0222 -1.2372
 6166SOL    HW230135   1.009   3.008   8.484  0.8434 -0.1657  0.6693
 6167SOL     OW30136   3.309   0.007  10.737 -0.3890 -0.2007  0.0469
 6167SOL    HW130137   3.389   0.053  10.764 -1.4110  1.4039  0.3393
 6167SOL    HW230138   3.248   0.037  10.805  0.7362  0.7614  0.6327
 6168SOL     OW30139   2.596   4.222  16.997 -0.4463  0.1679 -0.5763
 6168SOL    HW130140   2.594   4.133  17.033  1.6955  0.4735  0.2429
 6168SOL    HW230141   2.526   4.206  16.934 -1.1916  0.1273  0.2612
 6169SOL     OW30142   4.492   1.815   2.476 -0.3174  0.7861 -0.8327
 6169SOL    HW130143   4.416   1.824   2.534 -0.7459  0.8386 -1.3986
 6169SOL    HW230144   4.558   1.775   2.532 -1.4718  0.7886  0.5323
 6170SOL     OW30145   2.147   0.913  15.988 -0.1372  0.5986  0.0314
 6170SOL    HW130146   2.083   0.898  16.057 -1.0513 -1.0328 -1.1717
 6170SOL    HW230147   2.106   0.980  15.933  1.0312  0.2737 -1.2414
 6171SOL     OW30148   1.619   1.334   8.026 -0.2590 -0.5269  0.6864
 6171SOL    HW130149   1.556   1.390   7.981  1.9183  2.4617  1.3766
 6171SOL    HW230150   1.577   1.318   8.111 -3.7711  0.4985 -0.8487
 6172SOL     OW30151   2.374   2.905   4.845  0.0639  1.0084 -0.0464
 6172SOL    HW130152   2.362   2.874   4.755  0.6030  0.6323  0.0142
 6172SOL    HW230153   2.352   2.828   4.897 -1.7220  0.9751 -0.8487
 6173SOL     OW30154   2.462   0.193   2.166 -0.3594  0.7998 -0.1267
 6173SOL    HW130155   2.529   0.211   2.100  0.1679 -1.4882 -0.1944
 6173SOL    HW230156   2.421   0.280   2.165  0.9825  1.3969 -2.5994
 6174SOL     OW30157   0.111   3.477   2.899 -0.8206  0.1210  0.0486
 6174SOL    HW130158   0.147   3.531   2.969 -0.9839 -1.6858  1.5414
 6174SOL    HW230159   0.193   3.441   2.863 -1.1045  1.2931 -1.7529
 6175SOL     OW30160   4.657   1.280  12.391 -0.9402 -0.1975 -0.5101
 6175SOL    HW130161   4.730   1.223  12.414 -2.1408 -1.7755 -0.6396
 6175SOL    HW230162   4.699   1.357  12.431 -0.5992 -0.6457 -0.0132
 6176SOL     OW30163   1.512   1.216   5.367  0.1955  0.2924 -0.2216
 6176SOL    HW130164   1.579   1.152   5.343 -1.0937 -1.4006  0.6572
 6176SOL    HW230165   1.437   1.160   5.348  2.6891 -2.5792 -1.5852
 6177SOL     OW30166   1.044   3.781  17.585 -0.7067  0.4193 -0.0790
 6177SOL    HW130167   1.006   3.727  17.654  0.1523  1.5513  1.2883
 6177SOL    HW230168   1.095   3.716  17.537 -1.8538 -1.1036  0.7744
 6178SOL     OW30169   2.048   2.987   2.230  0.1746 -0.4871 -0.2928
 6178SOL    HW130170   2.050   3.081   2.211 -2.7550 -0.9560 -2.8659
 6178SOL    HW230171   1.954   2.971   2.217 -0.0506  1.0836 -0.6419
 6179SOL     OW30172   0.258   4.677   6.997 -0.4708  0.2538 -0.2048
 6179SOL    HW130173   0.188   4.617   7.021 -1.0122 -0.0452 -2.5158
 6179SOL    HW230174   0.320   4.623   6.948 -0.4956  0.0020  0.0402
 6180SOL     OW30175   0.640   2.400   9.410 -0.5754 -0.2896 -0.3511
 6180SOL    HW130176   0.547   2.424   9.407 -0.4346  0.3591  0.7072
 6180SOL    HW230177   0.664   2.418   9.319  0.9925 -0.7771 -0.0319
 6181SOL     OW30178   3.173   1.126  11.546 -0.1983  0.2877 -0.3009
 6181SOL    HW130179   3.115   1.162  11.613 -1.0034 -1.1615 -0.2072
 6181SOL    HW230180   3.226   1.204  11.533  1.9996 -1.6153 -2.6802
 6182SOL     OW30181   2.804   2.293   6.888  0.5306  0.2306 -0.3327
 6182SOL    HW130182   2.709   2.287   6.881  0.4446  1.9187 -0.6032
 6182SOL    HW230183   2.820   2.353   6.961 -0.6914  0.7117 -0.4701
 6183SOL     OW30184   0.883   2.803   5.487  0.2925 -0.3120 -0.0699
 6183SOL    HW130185   0.963   2.750   5.489  0.3525 -0.1950  0.6195
 6183SOL    HW230186   0.928   2.880   5.524 -0.6102  1.8610 -3.5246
 6184SOL     OW30187   0.710   3.942   3.165 -0.0916 -0.3157 -0.2614
 6184SOL    HW130188   0.626   3.916   3.128  0.3167 -0.8254 -0.8245
 6184SOL    HW230189   0.756   3.964   3.084 -1.9890 -2.0574 -1.8162
 6185SOL     OW30190   3.687   4.153   2.693  0.3652 -0.1024  0.1724
 6185SOL    HW130191   3.773   4.191   2.715  0.3201 -0.3134  0.7109
 6185SOL    HW230192   3.658   4.215   2.626  1.3824 -0.0323 -0.2017
 6186SOL     OW30193   3.810   2.948   1.941 -0.2814  0.3374 -0.0294
 6186SOL    HW130194   3.798   3.031   1.988 -0.1331  0.3477 -0.0079
 6186SOL    HW230195   3.786   2.886   2.009 -2.2397  1.3626  0.2063
 6187SOL     OW30196   0.804   0.970   8.295  0.6609  0.2199 -0.2291
 6187SOL    HW130197   0.799   0.882   8.333 -0.9619 -0.1006 -1.2031
 6187SOL    HW230198   0.764   0.950   8.211  2.3963 -1.8861 -0.5473
 6188SOL     OW30199   4.028   4.604   2.725 -0.1010 -0.1451  0.0331
 6188SOL    HW130200   4.070   4.690   2.733  1.1170 -0.5626 -1.8963
 6188SOL    HW230201   3.935   4.620   2.741 -0.8296 -1.5833 -2.8444
 6189SOL     OW30202   0.934   0.420   7.628  0.2380  0.0143 -0.4161
 6189SOL    HW130203   0.950   0.416   7.722  1.3738 -5.2867 -0.8168
 6189SOL    HW230204   1.022   0.443   7.599  1.8207 -2.5442  2.3163
 6190SOL     OW30205   2.258   0.205   5.108 -0.2303 -0.3936 -0.0906
 6190SOL    HW130206   2.275   0.187   5.015 -1.5725  0.1076 -0.4269
 6190SOL    HW230207   2.166   0.223   5.089 -0.5770 -1.3018  0.7268
 6191SOL     OW30208   0.841   3.648   3.915  0.3277  0.1643 -0.3756
 6191SOL    HW130209   0.821   3.709   3.986 -2.0600 -0.5333 -0.4304
 6191SOL    HW230210   0.758   3.600   3.918  0.1155  0.5254 -0.3941
 6192SOL     OW30211   4.009   0.254   4.224  0.1988 -0.5078 -0.1631
 6192SOL    HW130212   3.987   0.161   4.222 -0.1040 -0.4608  1.5688
 6192SOL    HW230213   3.937   0.272   4.284  1.9190  0.1739  1.6969
 6193SOL     OW30214   2.960   2.385  11.473  0.0043  0.5210  0.6286
 6193SOL    HW130215   2.878   2.344  11.498 -0.5033  1.8571  1.1308
 6193SOL    HW230216   3.018   2.311  11.491  0.7270  0.8997 -0.1404
 6194SOL     OW30217   0.559   2.314   2.691  0.0415  0.4360  0.1952
 6194SOL    HW130218   0.517   2.317   2.776  0.8818 -2.8307  0.7037
 6194SOL    HW230219   0.610   2.394   2.679  0.9388  0.0148  1.1734
 6195SOL     OW30220   3.946   0.442   6.007 -0.6061 -0.5601  0.3050
 6195SOL    HW130221   4.008   0.515   6.003 -1.0734 -0.1256  1.0000
 6195SOL    HW230222   3.988   0.387   6.074 -0.9318 -0.3534  0.6744
 6196SOL     OW30223   1.980   2.704   3.672  0.2563  0.2721 -0.0620
 6196SOL    HW130224   1.911   2.654   3.629  0.4960 -0.1991  0.1007
 6196SOL    HW230225   1.944   2.704   3.761  0.8964  1.0966  0.2013
 6197SOL     OW30226   1.554   1.472   4.057 -0.4227 -0.7129 -0.0802
 6197SOL    HW130227   1.459   1.461   4.047 -0.9295  2.8974  0.7711
 6197SOL    HW230228   1.589   1.400   4.005 -0.3369 -0.4425 -0.3934
 6198SOL     OW30229   0.718   2.600   4.417  0.1841 -0.2599 -0.3528
 6198SOL    HW130230   0.661   2.556   4.354  0.6333  0.4988 -1.3092
 6198SOL    HW230231   0.707   2.689   4.383 -0.3716 -0.0112  0.4845
 6199SOL     OW30232   0.168   2.310   1.635  0.1547 -0.1062  0.4174
 6199SOL    HW130233   0.105   2.373   1.670 -2.3762 -2.9864  1.0773
 6199SOL    HW230234   0.134   2.292   1.547  0.4376  1.1100  0.0519
 6200SOL     OW30235   2.049   3.024   8.371 -0.1436  0.4764 -0.0120
 6200SOL    HW130236   1.980   2.991   8.429 -1.8780  2.9586 -0.6863
 6200SOL    HW230237   2.127   3.019   8.427 -0.6727 -0.4885  0.6530
 6201SOL     OW30238   1.433   3.460   2.448 -0.1855  0.0398  0.0671
 6201SOL    HW130239   1.383   3.530   2.490  0.4751 -0.0404  0.9775
 6201SOL    HW230240   1.370   3.430   2.383  0.1375  0.9305 -0.6512
 6202SOL     OW30241   3.356   4.253   5.464  0.0385  0.0681 -0.6439
 6202SOL    HW130242   3.271   4.290   5.442 -0.1958 -0.8681 -1.3486
 6202SOL    HW230243   3.341   4.160   5.444 -0.0468  0.0485 -0.4859
 6203SOL     OW30244   0.626   4.563   6.079 -0.0834 -0.3203 -0.0109
 6203SOL    HW130245   0.708   4.526   6.113 -0.8820 -2.0717 -0.0243
 6203SOL    HW230246   0.563   4.500   6.114  1.6317 -0.3804  2.9801
 6204SOL     OW30247   3.603   0.270   3.717 -0.4494  0.7025 -0.3600
 6204SOL    HW130248   3.605   0.318   3.634 -1.9162 -0.6260 -1.1510
 6204SOL    HW230249   3.605   0.338   3.785  0.3074 -1.0403  1.3537
 6205SOL     OW30250   3.797   2.112   1.388 -0.2364 -0.4221  0.4609
 6205SOL    HW130251   3.727   2.155   1.340  0.6729 -1.0760 -1.4347
 6205SOL    HW230252   3.747   2.041   1.429 -0.7569  0.4628  1.3645
 6206SOL     OW30253   2.085   2.907   5.616 -0.5021 -0.5680  0.3479
 6206SOL    HW130254   2.145   2.934   5.547  0.3701  0.2980  1.4624
 6206SOL    HW230255   2.119   2.817   5.622 -0.9775 -0.9122 -1.9534
 6207SOL     OW30256   4.661   1.419  12.159 -0.4099  0.2089  0.1867
 6207SOL    HW130257   4.655   1.355  12.230  1.8127 -0.1576  0.0469
 6207SOL    HW230258   4.596   1.388  12.097 -0.0116 -0.3822  0.0642
 6208SOL     OW30259   0.441   1.128   0.916  0.1240  0.6195  0.3056
 6208SOL    HW130260   0.529   1.098   0.937 -0.5511 -0.2917  1.8361
 6208SOL    HW230261   0.397   1.100   0.996  1.0312 -0.3654  0.4624
 6209SOL     OW30262   3.567   0.128   9.970 -0.3482 -0.2568 -0.4024
 6209SOL    HW130263   3.648   0.076   9.970 -1.4149 -1.9307  2.7922
 6209SOL    HW230264   3.501   0.061   9.983  0.9739 -1.7489 -1.3360
 6210SOL     OW30265   4.644   2.848  12.648 -0.0607  0.1880 -0.3186
 6210SOL    HW130266   4.631   2.890  12.733  0.5517  1.1357 -0.6920
 6210SOL    HW230267   4.589   2.771  12.664  1.0996 -0.8092 -1.1223
 6211SOL     OW30268   1.352   4.065   9.926  0.3240 -0.0292 -0.3383
 6211SOL    HW130269   1.257   4.054   9.912  0.2090 -1.3086  1.4869
 6211SOL    HW230270   1.373   4.032  10.013  2.0154 -1.2787 -1.2511
 6212SOL     OW30271   3.286   2.928  14.365  0.7114 -0.7091  0.9032
 6212SOL    HW130272   3.340   2.972  14.300 -2.5045 -1.3874 -2.2288
 6212SOL    HW230273   3.262   3.008  14.412 -0.6178 -1.5058  1.5959
 6213SOL     OW30274   3.918   2.924   6.158  0.4989  0.0699 -0.1747
 6213SOL    HW130275   3.841   2.884   6.199  0.1303  1.6523  0.6388
 6213SOL    HW230276   3.926   2.867   6.081  0.4098 -0.7140  0.3879
 6214SOL     OW30277   0.746   1.700   5.768 -0.9452  0.0454  0.6676
 6214SOL    HW130278   0.665   1.663   5.805 -1.1295 -0.7486 -0.5070
 6214SOL    HW230279   0.748   1.655   5.683  1.8975 -1.4036  1.5272
 6215SOL     OW30280   3.622   3.069   4.203  0.5374 -0.0442 -0.6293
 6215SOL    HW130281   3.710   3.108   4.205  1.3121 -1.7703 -0.4765
 6215SOL    HW230282   3.571   3.145   4.176  3.8273  2.2010 -0.5019
 6216SOL     OW30283   2.473   3.308  17.284 -0.2787  0.5397 -0.1202
 6216SOL    HW130284   2.385   3.332  17.256 -0.0890  0.1010 -1.1120
 6216SOL    HW230285   2.488   3.355  17.366 -3.1811 -1.0272  1.3115
 6217SOL     OW30286   4.561   0.948  17.420  0.1799 -0.0711 -0.5483
 6217SOL    HW130287   4.504   0.959  17.497 -0.6738  1.7167 -1.4275
 6217SOL    HW230288   4.608   1.031  17.418 -2.0479  1.2282  1.1589
 6218SOL     OW30289   2.112   1.363   2.064  0.3417  0.1940  0.4009
 6218SOL    HW130290   2.134   1.358   1.971 -2.9000  0.8603 -0.3833
 6218SOL    HW230291   2.080   1.274   2.081 -3.3901  1.4358 -0.1689
 6219SOL     OW30292   1.462   4.329  14.882 -0.0534  0.3342  0.0168
 6219SOL    HW130293   1.424   4.270  14.946 -0.3855 -0.3572 -0.8149
 6219SOL    HW230294   1.554   4.329  14.909 -0.7038 -1.4840  2.2162
 6220SOL     OW30295   4.476   0.940  15.483  0.6125  0.1031 -0.1998
 6220SOL    HW130296   4.546   1.005  15.490 -0.3668  1.0111  1.1961
 6220SOL    HW230297   4.474   0.909  15.574 -1.1888  2.5882  0.6232
 6221SOL     OW30298   4.719   1.043   3.672  0.3154  0.1281  0.7203
 6221SOL    HW130299   4.652   1.105   3.702 -1.3662 -0.6234 -1.4433
 6221SOL    HW230300   0.030   1.028   3.755  0.3415 -1.1681  0.4749
 6222SOL     OW30301   4.092   0.393   0.219 -0.6204 -0.1590  0.3175
 6222SOL    HW130302   4.033   0.324   0.187  1.1188 -1.8344  0.7551
 6222SOL    HW230303   4.151   0.346   0.277  1.7903  2.0504 -0.3392
 6223SOL     OW30304   3.713   0.357   8.171  0.2457 -0.4492 -0.3306
 6223SOL    HW130305   3.692   0.443   8.136  0.4428 -0.1310  0.3428
 6223SOL    HW230306   3.789   0.374   8.226  0.7614 -1.3809 -0.7577
 6224SOL     OW30307   3.729   0.907   6.067  0.2273 -0.8819  0.5060
 6224SOL    HW130308   3.737   0.965   6.142  0.8613  0.9418 -0.9558
 6224SOL    HW230309   3.741   0.819   6.102 -0.3340 -0.9744  0.4505
 6225SOL     OW30310   1.707   3.588   1.388 -0.2026  0.1574 -0.0469
 6225SOL    HW130311   1.643   3.656   1.407 -1.6987 -0.4165 -2.9735
 6225SOL    HW230312   1.772   3.644   1.344 -1.3174  1.5028  0.0146
 6226SOL     OW30313   2.928   2.984  14.897 -0.1367  0.1076 -0.0164
 6226SOL    HW130314   2.906   3.027  14.980 -0.2419 -0.8833  0.4737
 6226SOL    HW230315   2.923   2.893  14.927 -0.1562 -0.2279 -1.0571
 6227SOL     OW30316   1.907   0.141   7.263 -0.2495  0.3540 -0.1835
 6227SOL    HW130317   1.908   0.132   7.358  0.8316  0.1113 -0.2130
 6227SOL    HW230318   1.867   0.227   7.251 -1.4712 -0.2953 -0.7810
 6228SOL     OW30319   1.820   0.446  12.726 -0.1251  0.6110  0.0047
 6228SOL    HW130320   1.911   0.442  12.697  0.6702  1.0313  2.4340
 6228SOL    HW230321   1.794   0.355  12.735 -0.3954  0.4544 -2.5785
 6229SOL     OW30322   2.356   1.626  17.167  0.2872 -0.0643  0.2092
 6229SOL    HW130323   2.267   1.650  17.196 -0.0564 -1.3246  0.1894
 6229SOL    HW230324   2.411   1.652  17.241  0.8994 -2.6374  0.6538
 6230SOL     OW30325   1.679   0.247   0.859 -0.5012 -0.3981  0.1629
 6230SOL    HW130326   1.740   0.200   0.916  1.1414 -0.2431 -1.4535
 6230SOL    HW230327   1.696   0.337   0.887 -1.2566 -0.8363  1.9632
 6231SOL     OW30328   0.344   1.624  17.274  0.6313 -0.2427 -0.3535
 6231SOL    HW130329   0.317   1.602  17.185 -1.0180  0.8160 -0.1103
 6231SOL    HW230330   0.303   1.707  17.299  0.0663 -0.8996  0.8953
 6232SOL     OW30331   2.493   1.374  10.999 -0.2379 -0.6490  0.0450
 6232SOL    HW130332   2.586   1.368  11.023 -0.2053 -1.6125 -0.3091
 6232SOL    HW230333   2.484   1.453  10.947 -0.2433 -1.9437 -1.9318
 6233SOL     OW30334   1.041   3.537   3.211 -0.2537 -0.1589 -0.6606
 6233SOL    HW130335   1.102   3.558   3.282 -2.4890  0.1287  1.1829
 6233SOL    HW230336   1.070   3.596   3.141  2.3444  1.8594  2.1017
 6234SOL     OW30337   0.840   4.198   0.703 -0.1726 -0.5590  0.9671
 6234SOL    HW130338   0.833   4.229   0.793  2.1074 -1.7880  1.5617
 6234SOL    HW230339   0.911   4.135   0.714 -1.0913 -0.9978  4.2886
 6235SOL     OW30340   3.878   2.093   9.727 -0.2225  0.6844 -0.6264
 6235SOL    HW130341   3.836   2.040   9.660 -2.3003  0.3167  0.9773
 6235SOL    HW230342   3.802   2.148   9.747  0.5830  1.9379 -1.0457
 6236SOL     OW30343   2.346   2.804  16.691 -0.3355  0.1209  0.4790
 6236SOL    HW130344   2.347   2.712  16.717  2.1992 -0.2076 -0.7168
 6236SOL    HW230345   2.298   2.844  16.763  0.8010  2.1260  0.1399
 6237SOL     OW30346   4.140   3.925   4.318  0.1437 -0.6388 -0.1041
 6237SOL    HW130347   4.200   3.982   4.366 -0.0534  0.7868 -1.5619
 6237SOL    HW230348   4.090   3.879   4.385 -1.6736  0.1958 -0.8969
 6238SOL     OW30349   0.218   3.998  10.432 -0.0663 -0.3283  0.5620
 6238SOL    HW130350   0.127   3.969  10.436 -0.0362 -0.6250 -0.7956
 6238SOL    HW230351   0.244   3.969  10.344 -0.6074  1.6216 -0.2564
 6239SOL     OW30352   0.865   1.980   1.607  0.9492  0.0796 -0.0514
 6239SOL    HW130353   0.943   2.035   1.614  1.4734 -0.5391 -1.0238
 6239SOL    HW230354   0.858   1.957   1.699 -0.2599 -3.0349 -0.9336
 6240SOL     OW30355   4.401   0.085   0.929 -0.6747 -0.2256 -0.1147
 6240SOL    HW130356   4.412   4.727   0.950  1.2205 -0.2883 -1.3788
 6240SOL    HW230357   4.380   0.117   1.016  1.4036 -0.0023  0.2922
 6241SOL     OW30358   1.132   1.686   5.608 -0.6419  0.2911  0.3469
 6241SOL    HW130359   1.164   1.757   5.663  0.7210  0.2916 -0.4532
 6241SOL    HW230360   1.107   1.620   5.673  2.1418 -1.0325  0.0504
 6242SOL     OW30361   3.328   3.259   5.233 -0.2448 -0.1183  0.0212
 6242SOL    HW130362   3.287   3.339   5.266  1.9287  1.5485 -1.3691
 6242SOL    HW230363   3.253   3.229   5.182 -0.8479 -1.9429  1.9817
 6243SOL     OW30364   3.986   0.170   9.257  0.1245 -0.9030 -0.1689
 6243SOL    HW130365   4.080   0.173   9.243  0.2414  2.8958  1.6095
 6243SOL    HW230366   3.949   0.247   9.214 -0.5647  0.1182  2.2524
 6244SOL     OW30367   4.602   3.116   1.112  0.1637 -0.1492 -0.4547
 6244SOL    HW130368   4.687   3.124   1.070  0.4890 -0.1031  0.2065
 6244SOL    HW230369   4.549   3.089   1.037 -0.0215  0.9031 -0.7017
 6245SOL     OW30370   4.502   4.179   0.953  0.2919  0.9171  0.2806
 6245SOL    HW130371   4.422   4.221   0.920  0.8306  1.0943 -0.7969
 6245SOL    HW230372   4.564   4.204   0.885 -1.4823  3.6172 -0.3191
 6246SOL     OW30373   1.100   2.369   9.989 -0.0721  0.2513 -0.8147
 6246SOL    HW130374   1.022   2.381   9.935 -1.1087  0.9688  0.8357
 6246SOL    HW230375   1.165   2.375   9.920  1.6235  1.0463  0.8350
 6247SOL     OW30376   1.997   3.818   8.116  0.3514  0.8158  0.0098
 6247SOL    HW130377   1.937   3.837   8.043 -1.6342 -0.4679  1.2968
 6247SOL    HW230378   1.975   3.878   8.187  1.2547  0.8802  0.2376
 6248SOL     OW30379   3.864   0.106   8.126 -0.3247 -0.1113 -0.2686
 6248SOL    HW130380   3.788   0.149   8.166 -1.7186 -1.6735 -1.2723
 6248SOL    HW230381   3.933   0.099   8.192 -0.8625  3.8059  0.7543
 6249SOL     OW30382   0.548   0.450   8.017 -0.1570 -0.3863 -0.0770
 6249SOL    HW130383   0.508   0.369   8.048 -0.2353 -0.6096 -0.7656
 6249SOL    HW230384   0.557   0.434   7.924  0.4771 -0.3278 -0.0222
 6250SOL     OW30385   4.622   2.025   7.758 -0.4774  0.3603 -0.5352
 6250SOL    HW130386   4.688   2.021   7.828 -1.1678 -0.7587  0.0501
 6250SOL    HW230387   4.544   1.997   7.806  0.3163 -2.6936 -1.0624
 6251SOL     OW30388   3.788   3.553  10.941  0.1162 -0.2291 -0.5378
 6251SOL    HW130389   3.820   3.583  10.855  1.1982  1.2497  0.3851
 6251SOL    HW230390   3.717   3.492  10.921 -0.0552 -0.4129  0.6655
 6252SOL     OW30391   2.938   4.400   5.926 -0.4266  0.1322  0.1929
 6252SOL    HW130392   2.876   4.403   5.999 -0.9782 -0.5435 -0.2479
 6252SOL    HW230393   2.902   4.328   5.873 -1.2878 -0.4347  1.5253
 6253SOL     OW30394   2.580   0.990   3.309 -0.0809 -0.3287 -0.3503
 6253SOL    HW130395   2.524   0.965   3.235 -1.2544 -1.8725  1.0699
 6253SOL    HW230396   2.643   1.052   3.273 -0.4188  0.6173  0.6976
 6254SOL     OW30397   1.610   3.987  17.295  0.5837 -0.4258  0.1933
 6254SOL    HW130398   1.527   3.996  17.342  2.1875  4.4705  2.1516
 6254SOL    HW230399   1.667   3.944  17.358  1.0321  1.2400  0.9392
 6255SOL     OW30400   2.892   1.193  17.554  0.1659 -0.0766  0.1019
 6255SOL    HW130401   2.856   1.272  17.514 -0.8836 -0.2130  0.7888
 6255SOL    HW230402   2.976   1.183  17.508 -1.2669  0.2720 -2.5418
 6256SOL     OW30403   4.184   4.262   0.189  0.3453 -0.7317  0.3715
 6256SOL    HW130404   4.264   4.213   0.208 -0.5951 -1.3082  2.9285
 6256SOL    HW230405   4.200   4.273   0.096  0.9303  0.0794  0.5643
 6257SOL     OW30406   0.112   3.812   2.259 -0.3838  0.3330  0.3063
 6257SOL    HW130407   0.184   3.873   2.274 -1.2279  1.7435 -1.5147
 6257SOL    HW230408   0.134   3.782   2.171  1.0231  3.1363 -0.2798
 6258SOL     OW30409   3.961   0.458   3.380 -0.1266 -0.3963  0.5316
 6258SOL    HW130410   4.006   0.428   3.301 -0.0791  1.1538 -0.0309
 6258SOL    HW230411   3.869   0.442   3.362 -0.3019  0.0762  1.0066
 6259SOL     OW30412   4.085   1.703   3.831 -0.0733 -0.3170  0.0028
 6259SOL    HW130413   4.061   1.796   3.833  0.3972 -0.2611  2.8726
 6259SOL    HW230414   4.015   1.663   3.882 -0.1428 -2.2347 -1.6353
 6260SOL     OW30415   1.584   2.744   3.203 -0.1088 -0.1312 -0.1403
 6260SOL    HW130416   1.569   2.818   3.262 -0.8689 -0.4555  0.0763
 6260SOL    HW230417   1.526   2.758   3.128 -0.1852  1.6062  0.2358
 6261SOL     OW30418   0.457   2.190  14.793 -0.6211 -0.3594  0.5662
 6261SOL    HW130419   0.447   2.171  14.886 -0.9488 -0.2324  0.5583
 6261SOL    HW230420   0.515   2.123  14.757  2.7326  2.9664 -0.3404
 6262SOL     OW30421   1.517   1.394   5.587  0.0657  0.4417 -0.5087
 6262SOL    HW130422   1.610   1.376   5.595 -0.3506 -1.5206 -0.1127
 6262SOL    HW230423   1.500   1.336   5.513 -0.3926 -1.9916  1.4765
 6263SOL     OW30424   0.623   2.847   4.143  0.3222  0.1228  0.0117
 6263SOL    HW130425   0.561   2.918   4.159 -0.1424 -1.1301  3.7460
 6263SOL    HW230426   0.565   2.787   4.096 -1.0193 -1.5038  3.7252
 6264SOL     OW30427   4.645   2.489   2.429  0.2715  0.3748  0.0795
 6264SOL    HW130428   4.622   2.556   2.364 -1.3657  0.2780  0.5597
 6264SOL    HW230429   4.567   2.436   2.443  0.2408  0.0219 -1.4539
 6265SOL     OW30430   1.639   2.746   5.552 -0.3360 -0.2852  0.5634
 6265SOL    HW130431   1.642   2.793   5.635  1.0950 -0.6574  0.7260
 6265SOL    HW230432   1.699   2.800   5.501 -2.5033  1.3825 -0.2215
 6266SOL     OW30433   0.489   4.286   9.031 -0.2735 -0.0998 -0.0302
 6266SOL    HW130434   0.583   4.277   9.013 -0.2951  1.0562 -0.7302
 6266SOL    HW230435   0.460   4.196   9.049  1.8727 -0.6068  0.8189
 6267SOL     OW30436   3.338   0.209  12.973  0.3255  0.7025  0.5652
 6267SOL    HW130437   3.267   0.144  12.971  0.6006  0.4092  0.3322
 6267SOL    HW230438   3.408   0.144  12.981  0.4551  0.5670 -1.6464
 6268SOL     OW30439   0.224   3.817  15.678  0.4478  0.4697 -0.5493
 6268SOL    HW130440   0.259   3.904  15.698  2.2829 -1.0430  2.7698
 6268SOL    HW230441   0.129   3.827  15.684  0.4608  0.6515 -0.6308
 6269SOL     OW30442   3.724   4.356  15.747 -0.0589  0.2068 -0.2992
 6269SOL    HW130443   3.809   4.377  15.708  0.4610 -0.3983  0.5056
 6269SOL    HW230444   3.669   4.416  15.697  0.7734  2.2534  1.2334
 6270SOL     OW30445   3.961   2.866   1.127 -0.0987  0.1785  0.2461
 6270SOL    HW130446   3.912   2.945   1.106 -1.4133 -0.6579  0.0916
 6270SOL    HW230447   3.912   2.835   1.204  1.6833  1.0031  1.7300
 6271SOL     OW30448   4.693   1.349   5.575 -0.4479  0.3381  0.7160
 6271SOL    HW130449   4.638   1.317   5.646 -0.5646 -0.7816  0.1188
 6271SOL    HW230450   0.046   1.333   5.611 -1.3882 -1.4427  2.2361
 6272SOL     OW30451   2.352   4.282   7.086  1.0884 -0.1924 -0.9258
 6272SOL    HW130452   2.374   4.226   7.160 -0.4615 -1.3888 -1.3667
 6272SOL    HW230453   2.312   4.223   7.022 -1.1035 -0.2845  0.5379
 6273SOL     OW30454   3.979   0.538   6.971 -0.5958 -0.6308 -0.1510
 6273SOL    HW130455   4.045   0.575   7.029 -1.7671 -1.0596  1.4489
 6273SOL    HW230456   4.007   0.570   6.885  1.1082  0.0871  0.6696
 6274SOL     OW30457   3.802   0.727   2.138  0.1596 -0.4860 -0.4942
 6274SOL    HW130458   3.755   0.705   2.057  0.3039  0.7232 -0.9009
 6274SOL    HW230459   3.784   0.647   2.187  2.5301 -2.0612 -2.1621
 6275SOL     OW30460   1.740   4.176   7.687 -0.3318 -0.5206 -0.5949
 6275SOL    HW130461   1.778   4.237   7.749  1.8085 -2.9616  0.4922
 6275SOL    HW230462   1.807   4.169   7.619  1.3437 -2.4959  1.2828
 6276SOL     OW30463   4.023   2.178   2.879 -0.7775  0.2223 -0.4711
 6276SOL    HW130464   4.002   2.203   2.789  0.5927  1.2575 -0.5062
 6276SOL    HW230465   4.043   2.085   2.869  0.0433  0.4390 -0.7761
 6277SOL     OW30466   3.639   4.585   7.177  0.5779  0.5821 -0.1719
 6277SOL    HW130467   3.620   4.573   7.084 -2.2936 -0.7585  0.5804
 6277SOL    HW230468   3.695   4.510   7.198  2.8810  2.3919  0.1381
 6278SOL     OW30469   3.179   1.346   4.123 -0.0948  0.4285 -0.0173
 6278SOL    HW130470   3.101   1.293   4.136  0.6767 -0.8886 -0.7559
 6278SOL    HW230471   3.248   1.288   4.090 -1.4432 -0.9906 -0.3128
 6279SOL     OW30472   2.201   3.424   7.146 -0.5725 -0.2456 -0.0392
 6279SOL    HW130473   2.142   3.453   7.216 -1.5971 -0.1738 -0.9383
 6279SOL    HW230474   2.190   3.496   7.083  2.3479 -1.3333 -1.7835
 6280SOL     OW30475   4.373   1.906   7.835  0.4344  0.6492  0.3665
 6280SOL    HW130476   4.343   1.958   7.761  0.9706  1.4914  0.7495
 6280SOL    HW230477   4.316   1.936   7.906 -0.1486  3.7365 -1.4096
 6281SOL     OW30478   2.185   1.289  17.207 -0.2679  0.2646 -0.6929
 6281SOL    HW130479   2.152   1.219  17.151  0.3567 -0.8685  0.3402
 6281SOL    HW230480   2.227   1.234  17.273  0.9366  0.3580 -1.4019
 6282SOL     OW30481   4.246   2.849   9.082 -0.5107 -0.6385 -0.4371
 6282SOL    HW130482   4.263   2.794   9.005 -0.7452 -1.5782  0.1763
 6282SOL    HW230483   4.259   2.937   9.046  1.9383 -1.3001 -1.1749
 6283SOL     OW30484   1.082   0.933   2.929 -0.5075 -0.4989 -0.2367
 6283SOL    HW130485   1.157   0.876   2.910  0.2058  0.4207 -0.1443
 6283SOL    HW230486   1.079   0.919   3.023 -2.6246 -2.1120 -0.5535
 6284SOL     OW30487   0.610   2.250   5.420  0.1407  0.1737  0.3122
 6284SOL    HW130488   0.701   2.247   5.449  0.9651  2.8537 -1.9841
 6284SOL    HW230489   0.630   2.258   5.327  0.9025  2.6866  0.6733
 6285SOL     OW30490   2.367   4.586   4.149  0.5234  0.1896 -0.4728
 6285SOL    HW130491   2.383   4.622   4.236  0.4593 -0.6507 -0.1134
 6285SOL    HW230492   2.272   4.593   4.134  0.4655  1.4661  0.5178
 6286SOL     OW30493   4.256   0.956   2.586 -0.5493 -0.1928  0.1911
 6286SOL    HW130494   4.198   1.031   2.575  1.0843  0.9184 -0.9186
 6286SOL    HW230495   4.202   0.894   2.635  1.9126 -1.7239  0.9876
 6287SOL     OW30496   3.260   3.595   2.439 -0.8037 -0.2927 -0.0019
 6287SOL    HW130497   3.182   3.649   2.453 -0.4728  0.3083 -0.4751
 6287SOL    HW230498   3.266   3.589   2.343  0.8319  0.7846  0.0321
 6288SOL     OW30499   0.302   1.126   4.745  0.0295  0.0683  0.8986
 6288SOL    HW130500   0.212   1.098   4.761 -0.6163  2.1180  0.8508
 6288SOL    HW230501   0.332   1.101   4.833  3.2745 -1.6386 -0.6967
 6289SOL     OW30502   2.381   3.710  12.694 -0.1449  0.3747 -0.4784
 6289SOL    HW130503   2.369   3.805  12.689 -1.7914  0.2712  1.3077
 6289SOL    HW230504   2.286   3.693  12.696 -0.3018  1.3486  0.2680
 6290SOL     OW30505   2.973   0.421  12.021  0.2476  0.0417 -0.0272
 6290SOL    HW130506   2.982   0.377  11.937 -2.4279 -1.1471  0.3111
 6290SOL    HW230507   3.067   0.428  12.041  1.2989 -0.6671 -4.6728
 6291SOL     OW30508   2.784   0.615  11.967 -0.5537 -0.6267 -0.2154
 6291SOL    HW130509   2.832   0.678  11.914 -1.7144  0.3904 -0.0653
 6291SOL    HW230510   2.854   0.558  11.997 -0.7325  0.4724  2.3688
 6292SOL     OW30511   0.410   3.429   3.213 -0.7210 -0.4672 -0.2684
 6292SOL    HW130512   0.467   3.426   3.136  0.8631  3.3418  0.7237
 6292SOL    HW230513   0.362   3.348   3.201  1.2095 -1.6142 -0.1770
 6293SOL     OW30514   2.793   1.881  15.814  0.0969 -0.1646 -0.2572
 6293SOL    HW130515   2.884   1.867  15.792  0.1562 -0.0268 -0.1050
 6293SOL    HW230516   2.787   1.908  15.906 -0.4328  0.6069 -0.5102
 6294SOL     OW30517   2.536   2.493   7.179  0.5954  0.3884 -0.3640
 6294SOL    HW130518   2.590   2.418   7.155 -0.6780 -1.6297  3.0246
 6294SOL    HW230519   2.599   2.544   7.230 -0.1249 -0.2654  1.1809
 6295SOL     OW30520   3.822   1.763  10.690  0.1917 -0.3385  0.3820
 6295SOL    HW130521   3.867   1.740  10.609  0.5377 -2.5538  1.2020
 6295SOL    HW230522   3.744   1.718  10.657 -1.3601  2.7495 -0.2385
 6296SOL     OW30523   4.318   3.999   4.906 -0.1504  0.1559 -0.3072
 6296SOL    HW130524   4.383   4.059   4.941 -0.4829 -0.0623  0.6698
 6296SOL    HW230525   4.280   3.956   4.982 -3.2511 -0.8663 -2.4029
 6297SOL     OW30526   0.831   4.382   9.635  0.9007  0.2959 -0.1247
 6297SOL    HW130527   0.741   4.407   9.655  0.3865 -2.7378  1.3620
 6297SOL    HW230528   0.857   4.317   9.701 -0.1194  0.8396  0.8241
 6298SOL     OW30529   2.910   4.501  13.688 -0.4097  0.1400  0.0038
 6298SOL    HW130530   2.939   4.591  13.670  0.2993 -0.3934 -1.5623
 6298SOL    HW230531   2.981   4.469  13.743  0.7087  1.6629 -0.5310
 6299SOL     OW30532   1.513   0.566   5.667  0.2988 -0.1795  0.1630
 6299SOL    HW130533   1.592   0.614   5.692  1.3707 -2.0612  0.3882
 6299SOL    HW230534   1.521   0.547   5.574  3.1148  0.4896  0.2561
 6300SOL     OW30535   3.501   3.428   4.804 -0.6807 -0.0272 -0.1743
 6300SOL    HW130536   3.499   3.454   4.712 -1.9224  2.2872  0.5177
 6300SOL    HW230537   3.582   3.474   4.825 -0.5031  0.2233 -1.4461
 6301SOL     OW30538   0.866   4.426   5.960 -0.8503 -0.0974 -0.3968
 6301SOL    HW130539   0.934   4.427   5.893  0.3667  2.6899  0.8717
 6301SOL    HW230540   0.796   4.478   5.920  0.2124  0.3892 -1.6441
 6302SOL     OW30541   3.875   2.341   1.446 -0.2744 -0.5044 -0.5918
 6302SOL    HW130542   3.858   2.250   1.421 -0.1662 -0.5541 -0.4870
 6302SOL    HW230543   3.876   2.328   1.540 -1.5677  0.7743 -0.4095
 6303SOL     OW30544   2.013   1.705   6.608  0.0623 -0.2160  0.0136
 6303SOL    HW130545   2.091   1.650   6.598  0.7646  0.9604 -0.9644
 6303SOL    HW230546   2.064   1.783   6.627 -2.0475  1.6564 -2.1051
 6304SOL     OW30547   2.641   3.078   2.309  0.3958 -0.2374  0.0332
 6304SOL    HW130548   2.731   3.071   2.277  0.7217  1.0397  0.7016
 6304SOL    HW230549   2.626   2.984   2.319 -2.4921  0.0971 -0.9692
 6305SOL     OW30550   3.510   0.636   9.624  0.2333  0.1635  0.1373
 6305SOL    HW130551   3.603   0.653   9.638  0.8166 -2.1965 -0.6742
 6305SOL    HW230552   3.464   0.719   9.619 -2.0992 -1.1018  0.5306
 6306SOL     OW30553   1.584   0.656   3.693  0.3449  0.6348 -0.1761
 6306SOL    HW130554   1.570   0.733   3.749 -2.8593 -0.2253  0.2280
 6306SOL    HW230555   1.612   0.590   3.757 -0.5480  0.0544 -0.3876
 6307SOL     OW30556   0.251   3.471   1.485  0.1846  0.7513  0.0718
 6307SOL    HW130557   0.218   3.435   1.403 -0.4220  1.1096  0.1595
 6307SOL    HW230558   0.185   3.539   1.497  0.8959  1.6917 -1.3228
 6308SOL     OW30559   2.617   3.777   4.100  0.1120 -0.7225 -0.5391
 6308SOL    HW130560   2.529   3.806   4.076  0.6386 -0.1895 -1.8590
 6308SOL    HW230561   2.612   3.776   4.196 -0.1640  0.5934 -0.5338
 6309SOL     OW30562   4.242   4.110   7.055 -0.4408 -0.3310 -0.0463
 6309SOL    HW130563   4.159   4.102   7.102 -1.8090  0.0942 -2.4028
 6309SOL    HW230564   4.226   4.108   6.961  1.6322  0.5480 -0.4149
 6310SOL     OW30565   3.654   1.713   3.098 -0.5156  0.2488  0.2296
 6310SOL    HW130566   3.574   1.698   3.048 -2.0657 -0.9525  3.0511
 6310SOL    HW230567   3.689   1.625   3.113 -1.8407  0.1872  2.9172
 6311SOL     OW30568   0.953   1.073   1.533  0.2581  0.4817 -0.1617
 6311SOL    HW130569   0.915   1.071   1.621 -1.2472  2.5490 -0.7790
 6311SOL    HW230570   0.956   1.167   1.516  0.3936  0.4668 -0.2147
 6312SOL     OW30571   4.701   2.951   3.405  0.5056 -0.0595 -0.1017
 6312SOL    HW130572   4.631   2.887   3.392  0.6355 -0.2076 -0.0745
 6312SOL    HW230573   0.008   2.940   3.319 -3.2593 -1.2001 -1.7794
 6313SOL     OW30574   0.624   4.028   9.406 -0.2734  0.2778 -0.4326
 6313SOL    HW130575   0.556   4.011   9.471 -0.1054  0.8625 -0.1018
 6313SOL    HW230576   0.629   3.943   9.362 -3.3825 -0.9581  1.5972
 6314SOL     OW30577   1.883   0.663   0.702  0.6724 -0.2613  0.2690
 6314SOL    HW130578   1.830   0.743   0.704  1.1945  0.0609  1.4014
 6314SOL    HW230579   1.873   0.627   0.790 -0.7048 -1.0204 -0.1969
 6315SOL     OW30580   4.126   3.563   1.891  0.5801 -0.0483  0.1908
 6315SOL    HW130581   4.179   3.484   1.881  0.9763 -0.1051  2.8490
 6315SOL    HW230582   4.184   3.624   1.937  1.8193  1.8800 -3.9019
 6316SOL     OW30583   3.265   0.374   7.411  1.0207  0.5708  0.0073
 6316SOL    HW130584   3.202   0.423   7.358  1.8441  1.9645  0.3196
 6316SOL    HW230585   3.209   0.296   7.414  1.1613  0.4217 -1.3051
 6317SOL     OW30586   3.867   0.896   8.764 -0.3891 -0.1183  0.1021
 6317SOL    HW130587   3.787   0.948   8.757 -0.1231  0.6200  2.3536
 6317SOL    HW230588   3.898   0.933   8.847  0.3967  0.8858 -0.6218
 6318SOL     OW30589   2.686   2.033   6.493  0.9394 -0.3835  0.5111
 6318SOL    HW130590   2.632   1.976   6.548 -0.3321  1.2156  0.9295
 6318SOL    HW230591   2.767   2.009   6.536  0.1347 -2.8388  0.6806
 6319SOL     OW30592   0.312   2.275   6.681 -0.0718  0.3939  0.2231
 6319SOL    HW130593   0.217   2.288   6.674 -0.3591 -0.5578  2.6164
 6319SOL    HW230594   0.311   2.238   6.769 -0.0701 -1.4710 -0.5685
 6320SOL     OW30595   4.532   1.246   7.101  0.0287 -0.4059 -0.4587
 6320SOL    HW130596   4.541   1.165   7.151  0.2491 -0.2684 -0.2769
 6320SOL    HW230597   4.489   1.204   7.026 -1.1223 -1.8459  1.0185
 6321SOL     OW30598   2.913   1.635   6.507  0.2412  0.3751 -0.3774
 6321SOL    HW130599   2.950   1.711   6.461 -2.3324  0.3512 -2.4665
 6321SOL    HW230600   2.956   1.567   6.454  0.3106 -0.4479  0.7376
 6322SOL     OW30601   1.628   4.114  17.059 -0.0082 -0.4288  0.0656
 6322SOL    HW130602   1.541   4.081  17.034 -0.5444  0.1494  1.1563
 6322SOL    HW230603   1.644   4.067  17.141  0.2368  1.9849  1.4058
 6323SOL     OW30604   1.750   2.513   7.014  0.2790  0.1770  0.3172
 6323SOL    HW130605   1.813   2.585   7.010 -1.7158  1.9665  0.5031
 6323SOL    HW230606   1.808   2.440   6.996 -0.7631 -0.6736  0.3925
 6324SOL     OW30607   0.747   2.667  12.082 -0.4045  0.0033 -0.5263
 6324SOL    HW130608   0.711   2.729  12.019  0.0743 -0.0150 -0.8202
 6324SOL    HW230609   0.700   2.586  12.063  1.4009 -0.6804 -2.0600
 6325SOL     OW30610   3.140   0.542   2.807 -0.5162 -0.2425  0.2355
 6325SOL    HW130611   3.194   0.613   2.841  1.6822 -1.9251  0.2261
 6325SOL    HW230612   3.166   0.536   2.715 -0.4963  1.0864  0.1574
 6326SOL     OW30613   3.017   3.915   1.576 -0.0600  0.8555  0.2996
 6326SOL    HW130614   3.083   3.849   1.599  0.2721  1.1327  0.1366
 6326SOL    HW230615   3.065   3.972   1.516 -0.4070  1.5032  0.6438
 6327SOL     OW30616   3.923   0.397   5.722 -0.0161  0.2675  0.7277
 6327SOL    HW130617   3.865   0.451   5.669  1.3255 -1.1375 -2.1634
 6327SOL    HW230618   3.920   0.436   5.810 -0.4613 -0.9301  1.2490
 6328SOL     OW30619   4.412   1.717   1.863 -0.4229 -0.2553  0.2433
 6328SOL    HW130620   4.487   1.657   1.867 -0.1891 -0.0216 -0.6574
 6328SOL    HW230621   4.416   1.762   1.947 -2.4854 -0.3261  0.3786
 6329SOL     OW30622   0.695   3.969   7.921  0.5097  0.7571  0.3992
 6329SOL    HW130623   0.759   3.900   7.906 -0.5179 -0.5827  2.1095
 6329SOL    HW230624   0.665   3.953   8.011  2.0014  2.2251  1.1580
 6330SOL     OW30625   1.469   4.650  12.313 -0.0125 -0.1749  0.1516
 6330SOL    HW130626   1.419   4.681  12.238 -1.7452  1.2458  1.8888
 6330SOL    HW230627   1.423   4.684  12.390  1.3996 -0.0946  0.9460
 6331SOL     OW30628   0.450   4.130   5.958  0.0483  0.6007  0.3113
 6331SOL    HW130629   0.481   4.049   5.917 -0.5573  0.7124 -0.3566
 6331SOL    HW230630   0.382   4.163   5.900  0.3134  1.2874  0.3901
 6332SOL     OW30631   3.223   1.026  10.386 -0.0763  0.4414  0.2333
 6332SOL    HW130632   3.263   1.098  10.435  2.1370  0.9744 -2.3320
 6332SOL    HW230633   3.276   1.030  10.306 -0.8069  0.1145 -0.2647
 6333SOL     OW30634   3.328   1.557  15.776  0.1009 -0.2367 -0.0896
 6333SOL    HW130635   3.362   1.474  15.810 -0.7226 -0.3585  0.4563
 6333SOL    HW230636   3.363   1.546  15.688 -0.8030  2.9318 -0.8553
 6334SOL     OW30637   1.051   1.206   2.902 -0.2534  0.3602  0.2670
 6334SOL    HW130638   1.025   1.217   2.993  0.2388  1.4203  0.2719
 6334SOL    HW230639   1.028   1.113   2.904 -0.7004  0.4732  0.3091
 6335SOL     OW30640   1.811   3.680  14.217 -0.1487 -0.2305 -0.1838
 6335SOL    HW130641   1.767   3.595  14.222 -2.3943  0.8317 -1.7976
 6335SOL    HW230642   1.896   3.659  14.254  0.9358  2.1766 -1.3236
 6336SOL     OW30643   2.633   0.572  17.513  0.5589  0.0117  0.0507
 6336SOL    HW130644   2.629   0.633  17.439  0.3003 -1.3147 -1.0285
 6336SOL    HW230645   2.541   0.546  17.507  0.3094  0.4579  1.8692
 6337SOL     OW30646   2.293   4.130   6.873 -0.5729 -0.3767 -0.0659
 6337SOL    HW130647   2.220   4.075   6.846 -0.3741 -0.5602 -0.2349
 6337SOL    HW230648   2.332   4.155   6.789 -0.5659 -3.5188 -1.0090
 6338SOL     OW30649   4.087   2.333   2.263  0.4188 -0.1412  0.1800
 6338SOL    HW130650   4.064   2.285   2.184 -1.3728  0.5805  0.2677
 6338SOL    HW230651   4.172   2.368   2.238  0.6701  0.4551  1.8606
 6339SOL     OW30652   2.826   2.172  11.054 -0.8011  0.1499 -0.1396
 6339SOL    HW130653   2.738   2.136  11.066 -0.9132  0.8282  1.1085
 6339SOL    HW230654   2.880   2.099  11.023  0.4099  1.1887 -0.4486
 6340SOL     OW30655   2.762   0.713  17.052 -0.1214 -1.0586 -0.6818
 6340SOL    HW130656   2.742   0.748  16.965 -1.2302 -1.3539 -0.5458
 6340SOL    HW230657   2.852   0.686  17.036  0.6362  1.0241  0.0607
 6341SOL     OW30658   2.900   3.635   0.450  0.1536  0.0879  0.2911
 6341SOL    HW130659   2.989   3.602   0.434  0.1639 -0.1032  0.7399
 6341SOL    HW230660   2.854   3.568   0.401  0.4397 -0.8969  1.3759
 6342SOL     OW30661   1.541   3.202   7.208 -0.0970 -0.5309 -0.0690
 6342SOL    HW130662   1.561   3.142   7.136  1.7687 -0.4141  0.3391
 6342SOL    HW230663   1.464   3.251   7.180  0.8023  0.7686 -0.2608
 6343SOL     OW30664   0.214   0.701   2.819  0.6899  0.2395 -0.7154
 6343SOL    HW130665   0.263   0.627   2.853  0.6588 -0.4073 -2.0451
 6343SOL    HW230666   0.253   0.780   2.855  0.0580  0.5155 -0.6404
 6344SOL     OW30667   4.715   4.563   2.958 -0.8000 -0.0938 -0.2609
 6344SOL    HW130668   0.066   4.519   2.951  0.0795  1.5218  0.4425
 6344SOL    HW230669   0.012   4.652   2.969 -0.8038 -0.1550  0.2233
 6345SOL     OW30670   1.250   4.142  10.421  0.4543  0.4122 -0.1739
 6345SOL    HW130671   1.287   4.095  10.495 -1.6678 -1.2690 -0.1830
 6345SOL    HW230672   1.271   4.088  10.345  0.9014  1.2387 -0.6416
 6346SOL     OW30673   1.567   3.132  14.265 -0.3482  0.1164 -0.2786
 6346SOL    HW130674   1.554   3.179  14.347 -0.7083  0.0797 -0.3156
 6346SOL    HW230675   1.629   3.191  14.221 -0.5653  0.9794  0.5775
 6347SOL     OW30676   2.769   1.409   3.058 -0.6746 -0.1016  0.3536
 6347SOL    HW130677   2.710   1.471   3.100 -0.8339  1.7631 -2.6165
 6347SOL    HW230678   2.850   1.433   3.103 -0.6464  1.2267 -0.3958
 6348SOL     OW30679   2.037   0.423   7.726  0.2350  0.4160  0.7515
 6348SOL    HW130680   1.954   0.377   7.714  0.7432  0.1081 -1.7407
 6348SOL    HW230681   2.019   0.466   7.809 -2.7006  1.5737 -0.4889
 6349SOL     OW30682   2.304   2.183   2.102  0.2626  0.4044  0.3748
 6349SOL    HW130683   2.270   2.272   2.103  1.4926  0.8846  0.2544
 6349SOL    HW230684   2.377   2.194   2.040  0.0442  2.1319  0.4282
 6350SOL     OW30685   2.202   3.178   6.459 -0.5945 -0.3162 -0.0018
 6350SOL    HW130686   2.177   3.148   6.372 -0.6300  0.9479 -0.4254
 6350SOL    HW230687   2.248   3.257   6.431  2.4858 -1.7393  1.0875
 6351SOL     OW30688   3.393   0.007   1.032 -0.2950 -0.0888  0.4662
 6351SOL    HW130689   3.309   0.033   0.995 -0.0028  0.2589  0.0437
 6351SOL    HW230690   3.438   4.680   0.975  0.3080  1.6117 -0.8816
 6352SOL     OW30691   4.406   1.742   4.362  0.1324 -0.4113 -0.5178
 6352SOL    HW130692   4.332   1.721   4.419 -0.1466 -0.6841 -0.9807
 6352SOL    HW230693   4.366   1.746   4.276 -0.3960  0.1646 -0.2486
 6353SOL     OW30694   4.466   0.839  10.320  0.0407  0.1679 -0.4515
 6353SOL    HW130695   4.414   0.905  10.274 -0.2437  0.4783  0.3190
 6353SOL    HW230696   4.406   0.815  10.391 -0.1046  2.7495  0.3101
 6354SOL     OW30697   1.781   4.007  12.206  0.1478 -0.1146 -0.0832
 6354SOL    HW130698   1.838   4.064  12.257 -1.8250  0.5249  1.4239
 6354SOL    HW230699   1.814   3.919  12.221  0.9855  0.3266  0.6334
 6355SOL     OW30700   0.271   4.724   8.144  0.0764  0.2716  0.4586
 6355SOL    HW130701   0.268   4.718   8.049  0.6871 -0.0504  0.4575
 6355SOL    HW230702   0.254   4.633   8.170  0.5543  0.3362  1.0100
 6356SOL     OW30703   2.064   1.265  17.712 -0.0245  0.2928 -0.0062
 6356SOL    HW130704   1.972   1.287  17.699  1.1217  4.9179 -0.3037
 6356SOL    HW230705   2.079   1.200  17.644 -2.2962  0.1516 -0.3655
 6357SOL     OW30706   1.664   2.011   6.173  0.1992 -0.1886  0.2430
 6357SOL    HW130707   1.701   1.925   6.193  0.7539  0.4418  1.8937
 6357SOL    HW230708   1.691   2.029   6.083 -0.2761  1.1551  0.3642
 6358SOL     OW30709   0.895   1.019   7.167  0.1461  0.3584  0.5339
 6358SOL    HW130710   0.958   0.948   7.172  0.6210  0.8009  0.7638
 6358SOL    HW230711   0.937   1.087   7.115 -1.7150  1.5785  0.5890
 6359SOL     OW30712   2.603   1.481  17.084 -0.1755  0.2834  0.3523
 6359SOL    HW130713   2.510   1.497  17.101 -0.2829 -0.2741  0.3084
 6359SOL    HW230714   2.641   1.566  17.064 -1.4565  0.4945 -1.1878
 6360SOL     OW30715   4.557   0.682   6.220  0.4054 -0.1715  0.3275
 6360SOL    HW130716   4.513   0.607   6.260 -0.1412 -0.7930 -1.4446
 6360SOL    HW230717   4.562   0.647   6.131  0.5196 -1.0401  0.6763
 6361SOL     OW30718   1.955   4.706   2.438 -0.1753  0.5364 -0.5300
 6361SOL    HW130719   1.980   4.709   2.530  0.5675  0.0833 -0.7139
 6361SOL    HW230720   1.893   4.634   2.439  1.0152 -0.4711  0.5255
 6362SOL     OW30721   0.218   3.150   6.245  0.6242 -0.1962  0.0285
 6362SOL    HW130722   0.215   3.173   6.153 -0.7693  0.9532  0.3589
 6362SOL    HW230723   0.281   3.216   6.274 -0.3897 -0.0612  1.9290
 6363SOL     OW30724   4.702   4.096   4.355 -0.5898  0.6950  0.2180
 6363SOL    HW130725   4.642   4.109   4.428 -0.8087 -0.7929  0.2942
 6363SOL    HW230726   0.028   4.170   4.356  0.1252  0.0836  1.7921
 6364SOL     OW30727   4.352   2.511   6.462  0.0429  0.0545  0.3878
 6364SOL    HW130728   4.281   2.536   6.402  0.1808  0.2901  0.3252
 6364SOL    HW230729   4.395   2.596   6.465  1.4078 -0.5933 -0.9542
 6365SOL     OW30730   0.413   0.295   6.735 -0.9237 -0.5167 -0.0111
 6365SOL    HW130731   0.335   0.266   6.781 -1.7523  2.7522  0.6094
 6365SOL    HW230732   0.445   0.357   6.800  0.6044 -1.0696 -0.2337
 6366SOL     OW30733   2.690   3.865   1.384  0.0699  0.3645  0.6244
 6366SOL    HW130734   2.772   3.908   1.409  1.7815 -2.6222  0.1857
 6366SOL    HW230735   2.656   3.833   1.467 -2.9637 -1.0440 -1.1675
 6367SOL     OW30736   1.393   1.794   3.802  0.5311  0.2583  0.1572
 6367SOL    HW130737   1.396   1.699   3.808  0.9890  0.2199 -0.5797
 6367SOL    HW230738   1.486   1.801   3.779  0.6502 -0.0071  0.5567
 6368SOL     OW30739   1.500   2.797   0.661  0.0850  0.1423  0.1986
 6368SOL    HW130740   1.518   2.886   0.631 -0.2796  0.0606 -0.2613
 6368SOL    HW230741   1.533   2.812   0.750  0.1716  0.0850  0.1758
 6369SOL     OW30742   1.704   0.019   7.132 -0.0405  0.3623 -0.0497
 6369SOL    HW130743   1.790   0.052   7.158 -0.4476  0.3553  1.2969
 6369SOL    HW230744   1.724   4.664   7.103 -1.2420 -0.6836  2.3447
 6370SOL     OW30745   1.187   4.691   2.165 -0.0483  0.2812  0.4000
 6370SOL    HW130746   1.217   4.677   2.075 -0.2266 -1.5313  0.6110
 6370SOL    HW230747   1.094   4.671   2.157 -0.0695  0.8246 -0.5702
 6371SOL     OW30748   3.545   2.747   1.230  0.1729  0.4226 -0.0647
 6371SOL    HW130749   3.533   2.792   1.314  0.2863  0.3808 -0.0259
 6371SOL    HW230750   3.601   2.678   1.265  0.3593  0.8454  0.4761
 6372SOL     OW30751   0.751   3.642   9.385  0.3098 -0.3256 -0.2106
 6372SOL    HW130752   0.788   3.723   9.350  1.2815 -0.2465  1.0011
 6372SOL    HW230753   0.771   3.656   9.477  0.6224  1.9589 -0.6348
 6373SOL     OW30754   1.246   3.245  13.205  0.6642  0.0976  0.3025
 6373SOL    HW130755   1.204   3.203  13.281  0.2566 -0.8975 -0.4752
 6373SOL    HW230756   1.287   3.171  13.161 -0.3908  0.0774 -0.6438
 6374SOL     OW30757   2.289   1.730   0.990  0.3711  0.8421 -0.3622
 6374SOL    HW130758   2.237   1.763   0.916  0.9048  0.7806 -0.7613
 6374SOL    HW230759   2.250   1.788   1.055  0.6506 -0.9592  1.4155
 6375SOL     OW30760   1.124   1.639   0.337 -0.0163 -0.4728  0.1798
 6375SOL    HW130761   1.070   1.662   0.413 -0.8232 -2.4939  0.2323
 6375SOL    HW230762   1.207   1.613   0.377 -0.2044  1.1025  1.6017
 6376SOL     OW30763   4.288   2.106   7.644 -0.4099  0.3550  0.4552
 6376SOL    HW130764   4.347   2.140   7.577 -1.3063 -1.1235 -1.0875
 6376SOL    HW230765   4.205   2.102   7.597 -0.5579 -0.1520  0.7575
 6377SOL     OW30766   1.372   3.360   3.876 -0.1775  0.1433 -0.2396
 6377SOL    HW130767   1.398   3.410   3.953  1.4141 -0.3753 -0.4534
 6377SOL    HW230768   1.418   3.397   3.800  3.7652 -0.1980  2.0083
 6378SOL     OW30769   2.059   1.886   9.076  0.0658 -0.0313 -0.5219
 6378SOL    HW130770   2.152   1.879   9.100  0.4311 -2.0138 -2.5259
 6378SOL    HW230771   2.013   1.908   9.156  1.4953 -1.0305  0.5879
 6379SOL     OW30772   0.101   1.650  13.760 -0.4055  0.2903  0.0896
 6379SOL    HW130773   0.077   1.666  13.669 -0.0901  2.9428  0.4524
 6379SOL    HW230774   0.023   1.653  13.815 -1.7343  0.8239 -1.8202
 6380SOL     OW30775   2.421   4.450   3.493 -0.0475  0.0624 -0.2027
 6380SOL    HW130776   2.384   4.403   3.567 -0.0354  2.4689  1.3286
 6380SOL    HW230777   2.458   4.384   3.434  0.0588 -0.0741  0.0159
 6381SOL     OW30778   4.058   2.464   3.931 -0.5236  0.9899 -0.3600
 6381SOL    HW130779   3.966   2.453   3.907 -0.3071  0.0067 -0.7194
 6381SOL    HW230780   4.044   2.544   3.982 -1.4342  0.9248 -0.5188
 6382SOL     OW30781   4.377   4.535   7.124  0.6951 -0.3612  0.8618
 6382SOL    HW130782   4.360   4.629   7.109 -0.3127 -0.9104 -1.5194
 6382SOL    HW230783   4.299   4.509   7.074  0.0655 -2.3494  2.8616
 6383SOL     OW30784   3.052   0.266   6.314 -0.2723 -0.3609  0.2742
 6383SOL    HW130785   3.001   0.207   6.371  0.4654  0.6344  1.9679
 6383SOL    HW230786   3.134   0.268   6.363  1.3999 -1.2690 -2.5499
 6384SOL     OW30787   2.520   2.728  12.525  0.0585  0.5117  0.0507
 6384SOL    HW130788   2.589   2.794  12.522  0.3739  0.1918  0.1845
 6384SOL    HW230789   2.474   2.757  12.604  0.1861 -0.2141  0.3917
 6385SOL     OW30790   2.003   2.992   5.001 -0.4194 -0.0729  0.7521
 6385SOL    HW130791   1.959   3.077   5.008  4.0469  2.2813  0.2420
 6385SOL    HW230792   1.939   2.938   4.955 -0.8189 -1.6246  3.1162
 6386SOL     OW30793   3.343   3.586   8.924 -0.0126 -0.1228 -0.5350
 6386SOL    HW130794   3.378   3.515   8.977  0.1933 -0.8796 -1.6875
 6386SOL    HW230795   3.249   3.583   8.943  0.3892 -0.4463  1.4221
 6387SOL     OW30796   2.784   2.489  14.923 -0.1146 -0.5242  0.7945
 6387SOL    HW130797   2.704   2.467  14.971 -0.2535 -1.3324  0.1790
 6387SOL    HW230798   2.816   2.400  14.909  1.3207  0.4436 -1.9841
 6388SOL     OW30799   2.634   4.486  16.540 -0.0917  0.2872 -0.0483
 6388SOL    HW130800   2.710   4.508  16.595 -0.5051  2.5684 -0.3904
 6388SOL    HW230801   2.620   4.396  16.569  0.6105  0.0629 -0.4040
 6389SOL     OW30802   2.830   1.146   3.234 -0.1144  0.4523 -0.5313
 6389SOL    HW130803   2.907   1.171   3.286 -0.6697  2.0474 -0.4595
 6389SOL    HW230804   2.806   1.228   3.190 -1.1174 -0.0710 -0.9448
 6390SOL     OW30805   4.491   4.602  12.178  0.7131  0.3023  0.1880
 6390SOL    HW130806   4.505   4.672  12.114 -1.4546 -1.5714 -2.3582
 6390SOL    HW230807   4.578   4.590  12.216  0.8858  0.3409 -0.1976
 6391SOL     OW30808   0.996   2.517  15.245  0.0462  0.2304 -0.1052
 6391SOL    HW130809   1.076   2.510  15.192 -1.1597 -2.3510 -1.5830
 6391SOL    HW230810   0.931   2.549  15.182  1.1446  1.8932 -0.4041
 6392SOL     OW30811   1.676   0.625  11.892  0.3631 -0.4044 -0.0658
 6392SOL    HW130812   1.601   0.569  11.913  0.2537  0.5316  1.9722
 6392SOL    HW230813   1.673   0.621  11.796  0.6305 -3.0335  0.0280
 6393SOL     OW30814   1.491   4.399   9.030  0.1292  0.1433 -0.1240
 6393SOL    HW130815   1.533   4.398   8.943 -0.3503 -0.5750 -0.3452
 6393SOL    HW230816   1.566   4.386   9.088  0.8184 -1.6886 -1.4320
 6394SOL     OW30817   1.875   2.706   7.765 -0.2881  0.3786 -0.1297
 6394SOL    HW130818   1.871   2.783   7.822  0.9801 -0.8151  1.5400
 6394SOL    HW230819   1.800   2.727   7.708 -2.0285  0.0736  2.0505
 6395SOL     OW30820   4.139   0.040   6.821  0.6647 -0.4192 -0.6063
 6395SOL    HW130821   4.202   0.046   6.748  0.7481  1.3852 -0.3812
 6395SOL    HW230822   4.067   0.095   6.791  0.7076 -0.9754 -1.7257
 6396SOL     OW30823   1.727   2.308   9.421  0.5945  0.1569  0.1126
 6396SOL    HW130824   1.703   2.261   9.341  0.5557 -1.4215  1.0519
 6396SOL    HW230825   1.649   2.283   9.470 -1.2201  1.5358 -2.0759
 6397SOL     OW30826   2.392   4.296   5.847 -0.4832  0.4790  0.0709
 6397SOL    HW130827   2.300   4.284   5.826  0.0186 -0.8700 -1.3727
 6397SOL    HW230828   2.424   4.269   5.760 -0.3810  1.9189 -0.3394
 6398SOL     OW30829   3.326   2.324   5.898  0.4933  0.1794  0.4103
 6398SOL    HW130830   3.363   2.253   5.950  0.5544  1.1545  1.7099
 6398SOL    HW230831   3.242   2.338   5.943  1.1280 -0.3284  1.7555
 6399SOL     OW30832   1.758   3.485  13.335  0.5663  0.2705 -0.0956
 6399SOL    HW130833   1.817   3.457  13.405 -2.2728  0.8553  2.5261
 6399SOL    HW230834   1.706   3.553  13.377  0.8256  0.6727 -0.4312
 6400SOL     OW30835   2.128   3.771   4.395 -0.7163  0.3328  0.1641
 6400SOL    HW130836   2.144   3.679   4.418 -0.5454 -0.7969 -4.5006
 6400SOL    HW230837   2.093   3.800   4.480 -0.2215 -1.3083  0.9272
 6401SOL     OW30838   0.537   0.244   8.548 -0.2302  0.4924  0.2704
 6401SOL    HW130839   0.442   0.235   8.539 -0.3439 -0.3763  2.5328
 6401SOL    HW230840   0.529   0.277   8.637  0.7157  0.9934  0.1688
 6402SOL     OW30841   2.971   2.696   7.360  0.3029  0.0702 -0.3907
 6402SOL    HW130842   2.999   2.644   7.285 -0.6683 -0.2028 -0.5567
 6402SOL    HW230843   3.057   2.718   7.398 -0.4320  1.6282  0.3967
 6403SOL     OW30844   2.937   4.204   2.120 -0.0096 -0.1723  0.0165
 6403SOL    HW130845   2.955   4.280   2.176  0.7721 -0.2512 -0.1350
 6403SOL    HW230846   2.886   4.247   2.052 -0.7815 -0.0953  0.6418
 6404SOL     OW30847   2.399   2.249   1.229  0.2281  0.1074 -0.2216
 6404SOL    HW130848   2.479   2.297   1.205  0.8017 -1.5602 -1.6978
 6404SOL    HW230849   2.445   2.183   1.281 -0.0634  0.9064  1.0335
 6405SOL     OW30850   0.229   4.054  11.210  0.4365  0.2210 -0.0191
 6405SOL    HW130851   0.291   4.018  11.147  1.3018  0.0646  0.9046
 6405SOL    HW230852   0.230   4.145  11.181 -1.6622 -0.1035 -1.0668
 6406SOL     OW30853   2.602   0.365   8.481  0.2532 -0.3174  0.1348
 6406SOL    HW130854   2.584   0.309   8.557 -2.8319  1.1384  0.4285
 6406SOL    HW230855   2.609   0.446   8.530  2.4005 -1.0958  1.1537
 6407SOL     OW30856   2.128   2.123   3.001  0.4224  0.0673  0.4573
 6407SOL    HW130857   2.130   2.191   2.934 -0.7651  1.5655  1.9228
 6407SOL    HW230858   2.083   2.172   3.071  1.3735  1.0157  0.4095
 6408SOL     OW30859   3.778   1.202   8.301  0.4165  0.0539 -0.1450
 6408SOL    HW130860   3.691   1.167   8.279  0.7567 -1.0944  0.3637
 6408SOL    HW230861   3.821   1.120   8.325 -2.3840 -0.9571  1.5173
 6409SOL     OW30862   4.284   4.067   5.654  0.1928  0.4907  0.4050
 6409SOL    HW130863   4.316   3.992   5.704  0.8741 -0.1373 -0.9806
 6409SOL    HW230864   4.189   4.062   5.659  0.1586 -0.1989 -0.9182
 6410SOL     OW30865   4.053   4.514   3.651 -0.5163 -0.9496 -0.0137
 6410SOL    HW130866   4.111   4.450   3.692 -0.5406 -2.6631 -2.6669
 6410SOL    HW230867   3.969   4.484   3.685 -0.7901 -0.6634 -0.4341
 6411SOL     OW30868   4.683   3.738   8.746 -0.0344  0.0149  0.7648
 6411SOL    HW130869   4.685   3.664   8.807 -0.6037 -1.8316 -1.4750
 6411SOL    HW230870   4.611   3.713   8.688  0.1922 -0.1279  0.5433
 6412SOL     OW30871   1.805   2.573  13.572 -0.5504  0.2774 -0.2700
 6412SOL    HW130872   1.798   2.536  13.660 -0.9811  0.9544 -0.0183
 6412SOL    HW230873   1.900   2.587  13.573 -0.2274 -1.9780 -0.9086
 6413SOL     OW30874   4.447   3.471   6.290 -0.2557  0.5348  0.7460
 6413SOL    HW130875   4.487   3.397   6.245 -2.4001 -2.0094  2.9856
 6413SOL    HW230876   4.356   3.469   6.257  0.1823  3.3096 -0.5719
 6414SOL     OW30877   0.049   4.609   5.463 -0.2156  0.1116  0.2584
 6414SOL    HW130878   0.038   4.514   5.459  0.3598  0.0616 -0.3168
 6414SOL    HW230879   4.691   4.633   5.462 -0.1001  0.5796  1.6646
 6415SOL     OW30880   2.782   3.117  15.876  0.0831 -0.1960  0.5365
 6415SOL    HW130881   2.845   3.179  15.914  0.8560  0.2090 -1.4084
 6415SOL    HW230882   2.774   3.040  15.933 -0.1771  0.0605  0.8519
 6416SOL     OW30883   4.195   0.361   5.740  0.2887  0.5630 -0.1955
 6416SOL    HW130884   4.100   0.368   5.727  0.0503  0.3492  1.4678
 6416SOL    HW230885   4.197   0.278   5.787 -0.9829 -0.8767 -2.6808
 6417SOL     OW30886   2.592   3.575  13.526  0.3766 -0.4080  0.7260
 6417SOL    HW130887   2.589   3.502  13.588  2.0802 -1.2586 -0.1810
 6417SOL    HW230888   2.525   3.635  13.558  0.5948 -0.3219  1.0301
 6418SOL     OW30889   0.831   1.384  16.742 -0.3036  0.2313 -0.0073
 6418SOL    HW130890   0.768   1.456  16.748  1.1354  1.6831 -2.2134
 6418SOL    HW230891   0.914   1.431  16.733 -0.5395  0.1607 -2.5025
 6419SOL     OW30892   0.722   1.285   2.966 -0.3891 -0.2578  0.6429
 6419SOL    HW130893   0.800   1.338   2.950 -1.0448  0.1299 -1.2779
 6419SOL    HW230894   0.654   1.341   3.003  0.5299  1.1397  0.2077
 6420SOL     OW30895   1.594   1.350  13.570  0.5671 -0.1345  0.4605
 6420SOL    HW130896   1.576   1.274  13.515  1.8851 -0.5004  0.5371
 6420SOL    HW230897   1.685   1.368  13.545 -0.1764  0.8188 -1.6111
 6421SOL     OW30898   0.180   2.114   0.790 -0.3924 -0.1269 -0.4947
 6421SOL    HW130899   0.126   2.036   0.801 -1.5266  1.0023  2.0137
 6421SOL    HW230900   0.262   2.097   0.837 -1.1728 -0.6217  0.6711
 6422SOL     OW30901   1.771   3.498   1.111 -0.5745  0.4325 -0.0301
 6422SOL    HW130902   1.766   3.514   1.206  0.3011 -1.4082  0.3228
 6422SOL    HW230903   1.682   3.509   1.079 -1.0298  0.9947  1.4342
 6423SOL     OW30904   3.000   1.067  10.769 -0.1438  0.1830 -0.1739
 6423SOL    HW130905   2.996   1.049  10.675  0.4457  1.2226 -0.3999
 6423SOL    HW230906   3.014   1.161  10.773 -0.7659  0.2415  0.5344
 6424SOL     OW30907   1.252   0.267  10.365  0.1647 -0.0134 -0.4019
 6424SOL    HW130908   1.239   0.309  10.450 -0.3348  0.2410 -0.6044
 6424SOL    HW230909   1.332   0.218  10.385  0.9265  1.4852  0.2061
 6425SOL     OW30910   3.002   0.397   7.320  0.1266  0.4045 -0.3354
 6425SOL    HW130911   2.930   0.460   7.310 -0.5710  0.2115  3.3479
 6425SOL    HW230912   3.038   0.402   7.232  2.1258  0.0727  0.4746
 6426SOL     OW30913   4.231   4.659  15.069  0.2840 -0.3756  0.0218
 6426SOL    HW130914   4.263   4.679  14.981  0.0209 -1.4268 -0.3085
 6426SOL    HW230915   4.289   4.714  15.123  0.2815  1.3575 -1.7277
 6427SOL     OW30916   0.607   1.603   8.945  0.4272 -0.1207  0.5510
 6427SOL    HW130917   0.603   1.698   8.958 -1.1614 -0.2043  0.7407
 6427SOL    HW230918   0.564   1.580   9.028 -1.4403  1.3281 -0.0095
 6428SOL     OW30919   0.388   4.579   4.626 -0.2419 -0.0499  0.4779
 6428SOL    HW130920   0.360   4.626   4.705  1.0157 -0.2497  1.0366
 6428SOL    HW230921   0.333   4.628   4.564  1.2654  0.9022 -0.1086
 6429SOL     OW30922   4.504   4.168   4.679  1.0563 -0.1331 -0.1765
 6429SOL    HW130923   4.580   4.153   4.735  1.1088 -0.7418 -0.4118
 6429SOL    HW230924   4.446   4.227   4.727  1.7451 -0.8777  1.5441
 6430SOL     OW30925   2.390   2.431   8.219 -0.1997  0.7734 -0.6769
 6430SOL    HW130926   2.385   2.522   8.188 -2.2427 -0.1734 -3.1641
 6430SOL    HW230927   2.340   2.440   8.300  3.3587 -1.0838  1.7128
 6431SOL     OW30928   4.264   2.785   3.479  0.3405 -0.0026  0.0796
 6431SOL    HW130929   4.275   2.864   3.532  2.7347 -0.1817 -0.1183
 6431SOL    HW230930   4.306   2.812   3.397  0.9428  1.2235  0.7904
 6432SOL     OW30931   0.539   2.692   8.572 -0.2512  0.5956  0.3965
 6432SOL    HW130932   0.565   2.666   8.484 -0.0064 -0.0715  0.6651
 6432SOL    HW230933   0.496   2.612   8.603  1.2396 -0.3304  0.0754
 6433SOL     OW30934   4.730   4.578  10.249  0.7237 -0.0788  0.9563
 6433SOL    HW130935   0.086   4.581  10.218  0.0546  0.9769 -0.8816
 6433SOL    HW230936   4.687   4.638  10.189 -1.9567 -0.5404  2.4300
 6434SOL     OW30937   0.802   4.170   6.033 -0.3193  0.0217 -0.1080
 6434SOL    HW130938   0.807   4.250   5.982 -0.0818  1.4038  2.0800
 6434SOL    HW230939   0.849   4.115   5.970 -2.1852 -0.7347 -0.8118
 6435SOL     OW30940   0.220   4.684   2.643  0.7975  0.3663 -0.8324
 6435SOL    HW130941   0.260   0.033   2.666  0.3995  0.8919 -2.0787
 6435SOL    HW230942   0.290   4.620   2.637  1.1403  0.7490 -0.8749
 6436SOL     OW30943   0.011   2.636  12.454  0.4839 -0.0092  0.0799
 6436SOL    HW130944   0.034   2.719  12.496  1.8831 -1.2019  1.6749
 6436SOL    HW230945   4.657   2.624  12.489  0.4101  0.9340  0.2294
 6437SOL     OW30946   4.337   2.952  12.612 -0.1784  0.0928 -1.2278
 6437SOL    HW130947   4.423   2.965  12.572  1.1004 -2.8415  0.5228
 6437SOL    HW230948   4.369   2.924  12.698  0.1736  2.3316 -0.6300
 6438SOL     OW30949   2.690   1.612   4.304  0.3147 -0.6229  0.4731
 6438SOL    HW130950   2.721   1.529   4.340  0.3330 -0.1941  1.4383
 6438SOL    HW230951   2.706   1.664   4.383  1.9772 -1.2006  0.5007
 6439SOL     OW30952   1.927   2.460   6.681  0.0364 -0.0379 -1.0302
 6439SOL    HW130953   1.838   2.482   6.653  0.7832  4.7505  0.3497
 6439SOL    HW230954   1.959   2.550   6.685 -1.2065  0.3781 -0.5044
 6440SOL     OW30955   1.678   2.661  17.614 -0.3308  0.6257 -0.0059
 6440SOL    HW130956   1.673   2.568  17.636  0.9956  0.2934 -1.0828
 6440SOL    HW230957   1.749   2.649  17.551  1.1020  1.0942  1.5029
 6441SOL     OW30958   3.560   1.030   0.404 -0.0883 -0.7216 -0.0093
 6441SOL    HW130959   3.602   1.015   0.319  3.6315 -0.3276  1.7673
 6441SOL    HW230960   3.623   1.093   0.438 -0.0073 -0.4244 -0.7155
 6442SOL     OW30961   1.697   4.518   5.143 -0.6918  0.0107 -0.5524
 6442SOL    HW130962   1.771   4.527   5.082 -0.3869  0.9080 -0.0475
 6442SOL    HW230963   1.731   4.565   5.219 -1.6637  0.4086 -0.3604
 6443SOL     OW30964   2.410   0.275   6.638  0.4281 -0.2091  0.2584
 6443SOL    HW130965   2.353   0.347   6.608  0.5745  0.1046  0.7374
 6443SOL    HW230966   2.353   0.214   6.684  0.3490 -0.1172  0.2825
 6444SOL     OW30967   1.765   1.488  16.828 -0.1420 -0.0511  0.1764
 6444SOL    HW130968   1.679   1.517  16.797  0.5591  1.7084 -0.1305
 6444SOL    HW230969   1.773   1.404  16.783 -1.8265  0.7148 -1.5601
 6445SOL     OW30970   1.228   1.273   9.390  0.7671 -0.1349  0.2279
 6445SOL    HW130971   1.162   1.340   9.371  0.5022  0.5164  3.3759
 6445SOL    HW230972   1.208   1.254   9.482 -0.3533  1.1642  0.2608
 6446SOL     OW30973   2.795   0.033  12.488  0.2908 -0.1035  0.4970
 6446SOL    HW130974   2.864   0.089  12.521  0.6394 -0.1129 -0.2160
 6446SOL    HW230975   2.765   0.079  12.409 -0.3210 -0.6080  0.4283
 6447SOL     OW30976   2.400   4.523   7.409  0.8752  0.8134  0.3914
 6447SOL    HW130977   2.345   4.496   7.483 -0.0218 -0.1136 -0.6072
 6447SOL    HW230978   2.338   4.570   7.354  0.6007  0.3788  0.3307
 6448SOL     OW30979   4.380   0.796   1.643  0.3366  0.1978  0.6445
 6448SOL    HW130980   4.352   0.863   1.705  0.0547 -0.1617  0.9029
 6448SOL    HW230981   4.421   0.839   1.568 -1.0319 -0.5364 -0.5400
 6449SOL     OW30982   2.425   3.985   1.307  0.1286 -0.3754  0.3048
 6449SOL    HW130983   2.460   4.069   1.337 -0.1692  0.1846 -0.8814
 6449SOL    HW230984   2.496   3.925   1.324 -0.6126 -1.0737  0.9321
 6450SOL     OW30985   2.872   1.918   1.804  0.3965  0.2817  0.1310
 6450SOL    HW130986   2.871   1.931   1.709 -2.1669  0.2029  0.1501
 6450SOL    HW230987   2.962   1.891   1.820  0.4408  0.0842 -0.4463
 6451SOL     OW30988   4.408   1.955   7.326 -0.0778  1.0466 -0.3925
 6451SOL    HW130989   4.492   1.924   7.360 -2.0405 -1.2624  2.3092
 6451SOL    HW230990   4.439   2.013   7.257 -1.3253  1.0789 -0.9264
 6452SOL     OW30991   0.639   1.852   1.056 -0.2581  0.3237 -0.1496
 6452SOL    HW130992   0.718   1.869   1.004  0.2603  1.9562  1.1900
 6452SOL    HW230993   0.608   1.942   1.058  0.7932  0.7843 -4.9088
 6453SOL     OW30994   3.428   4.607   4.025  0.7536  0.0030 -0.2715
 6453SOL    HW130995   3.457   4.559   3.948  0.2268 -1.2246  0.2915
 6453SOL    HW230996   3.408   4.692   3.987  1.4485  0.0046 -0.6231
 6454SOL     OW30997   4.674   2.998   0.065 -0.4660  0.4187 -0.4232
 6454SOL    HW130998   4.721   2.996  17.720  2.0225  0.6784  0.9606
 6454SOL    HW230999   4.598   3.046   0.034  0.7016  2.8692  0.4394
 6455SOL     OW31000   3.639   4.657   4.206 -0.0567  0.3406  0.7480
 6455SOL    HW131001   3.598   4.698   4.281 -3.2784 -1.1947 -0.1803
 6455SOL    HW231002   3.569   4.645   4.141 -0.8161 -1.1907  1.8699
 6456SOL     OW31003   4.671   0.807   6.473  0.0371  0.1918  0.5849
 6456SOL    HW131004   4.650   0.725   6.428  0.6706  1.2262 -1.5860
 6456SOL    HW231005   4.704   0.777   6.558  2.3132 -2.4960 -1.2329
 6457SOL     OW31006   3.519   1.173   8.206  0.0822 -0.1742  0.0064
 6457SOL    HW131007   3.482   1.248   8.160 -0.1518  1.7530  3.3250
 6457SOL    HW231008   3.511   1.115   8.130  0.4827 -0.7543  0.4101
 6458SOL     OW31009   0.342   3.619   5.901 -0.2063  1.1006  0.1332
 6458SOL    HW131010   0.407   3.556   5.932 -0.8975 -0.1145 -0.8737
 6458SOL    HW231011   0.296   3.566   5.836 -0.8834  0.2780  1.2710
 6459SOL     OW31012   3.029   2.560   3.673 -0.2648 -0.0207 -0.7362
 6459SOL    HW131013   3.124   2.571   3.675 -0.0817 -1.8978  1.4834
 6459SOL    HW231014   2.996   2.626   3.613  0.3940  0.6144 -0.3926
 6460SOL     OW31015   2.681   0.844   2.403  0.7694 -0.1307  0.2485
 6460SOL    HW131016   2.706   0.927   2.444  1.8391 -0.0739 -0.4929
 6460SOL    HW231017   2.618   0.810   2.467  0.2647  1.5129  0.6252
 6461SOL     OW31018   0.327   0.523   6.570  0.1580 -0.0994 -0.5370
 6461SOL    HW131019   0.318   0.449   6.630 -0.1243  0.3575 -0.0103
 6461SOL    HW231020   0.242   0.512   6.528 -1.0587  2.2817  1.3080
 6462SOL     OW31021   1.671   1.873   1.738 -0.3488 -0.3427 -0.4772
 6462SOL    HW131022   1.595   1.907   1.690 -0.8324  2.7360  2.4649
 6462SOL    HW231023   1.642   1.885   1.829  1.5452 -0.0876  0.0791
 6463SOL     OW31024   4.159   3.966   2.558  0.2280  0.1339  0.1861
 6463SOL    HW131025   4.234   4.003   2.512  0.5788  0.3187  0.8897
 6463SOL    HW231026   4.180   3.968   2.652 -1.1715  1.3753  0.4722
 6464SOL     OW31027   0.715   3.306   7.243 -0.0277  0.2004  0.4955
 6464SOL    HW131028   0.751   3.265   7.322  1.1420 -1.0102 -0.6678
 6464SOL    HW231029   0.651   3.237   7.225 -1.3802  0.4953  4.1591
 6465SOL     OW31030   2.151   3.111  11.233  0.4480  0.3579  0.6196
 6465SOL    HW131031   2.153   3.015  11.234 -0.4667  0.3246 -0.1549
 6465SOL    HW231032   2.122   3.128  11.322 -0.4738  2.0619 -0.0007
 6466SOL     OW31033   1.904   3.871   7.384  0.2896 -0.5170  0.1827
 6466SOL    HW131034   1.994   3.845   7.365  0.0666  0.4836 -2.2136
 6466SOL    HW231035   1.870   3.782   7.394  0.2727 -0.6675 -1.2509
 6467SOL     OW31036   1.221   2.604   7.869  0.1361  0.1826  0.6909
 6467SOL    HW131037   1.205   2.570   7.781  0.1335  0.1132  0.7180
 6467SOL    HW231038   1.314   2.623   7.875  0.3453 -1.0157  1.2425
 6468SOL     OW31039   3.471   3.908  11.295 -0.2018  0.2454 -0.3209
 6468SOL    HW131040   3.423   3.953  11.226  2.7568 -1.1524 -3.3272
 6468SOL    HW231041   3.412   3.844  11.335  1.6947 -0.0064  2.0577
 6469SOL     OW31042   2.754   3.901   5.328  0.6342 -0.1601 -0.6411
 6469SOL    HW131043   2.705   3.819   5.337 -1.2394  1.2180  1.6067
 6469SOL    HW231044   2.784   3.913   5.418 -0.4026  0.7002 -0.4135
 6470SOL     OW31045   3.545   0.326   4.289 -0.2765  0.3852 -0.0572
 6470SOL    HW131046   3.515   0.310   4.379 -1.5010  0.0997 -0.5216
 6470SOL    HW231047   3.632   0.346   4.323 -0.1964  0.2514 -0.1828
 6471SOL     OW31048   4.272   3.502  15.054  0.4138  0.0781  0.3012
 6471SOL    HW131049   4.318   3.549  15.123 -0.9003  1.1706  0.4576
 6471SOL    HW231050   4.295   3.411  15.067  0.9745  0.0992 -0.5114
 6472SOL     OW31051   1.000   4.485   3.112 -0.4781 -0.3387 -0.3796
 6472SOL    HW131052   0.918   4.439   3.130 -0.8634 -0.2071 -1.8093
 6472SOL    HW231053   1.020   4.444   3.028  1.6913  2.3437 -1.1660
 6473SOL     OW31054   3.080   3.134   6.080 -0.1785 -0.1674  0.3636
 6473SOL    HW131055   3.008   3.140   6.017 -0.8697  0.5400  1.2308
 6473SOL    HW231056   3.118   3.221   6.070 -0.3961  0.0010  0.9896
 6474SOL     OW31057   3.050   3.815   2.297  0.6167  0.3654  0.5989
 6474SOL    HW131058   3.063   3.852   2.384  2.9789  0.2296  0.3102
 6474SOL    HW231059   2.976   3.871   2.273  1.0951  0.1456 -1.3940
 6475SOL     OW31060   4.332   0.863   9.988 -0.2028  0.1515  0.2036
 6475SOL    HW131061   4.414   0.887   9.943 -0.2879 -1.7959 -0.9964
 6475SOL    HW231062   4.326   0.943  10.041  2.2185  0.0489  0.6565
 6476SOL     OW31063   2.010   4.183   2.355  0.1094  0.0516  0.5136
 6476SOL    HW131064   1.972   4.171   2.442 -1.6067 -2.0938 -0.5074
 6476SOL    HW231065   2.059   4.101   2.360  0.8355  0.3811 -1.1653
 6477SOL     OW31066   0.435   4.010   4.778 -0.2617 -0.2082 -0.4508
 6477SOL    HW131067   0.365   3.998   4.713  1.2676 -1.4120 -1.8600
 6477SOL    HW231068   0.475   4.090   4.744  1.5218  0.0246  2.2154
 6478SOL     OW31069   4.242   1.508  16.918 -0.0436 -0.1385 -0.0964
 6478SOL    HW131070   4.300   1.487  16.844 -0.9496 -0.4672 -0.7175
 6478SOL    HW231071   4.241   1.602  16.900 -1.3543 -0.0565  0.3708
 6479SOL     OW31072   2.291   0.452   4.380 -0.0491  0.0455  0.2983
 6479SOL    HW131073   2.287   0.540   4.341 -0.1604 -0.5595 -1.0545
 6479SOL    HW231074   2.207   0.443   4.426  0.2483 -1.4955  0.5354
 6480SOL     OW31075   0.520   1.399   9.846  0.7031 -0.3925 -0.6651
 6480SOL    HW131076   0.490   1.446   9.768  0.0138  1.8894  0.9825
 6480SOL    HW231077   0.491   1.310   9.826  0.9131 -1.0848  2.1434
 6481SOL     OW31078   1.433   2.341   3.188 -0.7064 -0.2307 -0.2912
 6481SOL    HW131079   1.493   2.374   3.255 -1.1298  1.4681 -0.7502
 6481SOL    HW231080   1.456   2.385   3.106  0.1703  1.1077  0.6700
 6482SOL     OW31081   1.452   4.112   8.624 -0.0186 -0.5459 -0.6108
 6482SOL    HW131082   1.408   4.031   8.650  0.2160  0.0382  1.5218
 6482SOL    HW231083   1.378   4.168   8.598 -1.1954 -2.2491 -0.9462
 6483SOL     OW31084   3.085   2.720   5.180  0.1161 -0.4703  0.0861
 6483SOL    HW131085   3.022   2.727   5.109 -0.1042 -0.1891  0.3087
 6483SOL    HW231086   3.043   2.663   5.244  1.0820 -2.3285 -0.9207
 6484SOL     OW31087   4.445   2.999  15.380  0.0586 -0.0382  0.1509
 6484SOL    HW131088   4.388   2.969  15.310  1.4959 -0.1975 -0.9470
 6484SOL    HW231089   4.411   3.086  15.401  0.3994 -0.0138  0.6118
 6485SOL     OW31090   2.857   2.200   2.298  0.1253 -0.4081  0.0911
 6485SOL    HW131091   2.844   2.199   2.203 -1.3472 -4.5358  0.3407
 6485SOL    HW231092   2.781   2.161   2.341  0.0780 -0.5615 -0.1307
 6486SOL     OW31093   0.072   3.195  12.583  0.7529 -0.0535 -0.0355
 6486SOL    HW131094   0.147   3.198  12.642  1.7494 -1.5921 -1.2168
 6486SOL    HW231095   0.122   3.176  12.504 -2.4340 -0.3765 -2.0079
 6487SOL     OW31096   4.481   0.244   0.617 -0.0494 -0.2089 -0.3667
 6487SOL    HW131097   4.542   0.266   0.687 -0.1313 -0.3092 -0.2652
 6487SOL    HW231098   4.551   0.233   0.552 -1.3503 -2.9328 -1.3033
 6488SOL     OW31099   0.296   0.536  11.306  0.2332 -0.0724 -0.2243
 6488SOL    HW131100   0.334   0.619  11.276 -1.1524  0.0965 -1.5094
 6488SOL    HW231101   0.241   0.578  11.372  1.9879 -0.4156  1.4590
 6489SOL     OW31102   0.615   2.102   0.670 -0.6571  0.5877 -0.5320
 6489SOL    HW131103   0.569   2.185   0.681  2.6531  2.1119  1.9049
 6489SOL    HW231104   0.709   2.121   0.672 -0.5368 -0.2309  2.6385
 6490SOL     OW31105   4.194   2.669   6.039 -0.4125 -0.3405 -0.1871
 6490SOL    HW131106   4.105   2.686   6.010 -1.0778  1.0370  2.7151
 6490SOL    HW231107   4.257   2.707   5.977 -0.5865 -0.7619 -0.6234
 6491SOL     OW31108   3.010   2.297   8.404 -0.3930  0.8996  0.6310
 6491SOL    HW131109   3.048   2.209   8.392 -1.1273  0.8548 -1.4073
 6491SOL    HW231110   3.086   2.355   8.404  0.7648 -0.5932 -1.6451
 6492SOL     OW31111   2.194   3.635   6.958 -0.9739  0.1277  0.0568
 6492SOL    HW131112   2.253   3.704   6.988 -0.6881 -0.2868  0.4416
 6492SOL    HW231113   2.253   3.586   6.900  0.1304  0.3397  0.9973
 6493SOL     OW31114   3.518   0.503   0.442 -0.0002 -0.0970  0.2583
 6493SOL    HW131115   3.518   0.552   0.361 -0.3470  0.6058  0.6897
 6493SOL    HW231116   3.589   0.438   0.430 -0.1988 -0.3588  0.4962
 6494SOL     OW31117   3.739   4.032   2.306  0.2437 -0.1615 -0.0452
 6494SOL    HW131118   3.779   4.108   2.347 -0.1034  0.1720 -0.3335
 6494SOL    HW231119   3.807   3.969   2.332 -1.4629 -2.2249 -0.5616
 6495SOL     OW31120   0.460   3.910   9.606 -0.1262 -0.0785  0.4609
 6495SOL    HW131121   0.525   3.947   9.666 -1.6447  2.7756  0.3471
 6495SOL    HW231122   0.405   3.872   9.675  0.7340 -0.4133  0.9501
 6496SOL     OW31123   2.376   0.545   3.053  0.0747  0.2455 -0.6908
 6496SOL    HW131124   2.307   0.602   3.018  0.8001  1.3363 -0.3447
 6496SOL    HW231125   2.340   0.457   3.059  0.3143  0.1380 -0.8607
 6497SOL     OW31126   3.690   1.983  11.936 -0.0231 -0.1654 -0.6308
 6497SOL    HW131127   3.741   1.953  11.860  0.1556 -0.7882 -0.2667
 6497SOL    HW231128   3.727   2.070  11.948 -0.5904  0.1383 -1.0421
 6498SOL     OW31129   3.277   0.990   8.330  0.4437 -0.2326 -0.5112
 6498SOL    HW131130   3.204   0.935   8.359  2.5916 -3.3632 -1.1437
 6498SOL    HW231131   3.347   0.930   8.305 -0.3698 -1.7520  0.8386
 6499SOL     OW31132   4.673   1.859   0.597 -0.2398  0.1116 -0.0152
 6499SOL    HW131133   4.723   1.778   0.598 -0.3616  0.0401  0.6668
 6499SOL    HW231134   4.705   1.899   0.678 -1.4729  0.8648  0.1039
 6500SOL     OW31135   2.918   1.418   3.538 -0.2707 -0.2323 -0.3172
 6500SOL    HW131136   2.932   1.433   3.444 -2.6209 -0.9915 -0.7796
 6500SOL    HW231137   3.007   1.394   3.564  0.4310 -0.1195 -2.5711
 6501SOL     OW31138   0.890   3.755   7.929 -0.0184  0.2020 -0.4239
 6501SOL    HW131139   0.822   3.693   7.901  3.0260 -2.8013 -1.2628
 6501SOL    HW231140   0.898   3.746   8.024 -0.8881 -0.7099 -0.4271
 6502SOL     OW31141   4.194   3.580   2.870 -0.2051  0.5437 -0.0727
 6502SOL    HW131142   4.115   3.632   2.858 -1.0821 -0.8229 -0.3191
 6502SOL    HW231143   4.224   3.554   2.782 -0.8420 -0.9352  0.1481
 6503SOL     OW31144   2.285   3.498   3.597 -0.0397  0.3874  0.1331
 6503SOL    HW131145   2.305   3.513   3.690 -3.6513  0.2493  0.9293
 6503SOL    HW231146   2.372   3.526   3.566  1.3709 -2.2354  1.7370
 6504SOL     OW31147   3.920   2.531  16.467  0.8652 -0.1957 -0.0869
 6504SOL    HW131148   3.899   2.476  16.391  1.6611 -1.2073  0.4358
 6504SOL    HW231149   3.954   2.613  16.429 -2.6235  1.1395 -0.3313
 6505SOL     OW31150   1.836   2.660   3.915  0.3402  0.0124  0.1923
 6505SOL    HW131151   1.873   2.643   4.002 -1.6134  4.2472  1.8353
 6505SOL    HW231152   1.757   2.710   3.933 -0.6828 -1.2945 -0.6391
 6506SOL     OW31153   1.167   2.410   3.381 -0.1484 -0.3739  0.3665
 6506SOL    HW131154   1.253   2.451   3.375  0.1990 -1.4876 -2.7906
 6506SOL    HW231155   1.131   2.469   3.447 -0.4046  0.4246 -0.4869
 6507SOL     OW31156   2.081   0.053   3.032  0.2918 -0.2001  0.1537
 6507SOL    HW131157   2.115   4.708   2.990  1.7317  0.4782  0.0386
 6507SOL    HW231158   2.048   0.028   3.118 -2.0519  1.9419 -0.1297
 6508SOL     OW31159   3.761   1.728  13.040 -0.1048  0.3855 -0.4136
 6508SOL    HW131160   3.708   1.715  13.119  2.1656 -0.0744  1.0297
 6508SOL    HW231161   3.705   1.793  12.997 -2.5783 -0.4778  1.5050
 6509SOL     OW31162   0.503   4.474  17.518  0.0077 -0.0426 -0.0043
 6509SOL    HW131163   0.511   4.382  17.492  0.2476 -0.0885  0.2297
 6509SOL    HW231164   0.595   4.498  17.520  0.6071 -2.3871  1.1312
 6510SOL     OW31165   0.513   1.874   3.198  0.1483 -0.1742  0.3181
 6510SOL    HW131166   0.580   1.921   3.149 -1.5248  0.9609 -0.9099
 6510SOL    HW231167   0.503   1.932   3.274  1.9905  0.4157  0.1167
 6511SOL     OW31168   1.398   3.717   2.242 -0.5946 -0.4209  0.4727
 6511SOL    HW131169   1.383   3.810   2.260 -1.3503 -0.7881  1.7431
 6511SOL    HW231170   1.480   3.702   2.291  0.2961 -1.0031 -1.2064
 6512SOL     OW31171   1.202   3.583  17.489  0.1753 -0.3884 -0.2956
 6512SOL    HW131172   1.267   3.576  17.558 -0.9996  0.3662  0.8814
 6512SOL    HW231173   1.208   3.497  17.447 -2.5490 -0.4451 -0.5539
 6513SOL     OW31174   4.412   3.789   1.898  0.0350 -1.1487 -0.0573
 6513SOL    HW131175   4.448   3.858   1.842 -0.9155 -2.6364 -2.5033
 6513SOL    HW231176   4.320   3.811   1.906  0.3390  0.6226 -1.4437
 6514SOL     OW31177   2.334   1.251   7.027  0.6808 -0.1094 -0.3856
 6514SOL    HW131178   2.304   1.337   7.054  1.5557 -0.3782  1.4464
 6514SOL    HW231179   2.289   1.244   6.943  2.0090  1.7149 -1.2278
 6515SOL     OW31180   4.686   4.283   5.197 -0.1824 -0.4414 -0.8228
 6515SOL    HW131181   4.661   4.349   5.262 -0.6837 -0.8308 -0.6227
 6515SOL    HW231182   0.030   4.240   5.229  0.3547  2.5524  1.9047
 6516SOL     OW31183   0.826   2.098  14.917 -0.2390 -0.1228  0.3537
 6516SOL    HW131184   0.890   2.030  14.940 -1.6936 -1.2240  1.1162
 6516SOL    HW231185   0.882   2.175  14.925 -1.3098  0.3856  3.0658
 6517SOL     OW31186   2.634   4.511   6.600 -0.3465  0.2764 -0.2238
 6517SOL    HW131187   2.688   4.527   6.677 -0.3042  0.9264 -0.3901
 6517SOL    HW231188   2.552   4.527   6.647  0.3440  2.2630  0.2780
 6518SOL     OW31189   2.621   4.094   6.735 -0.2129 -0.3294  0.5070
 6518SOL    HW131190   2.556   4.151   6.694 -1.1694 -2.1434 -0.4956
 6518SOL    HW231191   2.701   4.142   6.714  0.5360 -2.5124 -1.5106
 6519SOL     OW31192   0.425   1.191  10.608  0.0340  0.5154 -0.3438
 6519SOL    HW131193   0.405   1.152  10.523 -0.2542 -0.6907  0.2759
 6519SOL    HW231194   0.435   1.120  10.672 -0.8981 -0.9642 -1.8391
 6520SOL     OW31195   1.880   1.250   6.771  0.3915  0.0965  0.8850
 6520SOL    HW131196   1.829   1.307   6.828  2.4380  1.2095  1.6103
 6520SOL    HW231197   1.872   1.301   6.690 -1.3118  0.7668  1.4805
 6521SOL     OW31198   2.412   2.101  17.477 -0.1483  0.0731 -0.2758
 6521SOL    HW131199   2.426   2.052  17.558  0.3634 -0.0798 -0.4592
 6521SOL    HW231200   2.467   2.053  17.415 -1.4451  1.1662 -2.2750
 6522SOL     OW31201   2.077   3.274   2.184 -0.6654  0.1068 -0.7353
 6522SOL    HW131202   1.995   3.317   2.208  0.1222  0.8723  0.5940
 6522SOL    HW231203   2.138   3.315   2.246  1.2224 -1.9260 -1.2576
 6523SOL     OW31204   1.328   2.957   1.411 -0.1305 -0.0781 -0.1338
 6523SOL    HW131205   1.316   3.003   1.328  0.0359 -0.8372 -0.5783
 6523SOL    HW231206   1.407   2.999   1.443  0.5718 -1.7891  0.3943
 6524SOL     OW31207   0.521   0.628  16.594  0.0817 -0.1700 -0.5667
 6524SOL    HW131208   0.483   0.608  16.680 -0.9843 -0.7104 -1.1581
 6524SOL    HW231209   0.489   0.716  16.572 -1.2236 -0.2978  0.8056
 6525SOL     OW31210   3.804   1.753   8.954 -0.2827  0.5097  0.7406
 6525SOL    HW131211   3.723   1.740   8.906 -0.2306 -0.8757  1.0407
 6525SOL    HW231212   3.795   1.693   9.028 -0.8324 -0.7319 -0.3425
 6526SOL     OW31213   3.253   1.297   8.856  0.8047  0.0125  0.4554
 6526SOL    HW131214   3.258   1.287   8.951 -1.7104 -1.0923  0.4640
 6526SOL    HW231215   3.317   1.234   8.823  0.1690 -0.5669  0.3215
 6527SOL     OW31216   1.752   0.917   0.724 -0.2181 -0.4335  0.0716
 6527SOL    HW131217   1.698   0.852   0.769  1.0613 -0.5621  1.4149
 6527SOL    HW231218   1.686   0.950   0.663 -1.5952 -0.4647  1.5720
 6528SOL     OW31219   3.934   3.244   7.332 -0.1840  0.6739  0.5463
 6528SOL    HW131220   3.902   3.264   7.420  0.5152 -1.4682  1.2978
 6528SOL    HW231221   3.924   3.149   7.333  0.7641  0.6075  2.6038
 6529SOL     OW31222   1.625   0.179  15.191  0.0424  0.0528  0.7928
 6529SOL    HW131223   1.590   0.120  15.257 -0.7784 -0.0025  0.3111
 6529SOL    HW231224   1.543   0.217  15.159  0.8194  1.9540  1.0902
 6530SOL     OW31225   2.875   2.227   2.741 -0.3787  0.3280 -0.0827
 6530SOL    HW131226   2.787   2.262   2.752 -1.7449 -2.5502 -1.8916
 6530SOL    HW231227   2.914   2.310   2.713  2.8262 -2.3632 -3.7150
 6531SOL     OW31228   2.602   0.953  12.556  0.1962  0.4111 -0.2089
 6531SOL    HW131229   2.513   0.964  12.524  0.4843  0.2213 -1.0784
 6531SOL    HW231230   2.643   1.019  12.498  2.2962 -0.6753  0.0194
 6532SOL     OW31231   0.688   4.689  15.439 -0.4231  0.0771 -0.3303
 6532SOL    HW131232   0.603   4.678  15.397 -1.6001  1.7830  1.6144
 6532SOL    HW231233   0.698   0.042  15.403 -1.1162  0.4169  0.3147
 6533SOL     OW31234   0.609   0.449  14.917 -0.1126  0.0251 -0.5122
 6533SOL    HW131235   0.633   0.467  14.826  0.8564  0.0205 -0.2610
 6533SOL    HW231236   0.514   0.458  14.914 -0.2774 -2.5113 -2.5090
 6534SOL     OW31237   1.319   3.486   7.106  0.2051  0.5780  0.3768
 6534SOL    HW131238   1.292   3.429   7.177  0.7953  1.2429  1.1292
 6534SOL    HW231239   1.236   3.520   7.073 -0.4005  0.4311  1.7839
 6535SOL     OW31240   4.671   0.517   5.699  0.9842 -0.0015  0.5678
 6535SOL    HW131241   4.585   0.480   5.680  1.8279 -1.6565 -0.1365
 6535SOL    HW231242   4.727   0.455   5.651  2.1339  0.6984  0.9948
 6536SOL     OW31243   3.787   4.082  14.503 -0.2583  0.6617  0.6198
 6536SOL    HW131244   3.807   4.174  14.523 -0.0121  0.3207  1.9096
 6536SOL    HW231245   3.874   4.048  14.485 -0.0037  0.8274  1.5666
 6537SOL     OW31246   1.064   0.570   3.237 -0.1577 -0.2326  0.3235
 6537SOL    HW131247   1.099   0.547   3.323 -0.7451 -2.0009  0.0823
 6537SOL    HW231248   1.085   0.664   3.233 -0.2289 -0.1612  1.6519
 6538SOL     OW31249   3.762   2.449   1.118 -0.2900  0.1457  0.6524
 6538SOL    HW131250   3.784   2.415   1.032 -4.6126 -1.3536  0.1445
 6538SOL    HW231251   3.795   2.539   1.113  0.9563 -0.3084  0.4896
 6539SOL     OW31252   3.332   1.663   8.744 -0.2436  0.0669  0.2548
 6539SOL    HW131253   3.397   1.663   8.814  0.6588 -0.3681 -0.5772
 6539SOL    HW231254   3.316   1.571   8.727  0.7248  0.0036 -0.3458
 6540SOL     OW31255   0.055   2.976   9.110  0.0097  0.3613  0.4585
 6540SOL    HW131256   0.008   3.058   9.098  2.0161  1.2438 -1.4323
 6540SOL    HW231257   0.145   2.997   9.137  0.5146  0.7400 -1.5305
 6541SOL     OW31258   0.067   0.791   7.511 -0.1055 -0.0807  0.2719
 6541SOL    HW131259   0.103   0.705   7.535  0.8779 -0.0237 -1.0043
 6541SOL    HW231260   0.147   0.843   7.525 -0.2474  0.2770 -0.2594
 6542SOL     OW31261   3.307   1.332  16.351 -0.7557  0.9480  0.2871
 6542SOL    HW131262   3.304   1.402  16.416  1.2729  0.8470  0.5036
 6542SOL    HW231263   3.286   1.378  16.270  0.0229  1.6479  0.4863
 6543SOL     OW31264   3.764   2.318   8.288  0.1081  0.1570  0.4175
 6543SOL    HW131265   3.793   2.227   8.280 -1.2982 -0.3098  0.5468
 6543SOL    HW231266   3.849   2.359   8.302  0.4622 -0.0696 -1.0924
 6544SOL     OW31267   2.287   3.014  15.264 -0.4026  0.4288 -0.0505
 6544SOL    HW131268   2.247   3.063  15.336 -0.3239  1.3756 -0.6462
 6544SOL    HW231269   2.271   3.076  15.192 -0.3320  0.5263  0.0169
 6545SOL     OW31270   1.842   1.857  16.147 -0.6012  0.2356  0.3131
 6545SOL    HW131271   1.916   1.917  16.139 -0.9730  0.7228  0.5076
 6545SOL    HW231272   1.772   1.900  16.098  0.5538  0.8533 -0.7979
 6546SOL     OW31273   2.972   3.181  13.073  0.2974  0.0188 -0.5791
 6546SOL    HW131274   2.956   3.108  13.133 -1.6027 -0.3147 -1.4846
 6546SOL    HW231275   2.928   3.253  13.118  0.3685 -2.3071  3.1833
 6547SOL     OW31276   3.081   0.770   5.246  0.7349 -0.0749 -0.3415
 6547SOL    HW131277   3.130   0.733   5.319  1.6393  0.2918 -0.7563
 6547SOL    HW231278   3.089   0.860   5.277 -0.1129 -0.4969  1.0928
 6548SOL     OW31279   3.332   4.146  15.356  0.1811  0.1707 -0.4148
 6548SOL    HW131280   3.355   4.060  15.321  1.0878  0.1190  0.3002
 6548SOL    HW231281   3.272   4.185  15.292  0.2485  0.0169 -0.5726
 6549SOL     OW31282   3.075   3.997   3.401 -0.2747 -0.0527 -0.1450
 6549SOL    HW131283   3.161   3.959   3.384 -0.9680 -1.5954 -0.1463
 6549SOL    HW231284   3.083   4.030   3.490  0.0832 -0.4808 -0.0198
 6550SOL     OW31285   1.975   2.361   5.254  0.1066  0.0701  0.3043
 6550SOL    HW131286   1.968   2.324   5.166 -0.7654 -2.6215  1.4903
 6550SOL    HW231287   2.054   2.319   5.287  0.2751  0.2632  0.1404
 6551SOL     OW31288   0.128   3.163   1.020 -0.0547 -0.2749 -0.2966
 6551SOL    HW131289   0.098   3.226   0.955 -2.2993 -1.7897 -0.7140
 6551SOL    HW231290   0.194   3.115   0.969  2.4542  3.3117 -0.4051
 6552SOL     OW31291   2.975   0.603   4.043 -0.5460 -0.7326  0.1824
 6552SOL    HW131292   2.963   0.510   4.061 -1.1379 -1.1119 -2.1551
 6552SOL    HW231293   3.009   0.635   4.127  1.7937 -0.1816 -0.9868
 6553SOL     OW31294   2.041   3.691   6.339 -0.5280 -0.0553  0.4190
 6553SOL    HW131295   2.109   3.708   6.404 -0.7340  2.8258 -0.1073
 6553SOL    HW231296   2.058   3.754   6.270  1.2473 -0.2144  0.7258
 6554SOL     OW31297   4.171   1.021   6.147  0.5454 -0.2132 -0.2433
 6554SOL    HW131298   4.235   0.969   6.099 -0.3195 -0.3934 -1.1994
 6554SOL    HW231299   4.216   1.002   6.229 -1.3374 -0.4119  0.7361
 6555SOL     OW31300   1.759   3.835   7.121 -0.0784  0.2019  0.0464
 6555SOL    HW131301   1.763   3.741   7.140  0.9962  0.3138  0.3862
 6555SOL    HW231302   1.822   3.866   7.187 -0.2746  0.9771 -0.1252
 6556SOL     OW31303   1.124   3.692   8.677 -0.2063 -0.1055  0.2268
 6556SOL    HW131304   1.216   3.717   8.669 -0.8695  2.0290 -0.7498
 6556SOL    HW231305   1.072   3.764   8.641  0.6905 -0.0015 -0.8602
 6557SOL     OW31306   1.146   2.419   4.948  0.3955 -0.2571  0.0740
 6557SOL    HW131307   1.138   2.357   4.875  0.3635 -0.9338  0.6627
 6557SOL    HW231308   1.120   2.363   5.020  2.1729 -0.8602  0.2542
 6558SOL     OW31309   0.158   2.601  17.555  0.4193  0.0039  0.2250
 6558SOL    HW131310   0.136   2.623  17.645 -1.1086  3.8582 -1.0736
 6558SOL    HW231311   0.102   2.667  17.514  1.0913  1.4837  1.7199
 6559SOL     OW31312   2.059   0.024  17.355  0.0262 -0.2001 -0.2474
 6559SOL    HW131313   1.993   4.690  17.347  2.3826 -2.2298 -2.2265
 6559SOL    HW231314   2.005   0.101  17.337 -0.9556 -0.8046  0.1279
 6560SOL     OW31315   2.904   0.171  13.256  0.6872  0.4649  0.0461
 6560SOL    HW131316   2.912   0.076  13.266 -0.9433  0.6191  2.6409
 6560SOL    HW231317   2.961   0.206  13.324 -1.7934  3.5045  0.5502
 6561SOL     OW31318   1.714   0.322   4.604 -0.5942 -0.0267 -0.0840
 6561SOL    HW131319   1.669   0.296   4.523 -1.3490  0.3777  0.2053
 6561SOL    HW231320   1.718   0.418   4.604 -1.0988 -0.0025 -1.4788
 6562SOL     OW31321   4.586   1.352  11.703 -0.1768  0.4042  0.8476
 6562SOL    HW131322   4.563   1.443  11.687  0.3721  0.2689 -0.7433
 6562SOL    HW231323   4.502   1.312  11.679  1.5165 -3.6290  1.7004
 6563SOL     OW31324   3.656   4.321   7.603  0.6772 -0.0369 -0.7824
 6563SOL    HW131325   3.630   4.265   7.529  0.6810 -2.5954  1.1382
 6563SOL    HW231326   3.689   4.266   7.674  0.6928  0.7462 -0.1968
 6564SOL     OW31327   3.392   0.241   2.546  0.2019  0.5620 -0.4138
 6564SOL    HW131328   3.421   0.203   2.463 -0.1361 -0.6070  0.0036
 6564SOL    HW231329   3.437   0.192   2.615 -0.6834 -0.7616 -0.7908
 6565SOL     OW31330   1.955   0.810   2.329 -0.2312 -0.1657 -0.0734
 6565SOL    HW131331   1.923   0.892   2.369  2.4372 -0.3120  2.3450
 6565SOL    HW231332   2.034   0.846   2.291  0.1821 -1.5709 -0.5217
 6566SOL     OW31333   4.343   1.919  13.783 -0.0635 -0.0241 -0.2453
 6566SOL    HW131334   4.252   1.890  13.780  0.1555 -0.6370 -0.9815
 6566SOL    HW231335   4.336   1.991  13.846  1.5923 -1.2576  1.3271
 6567SOL     OW31336   0.319   0.897   4.142 -0.0304 -0.3538 -0.3406
 6567SOL    HW131337   0.280   0.832   4.083  0.5017 -0.0300 -1.0670
 6567SOL    HW231338   0.408   0.860   4.142  0.6055  1.1846 -0.2133
 6568SOL     OW31339   4.210   1.284   7.142 -0.4595 -0.0258  0.5684
 6568SOL    HW131340   4.175   1.208   7.096 -1.2832  1.7581 -1.7848
 6568SOL    HW231341   4.245   1.330   7.066  1.2658  0.8207  1.8814
 6569SOL     OW31342   2.185   4.601   6.240  0.6815 -0.3711 -0.2619
 6569SOL    HW131343   2.171   4.601   6.334  2.4768  1.0197  0.0194
 6569SOL    HW231344   2.258   4.662   6.229  2.3808 -2.4092 -0.2328
 6570SOL     OW31345   3.337   1.991   0.787  0.7756 -0.5199  0.1988
 6570SOL    HW131346   3.376   1.914   0.829 -0.2824 -1.1562  0.0132
 6570SOL    HW231347   3.303   2.031   0.867  1.6742  0.9807 -0.1632
 6571SOL     OW31348   2.745   2.632   9.014  0.7123 -0.4311 -0.1526
 6571SOL    HW131349   2.699   2.658   9.094  1.5447 -0.9841  0.4946
 6571SOL    HW231350   2.754   2.539   9.032 -0.7591 -0.3952  0.7796
 6572SOL     OW31351   3.102   2.455  15.838 -0.1259 -0.1081  0.1211
 6572SOL    HW131352   3.019   2.497  15.819 -0.2451  1.1460  3.3764
 6572SOL    HW231353   3.145   2.530  15.879  1.6288 -0.5284 -0.9327
 6573SOL     OW31354   1.832   4.641   3.704 -0.0822 -0.0004 -0.6002
 6573SOL    HW131355   1.739   4.659   3.689  0.0069  1.2465  0.3548
 6573SOL    HW231356   1.859   4.732   3.714 -2.3346  0.4494  1.3177
 6574SOL     OW31357   1.035   0.461   9.012  0.2177 -0.5986  0.1392
 6574SOL    HW131358   1.040   0.556   9.015 -0.5032 -0.5827  1.2761
 6574SOL    HW231359   1.079   0.446   8.929 -1.5515 -1.2974 -0.6582
 6575SOL     OW31360   4.073   0.939  10.334  0.1159 -0.1861  0.1073
 6575SOL    HW131361   4.009   0.937  10.404  0.0789  0.8700  0.1066
 6575SOL    HW231362   4.151   0.904  10.377  1.8508  3.7975  0.2286
 6576SOL     OW31363   1.515   0.364  17.019  0.8727 -0.3597 -0.6179
 6576SOL    HW131364   1.536   0.430  16.953 -0.5264 -0.9378 -1.6505
 6576SOL    HW231365   1.544   0.409  17.098  0.9948 -0.0228 -0.8597
 6577SOL     OW31366   0.855   0.219   3.242  0.4191 -0.5676  0.3206
 6577SOL    HW131367   0.854   0.314   3.228 -0.5532 -0.3224  2.0523
 6577SOL    HW231368   0.847   0.183   3.154  1.0191  0.7119 -0.2636
 6578SOL     OW31369   0.254   0.746  11.926  0.3870 -0.3508 -0.0654
 6578SOL    HW131370   0.197   0.732  11.850  0.7480 -3.8821  0.3432
 6578SOL    HW231371   0.205   0.823  11.957 -0.8212 -0.6635 -1.1686
 6579SOL     OW31372   2.985   1.046   1.592 -0.3754 -0.0552  0.0433
 6579SOL    HW131373   2.993   1.108   1.665 -0.7398 -0.4696  0.4464
 6579SOL    HW231374   2.923   0.981   1.627 -0.8037  0.9394  1.1481
 6580SOL     OW31375   2.688   0.838  15.869  0.3988 -0.2633  0.1561
 6580SOL    HW131376   2.776   0.843  15.905  1.5533 -1.6749 -2.4852
 6580SOL    HW231377   2.648   0.922  15.891 -3.1726 -1.7473 -0.5614
 6581SOL     OW31378   2.267   0.573   4.052 -0.3961 -0.0820  0.2660
 6581SOL    HW131379   2.308   0.489   4.071  1.6652  0.4024 -2.0823
 6581SOL    HW231380   2.272   0.631   4.128  1.2748 -0.6347  0.5772
 6582SOL     OW31381   1.546   2.427  10.392  0.0115  0.7651  0.5864
 6582SOL    HW131382   1.537   2.398  10.483  0.9061 -1.2764  0.0211
 6582SOL    HW231383   1.457   2.445  10.360  0.0204 -0.5598 -0.2062
 6583SOL     OW31384   4.533   4.094   7.961  0.0190 -0.8771  0.0448
 6583SOL    HW131385   4.456   4.107   7.907  0.0908  3.5521  0.9632
 6583SOL    HW231386   4.545   4.001   7.941  0.9804 -0.4992 -1.1497
 6584SOL     OW31387   1.544   1.459  11.583  0.0165 -0.3409  0.3399
 6584SOL    HW131388   1.534   1.394  11.653  0.2050 -0.3394  0.3666
 6584SOL    HW231389   1.479   1.525  11.607 -0.5038 -0.3322 -1.0627
 6585SOL     OW31390   0.430   3.054   5.929 -0.0028  0.1603 -0.1236
 6585SOL    HW131391   0.488   3.098   5.991 -1.9488  0.9742  1.1507
 6585SOL    HW231392   0.420   2.970   5.975 -0.0270  0.0313 -0.3622
 6586SOL     OW31393   2.544   3.008   2.633 -0.6916  0.1260 -0.0148
 6586SOL    HW131394   2.535   2.925   2.587  0.8780  0.3585 -0.7597
 6586SOL    HW231395   2.469   3.009   2.692  1.0813 -0.6332  2.2571
 6587SOL     OW31396   3.226   1.728   6.133  0.0264  0.4129 -0.2209
 6587SOL    HW131397   3.155   1.674   6.098 -0.2892  1.3624 -1.0341
 6587SOL    HW231398   3.201   1.755   6.221  1.5643  0.3470  0.2458
 6588SOL     OW31399   2.004   4.628   0.675  0.0835 -0.3076  0.2107
 6588SOL    HW131400   2.050   4.594   0.751  0.8103  0.6597  0.2012
 6588SOL    HW231401   1.982   4.718   0.698  0.1243  0.0760 -1.2542
 6589SOL     OW31402   1.764   2.285   2.557  0.3740  0.0210  0.4621
 6589SOL    HW131403   1.844   2.237   2.578  0.0668 -0.9976 -0.7121
 6589SOL    HW231404   1.803   2.365   2.522  0.0619 -0.7530 -1.6222
 6590SOL     OW31405   3.699   0.119   9.267  0.4946  0.7952 -0.0578
 6590SOL    HW131406   3.791   0.138   9.284  0.0855  1.5071  1.3562
 6590SOL    HW231407   3.697   0.076   9.182  1.3934  1.3258 -0.3492
 6591SOL     OW31408   1.551   3.996  12.943 -0.1865  0.0718  0.3168
 6591SOL    HW131409   1.586   4.046  12.869 -2.9657  0.4100 -0.7846
 6591SOL    HW231410   1.592   4.052  13.008  1.2102  0.2525 -0.7223
 6592SOL     OW31411   3.787   4.641   4.867 -0.4500 -0.0458 -0.6809
 6592SOL    HW131412   3.707   4.664   4.914  0.7483  1.6087  0.5599
 6592SOL    HW231413   3.753   4.594   4.791 -1.0914  0.4307 -0.6853
 6593SOL     OW31414   3.438   1.317   5.712  0.3047  0.8820 -0.9074
 6593SOL    HW131415   3.381   1.389   5.686 -1.2285 -0.1447 -0.3909
 6593SOL    HW231416   3.494   1.369   5.769  0.0407 -1.7152  1.7664
 6594SOL     OW31417   3.110   0.065  12.961  0.1302  0.2867  0.9179
 6594SOL    HW131418   3.029   0.115  12.966 -0.9918 -1.6682  2.0870
 6594SOL    HW231419   3.100   0.022  12.876 -1.1995  0.6367  0.9046
 6595SOL     OW31420   3.489   3.607   3.229 -0.4351 -0.1731 -0.0875
 6595SOL    HW131421   3.570   3.637   3.187 -0.2771 -0.0988  0.2671
 6595SOL    HW231422   3.531   3.586   3.312 -1.9230  1.0265  0.9480
 6596SOL     OW31423   0.160   0.053  14.896 -0.3412 -0.0509 -0.9964
 6596SOL    HW131424   0.156   4.699  14.930  0.1652  0.0398 -0.6917
 6596SOL    HW231425   0.069   0.073  14.918  0.7213  2.8547  0.8787
 6597SOL     OW31426   4.090   3.230   1.367 -0.4442  0.2245 -0.0269
 6597SOL    HW131427   4.141   3.311   1.359 -0.4924  0.1246 -1.4472
 6597SOL    HW231428   4.063   3.236   1.458 -1.7654 -1.5114 -0.3032
 6598SOL     OW31429   3.893   2.377  16.234 -0.2374  0.3197  0.3403
 6598SOL    HW131430   3.830   2.324  16.184 -0.2488 -0.5118  1.2347
 6598SOL    HW231431   3.964   2.396  16.172  0.0785 -1.0277  0.2850
 6599SOL     OW31432   3.037   4.391   0.766 -0.5985 -0.3822  0.9508
 6599SOL    HW131433   3.078   4.406   0.851 -0.7639 -0.1803  0.9935
 6599SOL    HW231434   3.081   4.452   0.706 -1.0983  0.2051  1.1918
 6600SOL     OW31435   3.865   1.691   0.858  0.1626 -0.1475  0.5551
 6600SOL    HW131436   3.889   1.781   0.836 -1.4565  0.1570 -0.0293
 6600SOL    HW231437   3.886   1.695   0.951  0.0261  0.4814  0.5585
 6601SOL     OW31438   0.203   3.071   8.769 -0.2447 -0.2275 -0.2749
 6601SOL    HW131439   0.285   3.117   8.755  0.1287 -1.3357 -1.6545
 6601SOL    HW231440   0.191   3.048   8.677 -0.5616 -1.2372  0.0188
 6602SOL     OW31441   0.239   2.980  12.844  0.2072 -0.0752 -0.3802
 6602SOL    HW131442   0.251   2.895  12.802  2.7527 -1.4021  2.9155
 6602SOL    HW231443   0.195   2.960  12.927 -0.1315  0.0645 -0.5304
 6603SOL     OW31444   2.772   4.439  16.327 -0.4879 -0.2222 -0.4852
 6603SOL    HW131445   2.819   4.521  16.308  0.6216 -0.4384  1.3931
 6603SOL    HW231446   2.722   4.468  16.403  1.2530 -1.2314  1.0182
 6604SOL     OW31447   4.223   1.901   6.697 -0.4463 -0.2394  1.1807
 6604SOL    HW131448   4.249   1.960   6.768  0.2905  1.4489 -0.4893
 6604SOL    HW231449   4.128   1.896   6.709 -0.6965 -0.9064 -1.2604
 6605SOL     OW31450   3.308   2.116  16.512  0.0540 -0.7040  0.0455
 6605SOL    HW131451   3.369   2.130  16.440  1.6292 -1.7786  1.1970
 6605SOL    HW231452   3.360   2.124  16.592 -0.4417  0.0922  0.2949
 6606SOL     OW31453   3.217   3.449   9.535  0.4501  0.1826  0.7193
 6606SOL    HW131454   3.148   3.514   9.519  1.9827  1.9259  1.1276
 6606SOL    HW231455   3.283   3.518   9.543  1.0993 -0.0339 -2.7067
 6607SOL     OW31456   4.668   0.036   7.043 -0.0395 -0.0392  0.5468
 6607SOL    HW131457   4.687   4.712   6.969  0.5984  0.4395  0.3332
 6607SOL    HW231458   0.013   0.075   7.078 -0.5284  1.8206 -0.3683
 6608SOL     OW31459   3.092   3.568   5.689  0.1431  0.0734  0.5150
 6608SOL    HW131460   3.155   3.502   5.718 -1.5476 -0.8460  2.0802
 6608SOL    HW231461   3.075   3.603   5.776  2.2013 -1.0519  1.3690
 6609SOL     OW31462   2.540   0.484   8.983 -0.3131 -0.3969 -0.4032
 6609SOL    HW131463   2.495   0.463   8.902 -1.0217 -2.0706  0.4188
 6609SOL    HW231464   2.465   0.509   9.037  0.1610  0.4192 -0.1156
 6610SOL     OW31465   1.397   0.330  15.218 -0.4030 -0.2136  0.6123
 6610SOL    HW131466   1.331   0.354  15.153  1.1374 -0.6100 -1.0951
 6610SOL    HW231467   1.351   0.339  15.302  1.0382 -3.0093  1.7241
 6611SOL     OW31468   3.405   4.691   2.642 -0.0389 -0.4070 -0.1932
 6611SOL    HW131469   3.333   4.634   2.614 -0.9369  0.5599  0.1791
 6611SOL    HW231470   3.386   4.676   2.734 -1.5768 -2.4802 -0.8234
 6612SOL     OW31471   1.323   1.433   3.187  0.1071 -0.3772 -0.0221
 6612SOL    HW131472   1.327   1.406   3.279 -0.5143 -0.7924 -0.1161
 6612SOL    HW231473   1.235   1.464   3.167 -0.0663 -0.1322  1.0723
 6613SOL     OW31474   2.909   3.182   5.184 -0.3436 -0.1474 -0.8139
 6613SOL    HW131475   2.883   3.094   5.158  1.1944 -0.1915 -2.1377
 6613SOL    HW231476   2.871   3.189   5.272 -1.2522 -0.6049 -1.1635
 6614SOL     OW31477   3.818   1.180   3.689  0.2620  0.0986  0.6909
 6614SOL    HW131478   3.790   1.159   3.600  0.0839 -1.7372  1.1860
 6614SOL    HW231479   3.910   1.204   3.676 -0.2523  2.5269  1.5183
 6615SOL     OW31480   2.070   1.306   2.904  0.0549 -0.2054  0.4920
 6615SOL    HW131481   2.063   1.398   2.927 -1.4202 -0.2029  0.0223
 6615SOL    HW231482   2.068   1.309   2.809  0.7234  0.0624  0.4857
 6616SOL     OW31483   0.685   2.460   7.640  0.0211  0.0836 -0.1412
 6616SOL    HW131484   0.636   2.392   7.593 -0.4888 -0.4604  1.1873
 6616SOL    HW231485   0.724   2.502   7.563  0.3585 -0.5122 -0.2902
 6617SOL     OW31486   1.880   1.308   3.710  0.2972 -0.1275  0.9154
 6617SOL    HW131487   1.823   1.308   3.633  1.0073 -1.6239  0.3909
 6617SOL    HW231488   1.946   1.367   3.673 -0.5290  0.4031  0.3019
 6618SOL     OW31489   2.121   2.652   3.309 -0.2730 -0.8055  0.2141
 6618SOL    HW131490   2.162   2.734   3.282 -0.6165 -0.7929 -0.2683
 6618SOL    HW231491   2.192   2.616   3.362 -1.2504 -1.8312  0.8200
 6619SOL     OW31492   3.645   1.361  15.711  0.1709  0.4993  0.1268
 6619SOL    HW131493   3.714   1.396  15.655  0.1381  1.9206  0.9818
 6619SOL    HW231494   3.671   1.367  15.802  0.1030 -1.5746  0.2940
 6620SOL     OW31495   2.227   3.205   4.914 -0.0235 -0.0146 -0.5653
 6620SOL    HW131496   2.253   3.281   4.861 -0.4332 -1.1284 -2.3483
 6620SOL    HW231497   2.249   3.125   4.866  0.8472  0.0721 -0.3221
 6621SOL     OW31498   1.534   1.163  10.859 -0.1824  0.3923 -0.3350
 6621SOL    HW131499   1.617   1.208  10.844  0.4576 -0.5804  0.3013
 6621SOL    HW231500   1.487   1.174  10.776 -0.1101  1.6970 -0.1981
 6622SOL     OW31501   2.041   1.046   5.735  0.3071  0.3548 -0.2686
 6622SOL    HW131502   2.023   1.103   5.810  1.6056  1.4586 -0.7918
 6622SOL    HW231503   2.135   1.029   5.743  0.0562 -1.5490 -1.5952
 6623SOL     OW31504   3.132   4.189   1.727 -0.1801  0.2401 -0.1691
 6623SOL    HW131505   3.147   4.279   1.756  0.4111  0.2004 -0.3537
 6623SOL    HW231506   3.037   4.184   1.730 -0.0925  0.2324  2.0610
 6624SOL     OW31507   3.238   4.155   2.426  1.1115 -0.9052  0.3747
 6624SOL    HW131508   3.182   4.089   2.466  1.6845 -0.1913  2.3451
 6624SOL    HW231509   3.310   4.103   2.390 -1.8399 -2.7092 -2.9441
 6625SOL     OW31510   1.061   0.151   5.860 -0.3163  0.5768  0.2911
 6625SOL    HW131511   0.973   0.113   5.851  0.4032 -1.5626  2.2442
 6625SOL    HW231512   1.077   0.134   5.953 -0.1290 -1.1099 -0.0436
 6626SOL     OW31513   1.614   3.144   4.254 -0.6848  0.6049  0.3118
 6626SOL    HW131514   1.520   3.162   4.259 -0.9279 -0.3881 -0.7642
 6626SOL    HW231515   1.635   3.144   4.348 -0.1432 -1.1598  0.1924
 6627SOL     OW31516   3.075   3.404   8.213 -0.1755  0.3693 -0.2657
 6627SOL    HW131517   3.073   3.339   8.143 -2.4063  2.1319 -1.8691
 6627SOL    HW231518   3.053   3.351   8.289  0.5769  1.0862  0.4602
 6628SOL     OW31519   4.397   4.146   2.915 -0.8810 -0.2037  0.1537
 6628SOL    HW131520   4.358   4.233   2.904  0.0882  0.1111 -0.7656
 6628SOL    HW231521   4.483   4.159   2.875 -0.4682  0.9822  1.4345
 6629SOL     OW31522   3.502   1.637   8.351 -0.2961  0.0973  0.1249
 6629SOL    HW131523   3.411   1.607   8.350 -0.7172  1.3247  1.6035
 6629SOL    HW231524   3.482   1.724   8.386  1.0867  1.3513 -2.1994
 6630SOL     OW31525   3.120   1.371   8.638 -0.3666  0.2380 -0.1907
 6630SOL    HW131526   3.151   1.311   8.706  0.1426  0.9511  0.1984
 6630SOL    HW231527   3.149   1.321   8.561 -1.0164 -2.9950  1.6864
 6631SOL     OW31528   3.629   4.287   4.575 -0.9306  0.2160 -0.2735
 6631SOL    HW131529   3.600   4.213   4.522  1.2206 -2.2342  2.0540
 6631SOL    HW231530   3.714   4.248   4.592 -1.3244 -0.9310 -0.9736
 6632SOL     OW31531   4.398   2.458  11.453 -0.4526  0.0419 -0.2427
 6632SOL    HW131532   4.462   2.518  11.415  1.5969 -1.7010  0.4450
 6632SOL    HW231533   4.457   2.395  11.495 -0.2751  2.1059  2.5796
 6633SOL     OW31534   0.282   2.486   0.617 -0.0616 -0.2985 -0.5208
 6633SOL    HW131535   0.232   2.555   0.574  0.1702  0.5829  0.6393
 6633SOL    HW231536   0.322   2.435   0.546  0.3050 -1.7959  0.7673
 6634SOL     OW31537   3.633   2.408   7.468  0.0377 -0.0648  0.0774
 6634SOL    HW131538   3.584   2.368   7.540  0.3996  2.0440  1.4761
 6634SOL    HW231539   3.592   2.365   7.392  2.4862  1.0972 -1.9145
 6635SOL     OW31540   0.064   4.349   7.621 -0.2256  0.1732  0.1013
 6635SOL    HW131541   4.729   4.308   7.569  0.5866  1.0703 -1.6969
 6635SOL    HW231542   0.059   4.300   7.703  1.9407  1.0368  0.7324
 6636SOL     OW31543   3.698   0.425   0.802 -0.7532  0.0426  0.3723
 6636SOL    HW131544   3.766   0.372   0.761 -1.4155 -3.7899  4.1878
 6636SOL    HW231545   3.623   0.385   0.758 -1.2909  0.4848  0.8786
 6637SOL     OW31546   3.859   3.922   5.609  0.6423 -0.5773 -0.6985
 6637SOL    HW131547   3.782   3.954   5.561  0.6855  1.8591  0.8963
 6637SOL    HW231548   3.859   3.829   5.585  1.7384 -0.8935  0.5374
 6638SOL     OW31549   3.445   1.639   2.938  0.3943  0.0887 -0.0275
 6638SOL    HW131550   3.366   1.586   2.933  0.5585 -0.2674  1.1950
 6638SOL    HW231551   3.413   1.728   2.924 -1.5704 -0.4795  0.7836
 6639SOL     OW31552   1.113   4.723   1.301  0.5060  0.4561 -0.1047
 6639SOL    HW131553   1.182   0.028   1.353  1.3133 -0.7948 -0.2392
 6639SOL    HW231554   1.128   0.028   1.215  1.7662 -1.2417 -0.6593
 6640SOL     OW31555   2.307   2.655   9.217  0.0042 -0.3898 -0.4511
 6640SOL    HW131556   2.216   2.682   9.234  0.3007 -1.3233  2.5785
 6640SOL    HW231557   2.315   2.706   9.136  1.1589 -0.0002 -0.0924
 6641SOL     OW31558   1.610   0.416  15.676 -0.2408 -0.0953  0.4775
 6641SOL    HW131559   1.684   0.447  15.727 -0.5846  1.6381 -0.0821
 6641SOL    HW231560   1.644   0.411  15.587  3.2586 -1.4496  1.8991
 6642SOL     OW31561   1.535   2.882   6.419  0.5543  0.2148  0.1598
 6642SOL    HW131562   1.518   2.914   6.508 -1.8279  0.7733 -0.4958
 6642SOL    HW231563   1.445   2.867   6.389  0.6710 -0.1743 -0.0026
 6643SOL     OW31564   2.263   4.596   9.584  0.2361 -0.5302 -0.0797
 6643SOL    HW131565   2.210   4.519   9.565  0.8189 -1.2973  1.3682
 6643SOL    HW231566   2.333   4.560   9.639  2.2931  2.5525 -0.7119
 6644SOL     OW31567   0.889   0.582   1.975  0.0218 -0.5858  0.0715
 6644SOL    HW131568   0.984   0.596   1.968 -0.3844  2.7664  1.7652
 6644SOL    HW231569   0.869   0.574   1.882 -0.3986 -0.4393  0.1528
 6645SOL     OW31570   1.760   0.243  17.650 -0.3978  0.0767  0.7448
 6645SOL    HW131571   1.698   0.290  17.705 -1.2725  0.8673 -0.9173
 6645SOL    HW231572   1.838   0.297  17.662  0.1216 -0.7854  1.2965
 6646SOL     OW31573   1.258   1.023   4.075 -0.1401 -0.8556 -0.3996
 6646SOL    HW131574   1.303   1.093   4.028 -0.8179  0.2919  0.6520
 6646SOL    HW231575   1.168   1.051   4.060  0.5766  0.6918 -1.7694
 6647SOL     OW31576   2.376   1.490  16.664 -0.0212 -0.0337  0.0535
 6647SOL    HW131577   2.358   1.559  16.600 -1.0712 -0.0604  0.3172
 6647SOL    HW231578   2.350   1.526  16.748 -0.3226  0.3033 -0.1841
 6648SOL     OW31579   3.574   1.350   5.068  0.0861  0.0293  0.0986
 6648SOL    HW131580   3.632   1.311   5.003 -0.9020  1.5814 -1.7505
 6648SOL    HW231581   3.557   1.441   5.042  0.5809 -0.3280 -1.5040
 6649SOL     OW31582   1.304   4.733   6.437 -0.2870 -0.5433  0.0433
 6649SOL    HW131583   1.346   0.027   6.356 -1.9280  2.0584  0.1022
 6649SOL    HW231584   1.382   4.719   6.491 -0.1603  0.6970  0.1972
 6650SOL     OW31585   2.550   4.300   0.438 -0.5840  0.6668 -0.1516
 6650SOL    HW131586   2.607   4.250   0.380 -0.8306 -0.4878  0.6043
 6650SOL    HW231587   2.478   4.330   0.382 -0.3500  3.6468  1.1174
 6651SOL     OW31588   3.082   4.332   1.316 -0.0997 -0.4840 -0.3488
 6651SOL    HW131589   3.008   4.338   1.377 -0.4555 -1.3889 -0.6854
 6651SOL    HW231590   3.087   4.424   1.290  1.1882 -0.6392 -0.6275
 6652SOL     OW31591   4.522   3.425   7.632 -0.1686  0.2122 -0.1186
 6652SOL    HW131592   4.551   3.434   7.723 -1.3396 -1.1239  0.3931
 6652SOL    HW231593   4.558   3.510   7.608 -2.3055  1.1315 -0.0909
 6653SOL     OW31594   4.510   1.678  14.506 -0.4005 -0.6236 -0.3478
 6653SOL    HW131595   4.446   1.653  14.439  1.6992 -0.3667 -2.4562
 6653SOL    HW231596   4.576   1.611  14.492 -1.9174 -1.9303 -1.3290
 6654SOL     OW31597   0.008   3.857   4.253 -0.5327 -0.7869  0.5802
 6654SOL    HW131598   0.003   3.948   4.283 -2.0023  0.1920 -2.6818
 6654SOL    HW231599   0.064   3.863   4.176 -1.5422  0.4390 -0.0730
 6655SOL     OW31600   2.573   4.485   8.307 -0.2505  0.4171  0.0527
 6655SOL    HW131601   2.625   4.407   8.327 -1.2351 -0.4105 -0.6032
 6655SOL    HW231602   2.559   4.513   8.397 -3.4688  0.4262 -0.4559
 6656SOL     OW31603   2.251   1.721   2.619 -0.2803 -0.2138 -0.5865
 6656SOL    HW131604   2.207   1.803   2.638 -0.4936 -0.6026  0.5989
 6656SOL    HW231605   2.341   1.751   2.627 -0.7008  0.6750  0.6708
 6657SOL     OW31606   0.532   1.333   3.722 -0.0708  0.0481  0.4565
 6657SOL    HW131607   0.470   1.260   3.720 -0.2208  0.1772  0.3703
 6657SOL    HW231608   0.614   1.284   3.719  0.6707  1.2030  2.0912
 6658SOL     OW31609   1.593   2.217   7.409 -0.1756  0.4374 -0.0078
 6658SOL    HW131610   1.683   2.189   7.389  0.1143  1.9238 -0.7263
 6658SOL    HW231611   1.593   2.266   7.491 -3.6048 -0.6590  0.6423
 6659SOL     OW31612   1.536   3.748   5.617  0.1324 -0.2967  0.4676
 6659SOL    HW131613   1.491   3.787   5.692 -0.8643  0.5846 -0.5896
 6659SOL    HW231614   1.621   3.729   5.656  1.3487  0.4612 -1.8463
 6660SOL     OW31615   4.530   4.021   7.229  0.5909  0.2439 -0.0084
 6660SOL    HW131616   4.448   4.050   7.189  1.4147  0.0406 -1.8712
 6660SOL    HW231617   4.496   3.981   7.309  1.1879 -0.6995 -0.2168
 6661SOL     OW31618   2.852   3.871   4.064 -0.6126  0.2902  0.0128
 6661SOL    HW131619   2.765   3.837   4.044 -0.4624  0.6493 -1.2186
 6661SOL    HW231620   2.827   3.940   4.125 -3.6614  0.8890 -1.9332
 6662SOL     OW31621   0.203   4.260   4.743 -0.2858 -0.3037 -0.9701
 6662SOL    HW131622   0.230   4.214   4.663 -2.2831  1.5171 -2.6938
 6662SOL    HW231623   0.161   4.338   4.706 -0.5425  0.7675  1.6019
 6663SOL     OW31624   0.394   0.426  15.350 -0.8078  0.1562 -0.5131
 6663SOL    HW131625   0.436   0.500  15.394  1.2933 -1.3846  0.0281
 6663SOL    HW231626   0.370   0.364  15.418  2.3143  1.3118  1.6477
 6664SOL     OW31627   3.594   2.947   4.523 -0.1009 -0.0997  0.1596
 6664SOL    HW131628   3.665   2.901   4.567 -0.4526  1.1091  2.0007
 6664SOL    HW231629   3.640   2.953   4.439  0.6552 -1.6867  0.4611
 6665SOL     OW31630   1.390   3.186   8.081  0.9573 -0.1223 -0.4014
 6665SOL    HW131631   1.403   3.092   8.065  1.8696 -0.3253  1.5813
 6665SOL    HW231632   1.310   3.203   8.131  2.1282  0.8353  1.1171
 6666SOL     OW31633   3.336   0.135   4.253 -0.4094  0.6987 -0.2474
 6666SOL    HW131634   3.411   0.193   4.238 -0.6568  0.6001 -1.9213
 6666SOL    HW231635   3.345   0.110   4.345 -0.5907  0.3348 -0.3290
 6667SOL     OW31636   2.927   2.782  11.350  0.1307 -0.4049  0.4380
 6667SOL    HW131637   2.935   2.692  11.319  2.0636 -0.3597  0.8045
 6667SOL    HW231638   2.960   2.836  11.279  0.9705  0.0762  1.1859
 6668SOL     OW31639   0.863   2.658   5.168 -0.1309  0.6146  0.3659
 6668SOL    HW131640   0.924   2.729   5.191  0.8641  0.2682 -1.1782
 6668SOL    HW231641   0.855   2.609   5.249 -0.1404 -2.6325 -1.5934
 6669SOL     OW31642   2.665   0.502   2.397 -0.1282  0.2210  0.0504
 6669SOL    HW131643   2.603   0.527   2.465  1.6416  2.9929  0.6317
 6669SOL    HW231644   2.639   0.570   2.335 -1.5717 -1.9843 -1.7688
 6670SOL     OW31645   3.642   1.534   8.584  0.3798  0.5759 -0.0030
 6670SOL    HW131646   3.633   1.439   8.588 -0.4456  0.6750  0.4027
 6670SOL    HW231647   3.606   1.550   8.497  0.4506  2.5966  0.3432
 6671SOL     OW31648   0.834   3.269  10.352 -0.0086  0.6462 -0.1066
 6671SOL    HW131649   0.806   3.277  10.443  0.4797 -1.2458  0.2197
 6671SOL    HW231650   0.747   3.237  10.326  0.1805  1.0352 -1.2206
 6672SOL     OW31651   1.137   2.869   4.700  0.0649 -0.1828 -0.2200
 6672SOL    HW131652   1.105   2.798   4.756  0.5769 -1.7231 -1.8518
 6672SOL    HW231653   1.184   2.919   4.766 -2.1499  0.9677  0.4936
 6673SOL     OW31654   3.348   0.343   3.395  0.0138 -0.0253 -0.1359
 6673SOL    HW131655   3.287   0.280   3.432 -0.9010  0.4803 -0.7716
 6673SOL    HW231656   3.295   0.379   3.324  1.2251  0.1572 -0.9448
 6674SOL     OW31657   3.221   4.507   3.810  0.4350  0.5706 -0.1895
 6674SOL    HW131658   3.182   4.434   3.857 -1.4157  1.2371 -0.6819
 6674SOL    HW231659   3.313   4.495   3.834  0.2392 -0.4667  0.0106
 6675SOL     OW31660   4.659   2.540   1.036  0.1740 -0.5189 -0.3716
 6675SOL    HW131661   4.630   2.452   1.059 -0.7379 -0.6772 -2.1029
 6675SOL    HW231662   0.010   2.519   0.997  0.3708  0.0278 -0.2423
 6676SOL     OW31663   1.100   1.331   8.864  0.2739  0.1804 -0.8528
 6676SOL    HW131664   1.122   1.349   8.955  0.6818 -1.5946 -0.5894
 6676SOL    HW231665   1.005   1.340   8.873  0.1427 -0.1910 -1.8625
 6677SOL     OW31666   4.563   1.221   7.548  0.0161 -0.0976  0.0276
 6677SOL    HW131667   4.530   1.168   7.475 -0.5940  0.7259 -0.3006
 6677SOL    HW231668   4.584   1.152   7.611 -0.1580 -0.6477 -0.5119
 6678SOL     OW31669   4.012   1.956   7.081 -0.7703 -0.6412  0.1083
 6678SOL    HW131670   4.044   1.908   7.005 -1.4452  0.2829 -0.7673
 6678SOL    HW231671   4.089   1.972   7.136  0.2488  0.8293 -1.7865
 6679SOL     OW31672   1.932   1.273  11.720  0.3205  0.2089 -0.3321
 6679SOL    HW131673   1.857   1.309  11.768 -0.0652  0.8373 -1.4014
 6679SOL    HW231674   1.944   1.186  11.758 -0.7848  0.6233  0.9823
 6680SOL     OW31675   2.681   1.272  16.808 -0.2522 -0.0370  0.1892
 6680SOL    HW131676   2.608   1.303  16.861 -0.4397  0.1265 -0.1687
 6680SOL    HW231677   2.637   1.218  16.742  0.3017 -1.4895  0.9988
 6681SOL     OW31678   2.892   1.424  13.893 -0.2368  0.1015  0.3623
 6681SOL    HW131679   2.978   1.384  13.881 -0.4826  0.3534 -2.2417
 6681SOL    HW231680   2.912   1.488  13.961  1.9436 -1.1165  0.8801
 6682SOL     OW31681   1.826   4.458  14.305 -0.4925 -0.2008  0.3253
 6682SOL    HW131682   1.775   4.405  14.243  1.3304 -2.6681  0.9544
 6682SOL    HW231683   1.903   4.473  14.250 -1.8965  0.3145 -1.5334
 6683SOL     OW31684   2.868   2.585   9.535 -0.2878 -0.5861 -0.3567
 6683SOL    HW131685   2.963   2.587   9.532 -0.3066  0.5335 -0.0598
 6683SOL    HW231686   2.851   2.496   9.503  0.3893 -0.7959 -0.1258
 6684SOL     OW31687   3.136   2.823   4.603 -0.1439 -0.4114  0.0340
 6684SOL    HW131688   3.148   2.911   4.638  0.1018  0.0992 -1.3237
 6684SOL    HW231689   3.215   2.797   4.556  0.6956  0.2221  1.0939
 6685SOL     OW31690   1.278   3.698   2.587 -0.3146  0.1320  0.2400
 6685SOL    HW131691   1.239   3.739   2.664 -1.1722  1.1383 -0.7231
 6685SOL    HW231692   1.330   3.774   2.560 -0.2285 -0.2229 -0.6230
 6686SOL     OW31693   1.438   3.484  14.721  0.0681  0.1209  0.3132
 6686SOL    HW131694   1.441   3.393  14.748 -1.7961  0.0266  0.2044
 6686SOL    HW231695   1.415   3.469  14.629  1.2689 -2.7899  0.5118
 6687SOL     OW31696   2.771   0.603   9.324 -0.0476 -0.3912  0.2324
 6687SOL    HW131697   2.701   0.560   9.373 -1.1553  1.2668  0.1128
 6687SOL    HW231698   2.719   0.617   9.245  2.2433 -1.3333 -1.4479
 6688SOL     OW31699   1.397   2.970   9.248 -0.0526 -0.2824  0.2248
 6688SOL    HW131700   1.457   2.994   9.318 -0.1079  0.5216 -0.0059
 6688SOL    HW231701   1.328   2.914   9.286 -0.6196  0.0211 -0.3512
 6689SOL     OW31702   1.898   2.507   3.443 -0.3321 -0.1563  0.1020
 6689SOL    HW131703   1.959   2.572   3.409  0.3693 -0.9047 -0.0656
 6689SOL    HW231704   1.848   2.496   3.363 -3.1065 -0.1278  1.8191
 6690SOL     OW31705   1.371   4.006  13.648  0.4830 -0.4107  0.2202
 6690SOL    HW131706   1.408   4.049  13.570  1.1074 -0.1936  0.6436
 6690SOL    HW231707   1.385   4.074  13.714 -2.2079  0.6746 -0.3168
 6691SOL     OW31708   0.215   3.734  16.830  0.6304  0.1445 -0.0574
 6691SOL    HW131709   0.283   3.745  16.896 -0.6524  0.5262  1.2011
 6691SOL    HW231710   0.167   3.655  16.858  0.3052  0.0145 -0.9779
 6692SOL     OW31711   0.223   4.651   2.142  0.3613 -0.0643  0.1445
 6692SOL    HW131712   0.155   4.621   2.202  1.6343 -2.5406  0.3173
 6692SOL    HW231713   0.267   4.722   2.189  0.8754 -0.1417 -0.2198
 6693SOL     OW31714   3.369   3.032   9.979 -0.0340 -0.4646  0.6537
 6693SOL    HW131715   3.459   3.048  10.004 -0.2632  1.4834  0.2173
 6693SOL    HW231716   3.331   3.113  10.013  1.1781  1.9818 -3.9257
 6694SOL     OW31717   3.505   3.236   1.519 -0.2700  0.3133 -0.2555
 6694SOL    HW131718   3.527   3.290   1.443  2.1150 -0.7479 -0.3136
 6694SOL    HW231719   3.596   3.213   1.534  0.3595  1.5120 -2.3251
 6695SOL     OW31720   2.658   1.986   3.298 -0.2747 -0.0597  0.3549
 6695SOL    HW131721   2.657   2.023   3.209  0.6306  0.1650  0.4361
 6695SOL    HW231722   2.686   2.058   3.354  2.1126 -0.0420 -0.8357
 6696SOL     OW31723   2.006   3.544   8.204 -0.2290 -0.0558  1.0036
 6696SOL    HW131724   1.987   3.621   8.151 -0.5682 -1.8812 -1.5119
 6696SOL    HW231725   2.099   3.523   8.192  0.3455  3.1929 -0.2756
 6697SOL     OW31726   1.070   1.483   9.345 -0.0163 -0.4250  0.3913
 6697SOL    HW131727   1.128   1.531   9.405 -1.2763 -1.3410  2.3417
 6697SOL    HW231728   1.034   1.562   9.303 -0.1070 -0.8146 -0.2569
 6698SOL     OW31729   1.944   0.073   7.523 -0.8750 -0.2409  0.0052
 6698SOL    HW131730   1.862   0.075   7.573  0.2921 -0.0506  1.9104
 6698SOL    HW231731   2.007   0.107   7.586  1.8072 -0.7986 -2.3921
 6699SOL     OW31732   3.825   2.689   8.616 -0.2412 -0.1327 -0.1483
 6699SOL    HW131733   3.870   2.753   8.671  1.2561 -0.7245 -0.6739
 6699SOL    HW231734   3.854   2.708   8.526  1.2708  0.2180  0.4244
 6700SOL     OW31735   1.966   1.039   7.245 -0.0165 -0.1418 -0.3085
 6700SOL    HW131736   2.056   1.070   7.252  0.6788 -2.0860 -0.6741
 6700SOL    HW231737   1.918   1.112   7.285 -1.4658 -0.8438 -0.7578
 6701SOL     OW31738   4.486   1.011   5.124 -0.3629 -0.6155  0.9002
 6701SOL    HW131739   4.401   1.016   5.168 -1.8350 -0.0227 -1.9593
 6701SOL    HW231740   4.486   1.071   5.050 -0.0818  0.6317  1.9170
 6702SOL     OW31741   0.051   2.265   1.002  0.0654  0.9299  0.0641
 6702SOL    HW131742   0.072   2.218   0.921  2.1628  0.7152  0.7256
 6702SOL    HW231743   0.104   2.345   0.992 -0.3510  1.3857  1.6183
 6703SOL     OW31744   1.134   3.715   3.021  0.1051  0.2789  0.0079
 6703SOL    HW131745   1.112   3.806   3.000  2.1386  0.2224 -2.4238
 6703SOL    HW231746   1.201   3.729   3.088 -0.8618 -0.1768  1.0695
 6704SOL     OW31747   2.408   4.050   8.663  0.6060 -0.2918  0.7436
 6704SOL    HW131748   2.456   4.069   8.582  1.4615 -3.2785  0.5335
 6704SOL    HW231749   2.459   3.975   8.693  0.4035  0.1234  2.1252
 6705SOL     OW31750   1.567   2.816   3.609 -0.0019 -0.1540  0.0915
 6705SOL    HW131751   1.596   2.908   3.608 -1.6309  0.2978 -2.9985
 6705SOL    HW231752   1.486   2.831   3.561  0.8848 -1.3052 -1.7324
 6706SOL     OW31753   1.579   2.786   3.907  0.3971 -0.1422  0.3375
 6706SOL    HW131754   1.581   2.785   3.812  1.5624 -0.6693  0.3691
 6706SOL    HW231755   1.585   2.880   3.924 -1.7553 -0.0179  0.4146
 6707SOL     OW31756   2.194   0.847   7.419 -0.1115  0.2950  0.6076
 6707SOL    HW131757   2.205   0.925   7.365 -1.7312  1.2331  1.6058
 6707SOL    HW231758   2.272   0.852   7.474  0.4796 -1.8803 -0.0272
 6708SOL     OW31759   1.093   2.656   1.687  0.4991  0.4316  0.0675
 6708SOL    HW131760   1.160   2.632   1.623 -0.1546  0.3564 -0.5873
 6708SOL    HW231761   1.016   2.646   1.631 -0.1981  1.5558  0.8199
 6709SOL     OW31762   4.162   3.694   8.495 -0.3481  0.4001  0.1713
 6709SOL    HW131763   4.071   3.707   8.468 -0.1643 -3.2676 -2.2307
 6709SOL    HW231764   4.149   3.654   8.581  0.0656 -0.3393 -0.1071
 6710SOL     OW31765   2.105   2.284   1.736 -0.5076 -0.3003  0.7138
 6710SOL    HW131766   2.069   2.310   1.651 -1.6849 -0.9986  0.9892
 6710SOL    HW231767   2.097   2.190   1.723  0.6808 -0.1426 -1.1286
 6711SOL     OW31768   0.453   2.608   1.377 -0.0076 -0.6152 -0.1083
 6711SOL    HW131769   0.398   2.530   1.389 -0.1188 -0.5928 -0.4700
 6711SOL    HW231770   0.394   2.683   1.375 -0.5471 -1.0520 -1.0494
 6712SOL     OW31771   3.553   0.801   4.766  0.1257 -0.5961  0.4615
 6712SOL    HW131772   3.481   0.769   4.713  0.6638 -1.8360  0.4871
 6712SOL    HW231773   3.622   0.749   4.725  0.7358  0.7350 -0.2199
 6713SOL     OW31774   3.742   2.764   5.496  0.1001  0.0718  0.3183
 6713SOL    HW131775   3.661   2.813   5.501  0.3798  0.6693 -0.9261
 6713SOL    HW231776   3.725   2.695   5.560  1.2523 -0.4621  0.0518
 6714SOL     OW31777   0.673   2.236   1.972 -0.2003 -0.3663  0.4705
 6714SOL    HW131778   0.659   2.243   1.878 -1.3248  1.2626  0.7647
 6714SOL    HW231779   0.603   2.177   2.000 -1.9010  0.9059 -1.1124
 6715SOL     OW31780   3.531   1.997   2.635  0.0217 -0.3376 -0.1802
 6715SOL    HW131781   3.471   2.039   2.574  0.1812 -0.3707 -0.3613
 6715SOL    HW231782   3.477   1.967   2.708 -1.4567 -0.5639 -1.3799
 6716SOL     OW31783   1.021   0.782   3.832  0.4284  0.2747  0.3287
 6716SOL    HW131784   1.024   0.795   3.927  2.6426 -0.7605  0.4004
 6716SOL    HW231785   1.102   0.731   3.835  0.7812  0.9296  1.8779
 6717SOL     OW31786   4.405   3.988   6.744  0.0837 -0.4754  0.3815
 6717SOL    HW131787   4.343   3.934   6.794 -0.3115  0.7751  1.2410
 6717SOL    HW231788   4.350   3.988   6.666  0.5063 -0.4787  0.0861
 6718SOL     OW31789   1.691   0.534   7.737 -0.0920  0.7799  0.0267
 6718SOL    HW131790   1.682   0.486   7.654  2.2483 -1.2406  0.9463
 6718SOL    HW231791   1.603   0.553   7.770 -0.5313 -0.9245 -0.1744
 6719SOL     OW31792   3.195   3.973   2.969  0.2772 -0.1481  0.3256
 6719SOL    HW131793   3.265   3.915   2.940 -1.5614 -1.4020 -1.5607
 6719SOL    HW231794   3.235   3.992   3.054 -0.6289 -0.4850  0.8247
 6720SOL     OW31795   1.347   2.141   2.307  0.1366 -0.0662 -0.1909
 6720SOL    HW131796   1.296   2.211   2.267  1.4988  0.5733 -0.7846
 6720SOL    HW231797   1.415   2.194   2.347 -0.3726  0.4735 -0.0365
 6721SOL     OW31798   2.468   4.297   5.116  0.3481 -0.2711 -0.0735
 6721SOL    HW131799   2.410   4.237   5.163  0.0752 -1.0984 -1.4388
 6721SOL    HW231800   2.460   4.376   5.169 -1.2585 -0.4073 -0.1123
 6722SOL     OW31801   3.998   0.013   0.444 -0.0613 -0.9237 -0.2191
 6722SOL    HW131802   3.903   0.009   0.433  0.0516 -1.9103 -0.9084
 6722SOL    HW231803   4.008   4.717   0.535 -1.1369 -1.3917 -0.2647
 6723SOL     OW31804   3.674   0.977   1.738  0.0213  0.1918  0.3405
 6723SOL    HW131805   3.589   0.966   1.694  0.2680  0.0202 -0.0941
 6723SOL    HW231806   3.653   1.050   1.796 -0.0128  0.2275  0.2831
 6724SOL     OW31807   2.287   0.101  12.879 -0.0069  0.0726 -0.5555
 6724SOL    HW131808   2.351   0.157  12.923 -0.4599 -1.3420  1.9315
 6724SOL    HW231809   2.216   0.131  12.936  2.3869  2.8184  0.9672
 6725SOL     OW31810   2.109   0.606   4.585  0.5581  0.1174 -0.6434
 6725SOL    HW131811   2.199   0.633   4.603 -0.4078  1.3850  2.3600
 6725SOL    HW231812   2.067   0.692   4.586  0.0742 -0.1224  1.3392
 6726SOL     OW31813   1.516   2.677   4.328 -0.2089  0.4445  0.2109
 6726SOL    HW131814   1.442   2.700   4.272  0.0815 -1.2550 -0.8667
 6726SOL    HW231815   1.500   2.584   4.343 -0.3904  0.3963 -0.2920
 6727SOL     OW31816   4.555   0.454  10.500  0.0649  0.0237 -0.2601
 6727SOL    HW131817   4.509   0.535  10.521 -0.1725  0.1460 -1.2360
 6727SOL    HW231818   4.573   0.402  10.578  1.4808 -2.5476 -2.3071
 6728SOL     OW31819   0.857   0.458   3.101 -0.4900 -0.4006 -0.1409
 6728SOL    HW131820   0.820   0.543   3.079 -2.4675 -1.1343  0.3565
 6728SOL    HW231821   0.929   0.487   3.157 -1.3732 -1.7780  1.7288
 6729SOL     OW31822   1.313   4.437   7.913  0.1484 -0.3925  0.2480
 6729SOL    HW131823   1.318   4.529   7.939 -0.6497  0.2684 -1.9301
 6729SOL    HW231824   1.321   4.436   7.818 -0.5259 -0.7562  0.1933
 6730SOL     OW31825   0.441   3.083   1.432  0.1436  0.5988  0.2027
 6730SOL    HW131826   0.450   3.141   1.508 -1.4562 -0.0923  0.9161
 6730SOL    HW231827   0.419   3.144   1.362  0.2362 -0.2159 -0.5393
 6731SOL     OW31828   1.097   1.522   7.977 -0.0174  0.0536 -0.1727
 6731SOL    HW131829   1.026   1.476   8.022  2.2482 -2.2888  0.9689
 6731SOL    HW231830   1.113   1.461   7.905  0.9532 -1.0089  0.9566
 6732SOL     OW31831   3.376   1.309  11.462  0.0918  0.2913 -0.9676
 6732SOL    HW131832   3.441   1.366  11.503 -1.5622  1.3949  0.0916
 6732SOL    HW231833   3.330   1.372  11.406 -1.4766 -0.9093 -1.0417
 6733SOL     OW31834   2.262   3.847   2.804 -0.1355  0.1126 -0.4978
 6733SOL    HW131835   2.318   3.772   2.785  0.7420  0.6150  0.0896
 6733SOL    HW231836   2.322   3.920   2.789  0.9313 -0.5610  0.4965
 6734SOL     OW31837   3.703   0.142  15.677 -0.5709 -0.1942 -0.2695
 6734SOL    HW131838   3.656   0.118  15.597 -0.6310 -0.8130 -0.0510
 6734SOL    HW231839   3.784   0.092  15.666 -0.6277 -0.4607  0.4919
 6735SOL     OW31840   2.697   2.839   4.728 -0.5087  0.1047 -0.4129
 6735SOL    HW131841   2.678   2.763   4.673  0.8064 -0.8523  0.4593
 6735SOL    HW231842   2.640   2.816   4.801  1.7105 -0.6808  1.0781
 6736SOL     OW31843   1.809   2.826   2.218  0.2214  0.4119  0.3505
 6736SOL    HW131844   1.731   2.816   2.163 -0.0804 -1.7841  1.1691
 6736SOL    HW231845   1.855   2.744   2.203  0.2972  0.0236  2.5907
 6737SOL     OW31846   1.108   2.372   1.890 -0.1288  0.3139  0.5936
 6737SOL    HW131847   1.048   2.447   1.888  0.2083  0.5526 -0.8864
 6737SOL    HW231848   1.047   2.298   1.894 -1.8675  1.6806 -0.6669
 6738SOL     OW31849   3.959   3.025   9.043 -0.0250  0.5197  0.3253
 6738SOL    HW131850   3.892   3.092   9.055 -0.8307 -0.0752 -0.7932
 6738SOL    HW231851   4.040   3.075   9.040  0.6829 -0.7822 -2.7399
 6739SOL     OW31852   3.068   0.105   7.698 -0.2326  0.5964  0.1208
 6739SOL    HW131853   3.125   0.040   7.655 -0.7484  1.7162 -2.2560
 6739SOL    HW231854   3.029   0.156   7.627 -2.4106 -0.8374  0.3092
 6740SOL     OW31855   3.862   0.359   2.355  0.2780 -0.0904  0.0590
 6740SOL    HW131856   3.841   0.439   2.404 -1.3580  1.4608 -3.1080
 6740SOL    HW231857   3.825   0.291   2.411 -2.1805 -0.0177 -1.4473
 6741SOL     OW31858   2.925   0.175   7.050 -0.1119 -0.2867 -0.7439
 6741SOL    HW131859   2.975   0.255   7.067  1.3531 -0.9086 -2.1186
 6741SOL    HW231860   2.853   0.182   7.112  1.0475 -1.8028  0.7653
 6742SOL     OW31861   3.508   0.822   3.778 -0.0231 -0.0120  0.0690
 6742SOL    HW131862   3.529   0.750   3.837 -0.0260 -0.1333 -0.0790
 6742SOL    HW231863   3.413   0.814   3.769 -0.4466  3.9212  0.9023
 6743SOL     OW31864   2.931   4.632   1.636 -0.1612  0.8013 -0.6836
 6743SOL    HW131865   2.918   4.556   1.580 -1.5339 -0.1928  0.9780
 6743SOL    HW231866   2.912   4.705   1.577 -1.2307 -0.5276 -1.9832
 6744SOL     OW31867   3.126   0.273  13.422 -0.7929 -0.2095  0.1739
 6744SOL    HW131868   3.120   0.277  13.518  0.0377 -0.2558  0.2242
 6744SOL    HW231869   3.211   0.229  13.419  0.2907  1.8464  0.3196
 6745SOL     OW31870   3.552   2.610   4.725  0.1389  0.3601 -0.0339
 6745SOL    HW131871   3.631   2.566   4.756 -1.4448 -2.8359 -0.5913
 6745SOL    HW231872   3.562   2.690   4.778  2.8179  2.4410 -3.6873
 6746SOL     OW31873   0.660   1.361   4.278 -0.3798 -0.0554 -0.2160
 6746SOL    HW131874   0.665   1.317   4.193  0.5315 -1.4842  0.5652
 6746SOL    HW231875   0.729   1.422   4.253  2.3246 -3.8073 -1.9552
 6747SOL     OW31876   2.741   1.663   1.908 -0.1349  0.0596 -0.2682
 6747SOL    HW131877   2.739   1.756   1.933 -1.2056 -0.2661  0.8744
 6747SOL    HW231878   2.821   1.627   1.947 -1.2501 -1.2964  0.7697
 6748SOL     OW31879   2.819   3.941   2.130 -0.3333 -0.3240  0.2306
 6748SOL    HW131880   2.873   3.908   2.058 -1.4644 -1.0911 -0.2623
 6748SOL    HW231881   2.863   4.022   2.155  0.4587 -0.1798 -1.6357
 6749SOL     OW31882   4.411   0.519   4.931 -0.2213 -0.3918  0.2910
 6749SOL    HW131883   4.469   0.442   4.939 -0.2117 -0.4133  0.0187
 6749SOL    HW231884   4.483   0.580   4.918 -1.5348  1.1595  0.3992
 6750SOL     OW31885   3.266   3.010   9.705  0.0191 -0.5230 -0.0989
 6750SOL    HW131886   3.292   3.021   9.796  2.5783 -1.7945 -0.6753
 6750SOL    HW231887   3.184   3.059   9.713  0.4907  0.3195 -0.3532
 6751SOL     OW31888   1.779   0.709  13.734 -0.4107  0.2218 -0.3857
 6751SOL    HW131889   1.731   0.628  13.722 -0.4675  0.4172 -1.5022
 6751SOL    HW231890   1.744   0.764  13.663 -1.8801 -2.1262 -1.4865
 6752SOL     OW31891   4.309   0.396  11.205  0.0121 -0.5004  0.3320
 6752SOL    HW131892   4.392   0.353  11.226  0.7132  0.6512 -0.0538
 6752SOL    HW231893   4.279   0.419  11.292  0.8373 -0.9222  0.7289
 6753SOL     OW31894   1.759   4.223   9.687  0.1710  0.7713 -0.1300
 6753SOL    HW131895   1.739   4.154   9.625  0.5208  1.0878 -0.6008
 6753SOL    HW231896   1.674   4.254   9.718 -0.2416  0.2163 -0.7251
 6754SOL     OW31897   2.670   1.804  15.011  0.0288  0.1035  0.2269
 6754SOL    HW131898   2.593   1.751  14.989 -0.0873 -0.4678  2.0193
 6754SOL    HW231899   2.729   1.742  15.052  0.7371  1.4176  1.1998
 6755SOL     OW31900   1.237   2.339  16.411 -1.0383  0.3322 -0.2218
 6755SOL    HW131901   1.301   2.394  16.366 -0.9242  0.6759  0.3678
 6755SOL    HW231902   1.188   2.406  16.459  0.9619  0.9423  0.9693
 6756SOL     OW31903   3.690   2.870  10.956  0.1403 -0.2785  0.0508
 6756SOL    HW131904   3.631   2.863  10.882  0.5451  0.9747 -0.4018
 6756SOL    HW231905   3.774   2.832  10.929  1.0552  0.3972  1.9238
 6757SOL     OW31906   3.494   2.241   3.597 -0.3737  0.0178 -0.1350
 6757SOL    HW131907   3.407   2.252   3.559 -0.6469  3.9058  1.5452
 6757SOL    HW231908   3.495   2.147   3.614  0.6180  0.2324  0.9663
 6758SOL     OW31909   1.498   2.983   3.339  0.4982 -0.3317  0.5286
 6758SOL    HW131910   1.494   3.073   3.370  1.3972 -0.7879  1.9497
 6758SOL    HW231911   1.411   2.969   3.300  0.9036 -1.0840 -0.0975
 6759SOL     OW31912   1.547   3.800   3.084  0.3496  0.0382 -0.6652
 6759SOL    HW131913   1.610   3.872   3.082 -0.2762  0.5618 -1.2434
 6759SOL    HW231914   1.601   3.743   3.140  0.1057 -2.3791 -2.8521
 6760SOL     OW31915   4.175   3.907   5.324 -0.4381 -0.3565  0.0709
 6760SOL    HW131916   4.199   3.984   5.375  1.1257 -0.0104 -1.1637
 6760SOL    HW231917   4.082   3.911   5.306 -0.0628  1.3783 -1.4498
 6761SOL     OW31918   4.112   2.227  15.296  0.5897  0.3460 -0.0677
 6761SOL    HW131919   4.115   2.200  15.205  1.3803 -4.5397  1.3740
 6761SOL    HW231920   4.047   2.298  15.290  0.7047  0.7107  2.7136
 6762SOL     OW31921   0.706   4.658   7.515 -0.0113  0.3587  0.1708
 6762SOL    HW131922   0.772   4.726   7.528  0.4147 -0.3072  1.4481
 6762SOL    HW231923   0.689   4.613   7.597  1.1830 -0.0571  0.1820
 6763SOL     OW31924   0.521   1.421   6.211  0.1299 -0.7208 -0.0049
 6763SOL    HW131925   0.473   1.437   6.292 -0.8283  0.5462 -0.8190
 6763SOL    HW231926   0.610   1.431   6.246 -0.4081 -0.0913  1.1552
 6764SOL     OW31927   2.644   2.312  10.860 -0.8218  0.2055 -0.2841
 6764SOL    HW131928   2.738   2.324  10.873 -1.1397  2.6393 -0.1680
 6764SOL    HW231929   2.642   2.225  10.821 -0.2443 -0.7085  1.7060
 6765SOL     OW31930   1.497   4.067   2.802  0.3175  0.1687  0.1481
 6765SOL    HW131931   1.591   4.074   2.788  0.2226 -0.2958 -0.7646
 6765SOL    HW231932   1.468   4.157   2.818 -0.9984  0.0396 -1.5380
 6766SOL     OW31933   2.654   0.101   6.628  0.4422  0.4579 -0.0467
 6766SOL    HW131934   2.578   0.061   6.669 -0.2024  1.4703 -0.2465
 6766SOL    HW231935   2.696   0.138   6.706  1.8180 -2.0264  0.3952
 6767SOL     OW31936   3.523   4.067  14.543 -0.6023 -0.2193 -0.4999
 6767SOL    HW131937   3.477   4.096  14.464 -1.1181  0.3103 -0.0120
 6767SOL    HW231938   3.616   4.070  14.520 -0.5411  1.2537 -0.0433
 6768SOL     OW31939   3.511   3.905   7.795  0.2838  0.0157 -0.7845
 6768SOL    HW131940   3.467   3.980   7.756 -0.7708  0.3194  0.9745
 6768SOL    HW231941   3.434   3.849   7.788  1.2025 -1.5942  2.1440
 6769SOL     OW31942   3.621   2.211   3.188  0.1536  0.0863 -0.6551
 6769SOL    HW131943   3.702   2.242   3.148  0.6754  1.1009  1.1857
 6769SOL    HW231944   3.648   2.210   3.280  1.7630  0.7096 -1.1272
 6770SOL     OW31945   1.230   2.489   2.985  0.4802 -0.3467  0.1959
 6770SOL    HW131946   1.213   2.435   3.063  0.9015  0.8422  1.1166
 6770SOL    HW231947   1.148   2.481   2.936  0.0151 -0.1982  0.9500
 6771SOL     OW31948   0.347   3.976   7.405  0.3951  0.3400 -0.1615
 6771SOL    HW131949   0.259   4.000   7.375 -0.1680 -0.8109  0.5679
 6771SOL    HW231950   0.367   4.049   7.464  2.7933  1.1693 -1.9977
 6772SOL     OW31951   2.235   0.143   6.034 -0.2201 -0.1644 -0.3922
 6772SOL    HW131952   2.215   0.072   5.972  1.6091 -1.4511  0.4746
 6772SOL    HW231953   2.309   0.098   6.075 -0.6511 -0.3812  0.1480
 6773SOL     OW31954   4.231   1.465   5.071  0.0282 -0.0308  0.4501
 6773SOL    HW131955   4.233   1.371   5.049 -1.5757  0.0974 -0.2753
 6773SOL    HW231956   4.275   1.470   5.156 -0.5269  0.0933  0.7253
 6774SOL     OW31957   3.089   3.295   9.146  0.5068  0.2145 -0.7036
 6774SOL    HW131958   3.066   3.234   9.076 -1.1328  0.9684 -0.8242
 6774SOL    HW231959   3.015   3.353   9.126 -0.9504 -0.8742  1.5877
 6775SOL     OW31960   1.177   2.830   5.536  0.1432  0.5845  0.6532
 6775SOL    HW131961   1.169   2.905   5.595  1.0946 -0.1674  1.7364
 6775SOL    HW231962   1.169   2.881   5.456 -1.4597  0.2907  0.6168
 6776SOL     OW31963   0.814   2.271   6.842  0.4530  0.0114  0.0976
 6776SOL    HW131964   0.745   2.299   6.783  2.9837  0.6974 -2.5702
 6776SOL    HW231965   0.840   2.355   6.881  0.5145 -0.8745  1.9461
 6777SOL     OW31966   4.183   3.256   7.131 -0.1165 -0.3183 -0.0119
 6777SOL    HW131967   4.091   3.243   7.111 -0.3940  1.7554 -0.0845
 6777SOL    HW231968   4.211   3.165   7.143  1.8053  0.1103 -1.2048
 6778SOL     OW31969   2.552   3.119  17.083  0.1417 -0.2488 -0.3523
 6778SOL    HW131970   2.645   3.135  17.094 -0.1665 -0.5544  2.4859
 6778SOL    HW231971   2.515   3.180  17.146  0.5966  0.1705 -0.4938
 6779SOL     OW31972   0.252   2.114   8.291  0.5183  0.2844 -0.5016
 6779SOL    HW131973   0.167   2.070   8.291  0.5030  0.3128 -0.6944
 6779SOL    HW231974   0.274   2.103   8.383  2.1125  0.2682 -0.8892
 6780SOL     OW31975   1.941   0.455  17.389  0.3961 -0.0187 -0.6034
 6780SOL    HW131976   1.963   0.547  17.400  0.3431  0.2184 -2.4768
 6780SOL    HW231977   1.985   0.414  17.464  2.0970  0.5781 -1.2939
 6781SOL     OW31978   4.709   2.062   2.438  0.2548  0.3409 -0.4606
 6781SOL    HW131979   4.708   1.976   2.480 -0.7874  1.1381  1.1425
 6781SOL    HW231980   0.060   2.096   2.464  1.4420 -1.8509 -1.5077
 6782SOL     OW31981   0.207   2.116   2.574  0.2098  0.2982  0.5225
 6782SOL    HW131982   0.243   2.098   2.660 -1.4609 -0.2848  1.1046
 6782SOL    HW231983   0.189   2.210   2.579  0.1512  0.2461  1.2874
 6783SOL     OW31984   4.618   1.868   2.229  0.0257  0.7851  0.4498
 6783SOL    HW131985   4.685   1.933   2.250 -1.1356  2.0531  0.1724
 6783SOL    HW231986   4.586   1.846   2.316 -0.4711 -0.9500 -0.1601
 6784SOL     OW31987   2.413   3.661   9.196 -0.2425 -0.2179  0.0161
 6784SOL    HW131988   2.458   3.670   9.280 -2.0544 -1.3245  1.1037
 6784SOL    HW231989   2.491   3.682   9.144  2.0485 -1.1634  3.0543
 6785SOL     OW31990   0.872   3.559   2.668  0.7932 -0.0935  0.2946
 6785SOL    HW131991   0.867   3.488   2.603 -3.2840  1.3254 -0.9325
 6785SOL    HW231992   0.930   3.515   2.730 -0.6615  0.2537  1.8855
 6786SOL     OW31993   2.000   3.067  11.787  0.0060 -0.4036  0.7856
 6786SOL    HW131994   1.974   3.138  11.845 -0.3317  0.1418 -0.0330
 6786SOL    HW231995   1.938   3.002  11.821 -2.2618  1.0587 -0.5425
 6787SOL     OW31996   1.758   3.930   1.521 -0.1932 -0.0575  0.1631
 6787SOL    HW131997   1.689   3.896   1.464 -1.4334  1.0414  1.0066
 6787SOL    HW231998   1.741   3.869   1.593 -0.3349  0.7608  0.8110
 6788SOL     OW31999   3.961   0.489   4.601  0.1550  0.1968 -0.2879
 6788SOL    HW132000   3.911   0.560   4.641  0.8334  1.6904 -2.0813
 6788SOL    HW232001   4.023   0.478   4.673 -1.0041 -1.6210  0.4173
 6789SOL     OW32002   3.059   3.803  15.504 -0.6409  0.4280 -0.2500
 6789SOL    HW132003   3.029   3.767  15.587  2.5335 -0.1768  0.6271
 6789SOL    HW232004   3.126   3.736  15.489  0.8195  1.2408  2.7319
 6790SOL     OW32005   4.268   1.384   6.890  0.1829 -0.3128  0.1194
 6790SOL    HW132006   4.284   1.475   6.866  0.6128  0.1697  2.1979
 6790SOL    HW232007   4.173   1.385   6.883  0.0141  1.3945  2.6075
 6791SOL     OW32008   0.711   3.694   1.030 -0.0933 -0.2522  0.7740
 6791SOL    HW132009   0.781   3.629   1.042 -0.4276 -0.9819 -1.2967
 6791SOL    HW232010   0.643   3.656   1.086 -0.8985 -3.1802 -2.2351
 6792SOL     OW32011   4.567   2.603   6.004  0.0287 -0.3059  0.8307
 6792SOL    HW132012   4.661   2.623   6.007  0.0784 -0.5476  0.9388
 6792SOL    HW232013   4.534   2.645   5.925  0.2959  0.3625  1.0720
 6793SOL     OW32014   3.602   2.876  14.111  0.1993 -0.4060  0.0491
 6793SOL    HW132015   3.639   2.876  14.023  0.8217 -0.0675  0.3063
 6793SOL    HW232016   3.634   2.791  14.142  0.8907  0.1915  1.0010
 6794SOL     OW32017   0.989   2.964   5.714  0.7236 -0.1081 -0.2536
 6794SOL    HW132018   1.023   3.054   5.718 -1.0117  0.4626  1.6693
 6794SOL    HW232019   0.897   2.991   5.722 -0.2675 -3.3700 -0.6530
 6795SOL     OW32020   4.057   1.128   4.151 -0.6516  0.3692  0.1936
 6795SOL    HW132021   4.150   1.108   4.162 -0.6206  0.2109 -0.3232
 6795SOL    HW232022   4.032   1.066   4.219  0.4673 -0.2871  0.0208
 6796SOL     OW32023   0.759   2.489   6.358  0.1748 -0.2780  0.3652
 6796SOL    HW132024   0.844   2.448   6.371 -0.2899 -0.4475  2.7994
 6796SOL    HW232025   0.782   2.578   6.383 -1.8350  0.8959 -1.9850
 6797SOL     OW32026   1.360   0.001   8.808  0.3204 -0.0655 -0.6200
 6797SOL    HW132027   1.309   4.708   8.732  1.3878 -2.1582 -0.5664
 6797SOL    HW232028   1.302   0.064   8.851 -0.2081 -1.2124  0.3472
 6798SOL     OW32029   2.777   1.906   3.991 -0.3311  0.0733 -0.6794
 6798SOL    HW132030   2.790   1.825   4.039  1.7376  0.1501 -1.1045
 6798SOL    HW232031   2.787   1.883   3.899 -0.3835  1.7219 -1.1028
 6799SOL     OW32032   4.036   2.185   0.253 -0.1696  0.3417 -0.2403
 6799SOL    HW132033   4.051   2.223   0.167  1.6129  0.1561 -0.0141
 6799SOL    HW232034   4.119   2.196   0.299 -0.6475  0.5976  0.5545
 6800SOL     OW32035   1.857   3.322   7.681 -0.2240 -0.4954 -0.2128
 6800SOL    HW132036   1.894   3.249   7.732 -1.0316 -0.7285  0.0314
 6800SOL    HW232037   1.768   3.292   7.662 -0.8295  1.1243  0.0836
 6801SOL     OW32038   2.282   2.782   6.127 -0.7161  0.0669  0.0385
 6801SOL    HW132039   2.332   2.816   6.201 -0.7455 -1.7632  0.8992
 6801SOL    HW232040   2.299   2.849   6.061 -0.1545  0.7411  0.8742
 6802SOL     OW32041   0.702   1.901  16.493  0.7797 -0.4129  0.0376
 6802SOL    HW132042   0.773   1.876  16.553  0.8201 -1.5351 -0.4801
 6802SOL    HW232043   0.666   1.822  16.451 -1.8299  0.7607  0.0887
 6803SOL     OW32044   2.756   0.288  13.056  0.3390 -0.1806  0.7020
 6803SOL    HW132045   2.662   0.279  13.065 -0.0031 -1.2860 -3.8137
 6803SOL    HW232046   2.786   0.245  13.136  0.5724  1.3982  1.4563
 6804SOL     OW32047   2.424   3.925   7.816  0.1429  0.3897 -0.1782
 6804SOL    HW132048   2.362   3.911   7.887 -2.0032 -1.0105 -2.3452
 6804SOL    HW232049   2.404   3.847   7.764 -1.2800  1.6402 -1.4685
 6805SOL     OW32050   1.218   0.599   2.245  0.4679  0.3578  0.1546
 6805SOL    HW132051   1.233   0.679   2.193 -0.7109  0.8997  0.6586
 6805SOL    HW232052   1.240   0.535   2.177  3.1763 -0.2531  1.5858
 6806SOL     OW32053   0.662   0.898  16.700 -0.0431  0.4906 -0.1302
 6806SOL    HW132054   0.694   0.988  16.697 -1.4232  0.9871  0.2558
 6806SOL    HW232055   0.583   0.914  16.649  0.7684 -0.4104 -1.6692
 6807SOL     OW32056   1.489   4.625   9.221  0.2262 -0.3106  0.5284
 6807SOL    HW132057   1.414   4.581   9.261  0.1335 -1.4581 -0.9005
 6807SOL    HW232058   1.510   4.564   9.150  0.4671 -0.5808  0.8328
 6808SOL     OW32059   4.675   3.204   9.046 -0.2992  0.0517  0.1194
 6808SOL    HW132060   0.030   3.215   9.013 -0.4975  2.8151  0.5377
 6808SOL    HW232061   4.641   3.292   9.060  1.3995  0.7777 -0.3390
 6809SOL     OW32062   2.047   2.336   3.222  0.0731 -0.2801  0.7135
 6809SOL    HW132063   2.105   2.406   3.251 -0.2487 -0.1788  1.0981
 6809SOL    HW232064   1.977   2.333   3.287 -0.3169 -0.7221  0.2759
 6810SOL     OW32065   1.645   1.801   2.655 -0.8277  0.2968  1.4125
 6810SOL    HW132066   1.565   1.798   2.707 -1.1398  1.3051  0.9914
 6810SOL    HW232067   1.621   1.834   2.569 -1.4664 -1.8675  0.7709
 6811SOL     OW32068   3.070   4.131   4.155  0.4348  0.0641 -0.0839
 6811SOL    HW132069   2.993   4.078   4.132  0.6438 -0.6780  0.9306
 6811SOL    HW232070   3.140   4.069   4.177  1.1088  1.3891  1.4914
 6812SOL     OW32071   1.535   1.948   9.446  0.2250  0.6300  0.1428
 6812SOL    HW132072   1.540   1.920   9.538  0.2683 -0.6796 -0.2614
 6812SOL    HW232073   1.503   2.038   9.456 -0.9984  0.0009  1.9100
 6813SOL     OW32074   2.145   4.546   6.779 -0.2210 -0.8301  0.3686
 6813SOL    HW132075   2.147   4.512   6.689 -0.8404  1.5574 -0.5377
 6813SOL    HW232076   2.113   4.634   6.763  0.5760 -0.6168 -0.0905
 6814SOL     OW32077   3.849   0.134   7.063 -0.4012  0.5640  0.5110
 6814SOL    HW132078   3.834   0.058   7.118 -2.1775  1.4846  1.2796
 6814SOL    HW232079   3.902   0.091   6.996 -0.4665  0.7841  0.3184
 6815SOL     OW32080   3.230   0.930   7.356 -0.1143 -0.1375  0.2114
 6815SOL    HW132081   3.230   1.013   7.308  1.1724 -0.2763 -0.0175
 6815SOL    HW232082   3.144   0.899   7.329  0.2644  0.4087 -1.6138
 6816SOL     OW32083   3.993   0.271   6.699 -0.3636 -0.1111  0.3749
 6816SOL    HW132084   3.976   0.360   6.730 -0.5632  0.0469 -0.1795
 6816SOL    HW232085   4.025   0.292   6.611 -2.7564 -0.2234 -0.5167
 6817SOL     OW32086   3.590   0.618   4.382 -0.3203  0.4090 -0.0610
 6817SOL    HW132087   3.524   0.677   4.347  0.7931  1.7146  0.0576
 6817SOL    HW232088   3.636   0.600   4.300  0.4106 -0.3615  0.5147
 6818SOL     OW32089   2.931   3.516   3.404  0.1235  0.3207  0.3987
 6818SOL    HW132090   2.935   3.573   3.481  2.3404 -0.6442  0.9835
 6818SOL    HW232091   2.987   3.571   3.349  1.3483  0.0861  1.4223
 6819SOL     OW32092   4.087   1.201   4.520 -0.4926 -0.2753  0.1793
 6819SOL    HW132093   4.048   1.124   4.480 -1.3236 -1.1950  2.7903
 6819SOL    HW232094   4.046   1.270   4.468  0.8427  1.0931  0.9226
 6820SOL     OW32095   1.558   3.717  12.533 -0.0404  0.0227 -0.3428
 6820SOL    HW132096   1.576   3.625  12.554 -0.3922  0.0376  0.0296
 6820SOL    HW232097   1.617   3.759  12.596 -0.8842  0.7086 -0.0086
 6821SOL     OW32098   4.279   2.405   4.316  0.4260  0.5388  0.3027
 6821SOL    HW132099   4.227   2.429   4.393  0.6982 -3.5699  1.7460
 6821SOL    HW232100   4.349   2.470   4.306 -0.7604  1.5427 -1.5322
 6822SOL     OW32101   0.588   1.015  16.988 -0.4291 -0.0408  0.1102
 6822SOL    HW132102   0.650   0.961  16.937  0.3954  0.4020  0.6397
 6822SOL    HW232103   0.620   0.993  17.075 -2.1016  2.0938  1.2472
 6823SOL     OW32104   2.293   4.332   8.990 -0.0148 -0.2854  0.1583
 6823SOL    HW132105   2.220   4.356   9.047  0.2917 -1.4887  1.0437
 6823SOL    HW232106   2.358   4.345   9.058  0.2420 -1.8803  0.2070
 6824SOL     OW32107   4.339   4.015   9.750 -0.6009  0.2332 -0.2102
 6824SOL    HW132108   4.345   3.970   9.666  1.1408 -0.2633  0.1887
 6824SOL    HW232109   4.326   3.946   9.814  1.3700  0.9796  1.0087
 6825SOL     OW32110   0.192   0.722   6.128 -0.6260 -0.2356 -0.1408
 6825SOL    HW132111   0.172   0.629   6.145 -2.1377 -0.2638 -2.0324
 6825SOL    HW232112   0.144   0.734   6.046 -1.9220  0.5026  0.7133
 6826SOL     OW32113   1.686   2.568   1.831 -0.5355  0.3212 -0.9010
 6826SOL    HW132114   1.632   2.642   1.858  1.1744  0.9816  0.7619
 6826SOL    HW232115   1.643   2.490   1.864 -1.1114  1.4324  0.9741
 6827SOL     OW32116   3.717   0.683   0.638 -0.1122 -0.5646 -0.1126
 6827SOL    HW132117   3.685   0.611   0.584  1.1504  0.1606 -1.8472
 6827SOL    HW232118   3.648   0.744   0.613 -1.6731 -1.0573  3.0313
 6828SOL     OW32119   0.619   1.299  11.443  0.6077 -0.3007  0.1903
 6828SOL    HW132120   0.556   1.244  11.489 -2.1951  0.0354 -3.2736
 6828SOL    HW232121   0.680   1.323  11.513 -0.0110 -0.9033  0.9403
 6829SOL     OW32122   3.693   4.036   8.795 -0.4625  0.2517 -0.1682
 6829SOL    HW132123   3.709   4.125   8.826 -1.6381  0.7646 -1.0106
 6829SOL    HW232124   3.767   3.988   8.832  0.8256  1.3493 -1.3284
 6830SOL     OW32125   0.039   1.162   2.679  0.0738 -0.1323 -0.0687
 6830SOL    HW132126   0.056   1.069   2.665 -2.6816 -0.2810 -2.3685
 6830SOL    HW232127   0.128   1.189   2.657  0.0694 -0.2033 -0.1729
 6831SOL     OW32128   1.613   0.423   3.907 -0.5143  0.4087 -0.4623
 6831SOL    HW132129   1.525   0.398   3.935 -1.7373  4.1309 -0.9321
 6831SOL    HW232130   1.626   0.505   3.956  1.4744 -0.9324  1.2957
 6832SOL     OW32131   0.438   4.552   9.246 -0.2062 -0.1205  0.7665
 6832SOL    HW132132   0.404   4.576   9.332 -0.5343 -0.1865  0.6537
 6832SOL    HW232133   0.432   4.457   9.253  0.4000 -0.1906  0.2918
 6833SOL     OW32134   0.387   0.521  12.897  0.4989  0.1846  0.1536
 6833SOL    HW132135   0.295   0.534  12.922  0.8464  1.4803  0.7696
 6833SOL    HW232136   0.420   0.480  12.977  1.0297 -0.0673 -0.2042
 6834SOL     OW32137   1.044   2.124   1.436 -0.0764  0.1468 -0.2814
 6834SOL    HW132138   0.997   2.205   1.457  0.8844  1.1807 -2.2216
 6834SOL    HW232139   1.132   2.157   1.422 -0.7221  1.7066 -0.6166
 6835SOL     OW32140   0.292   3.620   9.125  0.4759  0.3459 -0.2873
 6835SOL    HW132141   0.300   3.669   9.043 -0.3841 -1.3020 -1.3699
 6835SOL    HW232142   0.210   3.655   9.160  0.5022 -0.9668  1.0515
 6836SOL     OW32143   3.169   0.063  16.238  0.6417 -0.1788  0.7577
 6836SOL    HW132144   3.151   0.095  16.326  0.3839  0.8049  0.3391
 6836SOL    HW232145   3.227   0.132  16.207 -0.9032  1.2499  1.0630
 6837SOL     OW32146   2.931   2.752   3.499  0.7988 -0.1633 -0.5057
 6837SOL    HW132147   2.884   2.740   3.416  2.3966  0.6844 -1.5549
 6837SOL    HW232148   2.869   2.800   3.553  0.4417 -2.2962  0.9605
 6838SOL     OW32149   1.846   0.126   0.690 -0.3082 -0.4956  0.0910
 6838SOL    HW132150   1.778   0.161   0.749 -1.0527 -1.8975  0.0762
 6838SOL    HW232151   1.868   0.202   0.636 -1.2454  0.0929  0.5302
 6839SOL     OW32152   3.166   1.511   7.944  0.1160  0.1532 -0.2933
 6839SOL    HW132153   3.100   1.572   7.978  0.5032 -0.6317  1.8354
 6839SOL    HW232154   3.105   1.458   7.892  1.3730 -1.0516 -0.5196
 6840SOL     OW32155   1.347   1.159   4.650  0.0152  0.1417 -0.1074
 6840SOL    HW132156   1.389   1.242   4.674  0.3658  0.0145 -0.2784
 6840SOL    HW232157   1.336   1.167   4.555 -1.2760  1.3156  0.1277
 6841SOL     OW32158   4.403   2.012   8.845  0.0900  0.2207 -0.4349
 6841SOL    HW132159   4.473   2.014   8.911 -2.1018  0.5719  1.8639
 6841SOL    HW232160   4.330   2.030   8.903 -0.3529  0.6182 -1.1206
 6842SOL     OW32161   2.700   1.186  15.690 -0.2464 -0.2046 -0.6851
 6842SOL    HW132162   2.680   1.136  15.769 -0.8854 -0.0099 -0.7187
 6842SOL    HW232163   2.706   1.112  15.630  1.1110 -1.2316  0.7353
 6843SOL     OW32164   3.742   1.174   5.252  0.0994  0.1301 -0.0831
 6843SOL    HW132165   3.681   1.151   5.322 -2.3347  2.4700 -1.4493
 6843SOL    HW232166   3.751   1.267   5.274  0.1436  0.5961 -2.1195
 6844SOL     OW32167   3.302   3.279  10.045 -0.3556 -0.1217  0.5275
 6844SOL    HW132168   3.325   3.372  10.051  1.7094 -0.8078  3.5163
 6844SOL    HW232169   3.270   3.285   9.956 -0.5203  0.2204  0.6092
 6845SOL     OW32170   1.789   0.438   3.107 -0.3636 -0.0861  0.0582
 6845SOL    HW132171   1.806   0.446   3.013 -1.3115 -1.7861 -0.2652
 6845SOL    HW232172   1.764   0.524   3.139 -1.2567 -0.3581  0.0975
 6846SOL     OW32173   3.759   3.589   8.073 -0.1288 -0.6004 -0.1375
 6846SOL    HW132174   3.850   3.596   8.100 -0.7145 -2.1592  2.3042
 6846SOL    HW232175   3.708   3.652   8.124  1.5545 -0.8764  1.9046
 6847SOL     OW32176   3.247   1.747  13.139  0.1600  0.1305 -0.1873
 6847SOL    HW132177   3.302   1.704  13.073  0.6985 -1.7153  1.4798
 6847SOL    HW232178   3.261   1.839  13.113 -0.0631  0.1549 -0.2200
 6848SOL     OW32179   2.465   4.665  16.426  0.0923  0.3471 -0.1726
 6848SOL    HW132180   2.532   4.710  16.374  2.3938 -2.3772  0.4291
 6848SOL    HW232181   2.518   4.615  16.489  1.0165 -0.1088 -1.3187
 6849SOL     OW32182   1.436   1.271   8.946  0.8276 -0.7247  0.6391
 6849SOL    HW132183   1.364   1.318   8.906  1.8380 -1.3043 -1.8349
 6849SOL    HW232184   1.431   1.294   9.039 -0.2487 -0.7512  0.5815
 6850SOL     OW32185   2.859   4.560   7.332 -0.2199 -0.8000 -0.4185
 6850SOL    HW132186   2.836   4.571   7.425 -1.0302 -1.3604 -0.5495
 6850SOL    HW232187   2.780   4.590   7.287 -0.9951 -0.4032  1.1799
 6851SOL     OW32188   4.252   3.802   5.093  0.5386  0.4487  0.4709
 6851SOL    HW132189   4.310   3.734   5.129  0.1306 -1.3894 -2.3402
 6851SOL    HW232190   4.231   3.842   5.177 -2.2536  1.1165 -0.5530
 6852SOL     OW32191   3.605   3.129   6.149 -0.3830  0.0980 -0.5885
 6852SOL    HW132192   3.627   3.112   6.240  0.7664  2.0198 -0.5048
 6852SOL    HW232193   3.528   3.073   6.137  0.2660 -1.4412  2.4315
 6853SOL     OW32194   1.145   0.383   9.279 -0.3862  0.6863  1.2073
 6853SOL    HW132195   1.138   0.441   9.203 -0.5661 -0.1389  0.6052
 6853SOL    HW232196   1.059   0.386   9.320 -1.2247  2.2969 -0.6620
 6854SOL     OW32197   1.560   3.171   6.188 -0.3253  0.0072  0.1843
 6854SOL    HW132198   1.638   3.163   6.133 -0.0259  0.9172  0.4867
 6854SOL    HW232199   1.598   3.175   6.275 -1.2187 -0.2389  0.5884
 6855SOL     OW32200   4.311   1.041  10.209 -0.1129 -0.0871  0.3500
 6855SOL    HW132201   4.230   1.088  10.230 -0.5309  0.6154 -2.7497
 6855SOL    HW232202   4.365   1.119  10.194  0.8131 -0.6759  0.6875
 6856SOL     OW32203   2.816   2.243   3.158 -0.0779  0.0505  0.3618
 6856SOL    HW132204   2.871   2.322   3.154  1.0846 -0.7557  0.3704
 6856SOL    HW232205   2.875   2.179   3.118 -3.1187 -1.5299 -1.5586
 6857SOL     OW32206   2.907   0.093   6.490  0.0410  0.5602 -0.6232
 6857SOL    HW132207   2.959   0.054   6.560  2.1466  1.2096 -1.7995
 6857SOL    HW232208   2.835   0.130   6.540  1.9590  0.1712  2.4137
 6858SOL     OW32209   1.233   2.331   9.375 -0.0930  0.2057 -0.3595
 6858SOL    HW132210   1.199   2.392   9.440  0.6046  1.1853 -0.9212
 6858SOL    HW232211   1.155   2.282   9.348  1.7845 -3.2920  0.6254
 6859SOL     OW32212   3.539   3.357  16.906 -0.0016  0.0916 -0.0414
 6859SOL    HW132213   3.614   3.379  16.851  0.3819  1.4478  1.0227
 6859SOL    HW232214   3.465   3.356  16.846  0.0577  0.0126 -0.1130
 6860SOL     OW32215   2.501   1.150   7.599  0.0119 -0.3069 -0.0370
 6860SOL    HW132216   2.549   1.075   7.563 -1.6051 -1.2742 -0.1868
 6860SOL    HW232217   2.424   1.146   7.542  0.6647 -2.4307 -0.7676
 6861SOL     OW32218   0.844   1.713  12.072 -0.0284  0.0033  0.4955
 6861SOL    HW132219   0.921   1.754  12.111 -0.0938 -0.4861  1.1461
 6861SOL    HW232220   0.775   1.756  12.121 -0.9542 -0.6796 -0.2034
 6862SOL     OW32221   0.575   3.116   9.998  0.3701 -0.6256  0.1123
 6862SOL    HW132222   0.662   3.087   9.970  1.0357 -0.6179  2.1917
 6862SOL    HW232223   0.582   3.122  10.093 -1.0014 -2.0149  0.3078
 6863SOL     OW32224   2.610   1.817   3.016  0.3401  0.1882  0.1501
 6863SOL    HW132225   2.632   1.903   3.053 -1.1654 -0.0254  1.5283
 6863SOL    HW232226   2.677   1.761   3.055 -2.6975 -2.3213  1.6601
 6864SOL     OW32227   4.289   3.769   6.884 -0.2052  0.4081  0.4580
 6864SOL    HW132228   4.358   3.723   6.933  0.0303  0.7350  0.4311
 6864SOL    HW232229   4.214   3.768   6.944 -0.8131 -0.8478 -0.3041
 6865SOL     OW32230   3.359   1.664   2.262  0.3133  0.8556  0.1570
 6865SOL    HW132231   3.272   1.704   2.276 -0.0264  0.0696  0.2865
 6865SOL    HW232232   3.388   1.665   2.354 -1.2985 -0.2388  0.6760
 6866SOL     OW32233   0.587   2.360   6.754 -0.2419  0.1753  0.0836
 6866SOL    HW132234   0.547   2.417   6.820  0.8644  1.6119 -0.4772
 6866SOL    HW232235   0.516   2.352   6.691  0.6235 -0.8001 -0.7564
 6867SOL     OW32236   1.539   2.294  14.077  0.3228  0.1941 -0.1378
 6867SOL    HW132237   1.445   2.306  14.073  0.2957 -0.3854 -1.1195
 6867SOL    HW232238   1.558   2.247  13.996 -0.6581  0.2902 -0.4165
 6868SOL     OW32239   1.739   0.518   8.592  0.3285 -0.0995 -0.3529
 6868SOL    HW132240   1.752   0.423   8.592  2.2224  0.1709  0.7427
 6868SOL    HW232241   1.643   0.525   8.586  0.2841 -1.6074 -1.4391
 6869SOL     OW32242   2.766   2.393  16.809 -0.5605 -0.0424 -0.3939
 6869SOL    HW132243   2.773   2.441  16.892  0.5291 -1.5191  0.3781
 6869SOL    HW232244   2.851   2.413  16.770  0.9717  1.4111  3.6780
 6870SOL     OW32245   3.583   0.140  15.933 -0.0779 -0.2213  0.0334
 6870SOL    HW132246   3.598   0.234  15.934 -0.8794 -0.0611 -1.9437
 6870SOL    HW232247   3.631   0.113  15.854  0.3520 -1.4658  0.7119
 6871SOL     OW32248   3.317   3.187   2.070 -0.0656 -0.7552 -0.2074
 6871SOL    HW132249   3.262   3.196   2.148  0.4198 -0.3807  0.0906
 6871SOL    HW232250   3.270   3.251   2.016 -0.8471 -1.7218 -0.6602
 6872SOL     OW32251   1.494   3.234  12.535 -0.0272  0.0019 -0.1156
 6872SOL    HW132252   1.399   3.221  12.534 -0.1010  0.8020 -2.6531
 6872SOL    HW232253   1.499   3.242  12.631  0.7987 -1.0329 -0.0740
 6873SOL     OW32254   0.999   0.814  10.148  0.0112  0.3482  0.4665
 6873SOL    HW132255   0.959   0.748  10.204  2.1072  1.6407  3.5047
 6873SOL    HW232256   1.006   0.880  10.217 -0.7721  2.5825 -1.5932
 6874SOL     OW32257   0.963   0.526   2.541  0.2814  0.0524 -0.6211
 6874SOL    HW132258   1.012   0.453   2.580 -0.0061  0.0785 -0.2134
 6874SOL    HW232259   0.903   0.479   2.483  0.3863 -1.5140  0.5600
 6875SOL     OW32260   0.347   2.221   6.020 -0.5689 -0.8724 -0.0389
 6875SOL    HW132261   0.394   2.166   6.083 -2.3952  0.1974  2.2697
 6875SOL    HW232262   0.308   2.151   5.968 -1.6092 -0.4656  0.1869
 6876SOL     OW32263   3.114   3.029   7.546 -0.1930  0.1793  0.1235
 6876SOL    HW132264   3.098   3.001   7.637 -1.2703  1.8569  0.4390
 6876SOL    HW232265   3.084   3.118   7.564 -2.1336 -0.0772 -1.9664
 6877SOL     OW32266   1.260   0.109   5.330 -0.2592 -0.5718 -0.1695
 6877SOL    HW132267   1.273   0.196   5.292  0.3255 -0.9820 -0.9101
 6877SOL    HW232268   1.259   0.059   5.248 -1.1635 -3.2057  1.4263
 6878SOL     OW32269   3.725   2.241   1.971  0.4084  0.2166  0.4956
 6878SOL    HW132270   3.793   2.229   1.904 -0.8688  0.0862 -0.7687
 6878SOL    HW232271   3.709   2.334   1.952 -0.3279  0.6829  3.3927
 6879SOL     OW32272   0.500   4.163   6.424  0.3146  0.1366  0.5701
 6879SOL    HW132273   0.590   4.181   6.397 -0.5497  2.0749 -0.9693
 6879SOL    HW232274   0.512   4.084   6.478 -1.0498 -0.8938 -0.6177
 6880SOL     OW32275   3.756   0.208   1.567 -0.0145  0.6442 -0.0755
 6880SOL    HW132276   3.752   0.115   1.588  1.7156  0.1970 -1.6637
 6880SOL    HW232277   3.718   0.202   1.479 -2.8757 -0.5735  1.2745
 6881SOL     OW32278   2.474   3.488   7.198  0.6342 -0.4300 -0.1419
 6881SOL    HW132279   2.504   3.528   7.117 -0.3511 -1.5997 -1.0959
 6881SOL    HW232280   2.378   3.488   7.190  0.7099  0.5935 -0.9959
 6882SOL     OW32281   4.325   2.306   2.877  0.5707  0.4859 -0.1498
 6882SOL    HW132282   4.230   2.315   2.881  0.4784 -1.2709  1.7696
 6882SOL    HW232283   4.335   2.211   2.884  1.5515  0.5446 -0.7465
 6883SOL     OW32284   1.638   0.717  15.929  0.0882  0.1900 -0.1178
 6883SOL    HW132285   1.676   0.800  15.958 -1.2943  0.9470 -0.5080
 6883SOL    HW232286   1.692   0.705  15.851 -0.4661  0.2515 -0.5110
 6884SOL     OW32287   0.116   1.004   8.129 -0.6221  0.3353 -0.1777
 6884SOL    HW132288   0.125   1.031   8.038  0.7038 -0.0281 -0.1640
 6884SOL    HW232289   0.021   1.001   8.139 -0.7391 -1.1218 -1.5550
 6885SOL     OW32290   2.413   1.707   4.468 -0.1219  0.5700 -0.5047
 6885SOL    HW132291   2.476   1.760   4.516 -1.9555  1.8662  0.4362
 6885SOL    HW232292   2.331   1.743   4.501  0.8346  0.7141  1.6823
 6886SOL     OW32293   4.714   2.010   3.067 -0.9016 -0.1186 -0.5223
 6886SOL    HW132294   0.071   1.984   3.082 -0.4201  1.7961 -0.1484
 6886SOL    HW232295   4.677   1.924   3.085 -0.1661 -0.6850 -1.7331
 6887SOL     OW32296   4.585   0.261  10.716 -0.2661 -0.0507 -0.6978
 6887SOL    HW132297   4.680   0.259  10.720 -0.3694  1.1386  2.2003
 6887SOL    HW232298   4.558   0.276  10.806  0.0532  1.1746 -0.8075
 6888SOL     OW32299   3.736   3.595   9.428 -0.5184 -0.4072 -0.0276
 6888SOL    HW132300   3.678   3.574   9.355  0.3389  2.8496 -1.6028
 6888SOL    HW232301   3.717   3.687   9.445  2.3727 -0.1216  1.6180
 6889SOL     OW32302   0.634   1.302  10.434 -0.5377  0.0478  0.2724
 6889SOL    HW132303   0.624   1.236  10.365  0.5430 -1.4601  1.5433
 6889SOL    HW232304   0.550   1.290  10.478 -0.3389 -0.8524  0.4069
 6890SOL     OW32305   4.291   4.695  16.043  0.4690  0.2883 -0.6610
 6890SOL    HW132306   4.293   0.046  15.999  0.2559  0.2263 -0.7936
 6890SOL    HW232307   4.252   4.718  16.127  2.1496  1.5082 -0.2083
 6891SOL     OW32308   4.172   2.877   5.360  0.4184  0.7137 -0.0186
 6891SOL    HW132309   4.148   2.822   5.435  0.0321 -0.3726 -0.9391
 6891SOL    HW232310   4.266   2.859   5.362 -0.1124 -2.1212 -0.9159
 6892SOL     OW32311   4.690   4.724   6.397 -0.1218 -0.3179 -0.0098
 6892SOL    HW132312   4.671   4.631   6.381 -0.2787 -0.2930  0.0245
 6892SOL    HW232313   0.017   4.728   6.324 -1.5860 -4.1430 -1.5000
 6893SOL     OW32314   2.609   3.897   9.691 -0.5243 -0.6432 -0.0008
 6893SOL    HW132315   2.662   3.822   9.664  0.2409 -0.3242  0.6150
 6893SOL    HW232316   2.650   3.922   9.774 -0.5452 -1.5653  0.2842
 6894SOL     OW32317   3.289   0.162   4.659  0.2755  0.6225  0.4813
 6894SOL    HW132318   3.289   0.135   4.751 -2.5566 -2.7153 -0.4385
 6894SOL    HW232319   3.199   0.146   4.628  0.0661  1.4583  0.6776
 6895SOL     OW32320   1.822   0.929  10.020  0.7738  0.1867  0.4270
 6895SOL    HW132321   1.801   0.848   9.975 -0.2254  0.7169 -0.0472
 6895SOL    HW232322   1.844   0.909  10.111 -1.0495 -2.1235  0.3537
 6896SOL     OW32323   4.665   0.645   2.827  0.0999  0.1531  0.0362
 6896SOL    HW132324   0.017   0.667   2.794  1.6090 -2.2361  2.4184
 6896SOL    HW232325   4.631   0.729   2.856 -1.3934 -0.7192  0.8364
 6897SOL     OW32326   4.446   1.609  11.626  0.0170 -0.4518  0.2538
 6897SOL    HW132327   4.456   1.698  11.591 -1.3605 -0.7412 -0.8957
 6897SOL    HW232328   4.396   1.641  11.701 -0.8968  2.4984 -1.5915
 6898SOL     OW32329   2.150   1.187  12.025  0.4917  0.3701 -0.3026
 6898SOL    HW132330   2.151   1.137  12.107  2.1651 -0.7581 -0.9977
 6898SOL    HW232331   2.076   1.245  12.042  0.4864  0.1612  0.4013
 6899SOL     OW32332   3.791   0.667   6.233 -0.3727 -0.2782 -0.1610
 6899SOL    HW132333   3.822   0.580   6.258 -1.1827 -0.0843  1.5874
 6899SOL    HW232334   3.852   0.716   6.287  0.3298  0.8864 -2.0447
 6900SOL     OW32335   3.808   4.028  14.219 -0.2678  0.3396 -0.1907
 6900SOL    HW132336   3.864   3.955  14.245 -1.0593 -0.4211 -0.6109
 6900SOL    HW232337   3.769   4.044  14.305  1.1183  0.3229  0.4446
 6901SOL     OW32338   3.849   4.029   7.003 -0.1664  0.9024 -0.1523
 6901SOL    HW132339   3.874   4.045   7.094  0.0957 -0.9792  0.1125
 6901SOL    HW232340   3.831   4.119   6.977 -1.3544  0.8147  0.3822
 6902SOL     OW32341   4.035   2.291   8.284 -0.2722  0.0039  0.8453
 6902SOL    HW132342   4.083   2.257   8.359  0.8202 -0.4271 -0.0357
 6902SOL    HW232343   4.099   2.355   8.254  0.4867 -0.9781  0.3544
 6903SOL     OW32344   1.883   0.495   8.225 -0.2995 -0.0944  0.3929
 6903SOL    HW132345   1.887   0.585   8.259  2.5047  0.9093 -2.5257
 6903SOL    HW232346   1.861   0.440   8.299 -2.1362 -2.8739 -2.2224
 6904SOL     OW32347   1.259   3.495   8.138  0.1934 -0.1821  0.3719
 6904SOL    HW132348   1.332   3.483   8.199 -0.1400  2.4391  1.2641
 6904SOL    HW232349   1.207   3.414   8.130  2.1090 -1.4585  0.7437
 6905SOL     OW32350   0.667   0.902   8.811 -0.5398 -0.0352  0.3709
 6905SOL    HW132351   0.740   0.956   8.842 -0.7741  0.0132  0.8378
 6905SOL    HW232352   0.667   0.930   8.720 -0.3409  1.6531  0.8946
 6906SOL     OW32353   0.247   1.952   3.069  0.6022  0.1710 -0.1687
 6906SOL    HW132354   0.274   1.916   2.985  2.4371 -1.1747  1.0112
 6906SOL    HW232355   0.323   1.922   3.119 -1.2523 -2.3449  1.1585
 6907SOL     OW32356   1.769   3.417   4.703  0.8815  0.6722 -0.4746
 6907SOL    HW132357   1.861   3.426   4.727  1.3191 -0.8144 -1.5947
 6907SOL    HW232358   1.762   3.342   4.643 -0.5035  0.4925 -0.0876
 6908SOL     OW32359   3.176   0.939   5.768  0.2349  0.2760  0.3045
 6908SOL    HW132360   3.239   0.979   5.707 -0.2857 -0.4684 -0.7272
 6908SOL    HW232361   3.103   0.995   5.742  0.9967  1.5132  0.8173
 6909SOL     OW32362   4.709   3.078   7.894  0.1692 -0.1373 -0.2811
 6909SOL    HW132363   0.026   3.004   7.927 -0.7032 -0.2214  0.8971
 6909SOL    HW232364   0.036   3.107   7.827  2.7882 -0.9911  1.7347
 6910SOL     OW32365   1.772   3.867  13.795  0.3779 -0.1738 -0.3095
 6910SOL    HW132366   1.777   3.954  13.835 -0.1635 -0.4475  0.3486
 6910SOL    HW232367   1.865   3.854  13.774  0.9465  0.3852  1.8148
 6911SOL     OW32368   3.528   3.515   5.673 -0.2409  0.2052  0.4705
 6911SOL    HW132369   3.497   3.425   5.661 -1.9854  0.5175  2.5780
 6911SOL    HW232370   3.494   3.555   5.593  0.1671  0.6164  0.5049
 6912SOL     OW32371   1.725   2.922   4.146 -0.0499  0.6043 -0.2230
 6912SOL    HW132372   1.699   2.873   4.224  0.4901 -2.5487 -2.0063
 6912SOL    HW232373   1.672   3.001   4.155 -1.0046 -0.0632 -0.0463
 6913SOL     OW32374   4.566   0.420   2.708 -0.0485  0.2235  0.7349
 6913SOL    HW132375   4.588   0.505   2.746  0.3514 -0.0376  1.0961
 6913SOL    HW232376   4.500   0.452   2.647  0.2510 -0.5107  0.0300
 6914SOL     OW32377   1.067   0.857   0.146 -0.7533  0.0503 -0.2197
 6914SOL    HW132378   0.996   0.797   0.170  0.4574 -0.9353  0.9453
 6914SOL    HW232379   1.094   0.817   0.064  1.5053  0.7037  0.2098
 6915SOL     OW32380   1.780   3.378   9.707  0.0257  0.4871 -0.9272
 6915SOL    HW132381   1.799   3.469   9.730 -1.5253  0.4616  0.4209
 6915SOL    HW232382   1.718   3.355   9.776  1.6146  1.7403  0.9377
 6916SOL     OW32383   4.167   1.233   0.503 -0.1124 -0.4448  0.0353
 6916SOL    HW132384   4.236   1.198   0.559  1.0652 -0.0666 -1.1896
 6916SOL    HW232385   4.091   1.175   0.512  0.9879 -1.9236 -0.2420
 6917SOL     OW32386   3.738   4.078  15.724  0.3727  0.0927  0.0134
 6917SOL    HW132387   3.662   4.075  15.665 -1.7973 -0.5329  2.8378
 6917SOL    HW232388   3.730   4.172  15.740  0.3805 -0.3412  2.6137
 6918SOL     OW32389   0.286   4.499   7.355 -0.7208  0.5021 -0.1734
 6918SOL    HW132390   0.308   4.495   7.448  0.2465 -1.1638 -0.4748
 6918SOL    HW232391   0.368   4.520   7.311 -0.5715 -1.1892 -0.6868
 6919SOL     OW32392   2.081   2.022   4.694 -0.8529 -0.3143 -0.0558
 6919SOL    HW132393   1.990   2.042   4.677 -1.6054 -3.0880  0.6871
 6919SOL    HW232394   2.121   2.094   4.645  0.9595 -0.3507  1.3211
 6920SOL     OW32395   0.204   2.799   8.352  0.4538 -1.0100  0.2921
 6920SOL    HW132396   0.206   2.703   8.344 -0.3037 -1.0843  0.9735
 6920SOL    HW232397   0.285   2.825   8.309 -0.9441 -1.5597 -2.6564
 6921SOL     OW32398   3.442   4.474   2.384  0.0853  0.0433  0.2563
 6921SOL    HW132399   3.386   4.465   2.461 -0.9716  0.1935 -0.4905
 6921SOL    HW232400   3.387   4.538   2.339  1.1500 -0.0699 -1.2105
 6922SOL     OW32401   0.319   4.127   4.513 -0.2915 -0.1423 -0.1047
 6922SOL    HW132402   0.288   4.038   4.496  0.4906  0.0707 -2.7330
 6922SOL    HW232403   0.391   4.144   4.452  0.1689  0.5955  0.6503
 6923SOL     OW32404   4.205   2.149   6.438  0.1039 -0.0197 -0.4721
 6923SOL    HW132405   4.195   2.205   6.361  0.9096  0.1791 -0.4319
 6923SOL    HW232406   4.190   2.066   6.393 -0.0728  2.3874 -4.8539
 6924SOL     OW32407   2.057   0.811   7.652  0.0001 -0.7043 -0.2947
 6924SOL    HW132408   2.115   0.852   7.716 -2.1497  1.6890  0.1061
 6924SOL    HW232409   2.121   0.792   7.583 -0.3603  0.3820 -0.9348
 6925SOL     OW32410   3.252   4.641   7.653 -0.1575  0.0615 -0.8589
 6925SOL    HW132411   3.321   4.694   7.612  0.8829  1.0007  2.1020
 6925SOL    HW232412   3.289   4.629   7.740  0.7340  1.2278 -1.0730
 6926SOL     OW32413   4.121   1.792   1.956 -0.1125 -0.1882  0.1503
 6926SOL    HW132414   4.126   1.701   1.927 -1.1421 -0.3084  0.3487
 6926SOL    HW232415   4.212   1.807   1.983 -0.1397  1.2382 -0.5790
 6927SOL     OW32416   3.472   1.990   7.206 -0.3154 -0.2731  0.4433
 6927SOL    HW132417   3.555   1.946   7.187 -1.3311 -1.9834 -0.0758
 6927SOL    HW232418   3.453   1.942   7.286 -0.6755  1.2259  1.2583
 6928SOL     OW32419   1.677   2.126   1.917 -0.2687 -0.2593 -0.4163
 6928SOL    HW132420   1.663   2.167   1.832 -2.8494  1.5627  0.8852
 6928SOL    HW232421   1.589   2.136   1.954  0.3495 -2.1662  1.6086
 6929SOL     OW32422   0.758   0.680   8.325 -0.4042  0.0419  0.2190
 6929SOL    HW132423   0.766   0.588   8.297 -0.5952  0.8830 -2.6083
 6929SOL    HW232424   0.799   0.694   8.410  0.3564  1.5399 -0.4064
 6930SOL     OW32425   2.495   2.373   3.870  0.0251  0.5126 -0.4976
 6930SOL    HW132426   2.495   2.432   3.945 -0.1125 -2.3503  1.7493
 6930SOL    HW232427   2.440   2.300   3.900 -0.4958  0.1078 -2.4270
 6931SOL     OW32428   0.769   3.374  11.090  0.1043  0.3490 -0.1230
 6931SOL    HW132429   0.784   3.460  11.127 -2.9043  2.0184 -2.6893
 6931SOL    HW232430   0.819   3.306  11.135  1.1053  1.9788  1.2083
 6932SOL     OW32431   4.349   0.610   2.625  0.1464 -0.0046  0.5827
 6932SOL    HW132432   4.267   0.577   2.663  0.5421 -1.3224  0.2904
 6932SOL    HW232433   4.351   0.600   2.529  0.7963  2.5617  0.3322
 6933SOL     OW32434   1.460   1.822   4.805 -0.1413  0.2411  0.0568
 6933SOL    HW132435   1.409   1.804   4.726 -0.1826 -1.5044  0.4858
 6933SOL    HW232436   1.409   1.772   4.867  0.3390  1.7250  1.6499
 6934SOL     OW32437   2.806   1.668  17.239 -0.1975 -0.0130  0.2969
 6934SOL    HW132438   2.789   1.679  17.145  0.3433  3.2706  0.5747
 6934SOL    HW232439   2.884   1.613  17.237  0.2896  0.6733  0.3058
 6935SOL     OW32440   3.734   4.219   6.087  0.2106 -0.1784  0.1485
 6935SOL    HW132441   3.708   4.264   6.006 -0.5354 -3.3770 -1.3972
 6935SOL    HW232442   3.816   4.265   6.101 -1.3309  2.5070  0.4285
 6936SOL     OW32443   1.862   1.557   6.101  0.2574  0.0284 -0.8745
 6936SOL    HW132444   1.896   1.618   6.035 -3.5261  2.0093 -1.0086
 6936SOL    HW232445   1.922   1.580   6.172 -1.1102  0.1275  0.2464
 6937SOL     OW32446   1.573   2.201   3.702  0.2228 -0.4406 -0.8379
 6937SOL    HW132447   1.568   2.144   3.779 -3.0425  0.0026 -0.7114
 6937SOL    HW232448   1.644   2.154   3.660  1.8909  1.3391 -0.0071
 6938SOL     OW32449   1.830   2.893   5.432 -0.0375  0.1056 -0.0761
 6938SOL    HW132450   1.834   2.989   5.423  0.9276 -0.3179 -4.1701
 6938SOL    HW232451   1.883   2.878   5.510  1.6695  0.2838 -1.2050
 6939SOL     OW32452   4.613   1.340   5.296 -0.1198  0.3650  0.0503
 6939SOL    HW132453   4.648   1.371   5.380  1.4803 -1.1862 -0.0527
 6939SOL    HW232454   4.601   1.246   5.312  0.7533  0.1358 -0.6360
 6940SOL     OW32455   1.647   2.180  15.603  0.8572 -0.1141  0.0931
 6940SOL    HW132456   1.659   2.188  15.509  0.1238 -0.7749 -0.0582
 6940SOL    HW232457   1.737   2.169  15.634  0.1514 -3.2218  1.0164
 6941SOL     OW32458   4.250   2.808   8.383  0.4058  0.2507  0.0540
 6941SOL    HW132459   4.307   2.858   8.441  1.0490  0.3453 -0.6621
 6941SOL    HW232460   4.178   2.787   8.442  0.3031 -0.1834 -0.2326
 6942SOL     OW32461   0.975   1.110  10.576  0.2930 -0.1958  0.1005
 6942SOL    HW132462   0.928   1.098  10.659  1.7052  1.0260  1.0828
 6942SOL    HW232463   0.975   1.206  10.573 -1.6364 -0.1460  1.1790
 6943SOL     OW32464   1.782   0.377   0.547  0.0352  0.1388  0.1858
 6943SOL    HW132465   1.797   0.459   0.595 -2.7841  2.2800 -2.5365
 6943SOL    HW232466   1.811   0.400   0.459  0.7447 -1.3644  0.0269
 6944SOL     OW32467   3.031   4.703   3.917  0.4037  0.6331  0.3633
 6944SOL    HW132468   2.963   4.638   3.897  0.0194  0.7237  1.3740
 6944SOL    HW232469   3.102   4.668   3.863 -0.1358  1.7373 -1.0408
 6945SOL     OW32470   3.140   2.911  10.091  0.5894 -0.4780  0.2428
 6945SOL    HW132471   3.226   2.936  10.055  0.3099 -0.0361 -0.1124
 6945SOL    HW232472   3.151   2.934  10.183  1.4203 -2.6150  0.6956
 6946SOL     OW32473   0.897   2.802   2.045 -0.7754  0.4322 -0.2618
 6946SOL    HW132474   0.823   2.852   2.011 -0.7388  1.1022  0.6172
 6946SOL    HW232475   0.972   2.825   1.990 -2.2217 -0.0809 -2.4382
 6947SOL     OW32476   4.507   0.800   4.064  0.3561  0.0726  0.2980
 6947SOL    HW132477   4.505   0.836   4.152  0.6176  1.4040 -0.2367
 6947SOL    HW232478   4.443   0.729   4.061 -0.2064  0.5183  1.9073
 6948SOL     OW32479   0.995   4.601  13.558  0.5633  0.2859  0.0217
 6948SOL    HW132480   0.908   4.562  13.552 -0.5413  2.6657  0.3738
 6948SOL    HW232481   1.057   4.538  13.596  0.4775  1.2945  1.8304
 6949SOL     OW32482   4.260   2.019   8.393 -0.0376 -0.0884 -0.4349
 6949SOL    HW132483   4.207   1.961   8.447 -0.0251  1.8408  1.6513
 6949SOL    HW232484   4.339   2.035   8.444  0.6183 -0.3680 -1.3563
 6950SOL     OW32485   4.069   0.260   1.205 -0.1983 -0.0730 -0.3421
 6950SOL    HW132486   4.056   0.220   1.291  0.7362  1.9558  0.7234
 6950SOL    HW232487   3.977   0.260   1.177  0.8686  0.5744 -3.8482
 6951SOL     OW32488   3.318   3.418  11.135 -0.0242 -0.8698 -0.2118
 6951SOL    HW132489   3.232   3.415  11.178  0.5374 -0.0431  0.9692
 6951SOL    HW232490   3.372   3.460  11.202  0.7152  0.0110 -1.3547
 6952SOL     OW32491   3.715   0.219   0.606 -0.3683  0.2078 -0.4487
 6952SOL    HW132492   3.636   0.169   0.586  0.8017 -1.8648  0.0567
 6952SOL    HW232493   3.711   0.283   0.535  0.4289  1.2384  0.4396
 6953SOL     OW32494   1.086   3.394  14.697 -1.0039 -0.3596 -0.3447
 6953SOL    HW132495   1.076   3.339  14.619 -1.2208 -0.4823 -0.2346
 6953SOL    HW232496   1.057   3.332  14.765 -3.5923 -2.5843 -3.4335
 6954SOL     OW32497   0.347   2.916   2.289  0.0059  0.6161 -0.1823
 6954SOL    HW132498   0.338   2.827   2.257 -1.4293  0.1382  1.6026
 6954SOL    HW232499   0.437   2.916   2.322 -0.1851 -1.7231  0.3321
 6955SOL     OW32500   1.313   0.302   6.795 -0.1414 -0.0173  0.1411
 6955SOL    HW132501   1.299   0.282   6.888 -0.7644 -0.0026  0.0542
 6955SOL    HW232502   1.270   0.224   6.759 -1.0447  0.2424  0.6391
 6956SOL     OW32503   0.277   2.025   5.815  0.2426  0.3360  0.8397
 6956SOL    HW132504   0.254   1.932   5.805 -0.9026  0.6026  1.0457
 6956SOL    HW232505   0.246   2.061   5.732  0.8324  1.5817  1.1564
 6957SOL     OW32506   0.154   4.555  13.779 -1.3623  0.0725  0.1943
 6957SOL    HW132507   0.073   4.525  13.737 -2.1965  1.0261  1.1120
 6957SOL    HW232508   0.146   4.649  13.761 -3.6623 -0.3171 -0.8402
 6958SOL     OW32509   2.790   4.586   6.375  0.0810  0.3517 -0.9338
 6958SOL    HW132510   2.756   4.541   6.453  1.4557 -0.5959 -0.8761
 6958SOL    HW232511   2.809   4.670   6.418  0.8943  0.3566 -1.3125
 6959SOL     OW32512   3.258   3.396   2.632  0.2354  0.4049  0.2208
 6959SOL    HW132513   3.347   3.361   2.642 -0.9765 -3.6518 -3.2775
 6959SOL    HW232514   3.260   3.440   2.547 -0.2160  0.5356  0.2776
 6960SOL     OW32515   3.579   1.960   6.104 -0.0958 -0.3744 -0.1256
 6960SOL    HW132516   3.644   1.942   6.036 -1.0919 -1.7726 -0.7111
 6960SOL    HW232517   3.618   1.913   6.178 -0.9038  0.5824  0.8911
 6961SOL     OW32518   0.772   3.450  13.197 -0.6502 -0.1759  0.4258
 6961SOL    HW132519   0.700   3.394  13.167 -0.6846 -0.8144  1.6704
 6961SOL    HW232520   0.843   3.387  13.182 -0.7670  0.0424 -1.0643
 6962SOL     OW32521   2.201   2.885   6.826 -0.5018 -0.4365 -0.1022
 6962SOL    HW132522   2.213   2.980   6.817  1.8223 -0.8481 -1.2364
 6962SOL    HW232523   2.133   2.864   6.762 -1.9410 -0.5578  1.4623
 6963SOL     OW32524   4.144   0.713   8.169  0.1843 -0.3950 -0.0118
 6963SOL    HW132525   4.142   0.680   8.079  1.6172  0.8313 -0.5143
 6963SOL    HW232526   4.185   0.798   8.152  1.0229 -0.7033  0.4684
 6964SOL     OW32527   3.828   3.932  15.378  0.4677  0.3085 -0.6087
 6964SOL    HW132528   3.834   3.839  15.353 -0.5920  0.5414 -1.7394
 6964SOL    HW232529   3.873   3.935  15.463 -0.4356 -0.3302 -0.1124
 6965SOL     OW32530   4.385   0.974   3.849  0.0027 -0.0768 -0.1641
 6965SOL    HW132531   4.443   0.910   3.890  0.6556 -0.7405 -2.1105
 6965SOL    HW232532   4.394   1.046   3.911  1.1110 -0.9147  0.6327
 6966SOL     OW32533   3.547   3.526   1.503 -0.3984  0.0113 -0.5041
 6966SOL    HW132534   3.504   3.560   1.582  0.2261 -1.8039  0.6209
 6966SOL    HW232535   3.580   3.443   1.537  1.1321  0.5576 -0.6412
 6967SOL     OW32536   3.082   2.562   1.358 -0.5924 -0.3163  0.4317
 6967SOL    HW132537   3.017   2.610   1.306 -2.7258 -1.8786  1.6895
 6967SOL    HW232538   3.051   2.473   1.341  3.0146 -1.3437 -0.6932
 6968SOL     OW32539   0.301   1.649  16.995  0.3340  0.0353  0.3352
 6968SOL    HW132540   0.276   1.703  16.920  1.8221 -0.0215 -0.2155
 6968SOL    HW232541   0.344   1.574  16.954  0.5784  0.0809  0.5063
 6969SOL     OW32542   3.642   2.786   0.951 -0.3223 -0.3693 -0.3371
 6969SOL    HW132543   3.623   2.768   1.043  0.9041  0.7871  0.1418
 6969SOL    HW232544   3.709   2.854   0.950  0.2905 -0.9656  0.5422
 6970SOL     OW32545   1.595   0.038  15.837  0.7565  0.5106  0.1669
 6970SOL    HW132546   1.624   0.089  15.761  0.9650  0.4572  0.2114
 6970SOL    HW232547   1.646   0.090  15.899 -1.7356  0.7420  2.0199
 6971SOL     OW32548   0.591   4.321   2.177 -0.6405 -0.2675  0.0225
 6971SOL    HW132549   0.573   4.313   2.084  0.8293 -1.2383 -0.1775
 6971SOL    HW232550   0.591   4.417   2.178 -2.3922 -0.2656 -0.5253
 6972SOL     OW32551   0.870   3.785   5.048 -0.1413  0.2919 -0.5475
 6972SOL    HW132552   0.937   3.790   4.979  1.6783 -0.4764  1.1650
 6972SOL    HW232553   0.789   3.812   5.006 -0.3984  0.6944  0.2112
 6973SOL     OW32554   4.099   1.170   5.427 -0.0438  0.5695 -0.0577
 6973SOL    HW132555   4.123   1.245   5.372 -1.2634  1.4950  0.6682
 6973SOL    HW232556   4.011   1.198   5.452  0.9872  2.1906  1.8242
 6974SOL     OW32557   4.004   1.325  12.720  0.1068 -0.5622 -0.0615
 6974SOL    HW132558   3.984   1.399  12.662 -0.7236 -0.4083  0.4194
 6974SOL    HW232559   4.004   1.251  12.660 -0.4158  0.3176 -1.1522
 6975SOL     OW32560   1.309   1.480  16.247 -0.6261  0.3992  0.0807
 6975SOL    HW132561   1.399   1.470  16.279 -0.5280  1.0201  0.0002
 6975SOL    HW232562   1.297   1.575  16.248  0.2347  0.5376 -1.7573
 6976SOL     OW32563   2.408   2.667   3.828  0.5817 -0.2705 -0.7163
 6976SOL    HW132564   2.374   2.642   3.913 -4.0733  1.3989 -2.0843
 6976SOL    HW232565   2.500   2.684   3.847  0.0882 -0.7328  1.9614
 6977SOL     OW32566   1.222   1.303  17.105 -0.3968 -0.0547 -0.2547
 6977SOL    HW132567   1.151   1.305  17.041 -2.1758  2.2575  1.7529
 6977SOL    HW232568   1.175   1.273  17.183 -0.3288  0.1017 -0.1527
 6978SOL     OW32569   0.427   2.806   9.328  0.1315 -0.3703  0.3198
 6978SOL    HW132570   0.478   2.874   9.372  1.5584  0.2935 -2.2938
 6978SOL    HW232571   0.390   2.857   9.256  2.1515  1.3533  0.4877
 6979SOL     OW32572   2.121   2.056   5.656  0.1077  0.3914  0.3285
 6979SOL    HW132573   2.126   1.982   5.595  1.1970 -0.0981  1.0040
 6979SOL    HW232574   2.189   2.027   5.717  0.3650  0.6757  0.1770
 6980SOL     OW32575   4.381   2.048   5.880  0.1206  0.0429  0.2002
 6980SOL    HW132576   4.324   1.983   5.921  0.9531 -1.1327 -0.5383
 6980SOL    HW232577   4.439   2.081   5.949 -0.0125  2.9310 -1.0647
 6981SOL     OW32578   4.621   0.235   6.424  0.0868 -0.1000  0.5459
 6981SOL    HW132579   4.636   0.142   6.410  0.1617  0.0833 -0.5825
 6981SOL    HW232580   4.557   0.228   6.495  0.1009 -3.8250  0.1887
 6982SOL     OW32581   2.554   0.475   7.267 -0.1500  0.5202  0.2075
 6982SOL    HW132582   2.529   0.423   7.344 -0.6883  2.5508  1.4016
 6982SOL    HW232583   2.470   0.514   7.243 -0.2051  0.2537 -0.0250
 6983SOL     OW32584   4.454   3.979   3.135  0.1161  0.1750  0.0900
 6983SOL    HW132585   4.399   4.033   3.078 -1.1564  0.3673  1.4728
 6983SOL    HW232586   4.466   3.896   3.090  1.8647  0.5879 -0.1699
 6984SOL     OW32587   0.962   0.239   8.048  0.3313 -0.2633  0.3355
 6984SOL    HW132588   0.952   0.326   8.008  1.1162 -0.3176  0.0308
 6984SOL    HW232589   0.882   0.200   8.014 -0.8605  0.2817  2.5052
 6985SOL     OW32590   4.140   2.826   6.574 -0.6078 -0.2590 -0.4185
 6985SOL    HW132591   4.207   2.869   6.627 -1.1965 -1.2213  1.1032
 6985SOL    HW232592   4.122   2.888   6.503  0.9705  2.4834  1.5582
 6986SOL     OW32593   2.187   0.835  14.281  0.3192 -0.3179 -0.2707
 6986SOL    HW132594   2.188   0.928  14.307 -0.1137 -0.1987 -0.6887
 6986SOL    HW232595   2.181   0.854  14.188 -2.0450  0.5995  0.0706
 6987SOL     OW32596   0.511   4.048   8.744  0.3791 -0.2134  0.2662
 6987SOL    HW132597   0.455   4.057   8.821 -0.1819 -1.3713 -0.0099
 6987SOL    HW232598   0.560   3.968   8.760  1.0237 -0.1918 -1.6443
 6988SOL     OW32599   4.191   0.320   6.160 -0.5275  0.4849 -0.1685
 6988SOL    HW132600   4.276   0.282   6.137  0.9935  2.1599  2.8014
 6988SOL    HW232601   4.200   0.402   6.112 -1.7394  0.8245  0.1975
 6989SOL     OW32602   1.200   3.587   3.438  0.4853 -0.2464  0.8685
 6989SOL    HW132603   1.196   3.553   3.528 -1.6392 -1.6396  0.2498
 6989SOL    HW232604   1.242   3.672   3.447  0.2541 -0.1206  0.7706
 6990SOL     OW32605   2.327   1.644   4.802 -0.1487 -0.0884 -0.5934
 6990SOL    HW132606   2.273   1.655   4.724 -0.8213  1.4853  0.0807
 6990SOL    HW232607   2.389   1.716   4.791  1.0956 -0.8746  1.1548
 6991SOL     OW32608   4.211   2.516  10.783  0.2949 -0.0136  0.2290
 6991SOL    HW132609   4.262   2.444  10.746 -2.3455 -1.7930  0.0571
 6991SOL    HW232610   4.147   2.543  10.716  0.2497 -0.9138 -0.0835
 6992SOL     OW32611   1.079   3.818  15.167 -0.5937  0.1121  0.6531
 6992SOL    HW132612   1.027   3.737  15.174  0.2985 -0.4413  0.8575
 6992SOL    HW232613   1.165   3.778  15.179 -0.5583 -1.1260 -3.8097
 6993SOL     OW32614   2.311   1.734   9.136  0.3415  0.3050  0.1210
 6993SOL    HW132615   2.348   1.799   9.077  1.3634  0.0689  0.5059
 6993SOL    HW232616   2.307   1.781   9.219  1.3054 -0.5172  0.6413
 6994SOL     OW32617   2.099   0.171   3.481 -0.4004 -0.0650 -0.8571
 6994SOL    HW132618   2.030   0.120   3.439 -1.2614  0.0921  0.3654
 6994SOL    HW232619   2.163   0.100   3.476 -0.6990 -0.5042  1.3709
 6995SOL     OW32620   0.217   3.815  12.942  0.0293  0.1003  0.7398
 6995SOL    HW132621   0.266   3.851  13.016 -0.2189  0.4310  0.7424
 6995SOL    HW232622   0.228   3.892  12.886  1.0096  0.0012  0.8014
 6996SOL     OW32623   3.288   2.051  12.970  0.1287  0.0149  0.5757
 6996SOL    HW132624   3.199   2.088  12.967  0.1845  0.0982  0.0307
 6996SOL    HW232625   3.329   2.113  13.031  2.8085 -4.5185  3.3091
 6997SOL     OW32626   2.611   2.771   2.453 -0.3327 -0.5659  0.3161
 6997SOL    HW132627   2.614   2.731   2.366  0.0398 -0.4318  0.2666
 6997SOL    HW232628   2.518   2.767   2.474 -0.5600 -0.4198 -0.6477
 6998SOL     OW32629   1.699   2.418   3.904  0.0545 -0.5756 -0.4069
 6998SOL    HW132630   1.747   2.500   3.887  0.1211 -0.6610 -0.6391
 6998SOL    HW232631   1.643   2.423   3.827  0.6952 -1.0501 -0.9093
 6999SOL     OW32632   0.089   3.964   5.442  0.2258  0.0838  0.7898
 6999SOL    HW132633   0.089   3.883   5.493  1.1511 -2.1303 -2.7129
 6999SOL    HW232634   0.026   3.947   5.372  1.5704 -0.8376 -0.1976
 7000SOL     OW32635   2.678   0.427   1.575 -0.3686  0.3939 -0.2886
 7000SOL    HW132636   2.597   0.383   1.551  0.2577 -1.2901  0.7512
 7000SOL    HW232637   2.691   0.473   1.491  0.4818  0.4582 -0.1233
 7001SOL     OW32638   0.104   0.950   6.946  0.3379 -0.4024 -0.0578
 7001SOL    HW132639   0.189   0.987   6.969  0.1704  1.0113 -1.6987
 7001SOL    HW232640   0.086   0.898   7.024  1.4182  1.6417  1.5524
 7002SOL     OW32641   0.745   1.624  14.413 -0.0906 -0.1668 -0.3015
 7002SOL    HW132642   0.791   1.588  14.337  2.6637  0.0193  1.2584
 7002SOL    HW232643   0.705   1.698  14.369  0.5318  0.3670  0.0187
 7003SOL     OW32644   1.886   2.005   2.208 -1.0104  0.0882  0.2442
 7003SOL    HW132645   1.978   2.027   2.220 -1.1447 -0.1614  1.8172
 7003SOL    HW232646   1.890   1.910   2.201  0.0117  0.1683 -0.1720
 7004SOL     OW32647   4.352   4.386   6.374  1.0125 -0.7148  0.5565
 7004SOL    HW132648   4.446   4.402   6.374  1.1007 -1.1798 -1.7433
 7004SOL    HW232649   4.342   4.305   6.323 -1.3274  1.1725 -2.0233
 7005SOL     OW32650   0.301   1.417  10.496  0.4194  0.7249  0.4262
 7005SOL    HW132651   0.208   1.394  10.493  1.2517 -2.6193  0.6182
 7005SOL    HW232652   0.343   1.349  10.549  0.9035 -0.2037 -1.1396
 7006SOL     OW32653   1.538   1.197   8.561  0.0635  0.1744 -0.1128
 7006SOL    HW132654   1.457   1.169   8.519  1.1112 -2.7835 -0.1552
 7006SOL    HW232655   1.549   1.285   8.527  0.3282 -0.5228 -1.8008
 7007SOL     OW32656   2.442   3.024   6.526  0.7603 -0.3289 -0.4942
 7007SOL    HW132657   2.366   3.082   6.524  0.8287 -0.2164  0.1132
 7007SOL    HW232658   2.387   2.947   6.518 -2.1051  1.2920  3.3627
 7008SOL     OW32659   3.484   1.662   3.798 -0.0571 -0.0847  0.0141
 7008SOL    HW132660   3.459   1.596   3.733 -0.7372 -0.0978  0.2868
 7008SOL    HW232661   3.500   1.603   3.871 -1.2957 -1.0152 -0.4624
 7009SOL     OW32662   0.454   4.730   9.628  0.5215 -0.4455 -0.6738
 7009SOL    HW132663   0.382   4.694   9.577  0.1610  1.0432 -1.2203
 7009SOL    HW232664   0.472   0.076   9.579 -1.3433 -1.4264 -2.9451
 7010SOL     OW32665   2.674   4.260   2.655 -0.3632  0.6305 -0.3601
 7010SOL    HW132666   2.636   4.236   2.570 -0.9042 -0.9356  0.3111
 7010SOL    HW232667   2.697   4.352   2.641 -0.9363  0.6885 -0.9748
 7011SOL     OW32668   3.165   0.336  12.232  0.5068  0.0973 -0.2358
 7011SOL    HW132669   3.132   0.259  12.185  0.5163 -0.6137  0.8972
 7011SOL    HW232670   3.260   0.328  12.225  0.0377 -1.7774 -4.6645
 7012SOL     OW32671   3.875   2.972   5.742 -0.3397 -0.0778  0.2399
 7012SOL    HW132672   3.801   2.951   5.799 -0.0565  0.6871  0.8975
 7012SOL    HW232673   3.841   2.947   5.656 -2.3406  0.8140  0.7620
 7013SOL     OW32674   4.043   2.668   6.766  0.0560 -0.0979 -0.4902
 7013SOL    HW132675   4.079   2.723   6.696  0.7880 -0.0610 -0.0862
 7013SOL    HW232676   4.100   2.698   6.837  0.9634 -1.9036 -0.4535
 7014SOL     OW32677   1.020   2.588  12.162 -0.4448  0.1608  0.2199
 7014SOL    HW132678   0.968   2.571  12.240  1.7644  0.1628  1.6905
 7014SOL    HW232679   0.952   2.615  12.100  1.5229  1.4117 -1.4066
 7015SOL     OW32680   2.368   1.507   7.107  0.2876  0.2327  0.5378
 7015SOL    HW132681   2.382   1.596   7.141  0.4037  0.5407 -0.3121
 7015SOL    HW232682   2.458   1.474   7.105 -0.0457 -0.6583  0.2899
 7016SOL     OW32683   2.457   1.175  11.331 -0.2301  0.0500  0.0006
 7016SOL    HW132684   2.549   1.154  11.342 -0.7702 -3.0781 -1.5731
 7016SOL    HW232685   2.422   1.139  11.413 -0.5891  2.9828  1.1364
 7017SOL     OW32686   0.984   1.404  11.572  0.0752  0.2568 -0.2344
 7017SOL    HW132687   1.063   1.456  11.556  1.6945 -2.2107 -0.3241
 7017SOL    HW232688   0.914   1.466  11.554 -2.7459 -3.7902 -3.1464
 7018SOL     OW32689   4.619   1.599   4.880  0.5050 -0.2936 -0.2844
 7018SOL    HW132690   4.666   1.647   4.949 -0.4162  1.3488 -0.8123
 7018SOL    HW232691   4.529   1.618   4.906  0.5558 -1.9797  1.1269
 7019SOL     OW32692   2.244   3.009   5.422  0.2219  0.1184 -0.3408
 7019SOL    HW132693   2.331   2.976   5.399  0.4919  0.4077  0.2668
 7019SOL    HW232694   2.225   3.045   5.335 -0.4082  0.0260 -0.2440
 7020SOL     OW32695   4.162   2.456  11.274  0.0833  0.3635  0.0175
 7020SOL    HW132696   4.214   2.438  11.352 -0.7321  1.6075  0.8529
 7020SOL    HW232697   4.144   2.366  11.248 -1.7164  0.7275  0.0025
 7021SOL     OW32698   2.924   1.372   8.854  0.3291  0.2860  0.1174
 7021SOL    HW132699   2.943   1.341   8.943  2.4340  1.6552  0.1486
 7021SOL    HW232700   3.011   1.359   8.817  0.4769 -0.1349  0.6031
 7022SOL     OW32701   4.012   4.486   5.900  0.0567 -0.0546  0.2314
 7022SOL    HW132702   3.956   4.517   5.830 -0.1893  1.5011  1.1101
 7022SOL    HW232703   4.062   4.566   5.917 -1.7741  1.2900 -0.7369
 7023SOL     OW32704   0.785   0.167  17.242  0.1142 -0.5163 -0.2181
 7023SOL    HW132705   0.807   0.074  17.245 -1.4231 -0.8991 -0.6384
 7023SOL    HW232706   0.691   0.165  17.262  0.3624  1.5099  1.0928
 7024SOL     OW32707   3.877   2.279   3.127 -0.0714 -0.4848  0.7831
 7024SOL    HW132708   3.905   2.266   3.037 -2.9832 -1.4174  0.0195
 7024SOL    HW232709   3.933   2.214   3.169 -0.4129 -1.6322 -0.5474
 7025SOL     OW32710   1.238   0.843   6.907 -0.6869  0.0931  0.4911
 7025SOL    HW132711   1.177   0.824   6.835 -0.4251 -0.2483  0.3573
 7025SOL    HW232712   1.324   0.845   6.866 -0.8609 -3.2906 -0.0305
 7026SOL     OW32713   0.852   0.092   6.858 -0.3760  0.2537  0.1458
 7026SOL    HW132714   0.765   0.065   6.831  0.1818 -1.1741 -0.2175
 7026SOL    HW232715   0.880   0.146   6.784 -0.7154  2.1103  1.3844
 7027SOL     OW32716   0.369   1.158  10.333  0.1224  0.1934  0.6121
 7027SOL    HW132717   0.356   1.230  10.272  0.3366 -1.0816 -0.9609
 7027SOL    HW232718   0.315   1.099  10.280  1.1232 -0.2430  0.0725
 7028SOL     OW32719   0.528   4.208   3.210 -0.2371  0.1480  0.2960
 7028SOL    HW132720   0.459   4.195   3.274  0.2393 -0.4983  0.6746
 7028SOL    HW232721   0.506   4.139   3.147  0.9492 -0.1623  0.2186
 7029SOL     OW32722   0.103   1.125   7.294 -0.0712 -0.5834 -0.0005
 7029SOL    HW132723   0.123   1.215   7.321  2.6249 -1.8826  2.2768
 7029SOL    HW232724   0.009   1.132   7.274  0.0302  0.8885  0.0131
 7030SOL     OW32725   1.342   1.483  15.690 -0.1075 -0.1726  0.4867
 7030SOL    HW132726   1.414   1.546  15.685 -1.0203  1.0335  2.4605
 7030SOL    HW232727   1.318   1.502  15.781  1.0038 -0.4898  0.8549
 7031SOL     OW32728   1.498   3.479   6.299 -0.4190 -0.0247 -0.6800
 7031SOL    HW132729   1.507   3.393   6.257 -0.5805 -1.0711  1.4280
 7031SOL    HW232730   1.527   3.458   6.388 -0.2323 -1.5020 -1.0874
 7032SOL     OW32731   0.616   2.994   9.435 -0.0476  0.2835 -0.1258
 7032SOL    HW132732   0.608   2.998   9.531 -0.7154 -3.4843  0.0019
 7032SOL    HW232733   0.571   3.073   9.408  1.1761  1.4856  1.3296
 7033SOL     OW32734   1.483   1.933   8.374 -0.0545  0.8499 -0.5266
 7033SOL    HW132735   1.571   1.894   8.374 -0.5099 -0.1661 -2.0928
 7033SOL    HW232736   1.445   1.887   8.299  0.0053  1.6870 -1.0723
 7034SOL     OW32737   0.822   1.610   4.663  0.1681 -0.2353 -0.5639
 7034SOL    HW132738   0.915   1.589   4.658 -0.4016 -3.0055  0.7837
 7034SOL    HW232739   0.788   1.547   4.599 -1.3211  1.0614 -1.0610
 7035SOL     OW32740   4.091   2.747  13.964  0.6379  0.2426 -0.2606
 7035SOL    HW132741   4.072   2.738  13.871 -2.2299  3.8192 -0.0089
 7035SOL    HW232742   4.084   2.654  13.985  1.4848  0.1593 -0.3417
 7036SOL     OW32743   2.729   4.241   8.319  0.8867  0.3056 -0.2290
 7036SOL    HW132744   2.746   4.157   8.277 -0.8156 -1.4952  2.6764
 7036SOL    HW232745   2.817   4.274   8.299  0.3564  1.2716 -0.9510
 7037SOL     OW32746   3.267   3.812   8.455  0.0202  0.4522 -0.1597
 7037SOL    HW132747   3.275   3.728   8.410 -2.3139  0.1947 -0.1151
 7037SOL    HW232748   3.350   3.813   8.503  1.2772  0.3690 -2.3260
 7038SOL     OW32749   2.867   2.075   5.133  0.0703 -0.3770  0.1898
 7038SOL    HW132750   2.903   2.115   5.053 -2.0545  1.5202  0.2056
 7038SOL    HW232751   2.939   2.016   5.155  0.7805  0.3428 -0.1970
 7039SOL     OW32752   0.068   3.767   8.370  0.5227 -0.2718  0.1330
 7039SOL    HW132753   0.116   3.814   8.438  0.0461  1.1518 -0.5084
 7039SOL    HW232754   0.071   3.678   8.404 -0.3664 -0.2598  0.2298
 7040SOL     OW32755   4.668   4.487   8.637  0.1854  0.3764 -0.1314
 7040SOL    HW132756   4.618   4.407   8.619  1.8571 -0.4308 -1.1855
 7040SOL    HW232757   4.622   4.558   8.593 -1.5697 -1.0428 -0.6123
 7041SOL     OW32758   1.476   1.941   9.096  0.4654  0.8407  0.2132
 7041SOL    HW132759   1.433   1.885   9.160  1.7483 -0.7540 -0.3246
 7041SOL    HW232760   1.422   1.943   9.016  1.1633  3.0042 -0.2068
 7042SOL     OW32761   4.041   2.572   8.156 -0.6992  0.1016 -0.4927
 7042SOL    HW132762   4.061   2.557   8.064  1.8044 -2.8116  0.5125
 7042SOL    HW232763   4.130   2.576   8.193 -0.6479  0.4069 -0.6478
 7043SOL     OW32764   2.564   2.720   6.975  0.4675  0.1086 -0.0314
 7043SOL    HW132765   2.653   2.741   7.003  0.0440 -2.0865  2.8764
 7043SOL    HW232766   2.534   2.718   7.066 -0.1745  0.1609 -0.2440
 7044SOL     OW32767   3.230   1.453   2.889 -0.0310 -0.8355  0.0099
 7044SOL    HW132768   3.290   1.379   2.885 -0.1152 -0.9271  0.4139
 7044SOL    HW232769   3.211   1.465   2.796  1.2677 -0.1944 -0.1730
 7045SOL     OW32770   4.153   1.977   8.783 -0.0732  0.0405  0.0874
 7045SOL    HW132771   4.246   1.972   8.761 -0.3334 -0.8630 -0.8221
 7045SOL    HW232772   4.130   2.064   8.749 -0.8311 -0.3184 -0.3158
 7046SOL     OW32773   2.139   3.753   4.120 -0.1399 -0.3592 -0.4996
 7046SOL    HW132774   2.131   3.771   4.214 -0.1681 -1.0302 -0.3740
 7046SOL    HW232775   2.215   3.809   4.107  0.8514 -1.6527 -0.2414
 7047SOL     OW32776   3.206   2.165   9.531  0.7835  0.0979 -0.1066
 7047SOL    HW132777   3.192   2.115   9.612  0.0904 -1.5725 -1.2657
 7047SOL    HW232778   3.180   2.097   9.469  0.3729  1.5919 -1.5663
 7048SOL     OW32779   0.378   1.368   1.966  0.6555  0.0582 -0.2377
 7048SOL    HW132780   0.468   1.374   1.934  0.5120 -0.2975 -0.7118
 7048SOL    HW232781   0.338   1.429   1.903 -0.1813 -0.8993 -0.6455
 7049SOL     OW32782   2.134   0.469   6.059 -0.1229 -0.0395  0.3334
 7049SOL    HW132783   2.069   0.432   5.998 -0.9045 -0.2099  1.2766
 7049SOL    HW232784   2.188   0.394   6.085  2.8955  1.8609 -0.5095
 7050SOL     OW32785   1.617   0.039   0.021 -0.8156 -0.2337 -0.2344
 7050SOL    HW132786   1.687   0.096  17.728 -1.2956  0.9993  0.9694
 7050SOL    HW232787   1.660   4.688   0.018  3.1895  1.8454 -3.3560
 7051SOL     OW32788   1.366   1.535  15.040 -0.9799 -0.4490 -1.0832
 7051SOL    HW132789   1.307   1.464  15.014 -0.2328 -1.5669  0.2530
 7051SOL    HW232790   1.369   1.512  15.133 -0.0014 -0.6681 -1.1655
 7052SOL     OW32791   1.960   4.500   8.869  0.0397  0.0170 -0.3390
 7052SOL    HW132792   1.870   4.531   8.867 -0.4564 -1.4185 -0.5753
 7052SOL    HW232793   1.934   4.419   8.824 -0.8969  1.8919 -3.1716
 7053SOL     OW32794   3.981   0.074   2.439 -0.3972  0.3000  0.0544
 7053SOL    HW132795   3.971   4.733   2.382 -0.0338 -0.3822  0.8828
 7053SOL    HW232796   3.894   0.077   2.478 -1.3243  0.4992 -2.0612
 7054SOL     OW32797   0.075   3.356   7.026  0.0782 -0.0073  0.1153
 7054SOL    HW132798   0.150   3.344   6.969 -1.0071 -1.3313 -1.0361
 7054SOL    HW232799   0.073   3.448   7.054 -0.9836  0.2167 -0.6984
 7055SOL     OW32800   1.686   0.901   8.807  0.1028  0.2320 -0.1609
 7055SOL    HW132801   1.764   0.948   8.839 -0.1188  0.3940  0.1423
 7055SOL    HW232802   1.701   0.923   8.715  1.2972  0.8086  0.1668
 7056SOL     OW32803   1.563   3.365   2.685 -0.2838 -0.1360  0.1563
 7056SOL    HW132804   1.534   3.370   2.594  1.0504 -0.0798 -0.2523
 7056SOL    HW232805   1.567   3.458   2.706  0.6736  0.5483 -3.0586
 7057SOL     OW32806   3.775   2.668   4.228 -0.1871  0.0142  0.2858
 7057SOL    HW132807   3.767   2.669   4.132  1.7300 -0.7526  0.0986
 7057SOL    HW232808   3.694   2.710   4.257  0.6722 -0.0774  2.8063
 7058SOL     OW32809   3.544   3.265   6.707  0.0993 -0.2659 -0.3247
 7058SOL    HW132810   3.489   3.232   6.637  0.3766 -2.0666  0.2980
 7058SOL    HW232811   3.472   3.306   6.756 -0.8000 -0.9727 -1.0736
 7059SOL     OW32812   3.149   4.026   5.050  0.4635 -0.4591 -0.4307
 7059SOL    HW132813   3.064   3.992   5.019 -0.9020  2.8978 -0.4530
 7059SOL    HW232814   3.124   4.118   5.063  0.0906 -0.4377 -1.2733
 7060SOL     OW32815   1.834   1.948   7.177  0.1594  0.1312  0.1011
 7060SOL    HW132816   1.828   1.900   7.259  1.0276  1.3071  0.8602
 7060SOL    HW232817   1.798   2.030   7.210  0.1935 -0.3951  1.4571
 7061SOL     OW32818   1.247   2.415   6.816  0.2195  0.7274  0.1832
 7061SOL    HW132819   1.213   2.352   6.752  2.8105 -2.2289  1.7173
 7061SOL    HW232820   1.222   2.365   6.894 -0.6945 -1.2988 -1.4238
 7062SOL     OW32821   0.320   2.088   7.171 -0.1024  0.0462 -0.3079
 7062SOL    HW132822   0.263   2.147   7.220 -2.3225 -1.0468 -1.5674
 7062SOL    HW232823   0.409   2.111   7.199 -0.3170 -0.6157  0.9290
 7063SOL     OW32824   0.639   2.294   9.124  0.1514 -0.3665 -0.2706
 7063SOL    HW132825   0.729   2.321   9.108  0.9787 -2.9307  0.1189
 7063SOL    HW232826   0.600   2.372   9.084  0.5976 -0.2535 -0.4864
 7064SOL     OW32827   4.211   1.486   0.429 -0.2500 -0.4832 -0.6631
 7064SOL    HW132828   4.139   1.520   0.482  0.2348  0.4658 -0.6194
 7064SOL    HW232829   4.211   1.391   0.442 -1.1588 -0.6911 -2.1885
 7065SOL     OW32830   1.312   0.669  17.192 -0.3347  0.1422  0.0330
 7065SOL    HW132831   1.316   0.765  17.182 -2.4555  0.0946 -1.4532
 7065SOL    HW232832   1.406   0.657  17.204 -0.1620 -0.1333 -1.4991
 7066SOL     OW32833   3.283   1.510   5.579  0.6724  0.4506 -0.4707
 7066SOL    HW132834   3.223   1.569   5.625  1.2348  2.6302 -2.5538
 7066SOL    HW232835   3.330   1.571   5.522 -1.0644  1.1593 -1.1299
 7067SOL     OW32836   0.037   2.232   6.672  0.0155 -1.0865 -0.4165
 7067SOL    HW132837   0.027   2.300   6.606 -3.5176  0.5608  1.8135
 7067SOL    HW232838   4.715   2.273   6.738 -0.2270 -0.0694 -1.2567
 7068SOL     OW32839   3.307   3.234   0.574 -0.3389 -0.6230  0.2938
 7068SOL    HW132840   3.279   3.190   0.654  1.6327 -0.7391  0.9196
 7068SOL    HW232841   3.392   3.192   0.569 -0.8058 -1.5728  0.3730
 7069SOL     OW32842   3.892   2.447  15.279  0.5847 -0.0567  0.0928
 7069SOL    HW132843   3.868   2.533  15.314  0.5624 -0.4757  1.1103
 7069SOL    HW232844   3.816   2.430  15.224 -0.0165  1.0459  0.5757
 7070SOL     OW32845   0.635   0.927   3.372 -0.2971 -0.0759 -0.3043
 7070SOL    HW132846   0.617   0.874   3.295  0.9298 -3.0425  1.4421
 7070SOL    HW232847   0.683   0.857   3.417 -0.3170  1.3397  1.9464
 7071SOL     OW32848   0.671   1.156  14.979  0.1267 -0.2164 -0.3457
 7071SOL    HW132849   0.687   1.067  15.012  0.9932 -0.2762 -0.9064
 7071SOL    HW232850   0.606   1.139  14.911 -1.7726  0.4990  1.3144
 7072SOL     OW32851   2.545   2.917   9.157  0.0750  0.0328  0.1731
 7072SOL    HW132852   2.500   2.935   9.239  1.7968  1.4936  0.7895
 7072SOL    HW232853   2.621   2.868   9.188 -0.3028  0.4012  1.6815
 7073SOL     OW32854   3.590   2.728  12.579 -0.1098  0.1696  0.9187
 7073SOL    HW132855   3.616   2.820  12.574  2.1122 -0.5329 -0.1921
 7073SOL    HW232856   3.556   2.716  12.490  1.6178 -0.6435  0.3742
 7074SOL     OW32857   4.218   1.401   4.329 -0.1474 -0.5601 -0.2796
 7074SOL    HW132858   4.173   1.467   4.277  0.6994  0.3705  0.1825
 7074SOL    HW232859   4.252   1.450   4.403  1.2929 -1.1464 -0.5366
 7075SOL     OW32860   0.584   3.985   3.852 -0.7309 -0.1036 -0.6018
 7075SOL    HW132861   0.617   3.927   3.920  3.5713  2.3774 -0.5883
 7075SOL    HW232862   0.674   4.001   3.825  0.1132  1.3010  3.0813
 7076SOL     OW32863   3.857   2.049   7.966  0.3784  0.3124 -0.0797
 7076SOL    HW132864   3.804   1.982   8.010  0.6193 -1.2143 -2.1302
 7076SOL    HW232865   3.915   1.999   7.909  1.8932  3.5455 -1.3652
 7077SOL     OW32866   4.212   2.272  14.551 -0.7364  0.1834 -0.7565
 7077SOL    HW132867   4.303   2.276  14.519 -1.2070  2.1438 -1.7906
 7077SOL    HW232868   4.191   2.178  14.547 -1.1798  0.2494  0.1612
 7078SOL     OW32869   3.215   4.116   9.031 -0.1351 -0.1313 -0.2562
 7078SOL    HW132870   3.167   4.060   8.970 -0.4173  1.1410 -1.1952
 7078SOL    HW232871   3.235   4.047   9.095 -0.6257 -0.8898 -0.9182
 7079SOL     OW32872   0.064   0.302   1.231 -0.0915 -0.2359 -0.1388
 7079SOL    HW132873   0.121   0.249   1.287  0.5486  1.9673  1.3228
 7079SOL    HW232874   0.037   0.368   1.295  0.2676  0.2336 -0.4704
 7080SOL     OW32875   1.195   1.242   7.217  0.6029  0.2845 -0.0598
 7080SOL    HW132876   1.163   1.206   7.134  0.4919  1.6079 -0.5988
 7080SOL    HW232877   1.277   1.195   7.224  0.2394 -0.1604  1.3132
 7081SOL     OW32878   1.040   0.285   7.026  0.0616  0.4105 -0.4816
 7081SOL    HW132879   1.066   0.210   7.080 -0.7175 -0.2362 -1.0065
 7081SOL    HW232880   1.004   0.238   6.951 -0.3079  1.4215 -0.9388
 7082SOL     OW32881   4.435   0.527   2.971 -0.2759  0.1786  0.2459
 7082SOL    HW132882   4.448   0.439   2.937 -0.8849  0.8262 -1.6603
 7082SOL    HW232883   4.521   0.568   2.970 -0.3001  0.2100 -0.6286
 7083SOL     OW32884   0.910   3.765   4.165  0.0764  0.1815 -0.1941
 7083SOL    HW132885   0.984   3.825   4.156 -0.8221  1.2772 -0.2737
 7083SOL    HW232886   0.951   3.679   4.177 -3.8286 -1.3477  2.0649
 7084SOL     OW32887   3.284   2.374   4.076  0.3280 -0.8531 -0.1521
 7084SOL    HW132888   3.196   2.377   4.038  0.7134  0.2354 -0.9535
 7084SOL    HW232889   3.347   2.381   4.004  0.4519  1.0549  0.1454
 7085SOL     OW32890   1.269   2.255  17.643 -0.3722 -0.1542 -0.1912
 7085SOL    HW132891   1.183   2.251  17.684 -0.7873 -2.1027 -1.2427
 7085SOL    HW232892   1.272   2.334  17.590  0.3591  0.7527  1.2037
 7086SOL     OW32893   1.953   4.607   0.969  1.0339 -0.1700 -1.0152
 7086SOL    HW132894   2.043   4.628   0.942  1.6119  0.3776  1.3501
 7086SOL    HW232895   1.921   4.682   1.019 -1.6264 -0.3754 -2.3987
 7087SOL     OW32896   0.179   1.706   9.551  0.3948  0.6648  0.1307
 7087SOL    HW132897   0.201   1.723   9.460  2.0396  0.6386  0.5295
 7087SOL    HW232898   0.193   1.787   9.601 -1.2949 -0.0923  1.8523
 7088SOL     OW32899   3.698   1.318   8.015 -0.2706  0.1953 -0.1476
 7088SOL    HW132900   3.744   1.267   8.082  1.1560 -0.2700 -1.4728
 7088SOL    HW232901   3.659   1.392   8.060 -2.9721 -0.9569 -0.6038
 7089SOL     OW32902   1.502   1.307  11.808 -0.0925  0.4156  0.6587
 7089SOL    HW132903   1.570   1.274  11.867  0.7109 -0.4625 -0.7383
 7089SOL    HW232904   1.467   1.372  11.868  1.9191 -0.1075  2.4114
 7090SOL     OW32905   1.965   1.241  17.021 -0.2930 -0.3136 -0.3639
 7090SOL    HW132906   1.934   1.184  16.950  1.8688  1.1022 -2.4115
 7090SOL    HW232907   1.879   1.281  17.036 -0.5394 -0.1176 -2.2530
 7091SOL     OW32908   3.984   3.995   6.192  0.0056 -0.2683 -0.0620
 7091SOL    HW132909   3.939   4.016   6.111 -0.7353  1.5191  0.8127
 7091SOL    HW232910   3.934   3.915   6.209 -2.5374  1.1460 -0.9121
 7092SOL     OW32911   0.771   0.075   6.135 -0.0077  0.3965 -0.9428
 7092SOL    HW132912   0.717   0.117   6.202 -1.3375  1.3803 -2.6332
 7092SOL    HW232913   0.723   4.730   6.112 -0.9307  1.0398 -1.2536
 7093SOL     OW32914   4.478   0.556   1.180 -0.3742 -0.2395  0.0464
 7093SOL    HW132915   4.441   0.468   1.180 -0.4868 -0.1898  0.5102
 7093SOL    HW232916   4.416   0.591   1.243 -0.6464  1.0171 -0.9260
 7094SOL     OW32917   0.164   3.763   2.626 -0.0317  0.1412 -0.4222
 7094SOL    HW132918   0.223   3.691   2.605 -0.2583 -0.0264 -0.4931
 7094SOL    HW232919   0.174   3.820   2.550  4.4028  0.2826  0.2886
 7095SOL     OW32920   0.584   4.556   5.045  0.4150  0.0754  0.1779
 7095SOL    HW132921   0.615   4.549   4.955 -0.5000 -0.2051 -0.1136
 7095SOL    HW232922   0.599   4.470   5.086  0.1250  0.0194  0.1668
 7096SOL     OW32923   0.022   3.425  13.469  0.4070 -0.2877 -0.1304
 7096SOL    HW132924   4.725   3.465  13.550  1.1713  0.9336 -0.4375
 7096SOL    HW232925   0.071   3.500  13.435  0.2247 -0.0193  0.2020
 7097SOL     OW32926   2.377   2.306   7.595  0.2943 -0.3342 -0.4151
 7097SOL    HW132927   2.407   2.249   7.523 -1.0012  0.0545 -1.2531
 7097SOL    HW232928   2.283   2.314   7.580  0.8876  1.5382 -3.2650
 7098SOL     OW32929   1.501   2.326   2.425  0.6426  0.4024  0.1308
 7098SOL    HW132930   1.441   2.361   2.491  1.9922  0.9460  1.0500
 7098SOL    HW232931   1.577   2.302   2.477  0.8183 -2.0211 -1.2447
 7099SOL     OW32932   0.562   4.220   4.707  0.1623 -0.2659 -0.3607
 7099SOL    HW132933   0.604   4.297   4.745  0.3672 -1.2154  1.3329
 7099SOL    HW232934   0.564   4.254   4.618 -1.1025 -0.3695 -0.4310
 7100SOL     OW32935   2.952   4.462  12.793  0.3259 -0.0463  0.1364
 7100SOL    HW132936   2.941   4.521  12.867 -1.9350  1.1885 -1.1881
 7100SOL    HW232937   2.967   4.517  12.716  1.0142 -1.3579 -0.6745
 7101SOL     OW32938   0.247   0.796   6.387  0.1062  0.2255  0.5191
 7101SOL    HW132939   0.210   0.764   6.304 -1.4754 -1.6869  1.9524
 7101SOL    HW232940   0.171   0.805   6.444  0.8409  0.5093  1.4399
 7102SOL     OW32941   4.529   0.680  15.385 -0.5938  0.2270  0.0512
 7102SOL    HW132942   4.503   0.657  15.474 -2.9189  1.2468 -0.3679
 7102SOL    HW232943   4.508   0.773  15.380 -0.7788  0.1606 -0.4659
 7103SOL     OW32944   3.221   0.416  16.482  0.1472  0.1790 -0.1880
 7103SOL    HW132945   3.188   0.327  16.471 -0.7841  0.7292 -1.8859
 7103SOL    HW232946   3.268   0.404  16.565  0.4820 -2.0776 -0.7127
 7104SOL     OW32947   3.517   1.751   5.836 -0.2029 -0.1698 -0.0907
 7104SOL    HW132948   3.569   1.830   5.844 -2.4141  1.3582 -0.8268
 7104SOL    HW232949   3.425   1.776   5.831 -0.3793 -0.5758  1.1761
 7105SOL     OW32950   1.580   4.306  15.559 -0.4466 -0.0215  0.3824
 7105SOL    HW132951   1.627   4.389  15.555 -1.0016  0.1142 -3.0572
 7105SOL    HW232952   1.645   4.246  15.522  1.3074  1.7269  0.6406
 7106SOL     OW32953   1.042   0.846  17.553 -0.2095  0.2210  0.2073
 7106SOL    HW132954   1.114   0.906  17.573  1.3522 -1.8576  0.7157
 7106SOL    HW232955   1.100   0.784  17.510 -2.8324 -2.2327  0.1787
 7107SOL     OW32956   4.219   4.685   5.659 -0.1777  0.0139  0.2516
 7107SOL    HW132957   4.236   4.594   5.683 -0.1828 -0.3001 -0.9426
 7107SOL    HW232958   4.287   4.719   5.717 -1.0016  2.2105 -0.0544
 7108SOL     OW32959   0.562   0.899   5.305 -0.5254 -0.0561 -0.4120
 7108SOL    HW132960   0.633   0.903   5.241 -0.3516 -2.9631 -0.4280
 7108SOL    HW232961   0.614   0.872   5.381 -0.7001  1.5368  0.2621
 7109SOL     OW32962   4.540   2.939   4.457 -0.0642 -0.0912 -0.4181
 7109SOL    HW132963   4.459   2.931   4.508  0.4467  1.0277  0.5877
 7109SOL    HW232964   4.590   3.010   4.497  0.5000  1.3269 -3.6571
 7110SOL     OW32965   0.281   0.053   2.373  0.4528 -0.1281  0.1923
 7110SOL    HW132966   0.326   0.050   2.458  0.6104  0.4408  0.1267
 7110SOL    HW232967   0.195   0.088   2.396  0.7982  1.3263 -0.8062
 7111SOL     OW32968   2.862   1.599  12.033 -0.5141 -0.0688 -0.6883
 7111SOL    HW132969   2.776   1.640  12.039  0.9247  2.8564  0.0048
 7111SOL    HW232970   2.902   1.677  11.994  1.0678 -0.2587  0.5509
 7112SOL     OW32971   1.178   4.394  13.636 -0.3962  0.3867 -0.6638
 7112SOL    HW132972   1.257   4.340  13.640 -1.0351 -0.5639 -0.7264
 7112SOL    HW232973   1.148   4.385  13.727 -1.7388  0.9910 -1.0579
 7113SOL     OW32974   0.533   2.032  16.159 -0.1697  0.7193  0.4632
 7113SOL    HW132975   0.480   2.108  16.132 -1.2356 -0.0569  0.3903
 7113SOL    HW232976   0.623   2.065  16.159  0.7868 -1.9484  1.8140
 7114SOL     OW32977   2.703   0.475  16.849  0.7089  0.2048  0.2231
 7114SOL    HW132978   2.628   0.420  16.828  0.4792  1.3741 -1.9661
 7114SOL    HW232979   2.777   0.420  16.824 -0.8255 -1.0842 -1.5049
 7115SOL     OW32980   0.881   3.314   8.456  0.9144 -0.2896 -0.0931
 7115SOL    HW132981   0.932   3.368   8.517  1.0865 -0.4923 -0.0575
 7115SOL    HW232982   0.932   3.234   8.468 -1.9369 -2.2894 -1.3751
 7116SOL     OW32983   0.337   0.506   8.381 -0.1297 -0.3683 -0.2825
 7116SOL    HW132984   0.397   0.571   8.343 -0.6112 -0.4230 -1.1257
 7116SOL    HW232985   0.335   0.431   8.321 -0.4830 -1.7075  1.4182
 7117SOL     OW32986   0.696   3.298   3.666  0.2389  0.3092 -0.4380
 7117SOL    HW132987   0.741   3.266   3.744 -0.4512 -1.4425 -0.7594
 7117SOL    HW232988   0.620   3.344   3.704  1.3954  1.8471  0.0027
 7118SOL     OW32989   4.237   2.189   5.593 -0.1837 -0.2789  0.5137
 7118SOL    HW132990   4.313   2.243   5.614  0.2504 -0.2880 -1.0597
 7118SOL    HW232991   4.280   2.106   5.613  3.8102  1.4917 -0.7630
 7119SOL     OW32992   3.762   3.088   1.524 -0.2396  0.7127 -0.3410
 7119SOL    HW132993   3.836   3.124   1.573  0.4646 -1.9256  0.5770
 7119SOL    HW232994   3.733   3.023   1.588  0.2034  0.8030 -0.0471
 7120SOL     OW32995   1.823   2.956   6.896  0.4371  0.8100  0.0020
 7120SOL    HW132996   1.891   3.019   6.876 -0.3966  1.8557  0.4876
 7120SOL    HW232997   1.844   2.925   6.984  1.0119  1.0059 -0.0697
 7121SOL     OW32998   1.550   4.650   7.337 -0.2054 -0.2119 -0.4851
 7121SOL    HW132999   1.598   4.695   7.268 -2.3850  0.8592 -1.3102
 7121SOL    HW233000   1.615   4.589   7.372  0.8351  0.7421 -0.7888
 7122SOL     OW33001   2.636   2.625   3.508  0.3068 -0.6074 -0.1032
 7122SOL    HW133002   2.688   2.610   3.429  2.0074 -0.1131  0.9275
 7122SOL    HW233003   2.612   2.538   3.542  1.6754 -0.9089  0.0704
 7123SOL     OW33004   1.752   1.454   8.453 -0.3567  0.1563 -0.8075
 7123SOL    HW133005   1.840   1.425   8.480 -1.0674  0.1468  1.4772
 7123SOL    HW233006   1.751   1.445   8.358 -1.0214 -1.5661 -0.6256
 7124SOL     OW33007   0.974   4.575  16.409 -0.0238  0.1802 -0.0732
 7124SOL    HW133008   0.948   4.527  16.331  0.4510  1.4088 -0.9908
 7124SOL    HW233009   0.921   4.532  16.476 -0.1218  1.6500  0.8007
 7125SOL     OW33010   0.724   2.635   9.200  0.2176 -0.2837 -0.0152
 7125SOL    HW133011   0.779   2.579   9.144  2.0278 -0.0325  1.5238
 7125SOL    HW233012   0.657   2.640   9.131  1.1461 -0.0317 -0.9047
 7126SOL     OW33013   0.961   0.820   5.885  0.1657  0.0495 -0.0857
 7126SOL    HW133014   0.976   0.727   5.866  1.3104  0.4069 -0.9141
 7126SOL    HW233015   0.972   0.835   5.979  0.3070  2.2659 -0.4632
 7127SOL     OW33016   0.378   2.884   1.947 -0.4796 -0.5047  0.1980
 7127SOL    HW133017   0.289   2.895   1.981 -0.7295  1.3935 -1.0896
 7127SOL    HW233018   0.393   2.795   1.980 -0.8568 -0.5990  0.1191
 7128SOL     OW33019   1.823   0.855   9.705  0.6318  0.0729  0.1947
 7128SOL    HW133020   1.774   0.823   9.629 -0.0162 -2.1153  1.5531
 7128SOL    HW233021   1.767   0.929   9.727  1.7214  1.2309 -0.9029
 7129SOL     OW33022   3.304   1.314   5.226 -0.3239  0.0482  0.2282
 7129SOL    HW133023   3.297   1.251   5.154 -2.3799  1.7966 -1.1221
 7129SOL    HW233024   3.399   1.330   5.227 -0.2912 -0.2461  1.6619
 7130SOL     OW33025   4.505   4.508   5.940 -0.3708 -0.3172 -0.0314
 7130SOL    HW133026   4.585   4.510   5.992 -0.4479  2.5802 -0.0149
 7130SOL    HW233027   4.540   4.468   5.860  1.9207  2.0806 -0.2102
 7131SOL     OW33028   4.122   0.605  17.163  0.3423  0.3930  0.5334
 7131SOL    HW133029   4.115   0.519  17.120 -2.6408 -0.5018  2.8331
 7131SOL    HW233030   4.198   0.645  17.121  2.3411 -2.3174  1.4828
 7132SOL     OW33031   4.348   2.352   7.771  0.6878  0.6092 -0.1966
 7132SOL    HW133032   4.365   2.315   7.858  1.1613 -1.5367 -1.1922
 7132SOL    HW233033   4.291   2.281   7.741  0.4594  0.3959  0.7471
 7133SOL     OW33034   1.207   3.948   9.373  0.3824 -0.1180 -0.2162
 7133SOL    HW133035   1.149   3.927   9.300  0.5286 -0.1864 -0.3103
 7133SOL    HW233036   1.162   4.028   9.400 -0.2791 -0.8111  0.7753
 7134SOL     OW33037   4.481   0.176   6.905  0.2500  0.6704 -0.4297
 7134SOL    HW133038   4.559   0.131   6.939 -0.5138  1.1656  1.9558
 7134SOL    HW233039   4.416   0.128   6.954 -0.3286  1.2124 -0.6647
 7135SOL     OW33040   2.127   0.588   9.187 -0.6224 -0.0052  0.1910
 7135SOL    HW133041   2.198   0.650   9.171 -2.0050  1.9736  1.6797
 7135SOL    HW233042   2.092   0.618   9.271 -1.7551  3.3563 -1.4555
 7136SOL     OW33043   2.205   2.934   0.234  0.3987 -0.2180  0.3795
 7136SOL    HW133044   2.267   2.894   0.295 -1.4993 -0.7830  1.9478
 7136SOL    HW233045   2.233   3.025   0.232 -0.7382  0.1508  0.8963
 7137SOL     OW33046   1.528   3.787  13.664  0.0752 -0.1773 -0.1542
 7137SOL    HW133047   1.457   3.851  13.674  1.8184  1.8332 -0.4927
 7137SOL    HW233048   1.592   3.824  13.726  0.0636  0.6021 -0.6015
 7138SOL     OW33049   3.817   2.384  16.698 -0.6977  0.2866  0.1503
 7138SOL    HW133050   3.850   2.431  16.621  0.6972  0.2720  0.7261
 7138SOL    HW233051   3.855   2.443  16.763 -0.9961  2.1009 -1.3153
 7139SOL     OW33052   3.766   1.284  12.886 -0.3871 -0.4738  0.5865
 7139SOL    HW133053   3.836   1.307  12.824 -1.0383 -0.9837 -0.3387
 7139SOL    HW233054   3.820   1.253  12.959 -2.1944 -2.2701  1.1555
 7140SOL     OW33055   2.594   3.458   5.143  0.3836  0.3947 -0.3446
 7140SOL    HW133056   2.676   3.425   5.107  2.4397  2.7206  2.2065
 7140SOL    HW233057   2.562   3.509   5.069 -0.4547 -0.1452 -0.3570
 7141SOL     OW33058   0.959   0.947   2.690  0.2532  0.5218 -0.1218
 7141SOL    HW133059   1.015   0.884   2.644  1.2317  1.3302 -0.0373
 7141SOL    HW233060   0.994   0.942   2.779 -0.3665 -1.1581  0.0329
 7142SOL     OW33061   0.658   1.933  13.999  0.1663 -0.4542  0.0815
 7142SOL    HW133062   0.711   2.012  14.004 -2.2105  1.1850 -0.7527
 7142SOL    HW233063   0.615   1.943  13.914  0.3882  1.7347  0.2213
 7143SOL     OW33064   0.818   4.197   0.989  0.0821  0.4607 -0.2951
 7143SOL    HW133065   0.860   4.159   1.066 -1.7475 -0.4175  0.2721
 7143SOL    HW233066   0.787   4.112   0.956  0.8103  0.9105 -2.1272
 7144SOL     OW33067   1.437   4.727   6.926 -0.3952 -0.2454 -0.0071
 7144SOL    HW133068   1.495   4.684   6.989 -2.2930 -0.0050  1.8847
 7144SOL    HW233069   1.404   0.062   6.982 -0.8051 -0.8867  0.5470
 7145SOL     OW33070   3.345   0.961  11.714  0.2682  0.1061  0.0309
 7145SOL    HW133071   3.302   0.961  11.629  1.9867 -0.9443 -0.8403
 7145SOL    HW233072   3.384   1.048  11.708  1.9026 -0.4316  2.5935
 7146SOL     OW33073   2.839   4.183   6.340 -0.1574 -0.1057 -0.4117
 7146SOL    HW133074   2.887   4.222   6.413  2.1333 -0.4020 -1.7385
 7146SOL    HW233075   2.841   4.253   6.274 -1.6488  0.6377  0.3314
 7147SOL     OW33076   3.834   2.649  12.286 -0.0336 -0.1843 -0.1088
 7147SOL    HW133077   3.779   2.571  12.285 -2.6153  1.6569 -0.1996
 7147SOL    HW233078   3.886   2.622  12.362  0.0711  1.1807  0.3116
 7148SOL     OW33079   0.579   0.989   7.225 -0.0774 -0.3128 -0.0071
 7148SOL    HW133080   0.528   1.042   7.164  1.4361  2.0911  0.7923
 7148SOL    HW233081   0.668   0.987   7.189 -0.5223 -0.7717 -1.0874
 7149SOL     OW33082   2.326   1.454   6.332 -0.3286 -0.0657 -1.0869
 7149SOL    HW133083   2.353   1.511   6.260 -0.0911  0.0404 -0.9122
 7149SOL    HW233084   2.257   1.402   6.290  1.5083 -0.1012 -4.1103
 7150SOL     OW33085   2.852   4.625   3.092 -0.1616 -0.2950 -0.3467
 7150SOL    HW133086   2.815   4.710   3.115  0.0439 -0.7517  1.6611
 7150SOL    HW233087   2.773   4.570   3.096  0.0127 -0.3526  2.1971
 7151SOL     OW33088   0.360   2.485   6.432 -0.3163 -0.0008 -0.2401
 7151SOL    HW133089   0.428   2.457   6.371 -0.4480  1.0814 -0.8791
 7151SOL    HW233090   0.366   2.415   6.498  3.4020 -0.6543 -1.3019
 7152SOL     OW33091   3.062   4.581   6.331  0.2937  0.3489 -0.5730
 7152SOL    HW133092   2.986   4.626   6.366  0.7921  0.7649 -0.0160
 7152SOL    HW233093   3.057   4.615   6.242  1.0226  0.3868 -0.6035
 7153SOL     OW33094   1.314   1.017   2.288 -0.5612 -0.5674  0.0972
 7153SOL    HW133095   1.397   0.985   2.322 -0.5518 -0.7564 -0.1073
 7153SOL    HW233096   1.282   1.069   2.362  0.7433 -1.0793  1.0109
 7154SOL     OW33097   3.861   3.418   3.955  0.4806  0.3791 -0.3154
 7154SOL    HW133098   3.894   3.363   3.885  1.5448 -0.0522  0.5229
 7154SOL    HW233099   3.785   3.458   3.914  0.6947  1.2521  0.1439
 7155SOL     OW33100   1.231   0.050  17.188 -0.3792 -0.2832 -0.1006
 7155SOL    HW133101   1.145   0.067  17.149 -0.7684  1.2838  1.4122
 7155SOL    HW233102   1.290   0.046  17.113 -1.4182 -0.8122 -0.8838
 7156SOL     OW33103   4.030   2.677   4.113 -0.2424 -0.2169 -0.3804
 7156SOL    HW133104   3.949   2.676   4.164 -0.0105  0.2103 -0.0009
 7156SOL    HW233105   4.095   2.725   4.164 -2.3422  1.7193  0.4620
 7157SOL     OW33106   0.605   1.670   3.936 -0.6380 -0.3041  0.1837
 7157SOL    HW133107   0.521   1.626   3.942 -0.6655 -0.0832  1.3689
 7157SOL    HW233108   0.651   1.598   3.892  0.6733  0.3021  0.5530
 7158SOL     OW33109   1.625   0.685   3.988 -0.4761  0.1404  0.0099
 7158SOL    HW133110   1.700   0.744   3.999  0.2081 -1.0395  1.5581
 7158SOL    HW233111   1.548   0.734   4.016 -0.1879  0.8685 -0.4537
 7159SOL     OW33112   3.611   2.995  14.351  0.4838  0.1660  0.1808
 7159SOL    HW133113   3.565   3.078  14.361  3.2876  1.7578 -0.1056
 7159SOL    HW233114   3.593   2.964  14.262  2.5623 -2.1378  0.5659
 7160SOL     OW33115   3.045   2.075   8.973  0.1372 -0.3363 -0.1177
 7160SOL    HW133116   3.020   2.039   8.888  0.4426  0.3206 -0.4860
 7160SOL    HW233117   3.064   2.164   8.942  0.7500 -0.1221  0.8579
 7161SOL     OW33118   1.993   0.959   1.417 -0.2468 -0.3412  0.3471
 7161SOL    HW133119   2.060   0.930   1.478  0.1193  0.4760  0.3234
 7161SOL    HW233120   1.923   0.895   1.428 -1.6695  1.5116  1.9725
 7162SOL     OW33121   0.131   3.622   4.346 -0.2819  0.0136  0.0317
 7162SOL    HW133122   0.103   3.531   4.337  0.6294 -0.1255 -1.5010
 7162SOL    HW233123   0.063   3.670   4.299  1.9559  1.4230 -1.8286
 7163SOL     OW33124   0.389   4.352   5.557 -0.1841  0.3792  0.0194
 7163SOL    HW133125   0.436   4.275   5.526  0.4374  0.6418  0.3261
 7163SOL    HW233126   0.333   4.360   5.480 -1.1085 -0.2690  0.6225
 7164SOL     OW33127   1.822   3.847   3.816 -0.1064  0.1486  0.0388
 7164SOL    HW133128   1.881   3.776   3.790 -0.4624 -0.8113  1.8068
 7164SOL    HW233129   1.834   3.840   3.911 -0.8918 -0.7740  0.0803
 7165SOL     OW33130   1.820   0.093   5.697  0.3456  0.1238 -0.5287
 7165SOL    HW133131   1.901   0.140   5.717  0.8390 -0.7243 -0.5385
 7165SOL    HW233132   1.788   0.080   5.786  0.8996  1.3029 -0.1600
 7166SOL     OW33133   2.791   2.201   5.374 -0.0587 -0.1931  0.5299
 7166SOL    HW133134   2.833   2.159   5.299 -1.9167 -1.3379  0.1253
 7166SOL    HW233135   2.828   2.154   5.449  2.1259  0.1616 -0.3299
 7167SOL     OW33136   3.461   0.908   9.118 -0.2819  0.2521  0.4965
 7167SOL    HW133137   3.447   0.831   9.174  0.6751 -0.9275 -0.8988
 7167SOL    HW233138   3.516   0.881   9.045  2.1091  0.2036  2.3315
 7168SOL     OW33139   0.543   2.806   7.978  0.4501 -0.1473 -0.0515
 7168SOL    HW133140   0.543   2.883   7.921  0.1633 -1.1736 -1.4451
 7168SOL    HW233141   0.594   2.741   7.929 -1.3423 -2.8651  1.6544
 7169SOL     OW33142   2.612   3.666   5.338  0.2348  0.1675 -0.0953
 7169SOL    HW133143   2.531   3.634   5.379 -1.1116  0.9591 -2.1492
 7169SOL    HW233144   2.647   3.584   5.303  1.3462  0.1899  0.9719
 7170SOL     OW33145   2.135   3.448  15.894 -0.5682 -0.3997  0.4203
 7170SOL    HW133146   2.211   3.456  15.837 -0.6603 -0.2200  0.3230
 7170SOL    HW233147   2.065   3.498  15.852  1.2135  0.9913 -0.8896
 7171SOL     OW33148   2.461   2.205   6.990  0.4949  0.7048  0.1575
 7171SOL    HW133149   2.395   2.250   7.043  0.3967  2.9672 -1.9314
 7171SOL    HW233150   2.519   2.169   7.058  0.1678  1.5200  0.8697
 7172SOL     OW33151   1.310   1.048   5.339 -0.2371 -0.2404 -0.1369
 7172SOL    HW133152   1.292   0.966   5.292 -0.2290  0.4095 -1.2847
 7172SOL    HW233153   1.226   1.072   5.378 -0.2438 -0.9860  0.3155
 7173SOL     OW33154   4.429   1.122   8.635 -0.2548  0.0213  0.4915
 7173SOL    HW133155   4.417   1.198   8.692  1.8087 -1.6388  3.1208
 7173SOL    HW233156   4.521   1.100   8.644 -0.2908 -0.1161  0.5310
 7174SOL     OW33157   0.945   3.845   8.998  0.6417 -0.0223 -0.3921
 7174SOL    HW133158   0.988   3.920   8.957 -1.3293  0.9629 -0.6962
 7174SOL    HW233159   1.012   3.777   8.992 -1.6937 -2.1939 -1.7476
 7175SOL     OW33160   0.208   4.510  17.648  0.7052 -1.2387 -0.1002
 7175SOL    HW133161   0.269   4.523  17.575 -0.1677  1.9224 -0.2770
 7175SOL    HW233162   0.204   4.603  17.673 -0.0554 -1.5582  0.9581
 7176SOL     OW33163   0.939   2.028   2.745  0.6350 -0.2866  0.6552
 7176SOL    HW133164   0.871   1.981   2.696 -1.1299  0.0535  2.7842
 7176SOL    HW233165   0.905   2.118   2.746 -0.0838 -0.5503  0.1176
 7177SOL     OW33166   0.271   2.711   6.283 -0.4484  0.0743 -0.4450
 7177SOL    HW133167   0.178   2.693   6.266 -0.9445  1.0974  1.1796
 7177SOL    HW233168   0.302   2.636   6.334 -1.0980  1.2943  1.7550
 7178SOL     OW33169   0.663   1.515  10.081  0.2085 -0.4242 -0.0968
 7178SOL    HW133170   0.741   1.460  10.071  0.8031  1.2209 -4.6035
 7178SOL    HW233171   0.630   1.515   9.992 -0.3121 -0.2611  0.0963
 7179SOL     OW33172   3.617   4.270  11.045  0.0873  0.2670  0.0228
 7179SOL    HW133173   3.643   4.226  11.126 -0.9342 -2.1331 -0.9524
 7179SOL    HW233174   3.661   4.354  11.053  1.2033 -0.3144  0.0176
 7180SOL     OW33175   4.279   2.951   6.796 -0.1769  0.3890  0.0992
 7180SOL    HW133176   4.287   3.043   6.821 -1.9152  0.6194 -0.2223
 7180SOL    HW233177   4.334   2.900   6.856  0.8498  1.7344  0.3157
 7181SOL     OW33178   0.839   4.641   6.506 -0.4467 -0.2277 -0.1187
 7181SOL    HW133179   0.772   4.607   6.565 -0.0738 -1.1149 -0.2027
 7181SOL    HW233180   0.868   4.720   6.551 -0.4670 -0.5485  0.4510
 7182SOL     OW33181   3.983   1.751   3.466  0.8412  0.4194  0.2990
 7182SOL    HW133182   3.929   1.713   3.536 -1.3148  0.8064 -1.1606
 7182SOL    HW233183   4.038   1.815   3.511 -1.1482  0.2896  2.9003
 7183SOL     OW33184   3.460   2.032  13.208  0.1786 -0.2737 -0.5967
 7183SOL    HW133185   3.554   2.016  13.220  1.2874  4.0373 -3.7735
 7183SOL    HW233186   3.443   2.110  13.261  0.4707 -0.1451 -0.6932
 7184SOL     OW33187   1.741   2.205  17.468  0.5344 -0.0142  0.1349
 7184SOL    HW133188   1.802   2.192  17.395  1.0762 -0.9467  0.7492
 7184SOL    HW233189   1.785   2.157  17.538  0.9131  0.6528  0.3562
 7185SOL     OW33190   0.684   4.069   6.949 -0.8864 -0.2734  0.2629
 7185SOL    HW133191   0.692   4.139   7.014  0.0049 -0.0327 -0.1074
 7185SOL    HW233192   0.692   4.114   6.865 -0.6016  0.3881  0.6428
 7186SOL     OW33193   1.490   0.551  12.756 -0.2350 -0.4092  0.0643
 7186SOL    HW133194   1.445   0.476  12.793  0.7108 -0.9421  0.1263
 7186SOL    HW233195   1.522   0.590  12.838  1.2188  2.5124 -1.8739
 7187SOL     OW33196   0.276   3.046   0.812  0.0767  0.3119  0.1877
 7187SOL    HW133197   0.360   3.046   0.767 -0.2011  1.2098 -0.3237
 7187SOL    HW233198   0.238   2.964   0.782 -1.2434  0.3188  1.7984
 7188SOL     OW33199   1.415   1.962   7.468  0.1641  0.1382  0.1657
 7188SOL    HW133200   1.414   2.058   7.464 -1.9614  0.2140  2.2888
 7188SOL    HW233201   1.497   1.947   7.513  1.3261  1.3734 -1.5476
 7189SOL     OW33202   3.414   4.419  15.357  0.3459  0.1546  0.1088
 7189SOL    HW133203   3.350   4.459  15.416  0.7475 -1.0262  1.3228
 7189SOL    HW233204   3.393   4.326  15.364 -0.3115  0.0740 -2.9487
 7190SOL     OW33205   0.908   2.550   1.995 -0.5483  0.7464  0.3179
 7190SOL    HW133206   0.915   2.642   2.020  0.8098  0.1247  2.1979
 7190SOL    HW233207   0.821   2.547   1.955  0.8314 -1.7322 -2.5526
 7191SOL     OW33208   0.193   2.718   5.113  0.3158  0.2733 -0.0100
 7191SOL    HW133209   0.161   2.759   5.032  1.2070  0.7188 -0.1387
 7191SOL    HW233210   0.122   2.654   5.116  1.0025 -0.4711  0.4531
 7192SOL     OW33211   2.571   0.981   5.984  0.2084  0.0304  0.1491
 7192SOL    HW133212   2.527   1.017   6.061  0.0696  0.8099 -0.2921
 7192SOL    HW233213   2.604   0.898   6.019  2.8739  1.9087  2.0980
 7193SOL     OW33214   3.040   2.409  16.714 -0.4517 -0.7421  0.0536
 7193SOL    HW133215   3.042   2.479  16.648 -0.5960 -0.7333  0.0587
 7193SOL    HW233216   3.081   2.463  16.782 -2.2082  2.2804 -1.2360
 7194SOL     OW33217   3.045   2.147  16.554 -0.0025  0.4711  0.1688
 7194SOL    HW133218   3.035   2.242  16.563  1.1709  0.9189 -2.9861
 7194SOL    HW233219   3.141   2.140  16.553 -0.0363 -0.0962  0.8973
 7195SOL     OW33220   3.215   1.811   0.454  0.3264  0.3614 -0.7114
 7195SOL    HW133221   3.310   1.817   0.449  0.5219 -0.9562  1.4629
 7195SOL    HW233222   3.190   1.798   0.363  1.4910  0.0775 -0.9869
 7196SOL     OW33223   2.049   2.043  13.385 -0.2160 -0.0396 -0.8325
 7196SOL    HW133224   2.002   1.986  13.446 -1.1217 -0.5019 -1.9352
 7196SOL    HW233225   1.971   2.083  13.345  0.4084  1.5251 -0.4628
 7197SOL     OW33226   2.577   2.363   3.224  0.2746 -0.7478 -0.0442
 7197SOL    HW133227   2.573   2.443   3.278 -0.0758 -2.1167  1.9645
 7197SOL    HW233228   2.642   2.311   3.271  0.1240 -2.1605 -1.4366
 7198SOL     OW33229   1.395   2.022  12.381  0.0466  0.5317 -0.5506
 7198SOL    HW133230   1.352   1.969  12.449  0.3384 -0.9610 -1.5273
 7198SOL    HW233231   1.314   2.026  12.330 -0.3449 -1.5462 -0.0891
 7199SOL     OW33232   2.073   3.851  13.435 -0.2508 -0.5282  0.1068
 7199SOL    HW133233   2.094   3.763  13.466  3.0024  0.7417  1.5256
 7199SOL    HW233234   1.990   3.825  13.396  0.0155 -1.5199  0.1970
 7200SOL     OW33235   3.190   1.748  15.388  0.1496 -0.4215  0.2788
 7200SOL    HW133236   3.202   1.720  15.479  1.5031  0.1616  0.2791
 7200SOL    HW233237   3.128   1.821  15.388 -1.2748 -1.6341 -1.7052
 7201SOL     OW33238   3.654   4.465   6.360  0.8504  0.4913 -0.0874
 7201SOL    HW133239   3.694   4.466   6.273 -0.8583 -0.4005 -0.8824
 7201SOL    HW233240   3.571   4.509   6.346  2.0082  3.1035  1.3568
 7202SOL     OW33241   3.415   0.828   5.013 -0.2254 -0.1015 -0.1874
 7202SOL    HW133242   3.441   0.912   5.051  0.7780 -0.7019  0.4594
 7202SOL    HW233243   3.465   0.830   4.932 -0.7773 -0.1025 -0.5309
 7203SOL     OW33244   2.220   4.180   8.289  0.5111 -0.0249 -0.4065
 7203SOL    HW133245   2.301   4.144   8.326  0.3864 -0.6442 -0.7183
 7203SOL    HW233246   2.227   4.273   8.306 -0.4051  0.0475 -0.4193
 7204SOL     OW33247   4.181   4.356   0.450  0.3296 -0.4063  0.4646
 7204SOL    HW133248   4.166   4.327   0.360 -0.3596  2.9095 -0.4911
 7204SOL    HW233249   4.264   4.400   0.440  0.6027 -0.9460  0.3372
 7205SOL     OW33250   4.223   0.168  16.484  0.4112 -0.0461 -0.0370
 7205SOL    HW133251   4.182   0.115  16.416  1.3253 -1.3836  0.4442
 7205SOL    HW233252   4.296   0.203  16.432 -0.4276  2.0476  0.2144
 7206SOL     OW33253   3.287   3.336  11.807  0.2345 -0.3498 -0.9059
 7206SOL    HW133254   3.357   3.274  11.786  0.8649  0.7857 -2.1383
 7206SOL    HW233255   3.349   3.409  11.813  1.7339 -1.7568  0.7002
 7207SOL     OW33256   2.471   0.006   2.382  0.4956 -0.4449 -0.2318
 7207SOL    HW133257   2.501   4.657   2.345  2.7262 -0.3506  1.3620
 7207SOL    HW233258   2.434   0.051   2.306 -0.1491 -1.2261 -0.3751
 7208SOL     OW33259   0.444   3.319   1.594 -0.4122  0.2324 -0.1861
 7208SOL    HW133260   0.397   3.270   1.662  0.9402 -1.0642 -0.1739
 7208SOL    HW233261   0.373   3.376   1.563 -2.3435 -1.3102  1.3860
 7209SOL     OW33262   0.548   3.916   4.271 -0.4975  0.0846 -0.2310
 7209SOL    HW133263   0.605   3.983   4.308 -2.0906  1.3788 -0.1136
 7209SOL    HW233264   0.540   3.851   4.341  1.0527 -2.2644 -2.2312
 7210SOL     OW33265   2.152   1.238   4.314 -0.5885 -0.7405  0.1046
 7210SOL    HW133266   2.135   1.177   4.243 -0.9780 -2.6849  1.8734
 7210SOL    HW233267   2.153   1.176   4.387  0.1269 -1.4598 -0.5191
 7211SOL     OW33268   0.697   4.243   7.874  0.0457  0.3463  0.0547
 7211SOL    HW133269   0.694   4.149   7.856  0.1600  0.5310 -0.9145
 7211SOL    HW233270   0.760   4.242   7.946 -1.7907  2.4646  1.7021
 7212SOL     OW33271   0.163   4.539   9.940 -0.4213 -0.4191 -0.1513
 7212SOL    HW133272   0.090   4.597   9.961  0.1558  0.7754 -1.4532
 7212SOL    HW233273   0.233   4.602   9.921 -0.0187 -0.9667 -0.4786
 7213SOL     OW33274   4.523   1.083   5.642  0.4371  0.0937 -0.1301
 7213SOL    HW133275   4.488   1.014   5.585 -0.0616 -1.5570  2.1843
 7213SOL    HW233276   4.442   1.123   5.672  0.1653 -0.5683  0.0230
 7214SOL     OW33277   4.064   2.945  14.242  0.0718 -0.5190  0.4103
 7214SOL    HW133278   4.033   3.022  14.194 -0.5445 -0.2361  1.2601
 7214SOL    HW233279   4.023   2.879  14.187  1.9206  1.1909 -3.0310
 7215SOL     OW33280   0.026   1.050   1.022 -0.0751  0.0576 -0.2001
 7215SOL    HW133281   0.116   1.083   1.022  0.0456 -0.2711  1.9753
 7215SOL    HW233282   0.028   0.979   1.087  1.4258 -0.2172 -0.5324
 7216SOL     OW33283   1.464   0.150   0.450  0.1147 -0.6311 -0.4488
 7216SOL    HW133284   1.433   0.144   0.541  2.2172 -4.0476  0.0560
 7216SOL    HW233285   1.401   0.215   0.420  0.6928  0.1844  0.0955
 7217SOL     OW33286   3.130   3.342   1.971  0.4883  0.3793  0.1926
 7217SOL    HW133287   3.091   3.270   1.922 -3.0133  1.0053  2.0650
 7217SOL    HW233288   3.086   3.420   1.938 -0.5829  0.0762  0.9187
 7218SOL     OW33289   1.148   3.209   8.193  0.2014 -0.1904  0.0440
 7218SOL    HW133290   1.136   3.131   8.247 -1.8056 -0.5765 -0.9681
 7218SOL    HW233291   1.061   3.248   8.204  0.1519  0.0488 -1.1751
 7219SOL     OW33292   4.083   0.027   6.286  0.4882  0.1200 -0.5507
 7219SOL    HW133293   3.998   0.067   6.302 -0.0801 -1.3536  0.1619
 7219SOL    HW233294   4.145   0.076   6.341  0.3214  1.4920 -1.5992
 7220SOL     OW33295   3.809   3.906  15.919  0.0630  0.5192  0.0064
 7220SOL    HW133296   3.720   3.882  15.944  0.7132  0.0744  1.8546
 7220SOL    HW233297   3.791   3.969  15.848 -2.0116 -0.5380 -0.3986
 7221SOL     OW33298   3.459   0.447  16.306 -0.4572  0.1830 -0.0226
 7221SOL    HW133299   3.460   0.534  16.347  2.0165  0.7652 -1.2663
 7221SOL    HW233300   3.388   0.404  16.353 -1.4897  0.7051 -1.0883
 7222SOL     OW33301   0.429   1.545  13.641  0.7431  0.2540 -0.1144
 7222SOL    HW133302   0.390   1.595  13.570  0.4908  0.4888  0.1908
 7222SOL    HW233303   0.364   1.484  13.676 -0.2574  0.5684 -1.4596
 7223SOL     OW33304   0.955   2.297   9.285  0.6359  0.6475  0.0368
 7223SOL    HW133305   0.951   2.236   9.210  2.0657  0.5550  0.0314
 7223SOL    HW233306   0.958   2.379   9.236  0.6450  0.6615  0.0614
 7224SOL     OW33307   3.000   3.340   7.952 -0.3283 -0.7058  0.0960
 7224SOL    HW133308   2.973   3.431   7.963  2.5843  0.0519  0.7214
 7224SOL    HW233309   3.074   3.348   7.893 -0.0457 -1.4358  0.3502
 7225SOL     OW33310   0.334   4.043   4.190 -0.1785 -0.0558  0.1906
 7225SOL    HW133311   0.411   3.987   4.198  0.6920  0.9801 -1.0338
 7225SOL    HW233312   0.271   3.975   4.214 -1.5765  1.0464 -0.3774
 7226SOL     OW33313   1.985   4.083   5.937  0.9449  0.4772 -0.3330
 7226SOL    HW133314   2.024   4.084   6.024 -0.8773  1.7698  0.4715
 7226SOL    HW233315   2.008   3.992   5.917  2.5833  0.7060  0.5283
 7227SOL     OW33316   4.558   1.004   6.879 -0.8667 -0.3212  0.3178
 7227SOL    HW133317   4.550   1.043   6.792 -0.2580  0.3784  0.5767
 7227SOL    HW233318   4.651   1.016   6.896 -0.8032  0.9189 -0.9158
 7228SOL     OW33319   2.126   1.051   2.997  0.5190 -0.0892 -0.4919
 7228SOL    HW133320   2.099   1.142   2.985  0.1701 -0.4151 -2.1396
 7228SOL    HW233321   2.103   1.049   3.090  1.7863  0.2850 -0.1689
 7229SOL     OW33322   2.424   2.794   0.840  0.2182  0.4105 -0.7999
 7229SOL    HW133323   2.367   2.849   0.786 -0.5085  0.2381 -0.2145
 7229SOL    HW233324   2.460   2.734   0.775 -0.1988 -1.1890  0.4524
 7230SOL     OW33325   0.906   2.806   0.641  0.2616 -0.0966  0.4023
 7230SOL    HW133326   0.879   2.771   0.726 -2.1750 -1.3715 -0.8931
 7230SOL    HW233327   0.999   2.787   0.647  1.0175  2.9928 -2.2818
 7231SOL     OW33328   3.428   4.631   0.376 -0.5305  0.1406  0.2808
 7231SOL    HW133329   3.469   4.548   0.354  0.1189  0.3482  0.7092
 7231SOL    HW233330   3.384   4.662   0.297  0.9543  1.7242  0.0769
 7232SOL     OW33331   2.158   2.248   4.295  0.0541  0.2719  0.4052
 7232SOL    HW133332   2.075   2.202   4.302 -0.0235  0.6791  2.0820
 7232SOL    HW233333   2.173   2.253   4.389  1.0550 -2.4826  0.3720
 7233SOL     OW33334   2.011   3.166   6.880  0.4372  0.6904 -0.2981
 7233SOL    HW133335   2.034   3.217   6.802  0.2276 -1.1498 -1.5682
 7233SOL    HW233336   1.976   3.239   6.931 -0.2905  0.6239 -0.7097
 7234SOL     OW33337   4.183   3.206   6.788 -0.1223 -0.3315  0.2889
 7234SOL    HW133338   4.168   3.299   6.808 -2.0668 -0.5611 -0.1391
 7234SOL    HW233339   4.108   3.170   6.836  1.4176  1.2972  3.8870
 7235SOL     OW33340   0.615   1.031   4.687 -0.5649 -0.0157  0.4389
 7235SOL    HW133341   0.591   1.122   4.703  3.4634  0.7587  1.8438
 7235SOL    HW233342   0.627   0.996   4.775 -2.5962  0.7804  1.0434
 7236SOL     OW33343   3.377   3.322  17.527 -0.9318  0.1496  0.0632
 7236SOL    HW133344   3.358   3.405  17.483  0.6364  1.0715  1.1243
 7236SOL    HW233345   3.434   3.355  17.596  0.7710 -0.3429 -1.0864
 7237SOL     OW33346   3.726   3.257  15.165  0.2603  0.1193 -0.5182
 7237SOL    HW133347   3.675   3.176  15.174 -2.0019  1.6345  0.5282
 7237SOL    HW233348   3.748   3.261  15.072  0.6830  0.7164 -0.3961
 7238SOL     OW33349   1.492   3.884   5.343 -0.0666 -0.3178 -0.1473
 7238SOL    HW133350   1.410   3.915   5.383 -0.3240 -0.3210 -0.6745
 7238SOL    HW233351   1.491   3.801   5.390 -0.3146 -0.0104  0.3937
 7239SOL     OW33352   3.390   3.802   8.764 -0.2056 -0.4387 -0.5984
 7239SOL    HW133353   3.295   3.815   8.767 -0.4060 -1.2300 -3.0361
 7239SOL    HW233354   3.394   3.725   8.821 -0.1375 -0.0063 -0.0273
 7240SOL     OW33355   4.631   0.972  16.700 -0.1087  0.1463 -0.1240
 7240SOL    HW133356   4.622   0.919  16.779 -1.3317  0.5922  0.0426
 7240SOL    HW233357   4.725   0.971  16.683 -0.5427 -1.0160 -2.4219
 7241SOL     OW33358   1.574   1.191   2.522 -0.2324  0.0719  0.0256
 7241SOL    HW133359   1.586   1.278   2.561 -0.7618 -0.4618  1.3786
 7241SOL    HW233360   1.517   1.217   2.450  0.3110 -0.9151 -0.7577
 7242SOL     OW33361   0.399   2.011   5.528 -0.2726 -0.5262 -0.0701
 7242SOL    HW133362   0.453   2.006   5.449 -1.0301  0.2443 -0.6366
 7242SOL    HW233363   0.390   1.924   5.566 -1.0556 -0.4971 -0.1834
 7243SOL     OW33364   4.418   1.490   2.883  0.4479  0.3273  0.4700
 7243SOL    HW133365   4.493   1.516   2.936  1.7544 -1.5606 -0.4368
 7243SOL    HW233366   4.445   1.399   2.869 -0.4127  0.1719 -0.1825
 7244SOL     OW33367   2.894   3.059   8.613  0.2519 -0.2552  0.3734
 7244SOL    HW133368   2.912   2.993   8.681  0.8999 -0.1892  0.2632
 7244SOL    HW233369   2.923   3.146   8.643 -0.4423  0.9398 -2.4795
 7245SOL     OW33370   2.353   4.300  13.912  0.1825 -0.0258 -0.2050
 7245SOL    HW133371   2.351   4.373  13.975 -2.4393  0.0661 -0.3667
 7245SOL    HW233372   2.330   4.220  13.960  1.3012  0.6792  1.5137
 7246SOL     OW33373   3.298   3.006   4.257 -0.5286  0.0876 -0.0146
 7246SOL    HW133374   3.205   2.983   4.252 -0.5268  0.2766 -0.9193
 7246SOL    HW233375   3.303   3.034   4.166 -1.2018  0.0377 -0.0687
 7247SOL     OW33376   1.384   4.052   8.896  0.2291  0.0784 -0.1742
 7247SOL    HW133377   1.406   4.141   8.866  2.4821  0.6174  2.9556
 7247SOL    HW233378   1.467   4.009   8.876 -0.5612 -0.0442 -3.1842
 7248SOL     OW33379   2.486   2.204   9.015 -0.5656 -0.1522  0.2519
 7248SOL    HW133380   2.407   2.257   9.020 -1.9699 -1.9675 -2.6889
 7248SOL    HW233381   2.500   2.216   8.921 -1.6843 -0.4869  0.0506
 7249SOL     OW33382   1.189   2.492   9.588  0.3460 -0.3706  0.2379
 7249SOL    HW133383   1.111   2.545   9.578 -0.7122 -1.9658  0.0528
 7249SOL    HW233384   1.256   2.560   9.588  0.7327 -0.7466  0.5607
 7250SOL     OW33385   3.382   3.919   8.119  0.2295  0.4149  0.5113
 7250SOL    HW133386   3.337   3.989   8.166  0.5554  1.7703 -1.1830
 7250SOL    HW233387   3.361   3.934   8.027  2.6903  0.1357 -0.0683
 7251SOL     OW33388   3.955   0.366  10.758  0.0910  0.2740 -0.3015
 7251SOL    HW133389   4.039   0.372  10.712  0.0185  0.0692 -0.4600
 7251SOL    HW233390   3.976   0.323  10.841 -1.5487  1.0476  0.5244
 7252SOL     OW33391   2.922   2.895   0.475 -0.2225 -0.3374  0.2546
 7252SOL    HW133392   2.913   2.919   0.568  0.2956  1.6694 -0.2080
 7252SOL    HW233393   2.974   2.968   0.443  2.4125 -1.5901  1.6583
 7253SOL     OW33394   0.137   0.060   3.011 -0.7227  0.2951  0.0298
 7253SOL    HW133395   0.220   0.046   2.964  0.3319  0.8855  1.7004
 7253SOL    HW233396   0.129   0.155   3.003 -0.5496 -0.0585 -4.5584
 7254SOL     OW33397   3.354   4.324   8.002 -0.1068  0.0049 -0.3080
 7254SOL    HW133398   3.391   4.369   7.926 -0.1331 -2.9123 -2.0848
 7254SOL    HW233399   3.283   4.384   8.026 -0.8544 -1.0949  0.2399
 7255SOL     OW33400   2.740   3.502  17.355  0.1388 -0.1318  0.2421
 7255SOL    HW133401   2.833   3.505  17.377  0.3510  2.2610 -0.9901
 7255SOL    HW233402   2.713   3.517  17.446  0.5308  2.2641 -0.0487
 7256SOL     OW33403   0.408   0.868   3.742  0.0293  0.1995 -0.3214
 7256SOL    HW133404   0.412   0.791   3.685  1.5016 -0.1674  0.2936
 7256SOL    HW233405   0.339   0.831   3.797 -0.1846  1.6686  0.3743
 7257SOL     OW33406   4.389   1.306  17.364  0.2638 -0.1160 -0.3232
 7257SOL    HW133407   4.480   1.301  17.394  0.3892 -1.8038 -0.9976
 7257SOL    HW233408   4.351   1.372  17.423 -0.4571 -0.8346  0.0072
 7258SOL     OW33409   4.719   4.585   5.083 -0.4065 -0.7438 -0.1671
 7258SOL    HW133410   0.038   4.638   5.141 -1.9326  1.6540 -0.9331
 7258SOL    HW233411   4.730   4.504   5.133 -1.8038 -0.5404  0.4837
 7259SOL     OW33412   1.530   4.468   6.228 -0.2274 -0.1038 -0.4806
 7259SOL    HW133413   1.472   4.410   6.277  1.5632 -1.3014  0.2236
 7259SOL    HW233414   1.482   4.487   6.148 -0.5286  2.6965  0.3484
 7260SOL     OW33415   3.781   0.513  11.314  0.3179  0.0723 -0.1544
 7260SOL    HW133416   3.729   0.558  11.247 -0.3830  0.6864  0.7909
 7260SOL    HW233417   3.746   0.556  11.392 -0.5465 -0.9120  0.0054
 7261SOL     OW33418   2.124   2.843   4.370 -0.4073  0.3588  0.0269
 7261SOL    HW133419   2.128   2.762   4.318 -1.9322  0.8417 -0.8164
 7261SOL    HW233420   2.218   2.862   4.370 -0.0897 -1.1729 -1.6955
 7262SOL     OW33421   1.731   0.227   8.100 -0.5615  0.7046  0.0426
 7262SOL    HW133422   1.820   0.205   8.127  0.1102 -0.0425 -2.7479
 7262SOL    HW233423   1.676   0.230   8.178  0.1638 -0.0853  0.5807
 7263SOL     OW33424   2.991   3.842  14.363  0.2898 -0.5399  0.0298
 7263SOL    HW133425   2.932   3.768  14.347 -1.0491  0.0484  2.2620
 7263SOL    HW233426   3.053   3.813  14.429  0.0180 -0.8787  0.1376
 7264SOL     OW33427   4.372   0.765   3.191 -0.4971 -0.0054  0.1301
 7264SOL    HW133428   4.303   0.708   3.225 -1.1453  0.8731  0.2903
 7264SOL    HW233429   4.441   0.699   3.189  1.2880  1.8607  0.2489
 7265SOL     OW33430   4.169   0.302  10.405 -0.5134  0.0082  0.0141
 7265SOL    HW133431   4.231   0.283  10.476  0.3779  1.0257 -0.4731
 7265SOL    HW233432   4.193   0.391  10.379  0.3497 -0.2156  0.0305
 7266SOL     OW33433   0.334   0.790   1.767 -0.4468 -0.3552  0.1053
 7266SOL    HW133434   0.285   0.730   1.823  0.7585  0.9953  2.5991
 7266SOL    HW233435   0.392   0.722   1.731 -0.1621 -0.1795  0.2342
 7267SOL     OW33436   4.583   4.292  12.368  0.0557 -0.7883  0.1907
 7267SOL    HW133437   4.488   4.301  12.371  0.0773 -0.1897 -1.0043
 7267SOL    HW233438   4.594   4.205  12.408 -2.0222 -1.7507 -1.3587
 7268SOL     OW33439   3.527   0.413  11.061  0.2377 -0.0424 -0.0153
 7268SOL    HW133440   3.495   0.360  10.987 -0.1160  0.3113 -0.1158
 7268SOL    HW233441   3.551   0.347  11.126  1.4042  1.9100  1.5233
 7269SOL     OW33442   3.301   1.216   4.408 -0.4245 -0.0539 -0.3347
 7269SOL    HW133443   3.214   1.202   4.371  0.0236 -0.3266 -1.2957
 7269SOL    HW233444   3.316   1.154   4.479 -1.2312  0.5511  0.3669
 7270SOL     OW33445   0.961   4.246   8.044  0.3786  0.2397 -0.0672
 7270SOL    HW133446   0.981   4.153   8.056  1.2862  0.3419 -0.7652
 7270SOL    HW233447   0.961   4.278   8.134  0.0533 -0.8639  0.3175
 7271SOL     OW33448   3.581   2.571   8.614 -0.0097  0.2490  0.0361
 7271SOL    HW133449   3.572   2.493   8.560 -1.4537  0.7238 -0.4083
 7271SOL    HW233450   3.669   2.606   8.603 -1.0004  2.6582 -0.1912
 7272SOL     OW33451   0.535   1.889  16.806  0.0576 -0.5151 -0.0734
 7272SOL    HW133452   0.544   1.963  16.746 -0.6008 -1.6507 -1.5751
 7272SOL    HW233453   0.539   1.934  16.891  3.3019  1.2599 -1.1707
 7273SOL     OW33454   2.291   2.042  16.309 -0.2669  0.9249  0.0688
 7273SOL    HW133455   2.209   2.090  16.303 -0.2489  1.0449  0.8370
 7273SOL    HW233456   2.348   2.118  16.322  0.3504  0.8667 -2.2055
 7274SOL     OW33457   0.111   0.634   7.144 -0.1670 -0.3561  0.7915
 7274SOL    HW133458   0.202   0.663   7.149  0.1860 -1.5389  1.2617
 7274SOL    HW233459   0.128   0.551   7.098  0.7513 -0.8123  1.9506
 7275SOL     OW33460   3.748   1.727   6.707  0.0720 -0.0325  0.4040
 7275SOL    HW133461   3.802   1.754   6.633 -0.8378 -3.0665 -1.3919
 7275SOL    HW233462   3.757   1.632   6.711  0.6341 -0.0398 -0.9919
 7276SOL     OW33463   1.515   0.239   3.636 -0.6107 -0.0990  0.8842
 7276SOL    HW133464   1.587   0.272   3.690 -0.7725  0.9928  0.4212
 7276SOL    HW233465   1.554   0.152   3.624 -0.1858  0.3767 -1.0796
 7277SOL     OW33466   3.774   2.427   4.372 -0.1363 -0.3600 -0.7111
 7277SOL    HW133467   3.774   2.506   4.317 -0.5071 -1.0617 -1.7178
 7277SOL    HW233468   3.706   2.380   4.324  1.3383  0.9716 -4.1351
 7278SOL     OW33469   4.338   0.135   1.782  0.4186  0.0589 -0.3311
 7278SOL    HW133470   4.399   0.065   1.756 -0.1924 -0.3962 -0.5378
 7278SOL    HW233471   4.293   0.160   1.701 -0.3177  0.5187  0.2267
 7279SOL     OW33472   2.152   3.310   1.935  0.0339 -0.3848 -0.5519
 7279SOL    HW133473   2.133   3.396   1.971  0.0708 -2.2948  4.0950
 7279SOL    HW233474   2.116   3.257   2.006 -2.0297 -0.0318 -1.3370
 7280SOL     OW33475   2.395   1.910  11.561 -0.0577  0.1640 -0.1108
 7280SOL    HW133476   2.330   1.889  11.628  0.1377 -1.0939 -0.3164
 7280SOL    HW233477   2.349   1.977  11.509  0.1174  1.6831  1.6835
 7281SOL     OW33478   1.404   1.751   9.288 -0.4916  0.3414 -0.0786
 7281SOL    HW133479   1.445   1.810   9.351  0.2377  0.0730 -0.3108
 7281SOL    HW233480   1.362   1.691   9.350 -2.2456  1.6029 -0.0491
 7282SOL     OW33481   3.777   3.019   8.710  0.0127  0.3689 -0.4412
 7282SOL    HW133482   3.800   2.942   8.762  0.1062  1.4456  1.0904
 7282SOL    HW233483   3.767   2.983   8.622  1.0344 -1.1846  0.0902
 7283SOL     OW33484   0.130   1.328  11.691  0.8138 -0.6974 -0.2616
 7283SOL    HW133485   0.155   1.243  11.656 -2.1545 -2.6000  2.1956
 7283SOL    HW233486   0.036   1.338  11.677  0.8349  0.1345  0.1444
 7284SOL     OW33487   3.384   2.598   5.941 -0.2019 -0.1382 -0.1159
 7284SOL    HW133488   3.343   2.532   5.885 -2.2547  0.9931  0.0590
 7284SOL    HW233489   3.423   2.541   6.008  1.1442  0.9645  0.0277
 7285SOL     OW33490   0.848   1.648   5.167 -0.0775  0.6328 -0.6615
 7285SOL    HW133491   0.803   1.729   5.145 -2.2578  0.1111  1.9632
 7285SOL    HW233492   0.874   1.668   5.256  2.1474 -2.7467 -0.5397
 7286SOL     OW33493   4.329   0.167  10.594 -0.5997 -0.2840 -0.2474
 7286SOL    HW133494   4.423   0.166  10.609 -0.4825 -0.2396 -0.9971
 7286SOL    HW233495   4.318   0.123  10.510  1.0876 -0.1813 -0.5196
 7287SOL     OW33496   4.306   0.089   2.880  0.1396  0.0201 -0.0764
 7287SOL    HW133497   4.215   0.102   2.854  0.3766 -0.3137 -1.1055
 7287SOL    HW233498   4.296   0.118   2.970  1.4710 -0.3600  0.1963
 7288SOL     OW33499   4.055   3.992  14.472 -0.4707 -0.0842 -0.3338
 7288SOL    HW133500   4.043   3.923  14.537 -2.4874  0.2117 -0.3962
 7288SOL    HW233501   4.040   3.941  14.392  0.6116  1.9577 -1.8590
 7289SOL     OW33502   1.985   3.392   3.193 -0.2152 -0.5082  0.3773
 7289SOL    HW133503   1.895   3.408   3.164 -1.0202 -0.8597  2.6417
 7289SOL    HW233504   2.007   3.439   3.273 -0.1127  1.6454 -0.9270
 7290SOL     OW33505   3.860   2.538   3.244  0.3698 -0.1798  0.0645
 7290SOL    HW133506   3.952   2.541   3.270 -0.5017 -0.4078  3.1649
 7290SOL    HW233507   3.851   2.454   3.199 -0.5631 -0.1179  0.1283
 7291SOL     OW33508   1.117   0.562   4.237  0.5655 -0.5247  0.4960
 7291SOL    HW133509   1.063   0.640   4.223 -1.6386 -2.1166  0.2581
 7291SOL    HW233510   1.053   0.499   4.205  0.6298 -0.6635  0.6460
 7292SOL     OW33511   1.366   3.101   2.407 -0.1937  0.1826  0.5705
 7292SOL    HW133512   1.291   3.046   2.428 -0.2492  0.4600  1.0834
 7292SOL    HW233513   1.322   3.163   2.349 -1.5819 -1.1375  0.2173
 7293SOL     OW33514   2.677   2.757   8.351 -0.2176 -0.0576  0.0543
 7293SOL    HW133515   2.655   2.770   8.258  1.2007  2.7731  0.1362
 7293SOL    HW233516   2.707   2.842   8.383 -0.7160 -0.2788  1.1132
 7294SOL     OW33517   0.385   3.621  13.083 -0.0297  0.4471 -0.1580
 7294SOL    HW133518   0.305   3.622  13.030 -0.0222 -2.2471 -0.2392
 7294SOL    HW233519   0.384   3.695  13.144 -2.6220  1.5588 -1.5749
 7295SOL     OW33520   4.400   4.055   2.453  0.0060 -0.3870 -0.0386
 7295SOL    HW133521   4.422   4.147   2.470  2.7036 -0.6764 -1.9799
 7295SOL    HW233522   4.490   4.023   2.446  0.6134  0.9137  1.7661
 7296SOL     OW33523   0.933   3.916   7.011  0.9843  0.1233 -0.0973
 7296SOL    HW133524   0.849   3.962   7.000  0.5803 -0.0693  2.1216
 7296SOL    HW233525   0.902   3.834   7.049 -0.5027  1.4168  1.4995
 7297SOL     OW33526   2.785   3.497   7.050  0.0683 -0.1617  0.1249
 7297SOL    HW133527   2.806   3.455   6.967  3.3778 -1.8450  1.8172
 7297SOL    HW233528   2.711   3.550   7.021 -0.0689 -1.4563 -1.8951
 7298SOL     OW33529   2.658   2.367   2.850 -0.2642  0.1276 -0.6480
 7298SOL    HW133530   2.594   2.307   2.888 -1.4599  0.1875 -2.5147
 7298SOL    HW233531   2.600   2.423   2.798 -2.1258 -1.0635  0.1706
 7299SOL     OW33532   0.887   3.679  12.473 -0.4308  0.0567 -0.3107
 7299SOL    HW133533   0.903   3.772  12.487 -3.8591  0.6829 -0.5239
 7299SOL    HW233534   0.839   3.659  12.554  0.7529  0.4786  0.4956
 7300SOL     OW33535   0.554   4.389   0.372  0.0388  0.1539  0.1470
 7300SOL    HW133536   0.508   4.380   0.456 -0.9706  1.1698 -0.3058
 7300SOL    HW233537   0.551   4.296   0.349 -0.8371  0.6007 -1.5633
 7301SOL     OW33538   1.372   4.404  16.902  0.3292 -0.3313 -0.0755
 7301SOL    HW133539   1.285   4.430  16.934 -0.0194  0.1548 -1.4316
 7301SOL    HW233540   1.398   4.364  16.986 -0.9657  1.7269  1.2987
 7302SOL     OW33541   2.939   2.503   6.595  0.1582 -0.2074 -0.3743
 7302SOL    HW133542   2.858   2.553   6.598  0.1321 -0.2434 -0.4924
 7302SOL    HW233543   2.900   2.415   6.593 -1.8293  0.5779  3.3636
 7303SOL     OW33544   0.502   1.669   5.920 -0.4626 -0.0040  0.3003
 7303SOL    HW133545   0.406   1.673   5.927 -0.3390  3.4029  0.2476
 7303SOL    HW233546   0.517   1.662   6.014  2.2524  0.5007 -0.1001
 7304SOL     OW33547   0.522   1.946  17.680 -0.4100 -0.0922  0.4321
 7304SOL    HW133548   0.542   1.854  17.699 -0.7359 -0.8881 -3.1370
 7304SOL    HW233549   0.603   1.993  17.661 -0.5381  0.4419  1.2140
 7305SOL     OW33550   3.876   0.619   0.150  0.4334 -0.1660 -0.0292
 7305SOL    HW133551   3.962   0.578   0.143 -1.0187 -2.7775 -2.6453
 7305SOL    HW233552   3.899   0.711   0.161  1.8638 -0.6654  1.1488
 7306SOL     OW33553   3.283   3.448   3.578  0.4856  0.6018  0.6384
 7306SOL    HW133554   3.235   3.419   3.500  3.2351 -0.1851 -0.7622
 7306SOL    HW233555   3.370   3.427   3.543  1.0481  3.6790  0.1761
 7307SOL     OW33556   2.174   1.011   5.497 -0.1995 -0.2107  0.2091
 7307SOL    HW133557   2.107   1.025   5.564 -2.3410  0.4898 -2.1047
 7307SOL    HW233558   2.153   0.924   5.464 -1.2527 -0.0089  0.3492
 7308SOL     OW33559   1.169   0.391   5.783 -0.4004  0.3684 -0.3026
 7308SOL    HW133560   1.132   0.306   5.804 -0.9479  1.0025  1.2717
 7308SOL    HW233561   1.086   0.437   5.791 -0.1606  0.6169  0.7796
 7309SOL     OW33562   1.456   0.280   4.655  0.0109  0.1419 -0.1686
 7309SOL    HW133563   1.550   0.287   4.671 -0.1842 -0.7804  1.3202
 7309SOL    HW233564   1.446   0.240   4.568 -2.8335  1.9949 -0.7075
 7310SOL     OW33565   0.230   0.138   3.454 -0.3954  0.2715  0.2859
 7310SOL    HW133566   0.182   0.081   3.515  0.5039 -0.3823  0.3966
 7310SOL    HW233567   0.205   0.098   3.371  2.5479  2.2344 -1.5299
 7311SOL     OW33568   0.415   4.108  10.136  0.1675 -0.5621  0.5730
 7311SOL    HW133569   0.493   4.104  10.192  0.5472  0.7787  0.1444
 7311SOL    HW233570   0.372   4.029  10.169 -1.5931 -0.1149 -0.6920
 7312SOL     OW33571   4.191   0.880   5.611 -0.8294  0.0155 -0.4555
 7312SOL    HW133572   4.107   0.889   5.566 -0.7017  0.2983 -0.6393
 7312SOL    HW233573   4.240   0.950   5.567 -2.2090  1.0429 -0.3613
 7313SOL     OW33574   2.225   3.254   7.888  0.7136 -0.1644 -0.3050
 7313SOL    HW133575   2.206   3.173   7.841 -1.1653  0.1173 -0.0528
 7313SOL    HW233576   2.274   3.292   7.815  0.5847  0.5234 -0.0347
 7314SOL     OW33577   4.526   2.259   6.397 -0.1919 -0.0041  0.0262
 7314SOL    HW133578   4.453   2.316   6.421 -0.1433  0.9685 -2.1476
 7314SOL    HW233579   4.577   2.331   6.359  0.5334  1.3457  3.5052
 7315SOL     OW33580   3.896   4.416   2.194 -0.2144 -0.1177  0.2233
 7315SOL    HW133581   3.900   4.345   2.259 -1.1159 -0.3221  0.0450
 7315SOL    HW233582   3.804   4.431   2.176 -0.8476 -2.1397  1.7385
 7316SOL     OW33583   2.456   2.276  13.569 -0.7069  0.1834 -0.0058
 7316SOL    HW133584   2.362   2.266  13.584 -0.1250 -0.9262  2.9784
 7316SOL    HW233585   2.450   2.360  13.522  0.2273  0.5213  0.4728
 7317SOL     OW33586   1.991   0.298   4.765 -0.3740  0.2389 -0.7130
 7317SOL    HW133587   2.045   0.363   4.810  1.3667  0.5999 -3.3762
 7317SOL    HW233588   1.915   0.356   4.754  0.2601  1.4127  1.1164
 7318SOL     OW33589   1.042   0.835   6.737  0.5131 -0.9463  0.2401
 7318SOL    HW133590   0.965   0.783   6.760 -2.5330  3.3210 -0.3136
 7318SOL    HW233591   0.998   0.884   6.667  1.0704  1.5424  1.6170
 7319SOL     OW33592   2.220   3.365   0.774 -0.3788 -0.1589 -0.0327
 7319SOL    HW133593   2.168   3.352   0.695  0.8138 -0.3374 -0.7927
 7319SOL    HW233594   2.151   3.348   0.838  0.2686 -1.1645  0.4163
 7320SOL     OW33595   4.262   4.335   2.101 -0.1028  0.2051 -0.2953
 7320SOL    HW133596   4.192   4.309   2.161 -1.6378  1.3758 -1.5869
 7320SOL    HW233597   4.324   4.374   2.162 -0.1385  0.0731 -0.1749
 7321SOL     OW33598   2.329   1.664   1.656  0.2883 -0.2969 -0.0123
 7321SOL    HW133599   2.321   1.633   1.746  0.2535  1.8330  0.6956
 7321SOL    HW233600   2.411   1.711   1.664  0.2212 -0.0932 -0.5398
 7322SOL     OW33601   2.873   0.286  16.722  0.3983 -0.7422 -0.5065
 7322SOL    HW133602   2.953   0.290  16.775  0.3311  0.2584 -0.4953
 7322SOL    HW233603   2.874   0.198  16.683 -2.6748 -1.7806  1.7120
 7323SOL     OW33604   0.998   1.705  12.832 -0.0179 -0.1816  0.1273
 7323SOL    HW133605   0.946   1.743  12.761 -0.5724  0.4223  0.8609
 7323SOL    HW233606   0.924   1.669  12.881  0.8712 -0.7276  1.0768
 7324SOL     OW33607   3.696   1.707   5.360 -0.0943  0.3208  0.7451
 7324SOL    HW133608   3.751   1.725   5.436  1.7900 -1.1214 -0.2945
 7324SOL    HW233609   3.715   1.781   5.302  3.4031 -0.3983  1.0286
 7325SOL     OW33610   1.788   3.626   6.422  0.7302 -0.7923  0.0342
 7325SOL    HW133611   1.879   3.655   6.408  1.1707 -1.9648  0.4205
 7325SOL    HW233612   1.780   3.667   6.508  0.3342 -0.0712 -0.3503
 7326SOL     OW33613   0.054   0.439   6.508 -0.1125  0.0750  0.2223
 7326SOL    HW133614   0.005   0.365   6.472 -1.4441  0.1086  1.9871
 7326SOL    HW233615   4.729   0.449   6.582  1.7254 -1.4638  1.9211
 7327SOL     OW33616   2.673   1.511  10.752 -0.1316 -0.2584 -0.1250
 7327SOL    HW133617   2.614   1.447  10.711 -1.8557 -0.7550  3.1807
 7327SOL    HW233618   2.610   1.569  10.793 -0.3946  0.5925 -1.7460
 7328SOL     OW33619   2.322   0.784   2.701  0.8449  0.3166  0.0927
 7328SOL    HW133620   2.289   0.747   2.783 -0.0382 -2.4538 -1.5351
 7328SOL    HW233621   2.293   0.875   2.709 -0.0257 -0.1645  2.5366
 7329SOL     OW33622   0.877   4.257   6.311  0.0821 -0.0477 -0.1396
 7329SOL    HW133623   0.907   4.167   6.319 -0.5074 -0.5690 -3.6362
 7329SOL    HW233624   0.883   4.263   6.215  0.0586  1.0513 -0.0735
 7330SOL     OW33625   1.667   2.961   0.530  0.3892  0.1406  0.2626
 7330SOL    HW133626   1.709   3.037   0.571  0.0381  0.3269  0.2706
 7330SOL    HW233627   1.729   2.943   0.459  1.8758  0.0011  1.5886
 7331SOL     OW33628   2.714   4.629  13.500  0.4594  0.4822  0.4370
 7331SOL    HW133629   2.780   4.577  13.546 -0.2509 -1.5302 -0.8464
 7331SOL    HW233630   2.689   4.701  13.558 -0.3130  0.3410  0.2746
 7332SOL     OW33631   3.972   0.648   1.490  0.2832  0.5207  0.5025
 7332SOL    HW133632   3.877   0.648   1.504  0.2768  2.3096  0.4587
 7332SOL    HW233633   3.995   0.680   1.577  1.8368  1.3042 -0.2119
 7333SOL     OW33634   0.156   0.848   0.637  0.0081 -0.2584  0.1949
 7333SOL    HW133635   0.145   0.943   0.627  1.3254  0.0622  1.8306
 7333SOL    HW233636   0.191   0.826   0.551  0.4874  0.5353  0.1805
 7334SOL     OW33637   0.717   4.280  13.185 -0.1652 -0.0600  0.2228
 7334SOL    HW133638   0.799   4.234  13.202 -0.0538  0.4590  1.0536
 7334SOL    HW233639   0.659   4.258  13.258 -0.4823 -1.8332 -0.5400
 7335SOL     OW33640   4.065   3.521  14.229  0.0043 -0.2199 -0.0835
 7335SOL    HW133641   4.015   3.535  14.149  1.2175 -0.0632 -0.8296
 7335SOL    HW233642   4.145   3.567  14.202  0.6011 -0.3689  1.3815
 7336SOL     OW33643   1.814   1.762   6.780  0.9423  0.4199 -0.0015
 7336SOL    HW133644   1.872   1.741   6.708 -0.3972 -0.1998 -0.9017
 7336SOL    HW233645   1.873   1.818   6.830  0.3769 -0.2096  1.3836
 7337SOL     OW33646   4.325   3.199   6.305  0.5642 -0.1073  0.5855
 7337SOL    HW133647   4.262   3.259   6.265  0.2616 -0.8317 -0.0066
 7337SOL    HW233648   4.318   3.207   6.401  2.3308  2.1210  0.5433
 7338SOL     OW33649   1.087   4.314  13.879 -0.0169  0.0013 -0.1244
 7338SOL    HW133650   1.127   4.395  13.912  1.9524 -0.7501 -0.6989
 7338SOL    HW233651   1.034   4.294  13.956  3.2205 -1.7946  1.6185
 7339SOL     OW33652   3.982   0.198   1.981  0.1179 -0.1084 -0.1113
 7339SOL    HW133653   4.046   0.249   1.931 -0.4366  2.1266  1.5033
 7339SOL    HW233654   4.022   0.113   1.960 -0.8114 -0.4409 -0.5369
 7340SOL     OW33655   2.117   1.436   5.568  0.0267  0.2417 -0.0192
 7340SOL    HW133656   2.179   1.510   5.563 -1.6196  1.5602 -0.8603
 7340SOL    HW233657   2.158   1.399   5.646  0.4705  1.4690  0.3459
 7341SOL     OW33658   1.881   3.002   5.736 -0.4745  0.5520 -0.2718
 7341SOL    HW133659   1.961   2.961   5.704 -0.1576  0.2740  0.8848
 7341SOL    HW233660   1.901   3.087   5.696 -2.1607  1.7438  1.3969
 7342SOL     OW33661   0.257   0.689   2.444 -0.5183  0.0127  0.0858
 7342SOL    HW133662   0.193   0.754   2.473 -0.3985  0.0242  0.3262
 7342SOL    HW233663   0.279   0.648   2.528  0.7928 -0.3009 -0.4162
 7343SOL     OW33664   4.076   4.236   4.959  0.0261  0.2032 -0.2481
 7343SOL    HW133665   4.076   4.300   4.888  3.6424 -1.7675 -2.0105
 7343SOL    HW233666   4.046   4.156   4.915  0.8330  0.5473 -1.4228
 7344SOL     OW33667   1.900   4.716  15.392 -0.1769  0.0301  0.0847
 7344SOL    HW133668   1.946   0.060  15.420 -0.9996  0.7475 -0.6032
 7344SOL    HW233669   1.883   0.005  15.301  1.1429  2.2057  0.4043
 7345SOL     OW33670   0.186   0.536   9.518  0.0650  0.2495  0.6386
 7345SOL    HW133671   0.128   0.557   9.591  0.8496  1.1689  1.0006
 7345SOL    HW233672   0.257   0.503   9.573  2.1087  2.8798 -0.3824
 7346SOL     OW33673   0.198   3.342   7.357 -0.5160  0.3054 -0.0114
 7346SOL    HW133674   0.169   3.357   7.267  1.6642  1.1228 -0.5714
 7346SOL    HW233675   0.167   3.251   7.364  0.4008 -0.4373 -5.0913
 7347SOL     OW33676   0.726   1.334  11.725 -0.5470 -0.2185  0.1888
 7347SOL    HW133677   0.657   1.341  11.791 -1.6588  2.2177 -1.2064
 7347SOL    HW233678   0.800   1.374  11.771  0.8157 -0.0515 -2.1310
 7348SOL     OW33679   2.081   1.363   7.545 -0.0872  0.2012 -0.4112
 7348SOL    HW133680   2.128   1.372   7.628 -0.9967  0.3898  0.0917
 7348SOL    HW233681   2.146   1.397   7.484  0.1985  1.4994  0.6271
 7349SOL     OW33682   0.855   2.889   8.779 -0.0865 -0.0265 -0.0594
 7349SOL    HW133683   0.946   2.916   8.766 -0.8718  2.7941  0.2401
 7349SOL    HW233684   0.813   2.957   8.726 -1.1230 -0.1473  0.6222
 7350SOL     OW33685   1.028   4.216   5.108  0.1044 -0.3854 -0.2336
 7350SOL    HW133686   1.097   4.151   5.095  0.3601  0.2976 -2.3237
 7350SOL    HW233687   1.083   4.288   5.140  0.5696 -0.1989 -1.4139
 7351SOL     OW33688   1.697   2.458   0.092 -0.3421 -0.0895 -0.1491
 7351SOL    HW133689   1.782   2.476   0.131 -0.5111  2.1018 -0.7669
 7351SOL    HW233690   1.659   2.438   0.177  0.4015 -0.1382  0.1703
 7352SOL     OW33691   2.531   3.101   7.017  0.2677  0.0293 -0.1942
 7352SOL    HW133692   2.477   3.067   7.089 -0.9517  1.1268 -0.5957
 7352SOL    HW233693   2.609   3.098   7.073  0.6425  2.0574 -0.6235
 7353SOL     OW33694   2.364   1.280  16.494 -0.5511 -0.0290  0.2334
 7353SOL    HW133695   2.387   1.344  16.561  0.2702 -0.6735  0.5694
 7353SOL    HW233696   2.291   1.244  16.544 -0.5228  0.5431  0.6742
 7354SOL     OW33697   0.588   2.475  16.148 -0.1892  0.3428  0.5992
 7354SOL    HW133698   0.558   2.450  16.061  2.6917  2.0088 -0.8742
 7354SOL    HW233699   0.646   2.400  16.165 -1.2267 -0.5324  0.2867
 7355SOL     OW33700   1.465   3.270   3.179 -0.0628  0.1823 -0.8021
 7355SOL    HW133701   1.493   3.179   3.175 -0.8023 -0.0319 -1.1813
 7355SOL    HW233702   1.448   3.282   3.085 -1.5392 -4.6846 -1.1342
 7356SOL     OW33703   3.303   2.640   4.288 -0.2373  0.2128  0.4643
 7356SOL    HW133704   3.336   2.673   4.371  2.2058 -1.0753  0.0282
 7356SOL    HW233705   3.281   2.549   4.308 -0.3450  0.2029  0.3030
 7357SOL     OW33706   3.987   1.252  10.868 -0.4728  0.0584  0.5003
 7357SOL    HW133707   4.050   1.286  10.931  0.8217  2.5996 -2.1497
 7357SOL    HW233708   3.933   1.204  10.930  0.6645  0.9875  2.1828
 7358SOL     OW33709   2.991   0.536   9.016  1.1358 -0.3118 -0.1595
 7358SOL    HW133710   3.079   0.514   8.986  0.9189 -1.0648 -0.2455
 7358SOL    HW233711   2.948   0.452   9.031  3.3350 -1.4136  0.0628
 7359SOL     OW33712   3.971   3.945  16.574 -0.0422 -0.2300 -0.3003
 7359SOL    HW133713   3.974   3.850  16.561 -0.3773 -0.1052 -1.2345
 7359SOL    HW233714   3.942   3.980  16.490 -2.8484  0.5686  0.9972
 7360SOL     OW33715   2.201   1.583   2.219 -0.9801  0.0035 -0.5092
 7360SOL    HW133716   2.139   1.647   2.186  0.2152  0.4028 -2.0123
 7360SOL    HW233717   2.170   1.514   2.160  0.9018  0.4119 -2.0047
 7361SOL     OW33718   1.269   1.796   5.824 -0.2495 -0.0394 -0.5171
 7361SOL    HW133719   1.338   1.739   5.790 -0.6920 -0.2433 -1.0782
 7361SOL    HW233720   1.231   1.755   5.902 -1.2281  1.2518 -0.3069
 7362SOL     OW33721   0.302   1.906   4.047 -0.2812  0.6081 -0.0330
 7362SOL    HW133722   0.389   1.880   4.077 -1.3775 -1.1990  1.5578
 7362SOL    HW233723   0.247   1.899   4.125 -0.3967  2.0840  0.0325
 7363SOL     OW33724   3.844   1.144   6.764 -0.3541  0.2665 -0.1649
 7363SOL    HW133725   3.882   1.057   6.772  1.1213  1.0495  1.2499
 7363SOL    HW233726   3.789   1.130   6.687 -0.2914  0.7689 -0.2986
 7364SOL     OW33727   3.325   3.882  14.650 -0.0115  0.7140  0.4536
 7364SOL    HW133728   3.247   3.936  14.635 -0.4870 -0.3996 -1.0396
 7364SOL    HW233729   3.390   3.945  14.619  1.4259 -0.6321  0.7244
 7365SOL     OW33730   2.224   4.528  16.423 -0.8909 -0.3309  0.3010
 7365SOL    HW133731   2.295   4.590  16.408  1.6520 -2.4546  3.4134
 7365SOL    HW233732   2.256   4.481  16.500  2.9588 -0.3269 -1.2755
 7366SOL     OW33733   1.178   3.888  14.922 -0.1979  0.5368  0.0389
 7366SOL    HW133734   1.132   3.899  15.005 -1.4139 -0.1009 -0.5607
 7366SOL    HW233735   1.132   3.813  14.885  2.8217 -0.4620 -1.7141
 7367SOL     OW33736   1.227   1.028  14.078 -0.4304  0.4400 -0.4100
 7367SOL    HW133737   1.200   1.048  13.988 -0.3387  1.0857 -0.2949
 7367SOL    HW233738   1.212   0.933  14.080  2.3609 -0.0233 -0.7645
 7368SOL     OW33739   1.597   3.424   8.666 -0.6686 -0.0608  0.0582
 7368SOL    HW133740   1.688   3.394   8.669  0.3257  3.0536  1.5839
 7368SOL    HW233741   1.595   3.488   8.595  0.9687 -1.8847 -1.6394
 7369SOL     OW33742   0.100   0.896   4.565  0.0986  0.4853  0.0968
 7369SOL    HW133743   0.056   0.976   4.594  1.5737  1.2420  0.2588
 7369SOL    HW233744   0.188   0.928   4.545  2.3463 -4.5514  1.9012
 7370SOL     OW33745   3.380   3.763   4.428 -0.1704  0.1153  0.2336
 7370SOL    HW133746   3.460   3.722   4.396 -0.4455  0.3934 -0.7844
 7370SOL    HW233747   3.358   3.694   4.491  1.6569 -1.3024 -0.7057
 7371SOL     OW33748   3.184   3.657   6.173  0.1096 -0.2621 -0.3793
 7371SOL    HW133749   3.147   3.599   6.240  0.9472 -0.3196  0.0284
 7371SOL    HW233750   3.239   3.708   6.232 -1.9058  1.1633  0.2494
 7372SOL     OW33751   2.137   0.167   1.839 -0.7297 -0.5327  0.6030
 7372SOL    HW133752   2.154   0.252   1.880  1.6698 -0.8547  0.2856
 7372SOL    HW233753   2.200   0.114   1.888 -2.1284 -0.5356  2.3999
 7373SOL     OW33754   2.100   2.592  15.723 -0.5648  0.0780  0.3248
 7373SOL    HW133755   2.142   2.506  15.713  0.6743  0.5017  2.0546
 7373SOL    HW233756   2.016   2.562  15.687 -0.3327  0.5794 -0.6473
 7374SOL     OW33757   3.918   2.151  16.461  0.1598 -0.4287 -0.2367
 7374SOL    HW133758   3.847   2.155  16.397  0.6398  0.2760 -0.7441
 7374SOL    HW233759   3.994   2.129  16.406  0.8886  0.6225  0.3420
 7375SOL     OW33760   4.686   3.281   3.459  0.0740 -0.2586 -0.0725
 7375SOL    HW133761   4.630   3.358   3.467  0.8513  0.6136 -3.3779
 7375SOL    HW233762   4.622   3.226   3.414 -0.9411 -0.4910  1.6247
 7376SOL     OW33763   4.683   2.759   8.446 -0.2056 -0.1347  0.3574
 7376SOL    HW133764   0.033   2.761   8.400  0.4390 -0.0744  1.5646
 7376SOL    HW233765   4.642   2.716   8.371  0.5518  0.9767 -0.6912
 7377SOL     OW33766   2.748   2.795   1.922  0.6553  0.2533 -0.2548
 7377SOL    HW133767   2.812   2.847   1.873  0.2712  0.3663 -0.6391
 7377SOL    HW233768   2.797   2.777   2.002 -1.0374 -0.5063  0.6148
 7378SOL     OW33769   1.721   0.333  15.424 -0.0263  0.5131  0.3608
 7378SOL    HW133770   1.757   0.411  15.382  0.4079 -0.4043 -1.0065
 7378SOL    HW233771   1.664   0.290  15.360  1.0132 -0.1951 -0.0844
 7379SOL     OW33772   0.253   0.206   5.694 -0.4807  0.1229  0.3832
 7379SOL    HW133773   0.180   0.166   5.741 -0.8480  1.5340  1.0054
 7379SOL    HW233774   0.305   0.132   5.663  0.9919  1.0066  0.7203
 7380SOL     OW33775   3.492   1.048   7.942  0.1699 -0.0942  0.4112
 7380SOL    HW133776   3.561   1.067   7.879 -0.6776 -0.6944 -0.6993
 7380SOL    HW233777   3.530   0.964   7.968 -2.2776 -0.9704  1.2523
 7381SOL     OW33778   4.725   1.585  11.307 -0.2489  0.3102  0.2870
 7381SOL    HW133779   4.665   1.580  11.233 -0.6442  2.6359  0.4532
 7381SOL    HW233780   4.666   1.539  11.367 -0.2049 -1.4147 -1.0249
 7382SOL     OW33781   0.589   1.358   7.297  0.1220 -0.0636  0.3580
 7382SOL    HW133782   0.610   1.351   7.204  0.5586 -0.6251  0.4975
 7382SOL    HW233783   0.500   1.392   7.306  0.4411  1.0365 -0.5702
 7383SOL     OW33784   0.486   0.876   7.919  0.1240 -0.2526  0.5616
 7383SOL    HW133785   0.451   0.920   7.997 -3.8903  0.6897 -1.7748
 7383SOL    HW233786   0.429   0.800   7.915  0.7451 -0.7652  1.6390
 7384SOL     OW33787   0.486   1.511   2.319 -0.1028  0.0280 -0.2567
 7384SOL    HW133788   0.455   1.576   2.256  1.6048  1.4082  0.3331
 7384SOL    HW233789   0.513   1.445   2.255 -1.2457 -0.1539 -0.5531
 7385SOL     OW33790   0.819   3.394   2.078 -0.2899  0.0607 -0.2417
 7385SOL    HW133791   0.795   3.303   2.093 -1.6835  0.6379  1.0208
 7385SOL    HW233792   0.891   3.382   2.015  0.7223  1.5981  0.6293
 7386SOL     OW33793   1.025   4.544   5.443  0.6735  0.4688  0.1477
 7386SOL    HW133794   0.975   4.552   5.362 -0.5674  0.7799  0.9255
 7386SOL    HW233795   1.027   4.633   5.478 -1.6641  0.9311 -0.9173
 7387SOL     OW33796   1.696   2.775   9.220 -0.6118  0.4380  0.1927
 7387SOL    HW133797   1.689   2.703   9.283  3.3484  0.3835  0.5753
 7387SOL    HW233798   1.627   2.837   9.243 -2.2922 -0.4083 -2.5877
 7388SOL     OW33799   0.688   2.468  17.232  0.2623  0.3688 -0.5286
 7388SOL    HW133800   0.604   2.424  17.214  1.3025 -1.6105 -0.5465
 7388SOL    HW233801   0.699   2.500  17.142 -0.7589 -1.0755 -1.1780
 7389SOL     OW33802   3.279   0.777   2.920  0.2190 -0.1350 -0.1121
 7389SOL    HW133803   3.346   0.748   2.858  1.3871  0.8165  0.7015
 7389SOL    HW233804   3.243   0.858   2.884 -2.1048 -0.4222  1.5515
 7390SOL     OW33805   1.540   1.613  14.853 -0.3031 -0.0807 -0.2980
 7390SOL    HW133806   1.519   1.551  14.783 -0.0423  0.8064 -1.1611
 7390SOL    HW233807   1.462   1.606  14.909 -0.8624 -0.4995 -1.1261
 7391SOL     OW33808   2.799   0.892  17.507 -0.3327 -0.0727  0.0011
 7391SOL    HW133809   2.730   0.939  17.553  0.7294  1.4597 -0.0061
 7391SOL    HW233810   2.783   0.933  17.422  4.7887 -0.5266 -1.1555
 7392SOL     OW33811   0.064   4.174  12.250 -0.4406 -0.2723  0.2515
 7392SOL    HW133812   4.718   4.223  12.270 -0.5460  0.2498 -1.4519
 7392SOL    HW233813   0.099   4.148  12.335 -1.5058  2.5905  1.5874
 7393SOL     OW33814   0.743   2.568  16.362  0.1454  0.0700  0.2339
 7393SOL    HW133815   0.669   2.524  16.321 -0.5647  1.1379  0.3806
 7393SOL    HW233816   0.811   2.559  16.294  0.0857 -2.9634  0.5782
 7394SOL     OW33817   3.135   0.080   2.514 -0.7907 -0.5347  0.2058
 7394SOL    HW133818   3.075   0.147   2.481 -1.0789 -1.1120 -0.4300
 7394SOL    HW233819   3.198   0.135   2.562 -0.7549 -0.4901  0.1078
 7395SOL     OW33820   2.688   2.989  11.250  0.1944 -0.0129  0.1593
 7395SOL    HW133821   2.705   3.008  11.342  0.8549  1.0933 -0.1967
 7395SOL    HW233822   2.621   2.921  11.258  1.6785 -0.9909  4.4879
 7396SOL     OW33823   3.947   1.520  13.012  0.0029  0.3814  0.7139
 7396SOL    HW133824   3.971   1.516  12.919  0.6857 -0.1573  0.9134
 7396SOL    HW233825   3.899   1.602  13.021  1.0384  1.0829 -0.0748
 7397SOL     OW33826   3.997   3.223   5.705 -0.3272 -0.0731  0.4886
 7397SOL    HW133827   3.934   3.236   5.634  0.2444  1.4135  0.2573
 7397SOL    HW233828   3.960   3.141   5.736 -1.7721  0.6641  0.7060
 7398SOL     OW33829   0.905   2.064   4.644  0.3740 -0.1108 -0.4691
 7398SOL    HW133830   0.812   2.045   4.627 -0.2143  0.5983  1.9495
 7398SOL    HW233831   0.918   2.113   4.563 -0.8539  0.5808 -0.2586
 7399SOL     OW33832   3.326   3.718   0.058  0.9601  0.1011  0.0836
 7399SOL    HW133833   3.327   3.808   0.028  1.6483  0.0819  0.0378
 7399SOL    HW233834   3.329   3.665  17.716  1.9078  1.3031 -0.6797
 7400SOL     OW33835   4.323   3.357   1.831  0.1544 -0.2079 -0.4240
 7400SOL    HW133836   4.297   3.312   1.911  0.2487 -1.1148 -0.9049
 7400SOL    HW233837   4.300   3.287   1.770  0.0014  0.0885 -0.7086
 7401SOL     OW33838   3.378   0.425  11.670 -0.3868 -0.0556 -0.4645
 7401SOL    HW133839   3.323   0.374  11.611  0.6961 -0.4513 -1.1434
 7401SOL    HW233840   3.351   0.516  11.662 -1.1073 -0.2827 -0.6183
 7402SOL     OW33841   4.417   2.386   8.444  0.2393  0.0057  0.2687
 7402SOL    HW133842   4.497   2.372   8.393 -1.5857  2.0107 -3.1105
 7402SOL    HW233843   4.446   2.340   8.523  0.5494  0.9282  0.6889
 7403SOL     OW33844   1.912   2.957   7.450 -0.2129 -0.1518 -0.2340
 7403SOL    HW133845   1.832   3.007   7.466 -0.1244 -0.8516  2.4182
 7403SOL    HW233846   1.890   2.864   7.446 -0.4918 -0.0105 -1.9727
 7404SOL     OW33847   4.567   1.358   0.623 -0.3170  0.5268  0.4890
 7404SOL    HW133848   4.580   1.278   0.672 -3.2153 -0.2998 -0.0567
 7404SOL    HW233849   4.626   1.416   0.671 -2.5823  3.0902  0.1995
 7405SOL     OW33850   0.420   0.289   7.365  0.4938 -0.2845 -0.5729
 7405SOL    HW133851   0.497   0.261   7.413  2.3635  3.4344 -1.3677
 7405SOL    HW233852   0.357   0.231   7.409  0.1109 -0.2351 -1.0571
 7406SOL     OW33853   3.004   0.241   0.376  0.0211  0.0739  0.4882
 7406SOL    HW133854   3.002   0.222   0.282  0.1004 -0.8495  0.6726
 7406SOL    HW233855   3.036   0.332   0.378 -0.6459  0.2867  1.3815
 7407SOL     OW33856   2.229   4.149   9.653  0.3346 -0.6652  0.4238
 7407SOL    HW133857   2.146   4.104   9.667 -0.9201  1.3997 -0.3558
 7407SOL    HW233858   2.204   4.225   9.601 -0.6137  0.1107  2.0262
 7408SOL     OW33859   0.995   4.082   4.331 -0.5297 -0.1632 -0.3703
 7408SOL    HW133860   1.048   4.048   4.258  1.2188  2.7797 -0.4909
 7408SOL    HW233861   0.945   4.147   4.281  1.6786  1.6489 -0.2526
 7409SOL     OW33862   3.555   0.144   6.373  0.0827 -0.2550  0.1941
 7409SOL    HW133863   3.569   0.162   6.466 -1.5381  0.0128  0.3755
 7409SOL    HW233864   3.471   0.101   6.385  1.2906 -2.7769 -0.2279
 7410SOL     OW33865   2.440   4.369   9.220 -0.1116  0.2246  0.0360
 7410SOL    HW133866   2.449   4.461   9.243 -0.8560  0.9314 -2.5201
 7410SOL    HW233867   2.525   4.328   9.232 -0.3531  0.4840  2.5734
 7411SOL     OW33868   3.472   4.659   9.234  0.6191 -0.1608  0.3585
 7411SOL    HW133869   3.540   4.721   9.259  0.3474  0.0010  0.7039
 7411SOL    HW233870   3.458   4.609   9.315  0.0871 -2.9266 -1.4382
 7412SOL     OW33871   1.715   0.958   4.188  0.4433 -0.0804 -0.2491
 7412SOL    HW133872   1.646   0.946   4.122  2.1399  0.7175 -2.1806
 7412SOL    HW233873   1.677   1.035   4.229  1.2008 -0.3930  1.0442
 7413SOL     OW33874   0.026   1.044   6.359  0.0422  0.5672 -0.2444
 7413SOL    HW133875   0.007   1.009   6.272 -0.1841  0.2084 -0.0519
 7413SOL    HW233876   4.727   0.976   6.417 -0.3586 -0.5470 -1.7727
 7414SOL     OW33877   3.588   3.480  10.781 -0.2605 -0.0763  0.0655
 7414SOL    HW133878   3.492   3.476  10.783 -0.1867 -2.0230 -0.2572
 7414SOL    HW233879   3.607   3.545  10.714 -0.2221 -1.3792 -1.1821
 7415SOL     OW33880   4.437   4.286  15.241  0.2916  0.2609 -0.6020
 7415SOL    HW133881   4.355   4.294  15.192  0.5732  1.7594 -0.8089
 7415SOL    HW233882   4.436   4.363  15.297 -0.2209  0.3991 -0.8102
 7416SOL     OW33883   4.121   1.528   5.833  0.4342 -0.3423 -0.4056
 7416SOL    HW133884   4.201   1.483   5.860  0.2205 -0.1257  0.5586
 7416SOL    HW233885   4.126   1.507   5.739 -1.5508  0.4084 -0.6769
 7417SOL     OW33886   4.370   0.230   2.496  0.3439 -0.6887 -0.3944
 7417SOL    HW133887   4.294   0.287   2.488  0.8181 -0.5418 -3.8724
 7417SOL    HW233888   4.440   0.270   2.444 -0.7166 -0.9506 -2.0248
 7418SOL     OW33889   2.892   1.187   2.152 -0.4140  0.0104 -0.0095
 7418SOL    HW133890   2.838   1.184   2.073 -0.0295 -1.2483 -0.2335
 7418SOL    HW233891   2.865   1.108   2.199  0.1381  0.3894  0.9433
 7419SOL     OW33892   1.650   0.042   8.792  0.0813  0.2042  0.0636
 7419SOL    HW133893   1.561   0.071   8.810 -0.5575 -1.2897 -0.6512
 7419SOL    HW233894   1.650   0.029   8.697  0.1575  0.3065  0.0506
 7420SOL     OW33895   1.929   1.795  15.243 -0.1104  0.1441  0.3353
 7420SOL    HW133896   1.868   1.861  15.276  2.1381  2.1182  0.6089
 7420SOL    HW233897   1.878   1.762  15.169 -3.0853  1.3767  1.8237
 7421SOL     OW33898   0.768   0.056   7.963  0.1574 -0.1864 -0.7433
 7421SOL    HW133899   0.782   4.703   7.929 -0.2657 -1.8750  3.4453
 7421SOL    HW233900   0.703   0.095   7.905 -0.2641 -0.4781 -0.4660
 7422SOL     OW33901   4.242   2.987   7.175 -0.2872  1.2556 -0.5790
 7422SOL    HW133902   4.254   2.939   7.256 -0.0573  1.3730 -0.5427
 7422SOL    HW233903   4.277   2.934   7.103  0.3446  0.5302  0.2735
 7423SOL     OW33904   1.472   2.204   9.511 -0.3695 -0.2683  0.0969
 7423SOL    HW133905   1.441   2.269   9.447  0.1805  0.1610  0.2648
 7423SOL    HW233906   1.491   2.256   9.589 -0.5488 -2.7380  1.7778
 7424SOL     OW33907   3.749   0.666   0.929 -0.2281 -0.2035 -0.2934
 7424SOL    HW133908   3.728   0.672   0.836 -1.3384  1.9044  0.0946
 7424SOL    HW233909   3.711   0.579   0.944 -1.1795  0.1342 -0.7567
 7425SOL     OW33910   1.796   1.494   7.613  0.0162  0.2791 -0.1913
 7425SOL    HW133911   1.873   1.543   7.584 -0.5246  1.0720 -0.2896
 7425SOL    HW233912   1.827   1.404   7.624  0.5497  0.5674  0.6122
 7426SOL     OW33913   0.343   1.371  10.204  0.8347  0.2313 -0.7637
 7426SOL    HW133914   0.318   1.438  10.140  2.6362  0.2753 -1.4197
 7426SOL    HW233915   0.332   1.426  10.282  1.7978 -0.0813 -0.4156
 7427SOL     OW33916   1.074   3.797  10.569 -0.2119  0.3604  0.2368
 7427SOL    HW133917   1.137   3.768  10.635 -1.4660 -0.3695  1.1059
 7427SOL    HW233918   0.994   3.783  10.619  0.1237  0.3143  0.7592
 7428SOL     OW33919   2.332   1.774   7.899  0.7498  0.1451 -0.2913
 7428SOL    HW133920   2.243   1.751   7.924  0.6581  0.8424  0.0169
 7428SOL    HW233921   2.330   1.867   7.919 -0.6341  0.5460 -2.2909
 7429SOL     OW33922   1.793   3.619   7.714  0.5765  0.9520  0.2244
 7429SOL    HW133923   1.713   3.583   7.752  0.0493 -0.0419 -1.8178
 7429SOL    HW233924   1.772   3.706   7.680  0.9880  0.1474 -2.0724
 7430SOL     OW33925   3.574   3.765   9.750  0.2823 -0.2364 -0.2427
 7430SOL    HW133926   3.549   3.825   9.820 -0.6645 -0.2012 -0.6147
 7430SOL    HW233927   3.576   3.827   9.677 -1.2535  0.4470  0.3036
 7431SOL     OW33928   3.429   0.745   8.013 -0.0111 -0.5998  0.0009
 7431SOL    HW133929   3.405   0.723   7.923  0.4758 -1.4565  0.0803
 7431SOL    HW233930   3.358   0.697   8.056 -0.3194 -1.4695 -1.4778
 7432SOL     OW33931   0.216   2.647   1.897  0.0124  0.0637  0.5499
 7432SOL    HW133932   0.256   2.668   1.813  1.4790 -1.7941  0.7891
 7432SOL    HW233933   0.268   2.571   1.924 -1.8501 -1.4058  0.0698
 7433SOL     OW33934   4.466   3.101  17.672  0.1334 -0.6259 -0.1280
 7433SOL    HW133935   4.391   3.076  17.728 -0.2634  0.2471 -0.2761
 7433SOL    HW233936   4.415   3.091  17.592 -0.2454 -0.2389  0.0662
 7434SOL     OW33937   3.963   1.919   4.451 -0.0495  0.9256  0.0756
 7434SOL    HW133938   4.035   1.977   4.427 -0.2625  1.8408  1.6483
 7434SOL    HW233939   4.006   1.835   4.465 -2.1698 -0.3111 -0.8605
 7435SOL     OW33940   1.205   3.329   9.055  0.2153 -0.3742 -0.0611
 7435SOL    HW133941   1.161   3.255   9.013 -0.2663 -0.3373  0.3765
 7435SOL    HW233942   1.296   3.302   9.066  0.2644  0.3230  1.3009
 7436SOL     OW33943   3.879   3.840  10.263  0.3552 -0.6098 -0.0666
 7436SOL    HW133944   3.837   3.798  10.188 -3.3287  3.8743 -0.5334
 7436SOL    HW233945   3.972   3.836  10.241  0.6815  0.0428  1.1676
 7437SOL     OW33946   3.771   3.713   6.558  0.4101 -0.4996  0.5006
 7437SOL    HW133947   3.844   3.741   6.614 -0.5367 -1.4098  2.1722
 7437SOL    HW233948   3.742   3.793   6.514  1.1721 -0.9682 -0.8636
 7438SOL     OW33949   4.149   1.229  12.982  0.0632  0.4998  0.5166
 7438SOL    HW133950   4.219   1.267  13.036  0.2244  0.2976  0.4524
 7438SOL    HW233951   4.187   1.238  12.895  0.3977 -1.2969  0.4695
 7439SOL     OW33952   0.468   1.705   2.977 -1.0154  0.3264 -0.0618
 7439SOL    HW133953   0.526   1.746   2.912  0.7998 -1.5742  0.3597
 7439SOL    HW233954   0.490   1.758   3.053 -1.1243  0.8200 -0.3743
 7440SOL     OW33955   2.073   0.966   8.415  0.5169  0.0684 -0.5467
 7440SOL    HW133956   2.140   1.006   8.471  0.3536  1.5889 -1.4595
 7440SOL    HW233957   2.117   0.892   8.374 -1.2957  0.1079 -2.5404
 7441SOL     OW33958   3.277   2.289   8.138  0.3326  0.1888  0.0538
 7441SOL    HW133959   3.231   2.210   8.165  0.2686 -0.1599 -1.0551
 7441SOL    HW233960   3.366   2.256   8.130  0.5153  0.5359  0.7059
 7442SOL     OW33961   4.085   3.593   3.838  0.0549  0.7593  0.3264
 7442SOL    HW133962   3.995   3.615   3.860 -0.8487 -0.9093 -1.6298
 7442SOL    HW233963   4.082   3.552   3.751 -2.3058  0.5593  0.4975
 7443SOL     OW33964   3.522   2.514   5.014  0.1038 -0.0183  0.5616
 7443SOL    HW133965   3.577   2.575   5.063  0.7549 -1.2608  1.3763
 7443SOL    HW233966   3.450   2.525   5.076 -0.6598 -0.2165 -0.3006
 7444SOL     OW33967   1.109   4.505  12.024 -0.1296  0.1255 -0.2322
 7444SOL    HW133968   1.055   4.569  12.070  1.5534  0.5741  1.1178
 7444SOL    HW233969   1.066   4.426  12.057 -2.5335  1.1094 -1.0292
 7445SOL     OW33970   1.099   1.055   6.181 -0.0468 -0.4725 -0.2507
 7445SOL    HW133971   1.135   1.072   6.093 -3.7622 -0.0497 -1.6777
 7445SOL    HW233972   1.075   0.963   6.172 -2.0374 -0.0155  0.4973
 7446SOL     OW33973   1.890   2.893   7.950  0.2385 -0.3130 -0.5195
 7446SOL    HW133974   1.959   2.893   8.016 -0.0457  0.3275 -0.2251
 7446SOL    HW233975   1.922   2.957   7.887 -1.1466  0.7606 -0.1234
 7447SOL     OW33976   0.427   1.087   1.994  0.7464  0.1056  0.1807
 7447SOL    HW133977   0.356   1.140   1.957  0.3526 -1.2176 -0.9621
 7447SOL    HW233978   0.504   1.142   2.004 -1.1312  2.9611 -1.2176
 7448SOL     OW33979   1.484   4.473   5.487 -0.2874 -0.1474 -0.2360
 7448SOL    HW133980   1.562   4.526   5.500 -1.4046  1.4776 -0.1036
 7448SOL    HW233981   1.440   4.508   5.564  1.7250  0.9524  0.4000
 7449SOL     OW33982   4.156   3.549   1.482 -0.2712 -0.1196 -0.3558
 7449SOL    HW133983   4.149   3.622   1.543 -0.7621 -1.0450  0.6863
 7449SOL    HW233984   4.064   3.541   1.457  0.0747 -1.9004 -1.0164
 7450SOL     OW33985   2.469   1.859   8.162  0.0105 -0.5126 -0.1331
 7450SOL    HW133986   2.455   1.796   8.091 -0.7568 -1.0736  0.5074
 7450SOL    HW233987   2.551   1.895   8.128  0.2348  0.1766  1.1433
 7451SOL     OW33988   3.630   4.030   1.195  0.3455  0.3883 -0.2320
 7451SOL    HW133989   3.706   4.076   1.232  0.1264  0.7339 -0.2091
 7451SOL    HW233990   3.576   4.008   1.271  2.7224  0.6773  1.5312
 7452SOL     OW33991   1.950   2.642   4.168 -0.4140 -0.4266  0.3379
 7452SOL    HW133992   2.021   2.603   4.219  0.2111  0.1958 -0.0565
 7452SOL    HW233993   1.975   2.734   4.169 -0.6302 -0.3868  1.3307
 7453SOL     OW33994   4.472   4.637   8.887  0.3812  0.4826 -0.1189
 7453SOL    HW133995   4.437   4.548   8.895 -0.4365  0.6098 -2.4550
 7453SOL    HW233996   4.443   4.668   8.973 -0.2971 -2.7730  0.8359
 7454SOL     OW33997   0.127   2.826   7.895 -0.1878 -0.7009 -0.1123
 7454SOL    HW133998   0.058   2.778   7.942  1.5915 -1.9790  1.1961
 7454SOL    HW233999   0.208   2.795   7.936 -0.4008  1.6745  2.0849
 7455SOL     OW34000   0.878   0.636  10.320  0.2007 -0.2899  0.1137
 7455SOL    HW134001   0.899   0.543  10.328 -0.9838 -0.3696  2.2199
 7455SOL    HW234002   0.835   0.652  10.404 -1.2471 -2.6052 -0.1997
 7456SOL     OW34003   2.963   1.392  10.548 -0.3966 -0.0254 -0.4227
 7456SOL    HW134004   2.991   1.363  10.461 -0.0456  0.5845 -0.5074
 7456SOL    HW234005   2.895   1.329  10.574 -1.1083  0.6168 -0.7246
 7457SOL     OW34006   2.269   0.909   6.989  0.3264 -0.0142  0.6580
 7457SOL    HW134007   2.186   0.879   7.027 -0.3318  1.0493  0.0727
 7457SOL    HW234008   2.232   0.983   6.941 -1.6955 -1.6173 -0.2415
 7458SOL     OW34009   3.765   4.645  11.971 -0.8736 -0.2568  0.5134
 7458SOL    HW134010   3.678   4.685  11.982 -0.6245  0.8425 -1.6423
 7458SOL    HW234011   3.811   4.722  12.005 -1.5227  0.3728 -0.0460
 7459SOL     OW34012   4.316   2.960   0.330 -0.2071  0.7716 -0.2543
 7459SOL    HW134013   4.226   2.975   0.358 -0.0124  0.6410  0.4264
 7459SOL    HW234014   4.335   3.042   0.282  2.6686  0.8181  0.9497
 7460SOL     OW34015   2.177   3.996  15.574  0.4932  0.5340 -0.0871
 7460SOL    HW134016   2.248   4.033  15.521  0.1101 -1.0434 -1.7177
 7460SOL    HW234017   2.184   4.058  15.646 -1.5210  0.5463  0.0874
 7461SOL     OW34018   3.539   2.367   1.648 -0.3714 -0.5551 -0.2076
 7461SOL    HW134019   3.576   2.409   1.725  0.4794 -0.8813 -0.4421
 7461SOL    HW234020   3.483   2.436   1.613 -0.4194  0.3971  1.7369
 7462SOL     OW34021   4.714   4.452   3.844  0.1759 -0.1537  1.0339
 7462SOL    HW134022   4.722   4.543   3.874  0.2109  0.7519 -1.7132
 7462SOL    HW234023   4.718   4.399   3.923  0.2926  0.4198  1.4189
 7463SOL     OW34024   1.537   1.960  14.195  0.2823 -0.5495 -0.0651
 7463SOL    HW134025   1.510   2.039  14.243  0.0842 -0.9121  0.4210
 7463SOL    HW234026   1.448   1.930  14.179  0.4734 -1.4507  0.5925
 7464SOL     OW34027   3.597   0.864   5.517 -0.0080 -0.0146  0.0846
 7464SOL    HW134028   3.682   0.854   5.560  0.3156  0.9314 -0.3399
 7464SOL    HW234029   3.541   0.809   5.572 -1.7978 -0.4950 -2.2271
 7465SOL     OW34030   4.677   2.257   8.049 -0.0814  0.3334 -0.7413
 7465SOL    HW134031   4.721   2.172   8.053  0.5127  0.6715 -0.0019
 7465SOL    HW234032   0.005   2.304   7.993  1.9133  0.8005  1.8342
 7466SOL     OW34033   0.498   0.689   6.282  0.4757 -0.5411  0.3791
 7466SOL    HW134034   0.418   0.740   6.295  1.0540  0.4937 -0.1841
 7466SOL    HW234035   0.468   0.628   6.215 -0.2100  0.3295 -0.1023
 7467SOL     OW34036   3.477   2.655  14.429 -0.0581 -0.1712  0.1256
 7467SOL    HW134037   3.570   2.658  14.404  0.3482 -0.4383  1.6246
 7467SOL    HW234038   3.450   2.747  14.432  2.7251  0.7310 -1.2662
 7468SOL     OW34039   3.719   2.685   7.079  0.5159 -0.0238  0.4321
 7468SOL    HW134040   3.739   2.594   7.099 -2.9261 -1.0594 -0.8950
 7468SOL    HW234041   3.809   2.710   7.059  1.3378 -2.8383  0.6902
 7469SOL     OW34042   4.561   1.983   4.960 -0.0599 -0.3498 -0.2791
 7469SOL    HW134043   4.583   1.946   4.875 -0.5364 -0.8844 -0.1738
 7469SOL    HW234044   4.640   1.950   5.004 -0.6582 -0.7533  0.4982
 7470SOL     OW34045   2.358   4.581   5.917 -0.2657  0.2245 -0.0789
 7470SOL    HW134046   2.332   4.592   5.826  3.2849  0.7227 -1.0231
 7470SOL    HW234047   2.377   4.487   5.922 -1.4117  0.0065  0.0333
 7471SOL     OW34048   0.424   2.386   3.411  0.7434  0.2148 -0.2948
 7471SOL    HW134049   0.330   2.382   3.392  1.3297  0.5730 -3.2616
 7471SOL    HW234050   0.443   2.336   3.490 -0.3879  1.0160  0.4894
 7472SOL     OW34051   3.869   3.804   6.849 -0.7717  0.4268  0.0457
 7472SOL    HW134052   3.843   3.879   6.902 -1.2116 -2.2310  3.5956
 7472SOL    HW234053   3.964   3.804   6.838 -0.7973  0.5517 -0.1772
 7473SOL     OW34054   4.345   3.818   5.824 -0.0803 -0.0747  0.2978
 7473SOL    HW134055   4.425   3.865   5.800  0.4202 -0.6361  0.8575
 7473SOL    HW234056   4.371   3.726   5.830 -3.4402 -1.0947 -1.0945
 7474SOL     OW34057   3.865   0.411  12.445  0.0669 -0.3356  0.0897
 7474SOL    HW134058   3.953   0.397  12.409  0.5061  1.5857  0.4056
 7474SOL    HW234059   3.879   0.497  12.486  1.4965  0.1909 -1.4976
 7475SOL     OW34060   0.428   4.658   4.204  0.0867 -0.5714  0.1877
 7475SOL    HW134061   0.471   4.588   4.155 -1.6147 -0.0776 -2.0127
 7475SOL    HW234062   0.349   4.610   4.229 -0.6345  0.7167  0.4080
 7476SOL     OW34063   3.281   1.250   8.459 -0.6403  0.0555 -0.5704
 7476SOL    HW134064   3.364   1.238   8.504  0.9380  0.6267 -3.3224
 7476SOL    HW234065   3.292   1.179   8.395  2.4254  0.7726 -0.8279
 7477SOL     OW34066   2.709   2.594   5.589 -0.6330 -0.1507  0.1913
 7477SOL    HW134067   2.689   2.550   5.507  0.0484 -0.4433  0.1844
 7477SOL    HW234068   2.766   2.531   5.634 -0.1088 -1.2761 -2.0508
 7478SOL     OW34069   3.854   1.583   5.978  0.2319 -0.3474  0.1177
 7478SOL    HW134070   3.895   1.506   5.941 -0.7714 -0.2608 -1.1657
 7478SOL    HW234071   3.892   1.644   5.915  2.1062  1.1324  2.7122
 7479SOL     OW34072   3.184   2.091   1.021 -0.2043 -0.6412 -0.2690
 7479SOL    HW134073   3.131   2.170   1.020 -1.2440 -1.3174  1.3080
 7479SOL    HW234074   3.146   2.038   1.091 -2.0054  1.8466  0.6352
 7480SOL     OW34075   0.595   1.716  15.190 -0.1061  0.6651 -0.0141
 7480SOL    HW134076   0.616   1.809  15.179  2.7090 -0.1618 -1.6246
 7480SOL    HW234077   0.667   1.690  15.247 -0.6945 -2.3114 -0.6602
 7481SOL     OW34078   3.079   3.759   3.946 -0.2810  0.1075  0.2849
 7481SOL    HW134079   2.997   3.797   3.976 -0.7538 -0.8761  0.2493
 7481SOL    HW234080   3.121   3.837   3.909 -0.2846  0.4187  0.9327
 7482SOL     OW34081   0.920   0.414  17.327 -0.1905 -0.4899  0.4636
 7482SOL    HW134082   0.873   0.332  17.338  1.7505 -1.5533  0.7779
 7482SOL    HW234083   0.982   0.387  17.259 -2.3900 -0.0675 -1.7094
 7483SOL     OW34084   3.843   1.996   3.299  1.1343 -0.3252 -0.5292
 7483SOL    HW134085   3.863   1.933   3.368  0.3033  0.1022  0.1002
 7483SOL    HW234086   3.799   2.062   3.352 -0.6220 -2.8467  1.1641
 7484SOL     OW34087   4.323   1.026   9.353 -0.1901 -0.4268  0.0292
 7484SOL    HW134088   4.360   1.044   9.440 -1.1520 -1.0178  0.5552
 7484SOL    HW234089   4.390   1.062   9.294 -0.5823 -0.3634 -0.3798
 7485SOL     OW34090   3.591   1.819   0.902  0.1839 -0.5598 -0.6187
 7485SOL    HW134091   3.682   1.804   0.876 -0.3428  0.3720 -2.9944
 7485SOL    HW234092   3.596   1.860   0.988 -2.2766  0.7979 -1.1166
 7486SOL     OW34093   1.123   1.282   1.925  0.1785  0.4798  0.3402
 7486SOL    HW134094   1.082   1.339   1.990 -0.9651  0.3095 -0.2362
 7486SOL    HW234095   1.131   1.352   1.859 -0.0187  0.7617  0.6166
 7487SOL     OW34096   4.647   4.697   1.154 -0.3762 -0.2464 -0.0838
 7487SOL    HW134097   4.557   4.681   1.183 -0.8213  0.6677 -0.9501
 7487SOL    HW234098   4.680   0.018   1.224  1.7848  0.6978 -1.8471
 7488SOL     OW34099   3.471   4.233   8.410 -0.2613 -0.5546  0.2605
 7488SOL    HW134100   3.471   4.180   8.489  1.6181 -1.3996 -0.3290
 7488SOL    HW234101   3.553   4.198   8.377 -0.0324  1.4319 -1.2688
 7489SOL     OW34102   4.301   1.762   3.164  0.4573  0.3394 -0.3179
 7489SOL    HW134103   4.219   1.738   3.207  0.5919 -0.5953 -0.5900
 7489SOL    HW234104   4.291   1.712   3.083 -1.3681  1.1886 -0.6151
 7490SOL     OW34105   3.925   1.020   5.737  0.4286 -0.6920 -0.2230
 7490SOL    HW134106   3.948   1.039   5.646 -2.1687  0.2265 -0.6849
 7490SOL    HW234107   3.833   0.994   5.726 -0.4352  2.0314  0.5081
 7491SOL     OW34108   0.428   3.587   7.683  0.7329 -0.5385  0.1068
 7491SOL    HW134109   0.410   3.675   7.717 -1.9403 -1.3738  0.8328
 7491SOL    HW234110   0.468   3.597   7.597  0.4157 -0.4104 -0.0269
 7492SOL     OW34111   0.685   2.414   1.062  0.2504  0.2058  0.0946
 7492SOL    HW134112   0.615   2.479   1.061 -0.9269 -1.0646  0.3821
 7492SOL    HW234113   0.684   2.394   0.968  1.0404 -2.0695  0.5654
 7493SOL     OW34114   2.255   2.756  11.209 -0.0665  0.5599 -0.2124
 7493SOL    HW134115   2.197   2.685  11.184  0.7592 -0.5340  0.9486
 7493SOL    HW234116   2.329   2.752  11.149 -0.8085 -3.2839 -0.8637
 7494SOL     OW34117   3.802   3.393   9.588  0.1431 -0.3973  0.0105
 7494SOL    HW134118   3.807   3.463   9.522 -2.7306  2.2504  2.6204
 7494SOL    HW234119   3.721   3.354   9.555  0.7597  0.0401 -2.0140
 7495SOL     OW34120   1.441   1.563   3.505  0.2470 -0.6756  0.0075
 7495SOL    HW134121   1.467   1.620   3.432 -2.6419 -0.8479 -1.1651
 7495SOL    HW234122   1.348   1.583   3.506  0.1750 -1.0403  0.5260
 7496SOL     OW34123   4.722   2.268   5.025 -0.5005 -0.6419  0.0727
 7496SOL    HW134124   4.707   2.224   5.109 -0.8892  1.1078  0.9313
 7496SOL    HW234125   4.635   2.284   4.988  0.9805  3.4459 -1.6140
 7497SOL     OW34126   2.629   0.841   7.726 -0.0640  0.2148  0.4432
 7497SOL    HW134127   2.578   0.786   7.785  0.1948  1.5888  1.9715
 7497SOL    HW234128   2.718   0.819   7.753  0.7281  0.5298 -1.8953
 7498SOL     OW34129   4.468   0.314   8.921  0.0060 -0.0558 -0.3888
 7498SOL    HW134130   4.459   0.241   8.860  3.6829  0.0946 -1.0667
 7498SOL    HW234131   4.374   0.314   8.939  0.5714 -1.7430  2.5476
 7499SOL     OW34132   4.127   4.144   6.821  0.0189  0.5160 -0.1830
 7499SOL    HW134133   4.077   4.089   6.761  2.7624 -2.4625  0.2271
 7499SOL    HW234134   4.061   4.211   6.838 -0.6659 -0.1918 -0.0592
 7500SOL     OW34135   3.642   4.081   3.503 -0.5104  0.0550 -0.3736
 7500SOL    HW134136   3.705   4.014   3.479  1.4219  1.8672 -0.3247
 7500SOL    HW234137   3.613   4.107   3.415 -2.5026 -0.9644 -0.0313
 7501SOL     OW34138   1.208   0.403   2.484  0.0703 -0.5348  0.2855
 7501SOL    HW134139   1.301   0.425   2.487  0.1505 -1.0110  1.2321
 7501SOL    HW234140   1.177   0.469   2.422 -0.5000 -3.3419 -2.4021
 7502SOL     OW34141   1.412   3.755   8.615  0.1289 -0.2043 -0.0285
 7502SOL    HW134142   1.487   3.718   8.569  0.8351  0.8726  0.2642
 7502SOL    HW234143   1.382   3.820   8.551  0.2435 -0.9928 -0.8674
 7503SOL     OW34144   4.381   1.526  12.879 -0.1310  0.6911 -0.9090
 7503SOL    HW134145   4.340   1.441  12.898 -1.4996  2.0545  2.2331
 7503SOL    HW234146   4.308   1.566  12.833 -1.0434 -0.1822 -0.2158
 7504SOL     OW34147   0.312   1.526   3.685  0.7144 -0.5533  0.3516
 7504SOL    HW134148   0.313   1.612   3.726 -2.1818 -0.5599  0.3975
 7504SOL    HW234149   0.405   1.502   3.690  1.2486  1.2160 -1.1278
 7505SOL     OW34150   2.827   4.649   4.626 -0.6671 -0.7819 -0.1557
 7505SOL    HW134151   2.896   4.656   4.560 -0.9885  0.6677 -0.3497
 7505SOL    HW234152   2.795   4.560   4.617 -1.9042 -0.5529  2.0098
 7506SOL     OW34153   4.062   0.705   7.305 -0.3606  0.2530  0.3870
 7506SOL    HW134154   4.091   0.614   7.300  1.4654  0.7954  0.9228
 7506SOL    HW234155   4.074   0.728   7.213  0.7697 -0.1965  0.4159
 7507SOL     OW34156   4.319   3.482   9.813 -0.4183 -0.8666  0.2827
 7507SOL    HW134157   4.225   3.498   9.808 -0.0905  1.2428  0.6874
 7507SOL    HW234158   4.328   3.463   9.907  0.9964 -2.0565 -0.0966
 7508SOL     OW34159   0.986   0.622   5.575 -0.0294  0.5764  0.1043
 7508SOL    HW134160   1.057   0.685   5.592 -0.4716  0.5212  2.1535
 7508SOL    HW234161   0.922   0.659   5.636  0.1045 -2.2158  1.9324
 7509SOL     OW34162   0.309   4.718   6.417  0.4307 -0.3132  0.0352
 7509SOL    HW134163   0.392   4.717   6.463 -0.0783  0.3379  0.9571
 7509SOL    HW234164   0.263   0.044   6.475 -0.9368 -0.0884 -1.2698
 7510SOL     OW34165   0.751   2.264  16.905  0.6744 -0.1998  0.0509
 7510SOL    HW134166   0.734   2.192  16.965  1.9196 -1.6943 -1.4184
 7510SOL    HW234167   0.668   2.254  16.859  2.1257 -4.8160 -1.5005
 7511SOL     OW34168   2.858   0.801  12.613 -0.1061  0.2468 -0.1799
 7511SOL    HW134169   2.937   0.854  12.618 -0.7136  1.1290  0.1087
 7511SOL    HW234170   2.793   0.865  12.584  0.5175  0.9069 -0.1000
 7512SOL     OW34171   0.422   0.857  16.522 -0.1479  0.3754 -0.1332
 7512SOL    HW134172   0.426   0.930  16.460  2.4163  0.7823  0.5119
 7512SOL    HW234173   0.347   0.895  16.569 -0.2215  0.8026 -0.5995
 7513SOL     OW34174   4.016   2.178  17.438 -0.0790  0.6230 -0.5165
 7513SOL    HW134175   3.921   2.180  17.453 -0.1714 -1.5979 -0.7811
 7513SOL    HW234176   4.013   2.164  17.343  1.0396  3.8493 -1.0281
 7514SOL     OW34177   1.057   3.255   6.965  0.2299  0.1973 -0.4966
 7514SOL    HW134178   1.101   3.297   6.891 -1.5049 -0.0926 -1.7044
 7514SOL    HW234179   1.024   3.331   7.014  0.6583 -0.5427  0.9130
 7515SOL     OW34180   0.020   2.392   1.367  0.2900  0.0408 -0.0739
 7515SOL    HW134181   0.098   2.373   1.316 -0.4705 -1.4574 -0.6886
 7515SOL    HW234182   4.682   2.370   1.308  0.8854  0.5723 -1.0009
 7516SOL     OW34183   0.493   0.486   2.015 -0.1588 -0.0911  0.2727
 7516SOL    HW134184   0.560   0.528   2.070  1.0261  0.4131 -1.5757
 7516SOL    HW234185   0.452   0.556   1.964 -0.9309 -2.0595 -1.7929
 7517SOL     OW34186   1.518   0.046   5.034 -0.8089 -0.8365 -0.4544
 7517SOL    HW134187   1.522   4.703   5.090 -1.9996  0.2025  1.0852
 7517SOL    HW234188   1.428   0.041   5.000 -1.7375 -0.0602  1.8989
 7518SOL     OW34189   4.661   0.464   7.306 -0.6555  0.3502  0.6921
 7518SOL    HW134190   4.620   0.544   7.273  0.0674  0.3446 -0.2097
 7518SOL    HW234191   0.017   0.493   7.301 -1.0360  1.5365  0.5623
 7519SOL     OW34192   3.890   3.871   1.309  0.5412  0.1342 -0.4470
 7519SOL    HW134193   3.965   3.820   1.279 -0.8598 -1.5897 -0.9702
 7519SOL    HW234194   3.854   3.819   1.381 -0.2006  0.7167 -0.3923
 7520SOL     OW34195   3.828   2.405   8.024  0.4465 -0.1494  0.0925
 7520SOL    HW134196   3.918   2.380   8.001 -0.2079 -1.3388 -1.1468
 7520SOL    HW234197   3.816   2.363   8.109 -0.5267  1.3502  0.6943
 7521SOL     OW34198   0.629   3.240  15.401 -0.1955  0.3789  0.2147
 7521SOL    HW134199   0.673   3.323  15.417  0.6950 -0.1892  0.7080
 7521SOL    HW234200   0.653   3.204  15.486  0.1848  1.6399  0.6347
 7522SOL     OW34201   1.701   2.392   8.378 -0.0742  0.2014  0.3641
 7522SOL    HW134202   1.785   2.349   8.394 -1.8487 -3.5771 -0.5494
 7522SOL    HW234203   1.719   2.461   8.313  1.8308  0.5251  1.2193
 7523SOL     OW34204   2.770   3.970   8.220 -0.8037 -0.0077 -0.1940
 7523SOL    HW134205   2.861   3.968   8.192 -0.6526  3.2429  0.0372
 7523SOL    HW234206   2.724   3.925   8.149 -0.7122 -0.8116  0.2514
 7524SOL     OW34207   2.739   0.292  11.009 -0.2616  0.0592 -0.0669
 7524SOL    HW134208   2.666   0.254  10.960 -1.9619  0.7422  1.9633
 7524SOL    HW234209   2.813   0.283  10.948  0.0816  1.1339  0.1780
 7525SOL     OW34210   2.914   1.887   8.503  0.3956  0.0222 -0.4794
 7525SOL    HW134211   2.912   1.913   8.595 -1.6278 -0.4759 -0.3732
 7525SOL    HW234212   3.007   1.867   8.498  0.9297  2.1096  1.5477
 7526SOL     OW34213   2.527   1.337   9.705 -0.0604  0.0977 -0.1550
 7526SOL    HW134214   2.449   1.373   9.665  1.1972  0.6192 -2.1294
 7526SOL    HW234215   2.505   1.247   9.730 -1.0016  0.8683  1.7533
 7527SOL     OW34216   0.276   1.864   1.922  0.0473 -0.5556  0.0245
 7527SOL    HW134217   0.244   1.863   1.831  0.9308 -1.9303 -0.2636
 7527SOL    HW234218   0.194   1.832   1.959  0.4444  0.1341  1.4979
 7528SOL     OW34219   2.044   1.797   4.017  0.6252 -0.4694  0.2572
 7528SOL    HW134220   2.132   1.808   4.052  0.7208 -0.7647  0.1077
 7528SOL    HW234221   2.009   1.886   4.027  0.9564 -0.4065  0.8564
 7529SOL     OW34222   2.872   1.694   5.423 -0.2091 -0.3955  0.2885
 7529SOL    HW134223   2.947   1.704   5.364  0.0154  0.2522  0.6905
 7529SOL    HW234224   2.879   1.599   5.434 -2.1761 -0.3254  2.0049
 7530SOL     OW34225   3.475   4.301   4.329 -0.4380 -0.1027 -0.3931
 7530SOL    HW134226   3.410   4.368   4.308 -1.3971 -1.0933 -0.5714
 7530SOL    HW234227   3.521   4.349   4.397 -0.2341 -2.0246  0.8146
 7531SOL     OW34228   2.890   4.497   3.365  0.1608  0.8295 -0.4084
 7531SOL    HW134229   2.880   4.590   3.388  0.4223  0.7567 -0.0002
 7531SOL    HW234230   2.866   4.499   3.272 -0.6566  0.3240 -0.2075
 7532SOL     OW34231   2.169   3.123   4.251 -0.6917 -0.1218  0.3246
 7532SOL    HW134232   2.153   3.049   4.309  0.5651 -2.2581 -2.0270
 7532SOL    HW234233   2.242   3.174   4.287 -2.3095  1.3679  1.4572
 7533SOL     OW34234   2.031   3.642   5.724 -0.3156 -0.0999 -0.3468
 7533SOL    HW134235   2.072   3.615   5.806 -1.4855  1.7996  0.8734
 7533SOL    HW234236   2.068   3.583   5.658  0.0958 -1.7191  1.3286
 7534SOL     OW34237   0.779   3.788  10.334  0.0574 -0.1741  0.6920
 7534SOL    HW134238   0.785   3.696  10.308  1.0036  0.0905 -0.0203
 7534SOL    HW234239   0.865   3.811  10.371  0.6739 -0.2836 -0.6583
 7535SOL     OW34240   3.226   3.445   4.895 -0.0876 -0.2064 -0.5651
 7535SOL    HW134241   3.190   3.359   4.916  0.6783  0.4143  3.2026
 7535SOL    HW234242   3.319   3.428   4.880 -0.3760 -1.9104 -0.4621
 7536SOL     OW34243   0.357   1.853   6.388 -0.6045 -0.2958 -0.2713
 7536SOL    HW134244   0.451   1.857   6.369 -0.7777  0.1893 -1.0312
 7536SOL    HW234245   0.367   1.899   6.472 -0.5592  1.1698 -1.0788
 7537SOL     OW34246   0.734   4.224   8.750 -0.4788  0.0341  0.8563
 7537SOL    HW134247   0.735   4.242   8.844  0.3718  2.7884  0.3447
 7537SOL    HW234248   0.665   4.159   8.758 -0.7363  0.7838  4.5847
 7538SOL     OW34249   1.633   2.943   5.745  0.0131 -0.6001  0.1600
 7538SOL    HW134250   1.721   2.955   5.780  0.0461  2.6967 -1.0696
 7538SOL    HW234251   1.576   3.013   5.777  2.0657  1.0693  0.1531
 7539SOL     OW34252   0.021   4.516   6.121 -0.4024 -0.6568 -0.1407
 7539SOL    HW134253   0.058   4.583   6.064  0.4350 -0.5430  0.5396
 7539SOL    HW234254   0.095   4.487   6.175 -1.0735  1.2764  1.7924
 7540SOL     OW34255   3.408   2.721   4.539 -0.5441 -0.4366  0.0024
 7540SOL    HW134256   3.472   2.792   4.533  0.1213 -0.9612  0.8495
 7540SOL    HW234257   3.447   2.668   4.608 -4.4651 -2.1757  0.8806
 7541SOL     OW34258   2.823   0.841  12.920 -0.2753 -0.1082  0.1002
 7541SOL    HW134259   2.873   0.785  12.860 -1.4480  0.0067 -0.9865
 7541SOL    HW234260   2.735   0.804  12.916 -0.3054  0.0600 -0.7714
 7542SOL     OW34261   3.009   2.508   8.645  0.3960 -0.4428  0.1970
 7542SOL    HW134262   2.954   2.446   8.597 -1.4829 -0.1988  1.9881
 7542SOL    HW234263   3.042   2.458   8.720  1.7189  1.5347  0.9280
 7543SOL     OW34264   1.897   4.459   6.906 -0.2798 -0.5528  0.1351
 7543SOL    HW134265   1.972   4.490   6.855 -0.5987 -0.4760 -0.2937
 7543SOL    HW234266   1.893   4.368   6.876 -2.5446 -1.3797  2.9481
 7544SOL     OW34267   2.172   2.492  10.966 -0.1250 -0.2822 -0.0383
 7544SOL    HW134268   2.195   2.578  10.930 -1.6765  0.0887 -0.1758
 7544SOL    HW234269   2.241   2.430  10.945 -0.6014 -1.1707  1.0450
 7545SOL     OW34270   2.032   1.661   8.927 -0.2744 -0.1170  0.3608
 7545SOL    HW134271   1.956   1.715   8.905  0.6264  1.2426  0.6285
 7545SOL    HW234272   2.084   1.728   8.970 -0.7786 -0.2157  1.1147
 7546SOL     OW34273   1.930   0.211   8.348 -0.0796  0.1462 -0.5045
 7546SOL    HW134274   1.893   0.221   8.436 -0.8476 -2.1504 -0.5637
 7546SOL    HW234275   2.003   0.273   8.346  0.3333 -0.3303 -0.0841
 7547SOL     OW34276   0.366   3.850   8.027 -0.2960  0.1235  0.1540
 7547SOL    HW134277   0.283   3.888   8.057  1.0287  1.2217  2.4062
 7547SOL    HW234278   0.423   3.845   8.104 -0.1769 -0.7407  0.0106
 7548SOL     OW34279   0.430   4.423   6.518  0.1468  0.2860 -0.2498
 7548SOL    HW134280   0.347   4.424   6.566  0.0334 -1.7133 -0.4005
 7548SOL    HW234281   0.428   4.339   6.473  0.1539 -0.3136  0.8655
 7549SOL     OW34282   4.497   3.750   2.759  0.5085 -0.5847  0.4333
 7549SOL    HW134283   4.513   3.686   2.689 -0.9955  0.5911 -0.9936
 7549SOL    HW234284   4.562   3.820   2.747 -0.8303  0.6053  0.1561
 7550SOL     OW34285   0.485   2.011  14.527  0.5521 -0.0819 -0.3135
 7550SOL    HW134286   0.535   2.044  14.451  0.8965 -0.0827 -0.0871
 7550SOL    HW234287   0.554   1.987  14.588  0.3234  1.4027  0.5100
 7551SOL     OW34288   0.182   1.330   4.356 -0.3282  0.1918  0.3679
 7551SOL    HW134289   0.261   1.373   4.325  0.2906 -1.1192  0.1277
 7551SOL    HW234290   0.212   1.242   4.378  0.3868  0.4058  0.2263
 7552SOL     OW34291   3.053   3.564  11.490  0.1076  0.0161  0.1215
 7552SOL    HW134292   3.045   3.526  11.577  1.6275  2.3858  1.3060
 7552SOL    HW234293   2.969   3.533  11.456  0.4480 -0.7350 -0.0192
 7553SOL     OW34294   4.271   0.941   7.361 -0.3503  0.2547 -0.1579
 7553SOL    HW134295   4.189   0.990   7.367  0.4998  1.6800 -0.1466
 7553SOL    HW234296   4.244   0.853   7.386  2.2511  0.2577  2.6463
 7554SOL     OW34297   4.643   1.308   7.933 -0.0834 -0.1969 -0.1732
 7554SOL    HW134298   4.720   1.253   7.947 -0.9025 -1.4972 -0.6575
 7554SOL    HW234299   4.620   1.319   8.025 -0.1301  1.5637 -0.4048
 7555SOL     OW34300   1.154   2.469   2.445 -0.0395 -0.5380 -0.3427
 7555SOL    HW134301   1.199   2.434   2.368  1.2063 -0.5259  0.3944
 7555SOL    HW234302   1.081   2.518   2.405 -0.1338  0.5155  1.1296
 7556SOL     OW34303   1.068   1.518  13.224  0.6171 -0.0079  0.1258
 7556SOL    HW134304   1.085   1.466  13.145 -1.1511 -1.4624  0.7011
 7556SOL    HW234305   1.097   1.603  13.192 -1.1235  0.8568  0.8599
 7557SOL     OW34306   3.215   2.939   1.490 -0.0244  0.1310 -0.4336
 7557SOL    HW134307   3.190   2.909   1.403  2.0819  0.5973 -1.2146
 7557SOL    HW234308   3.133   2.971   1.528 -0.8379 -1.4820 -0.8245
 7558SOL     OW34309   1.515   3.070   0.302 -0.0340 -0.0828  0.2194
 7558SOL    HW134310   1.516   2.998   0.238  2.1887 -1.3677  1.7093
 7558SOL    HW234311   1.561   3.041   0.381  1.1958 -2.4247 -1.3552
 7559SOL     OW34312   0.577   1.205   6.577  0.7911  0.3415 -0.2645
 7559SOL    HW134313   0.539   1.194   6.491  0.3324  1.6103 -0.2305
 7559SOL    HW234314   0.577   1.116   6.611 -3.2194  0.7513  0.7962
 7560SOL     OW34315   4.660   0.494   0.128  0.0453 -0.5302  0.0992
 7560SOL    HW134316   0.015   0.489   0.096 -0.2929 -0.6325 -0.8343
 7560SOL    HW234317   4.637   0.580   0.092  0.5125 -0.1469  0.7254
 7561SOL     OW34318   4.119   3.808  14.890 -0.2842  0.4978 -0.3491
 7561SOL    HW134319   4.051   3.874  14.904 -1.4867 -0.6070 -0.8969
 7561SOL    HW234320   4.147   3.810  14.981  0.2816 -0.7389 -0.5070
 7562SOL     OW34321   3.257   2.893  11.089  0.1944 -0.0697 -0.1474
 7562SOL    HW134322   3.161   2.887  11.091  0.1264  1.4739  0.4733
 7562SOL    HW234323   3.275   2.935  11.005  0.2557 -0.4490 -0.3266
 7563SOL     OW34324   3.155   1.697  14.504 -0.3067 -0.0004 -0.2020
 7563SOL    HW134325   3.090   1.632  14.479  0.9491  0.1982 -4.0864
 7563SOL    HW234326   3.137   1.707  14.597 -0.2868 -0.3397 -0.1616
 7564SOL     OW34327   3.707   2.821   6.277  1.2845 -0.2694 -0.2259
 7564SOL    HW134328   3.658   2.739   6.286 -0.0883  0.9464  3.0486
 7564SOL    HW234329   3.740   2.849   6.362  0.7545  1.2971 -0.5352
 7565SOL     OW34330   0.609   1.515  14.075 -0.6542  0.3768  0.8567
 7565SOL    HW134331   0.703   1.534  14.086 -0.1729  0.9275 -3.8649
 7565SOL    HW234332   0.603   1.522  13.979 -4.1089 -3.4545  0.8409
 7566SOL     OW34333   3.498   2.845   8.642  0.0131  0.2265 -0.3200
 7566SOL    HW134334   3.518   2.753   8.624  1.2187  0.6990 -1.4360
 7566SOL    HW234335   3.498   2.838   8.737  1.6394 -1.1202 -0.4159
 7567SOL     OW34336   1.041   2.375  13.267  0.1173 -0.4336  0.0582
 7567SOL    HW134337   0.963   2.425  13.244  1.1635  0.3918 -1.7053
 7567SOL    HW234338   1.078   2.365  13.179  1.5970 -1.5105  0.7955
 7568SOL     OW34339   4.513   4.686  15.081 -0.2866 -0.0120 -0.2675
 7568SOL    HW134340   4.489   4.661  14.992  1.1952  1.5942 -1.1001
 7568SOL    HW234341   4.586   0.009  15.059 -0.8265  1.0315  0.6266
 7569SOL     OW34342   1.405   4.378   9.527  0.7470  1.2153  0.0495
 7569SOL    HW134343   1.486   4.334   9.552 -1.4354 -1.5446  2.3725
 7569SOL    HW234344   1.381   4.408   9.615 -1.2651 -3.4146  1.0761
 7570SOL     OW34345   3.983   3.176   5.216  0.4132 -0.2629  0.7657
 7570SOL    HW134346   3.921   3.114   5.253 -0.3750 -0.5407 -1.0086
 7570SOL    HW234347   3.940   3.179   5.131 -0.3174  1.0706  1.1875
 7571SOL     OW34348   2.583   1.993  12.571  0.0740  0.7624  0.3260
 7571SOL    HW134349   2.596   2.087  12.557 -0.5503  0.9155  0.7520
 7571SOL    HW234350   2.654   1.966  12.629 -0.9737 -0.3259  1.1125
 7572SOL     OW34351   4.221   1.902   3.526  0.0772 -0.3709  0.4549
 7572SOL    HW134352   4.299   1.931   3.478 -0.6783  2.9879  1.2609
 7572SOL    HW234353   4.190   1.977   3.578  1.3849 -0.0643  0.7888
 7573SOL     OW34354   4.420   3.198   2.832 -0.1835 -0.1340  0.3427
 7573SOL    HW134355   4.454   3.282   2.864  0.7553 -0.4485  0.1870
 7573SOL    HW234356   4.502   3.153   2.854 -0.7072 -0.3331  1.8440
 7574SOL     OW34357   1.315   2.736   2.054 -0.1018  0.4697  0.2295
 7574SOL    HW134358   1.268   2.747   1.971  0.8115 -0.4146 -0.4049
 7574SOL    HW234359   1.243   2.717   2.115 -2.0675 -0.6552 -2.4085
 7575SOL     OW34360   3.426   1.406   1.105 -0.5492  0.6525 -0.1383
 7575SOL    HW134361   3.336   1.381   1.127  0.1086  0.6081  2.4245
 7575SOL    HW234362   3.421   1.413   1.009 -0.1041  2.4280 -0.0263
 7576SOL     OW34363   1.763   4.594   6.567  0.1237 -0.1108 -0.0024
 7576SOL    HW134364   1.818   4.588   6.488 -1.1534 -2.1691 -0.7466
 7576SOL    HW234365   1.824   4.643   6.622  1.1022  0.5992 -1.7365
 7577SOL     OW34366   3.544   2.428   9.032  0.4202 -0.1658  0.2680
 7577SOL    HW134367   3.610   2.368   8.997  0.9549 -0.0795  1.1212
 7577SOL    HW234368   3.470   2.411   8.973  0.2193 -2.1411  1.0695
 7578SOL     OW34369   2.980   3.197  17.468  0.1445  0.3437 -0.3233
 7578SOL    HW134370   3.003   3.116  17.514  1.8315  1.4780  0.8649
 7578SOL    HW234371   2.885   3.185  17.460  0.1798  0.0222 -0.2614
 7579SOL     OW34372   0.088   2.642   5.926  0.4851 -0.0701 -0.2293
 7579SOL    HW134373   0.181   2.621   5.921 -0.0052 -2.2496 -0.0687
 7579SOL    HW234374   0.055   2.653   5.837  2.8817 -1.1259 -1.2548
 7580SOL     OW34375   0.240   2.398   2.241  0.0544 -0.5500 -0.0115
 7580SOL    HW134376   0.259   2.311   2.274 -1.0656 -0.4360  0.9217
 7580SOL    HW234377   0.148   2.381   2.225  0.2015  1.5638 -3.1562
 7581SOL     OW34378   3.818   3.527   5.341 -0.0708 -0.0560  0.0948
 7581SOL    HW134379   3.827   3.541   5.435 -1.7409  1.5062  0.0029
 7581SOL    HW234380   3.739   3.473   5.336  0.8795 -1.5001  0.3814
 7582SOL     OW34381   3.265   4.330   3.092  0.0114  0.3978 -0.5253
 7582SOL    HW134382   3.234   4.288   3.012  0.1510  1.5672 -1.1870
 7582SOL    HW234383   3.191   4.383   3.121 -0.8839 -1.9692  1.4828
 7583SOL     OW34384   1.670   1.349   6.941  0.0619 -0.0415  0.9909
 7583SOL    HW134385   1.616   1.419   6.907  0.6934  0.2397  0.5563
 7583SOL    HW234386   1.732   1.402   6.992  0.8686  0.2359 -0.2689
 7584SOL     OW34387   0.981   3.005   7.048 -0.1207  0.7933 -0.0120
 7584SOL    HW134388   1.057   2.956   7.082  0.1825  1.1058 -0.2369
 7584SOL    HW234389   1.014   3.095   7.044  1.6911 -0.0001 -3.3958
 7585SOL     OW34390   3.005   1.599   2.404 -0.7414  0.3399 -0.2085
 7585SOL    HW134391   3.004   1.682   2.357  0.2352  1.1109  1.1302
 7585SOL    HW234392   2.916   1.564   2.393 -1.3920  2.4281 -1.4476
 7586SOL     OW34393   0.697   0.879   9.075 -0.1709 -0.0513 -0.3795
 7586SOL    HW134394   0.762   0.948   9.076 -1.6780  1.3175  1.8993
 7586SOL    HW234395   0.652   0.869   8.991  0.0884  2.0278 -0.7510
 7587SOL     OW34396   2.343   2.298   3.086  0.3610 -0.2505 -0.0405
 7587SOL    HW134397   2.406   2.338   3.147  0.9082 -1.4960  0.2170
 7587SOL    HW234398   2.338   2.208   3.116 -1.5784 -0.1916 -0.2266
 7588SOL     OW34399   2.297   1.275   5.268 -0.2882 -0.4928 -0.3076
 7588SOL    HW134400   2.286   1.241   5.356 -0.8725  1.3470  0.3245
 7588SOL    HW234401   2.384   1.316   5.275  0.5450 -2.5528  1.2010
 7589SOL     OW34402   0.896   4.502  16.112 -0.0229  0.3436  1.0934
 7589SOL    HW134403   0.912   4.409  16.099  0.6636  0.7060 -0.6041
 7589SOL    HW234404   0.932   4.535  16.030  0.5001 -3.0769 -0.0357
 7590SOL     OW34405   2.237   3.421   3.107  0.1878  0.4701  0.6111
 7590SOL    HW134406   2.154   3.398   3.149 -1.9064  2.0815 -2.6362
 7590SOL    HW234407   2.210   3.456   3.022 -0.6311 -1.4523  0.0901
 7591SOL     OW34408   1.494   0.709   1.959 -0.3688 -0.3428 -0.4971
 7591SOL    HW134409   1.515   0.639   2.020 -2.3932 -0.2296  0.3068
 7591SOL    HW234410   1.439   0.772   2.006  0.4276 -0.3793  0.4893
 7592SOL     OW34411   1.170   1.650   3.459  0.4971  0.0857 -0.3896
 7592SOL    HW134412   1.207   1.738   3.465  0.5912 -0.0712  1.3320
 7592SOL    HW234413   1.107   1.675   3.391 -0.8965 -0.5389  0.6948
 7593SOL     OW34414   0.492   0.683   8.603 -0.3620  1.5795 -0.1760
 7593SOL    HW134415   0.547   0.610   8.629 -1.5827  0.0533 -1.8399
 7593SOL    HW234416   0.515   0.756   8.660 -0.2147  0.4082  1.2512
 7594SOL     OW34417   1.822   4.349  15.751  0.7772 -0.5950 -0.4789
 7594SOL    HW134418   1.895   4.380  15.804  1.9758 -1.3084 -1.7292
 7594SOL    HW234419   1.819   4.400  15.670 -3.2211 -0.7504 -0.4232
 7595SOL     OW34420   2.639   2.769   6.245 -0.3648 -0.2396 -0.2900
 7595SOL    HW134421   2.571   2.754   6.311  0.1858  1.6383  0.7201
 7595SOL    HW234422   2.627   2.694   6.188 -0.2594 -1.3748  1.1885
 7596SOL     OW34423   4.531   3.856   5.601  0.3837  0.5155 -0.2798
 7596SOL    HW134424   4.623   3.831   5.609 -0.0511 -1.0030  0.1679
 7596SOL    HW234425   4.519   3.865   5.506 -1.1873 -2.8192 -0.4057
 7597SOL     OW34426   3.900   3.690   8.380 -0.0355  0.1360  0.2977
 7597SOL    HW134427   3.847   3.649   8.448 -1.6574  2.8303  0.6303
 7597SOL    HW234428   3.853   3.773   8.373 -3.1919 -1.7309 -0.5113
 7598SOL     OW34429   1.840   4.436  12.779 -0.1539 -0.3896  0.2526
 7598SOL    HW134430   1.856   4.479  12.863  1.1315 -0.5824  0.1022
 7598SOL    HW234431   1.903   4.479  12.721  0.1119  0.2020  0.9796
 7599SOL     OW34432   4.724   1.693   3.994  0.3673 -0.0909  0.7534
 7599SOL    HW134433   0.050   1.700   4.067  0.3652  1.1354  0.6324
 7599SOL    HW234434   4.654   1.647   4.041 -0.1059 -0.2626 -0.1211
 7600SOL     OW34435   3.061   1.725   7.704  0.7657  0.1259 -0.1380
 7600SOL    HW134436   3.156   1.736   7.706  0.6870  0.3742  2.9079
 7600SOL    HW234437   3.051   1.647   7.649 -0.4448 -0.0330  0.3121
 7601SOL     OW34438   1.449   2.840  17.232 -0.1390  0.6073 -0.3423
 7601SOL    HW134439   1.410   2.755  17.210  1.6361 -0.5753  1.0307
 7601SOL    HW234440   1.447   2.823  17.326 -0.0966 -1.9204 -0.7792
 7602SOL     OW34441   2.828   1.582   5.773  0.2782  0.4075  0.3519
 7602SOL    HW134442   2.897   1.539   5.824  1.2473 -1.4441 -2.5337
 7602SOL    HW234443   2.746   1.545   5.807  1.6753 -1.1433  2.0492
 7603SOL     OW34444   3.866   4.628   3.927  0.6973 -0.1510 -0.0237
 7603SOL    HW134445   3.799   4.673   3.876  1.0503  1.0899  0.6226
 7603SOL    HW234446   3.824   4.548   3.958  3.2223 -0.6340  2.1060
 7604SOL     OW34447   0.523   0.423   7.740 -0.3669 -0.0877 -0.8133
 7604SOL    HW134448   0.529   0.343   7.688  1.0764 -0.7191  0.3133
 7604SOL    HW234449   0.593   0.476   7.703 -1.2476 -1.1342 -3.9302
 7605SOL     OW34450   1.380   0.794   2.585 -0.5719 -0.1965  0.0282
 7605SOL    HW134451   1.285   0.805   2.586 -0.6718 -1.0890  0.4179
 7605SOL    HW234452   1.389   0.742   2.665  2.0404  2.1937  1.2889
 7606SOL     OW34453   4.381   2.127   1.297 -0.0513 -0.0220 -0.0667
 7606SOL    HW134454   4.296   2.113   1.339 -0.8558 -1.3436 -2.1671
 7606SOL    HW234455   4.392   2.040   1.259  1.2648  0.7923 -1.5026
 7607SOL     OW34456   1.590   3.322   9.887 -0.3534 -0.0012  0.8549
 7607SOL    HW134457   1.506   3.276   9.882 -1.4072  2.1927 -1.5295
 7607SOL    HW234458   1.631   3.275   9.960  0.3865 -1.4094 -0.4810
 7608SOL     OW34459   2.554   1.852   6.674 -0.5711  0.0501 -0.2729
 7608SOL    HW134460   2.567   1.828   6.766  2.8394  0.5191 -0.6529
 7608SOL    HW234461   2.471   1.901   6.671 -0.3052  0.5409  0.3142
 7609SOL     OW34462   0.857   2.511   4.737  0.7292  0.2814  0.4612
 7609SOL    HW134463   0.938   2.499   4.686  0.8968  0.5263  0.6702
 7609SOL    HW234464   0.862   2.603   4.761  1.1161  0.0055  1.4292
 7610SOL     OW34465   3.416   1.007  13.325  0.6921  0.1483  0.3399
 7610SOL    HW134466   3.321   1.003  13.314  0.6533 -1.3102  1.1881
 7610SOL    HW234467   3.426   0.993  13.419 -0.9905  0.6763  0.5809
 7611SOL     OW34468   1.777   0.221   3.800 -0.0278  0.1242 -0.4696
 7611SOL    HW134469   1.719   0.283   3.845 -0.3075 -1.5839  1.5290
 7611SOL    HW234470   1.848   0.240   3.861  0.3110 -0.6447 -0.6303
 7612SOL     OW34471   1.958   3.545   6.836 -0.4882  0.2630 -0.1159
 7612SOL    HW134472   2.046   3.540   6.874 -0.1990 -1.4989 -1.0157
 7612SOL    HW234473   1.901   3.511   6.905 -1.4285  1.0959 -0.4750
 7613SOL     OW34474   1.568   2.759  11.959 -0.0363  0.3524 -0.0514
 7613SOL    HW134475   1.552   2.748  12.053  0.3510  2.3115  0.2535
 7613SOL    HW234476   1.491   2.806  11.930  0.9861  1.1413 -1.4880
 7614SOL     OW34477   2.094   2.914  10.320  0.2595 -0.0777 -0.8860
 7614SOL    HW134478   2.103   2.844  10.255 -0.5489  1.5617 -2.7561
 7614SOL    HW234479   2.184   2.943  10.303  0.8674 -1.2562  0.3284
 7615SOL     OW34480   0.808   3.665   2.009 -0.1019 -0.5050  1.1245
 7615SOL    HW134481   0.813   3.587   2.064  0.0624 -1.7367 -0.6364
 7615SOL    HW234482   0.716   3.691   2.022 -0.1722 -0.3928  0.3698
 7616SOL     OW34483   4.188   3.669   4.570  0.0169 -0.2577  0.3500
 7616SOL    HW134484   4.187   3.750   4.621  2.8384 -1.3109  2.0465
 7616SOL    HW234485   4.242   3.616   4.629 -1.8718 -2.1161  0.3918
 7617SOL     OW34486   2.139   1.716   5.000  0.1013 -0.5207  0.0561
 7617SOL    HW134487   2.208   1.682   4.943 -0.5024  2.5240 -2.4970
 7617SOL    HW234488   2.143   1.657   5.075 -0.6638 -1.6111 -0.7474
 7618SOL     OW34489   3.006   3.670   5.438 -0.4086 -0.4420  0.0137
 7618SOL    HW134490   3.054   3.728   5.379 -0.8456  0.7621  0.8351
 7618SOL    HW234491   3.070   3.645   5.505  1.4653 -1.3697 -2.1460
 7619SOL     OW34492   1.244   1.228   0.052  0.0060 -0.5873 -0.2214
 7619SOL    HW134493   1.193   1.248  17.712  0.1092  3.1596  0.6562
 7619SOL    HW234494   1.264   1.317   0.082 -0.2381 -0.9227  0.9506
 7620SOL     OW34495   2.987   1.015  10.520  0.1991 -0.1543  0.2089
 7620SOL    HW134496   3.071   1.000  10.477 -1.0688  0.2385 -2.3712
 7620SOL    HW234497   2.929   1.041  10.449  0.5271 -1.4226 -0.5124
 7621SOL     OW34498   4.339   0.978  11.676 -0.0305 -0.1714 -0.8183
 7621SOL    HW134499   4.276   0.913  11.647 -1.5777  1.0626 -0.2558
 7621SOL    HW234500   4.422   0.935  11.655 -0.7270 -1.6031 -0.6074
 7622SOL     OW34501   3.188   3.041   6.589  0.1119 -0.2401  0.2997
 7622SOL    HW134502   3.143   2.994   6.519  0.1358 -0.7915  0.6581
 7622SOL    HW234503   3.227   2.970   6.639  1.4954  0.1880 -0.1757
 7623SOL     OW34504   1.695   0.386   8.857  0.2181  0.4258 -0.2090
 7623SOL    HW134505   1.747   0.412   8.781  0.0449  1.2829 -0.0363
 7623SOL    HW234506   1.733   0.442   8.925  0.2530  0.3338 -0.1527
 7624SOL     OW34507   0.021   4.553   2.294  0.7679 -0.4402 -0.1211
 7624SOL    HW134508   4.728   4.605   2.369  1.1242 -2.2370  1.2445
 7624SOL    HW234509   0.016   4.467   2.335 -2.1950  0.5924  1.6066
 7625SOL     OW34510   4.233   0.741   6.270  0.2082 -0.7456  0.3094
 7625SOL    HW134511   4.290   0.802   6.316  0.1767  0.1463 -0.8319
 7625SOL    HW234512   4.287   0.727   6.193  0.8110 -2.0940  0.9847
 7626SOL     OW34513   1.162   2.336   2.177  0.0984 -0.3207  0.0726
 7626SOL    HW134514   1.194   2.349   2.088  1.6083  1.5599  0.9105
 7626SOL    HW234515   1.070   2.317   2.155  0.8216 -1.3233 -2.0533
 7627SOL     OW34516   1.700   2.560   6.316 -0.4779 -0.4645  0.1223
 7627SOL    HW134517   1.694   2.550   6.411 -1.1629  1.0269  0.2431
 7627SOL    HW234518   1.637   2.631   6.306  2.2035  1.6336 -2.0358
 7628SOL     OW34519   2.554   4.083   7.625 -0.1491 -0.4267  0.4635
 7628SOL    HW134520   2.508   4.031   7.691 -1.7758  1.4234  0.8001
 7628SOL    HW234521   2.587   4.155   7.679 -0.7623 -0.8900  1.4520
 7629SOL     OW34522   2.165   4.637   5.101 -0.1248 -0.0644  0.2990
 7629SOL    HW134523   2.144   4.612   5.011  3.6092 -0.6257 -0.4537
 7629SOL    HW234524   2.167   4.731   5.083 -0.1443  0.1904  1.6301
 7630SOL     OW34525   2.632   1.657   6.217  0.5328 -0.5553  0.6417
 7630SOL    HW134526   2.621   1.652   6.312  1.7413 -0.9750  0.7565
 7630SOL    HW234527   2.562   1.719   6.198  2.1886  1.8533  2.3744
 7631SOL     OW34528   1.900   1.498   4.734 -0.5045  0.0500  0.1711
 7631SOL    HW134529   1.841   1.497   4.809 -1.0582  0.2811 -0.2612
 7631SOL    HW234530   1.902   1.403   4.723  0.4064  0.0959 -0.1292
 7632SOL     OW34531   2.464   1.629  10.898 -0.2961  0.2594 -0.3533
 7632SOL    HW134532   2.514   1.711  10.897  0.4601 -0.2244 -2.0045
 7632SOL    HW234533   2.393   1.659  10.841 -0.4264  0.5019 -0.0660
 7633SOL     OW34534   2.796   4.605  15.247  0.5129 -0.2274 -0.2922
 7633SOL    HW134535   2.814   4.666  15.318 -3.7153 -0.2554  0.7595
 7633SOL    HW234536   2.713   4.641  15.217  0.8835 -0.2465 -1.3557
 7634SOL     OW34537   4.335   1.040   3.316  0.2297 -0.8104 -0.7503
 7634SOL    HW134538   4.327   0.946   3.300  2.6841 -1.4072  1.6873
 7634SOL    HW234539   4.416   1.054   3.267  1.8089 -0.1442  2.0311
 7635SOL     OW34540   3.045   2.181  12.967  0.1028 -0.1237  0.6944
 7635SOL    HW134541   3.056   2.212  13.057 -1.2211  0.8958  0.4982
 7635SOL    HW234542   2.970   2.229  12.933  0.0988 -0.8642 -0.3339
 7636SOL     OW34543   2.688   3.066   6.630 -0.3100  0.4557  0.1513
 7636SOL    HW134544   2.597   3.058   6.599 -0.7754  0.5963  1.5162
 7636SOL    HW234545   2.727   3.006   6.567 -2.2262  0.9380 -1.5146
 7637SOL     OW34546   0.037   4.488   4.678  0.2295 -0.1869  0.1064
 7637SOL    HW134547   0.013   4.530   4.595 -0.1366 -0.4198  0.0912
 7637SOL    HW234548   4.708   4.534   4.733 -0.6103  0.8815 -1.7544
 7638SOL     OW34549   3.142   3.219   5.556 -0.1740 -0.0613  0.4660
 7638SOL    HW134550   3.145   3.239   5.649  3.4385 -0.8143  0.5225
 7638SOL    HW234551   3.047   3.230   5.552 -0.4652 -3.2197 -1.0581
 7639SOL     OW34552   1.194   2.062   1.066  0.1696  0.5932  0.0810
 7639SOL    HW134553   1.204   1.968   1.049  0.5616  0.7018 -0.2799
 7639SOL    HW234554   1.104   2.069   1.097 -0.7635  0.8604 -2.6907
 7640SOL     OW34555   4.544   3.534   5.528  0.1356  0.1922 -0.2345
 7640SOL    HW134556   4.518   3.556   5.618  3.3946 -0.3334  0.8113
 7640SOL    HW234557   4.484   3.465   5.499  2.1097 -0.6210 -2.3280
 7641SOL     OW34558   3.126   4.254   7.770  0.6380 -0.2661  0.2620
 7641SOL    HW134559   3.078   4.302   7.837  0.3148  1.2986 -1.0886
 7641SOL    HW234560   3.116   4.310   7.692 -2.8259 -2.5679 -0.9719
 7642SOL     OW34561   2.737   0.555   2.047  0.3926  0.8816  0.0988
 7642SOL    HW134562   2.668   0.556   1.981 -1.2724 -1.8251  1.7576
 7642SOL    HW234563   2.740   0.461   2.065  0.4839  1.7817  4.8949
 7643SOL     OW34564   2.887   0.672   8.468  0.7277  0.9180 -0.6160
 7643SOL    HW134565   2.949   0.603   8.446 -0.6967 -0.3610 -0.6769
 7643SOL    HW234566   2.933   0.749   8.436  0.8514  1.8505  1.7415
 7644SOL     OW34567   1.552   3.847   4.368  0.2521 -0.0425  0.1534
 7644SOL    HW134568   1.535   3.771   4.312  0.8764 -0.1188  0.0709
 7644SOL    HW234569   1.564   3.810   4.456 -0.5553  1.4039  0.8632
 7645SOL     OW34570   0.972   2.239  17.173  0.2827  0.2899 -0.4990
 7645SOL    HW134571   0.921   2.314  17.142 -1.7904 -1.0218 -0.2303
 7645SOL    HW234572   0.992   2.189  17.093  1.4002 -0.8040  0.4645
 7646SOL     OW34573   3.269   2.960   5.488 -0.6065 -0.2175 -0.0171
 7646SOL    HW134574   3.227   3.028   5.540 -1.0007 -0.3827 -0.1158
 7646SOL    HW234575   3.240   2.979   5.399 -0.0877 -5.4301 -1.3363
 7647SOL     OW34576   3.181   1.518   2.623  0.4561 -0.1644  0.0398
 7647SOL    HW134577   3.169   1.556   2.536 -1.7384 -0.0685  0.3941
 7647SOL    HW234578   3.112   1.452   2.616  0.1500  0.5095 -3.3759
 7648SOL     OW34579   4.528   0.283   1.924 -0.8158  0.5004  0.2889
 7648SOL    HW134580   4.600   0.232   1.886 -1.0289 -0.7376  1.5577
 7648SOL    HW234581   4.442   0.249   1.896 -0.5948 -0.0361  0.2570
 7649SOL     OW34582   0.047   0.399   0.620 -0.5357  0.6843 -0.2298
 7649SOL    HW134583   0.075   0.415   0.529 -0.2973  0.5358 -0.1813
 7649SOL    HW234584   0.101   0.326   0.650  0.7807  1.0714 -1.6308
 7650SOL     OW34585   4.414   0.869   4.317  0.5635 -0.0669  0.2917
 7650SOL    HW134586   4.382   0.914   4.396 -0.4296 -0.1018 -0.0931
 7650SOL    HW234587   4.388   0.781   4.344  0.0297  0.0032  0.0201
 7651SOL     OW34588   2.290   3.338   2.349 -0.1107  0.0602 -0.2468
 7651SOL    HW134589   2.377   3.323   2.312 -0.3632  0.8366 -1.1687
 7651SOL    HW234590   2.285   3.266   2.412  2.0907  0.2621  0.1655
 7652SOL     OW34591   3.847   4.134   1.328 -0.0028 -0.1907  0.3808
 7652SOL    HW134592   3.879   4.045   1.343 -0.8800 -0.4871  0.5260
 7652SOL    HW234593   3.917   4.163   1.269  0.2258  2.7887  2.1492
 7653SOL     OW34594   0.694   1.644  11.859  0.2222  0.4486  0.3870
 7653SOL    HW134595   0.666   1.552  11.862  1.2415  0.1001 -0.5078
 7653SOL    HW234596   0.740   1.665  11.940 -2.2179  1.0432  1.6204
 7654SOL     OW34597   0.959   3.531   4.501 -0.0229 -0.0906 -0.3209
 7654SOL    HW134598   0.875   3.565   4.471 -0.2375 -2.4175 -2.4508
 7654SOL    HW234599   0.940   3.461   4.564 -0.6599 -0.5371 -1.0059
 7655SOL     OW34600   1.430   1.768   2.804  0.5070  0.0575  0.5382
 7655SOL    HW134601   1.358   1.829   2.814  0.8731  0.5512  0.1811
 7655SOL    HW234602   1.396   1.707   2.739 -0.6533  1.1065  0.1680
 7656SOL     OW34603   3.856   3.770   1.838  0.7854 -0.3094 -0.2772
 7656SOL    HW134604   3.791   3.799   1.902 -0.2901 -3.4815  0.0380
 7656SOL    HW234605   3.898   3.853   1.813  3.8123 -2.6042 -2.7865
 7657SOL     OW34606   4.372   2.282  10.644 -0.4205 -0.1213  0.4226
 7657SOL    HW134607   4.434   2.220  10.605  0.1228  0.8273 -0.2264
 7657SOL    HW234608   4.325   2.320  10.570  0.0965  1.4636  0.8858
 7658SOL     OW34609   0.121   1.080   3.192  0.1387 -0.3248  0.8215
 7658SOL    HW134610   0.172   1.111   3.267  1.7624  0.5382 -0.6548
 7658SOL    HW234611   0.141   1.150   3.130  0.5818  1.4697  2.9969
 7659SOL     OW34612   1.945   4.635   5.256 -0.5518  0.0417 -0.1009
 7659SOL    HW134613   2.021   4.635   5.198 -0.1130 -0.3840  0.4718
 7659SOL    HW234614   1.962   4.564   5.317 -2.4739  0.7744  1.2592
 7660SOL     OW34615   4.165   2.751   7.336 -0.0897 -0.5219  0.1728
 7660SOL    HW134616   4.233   2.686   7.354 -0.1299 -0.3437  0.9547
 7660SOL    HW234617   4.121   2.742   7.421 -1.4974 -1.0620 -0.6111
 7661SOL     OW34618   4.076   3.720   5.864 -0.0967  0.1278 -0.2347
 7661SOL    HW134619   4.159   3.767   5.856 -0.2893  0.4380 -0.4223
 7661SOL    HW234620   4.095   3.643   5.810 -1.9308 -1.1366  0.9594
 7662SOL     OW34621   2.852   1.402  16.209 -0.1659  0.0987 -0.1022
 7662SOL    HW134622   2.903   1.323  16.191  0.5471  0.5349  0.0095
 7662SOL    HW234623   2.761   1.374  16.202 -0.6556  1.4603  0.6926
 7663SOL     OW34624   0.105   4.083   3.000 -0.2710 -0.2119 -0.5574
 7663SOL    HW134625   0.102   3.995   3.036 -2.8233  0.1378  0.1009
 7663SOL    HW234626   0.022   4.127   3.020  0.7560  1.6383 -0.3395
 7664SOL     OW34627   0.697   1.249   4.021 -0.6217 -0.5668  0.3825
 7664SOL    HW134628   0.711   1.315   3.953 -0.5865  0.6784  1.6150
 7664SOL    HW234629   0.616   1.209   3.989 -1.8479  0.2321  2.4424
 7665SOL     OW34630   1.289   1.176  11.720 -0.0814  0.5448 -0.5778
 7665SOL    HW134631   1.210   1.229  11.730  0.4839  1.0339  1.4535
 7665SOL    HW234632   1.363   1.228  11.752  0.8880 -0.3499 -1.3836
 7666SOL     OW34633   2.359   1.202   5.562  0.4671  0.3878  0.0367
 7666SOL    HW134634   2.321   1.247   5.637 -1.6370  0.3852 -1.0054
 7666SOL    HW234635   2.301   1.129   5.543  1.5712 -1.1189  2.5867
 7667SOL     OW34636   0.329   3.647   6.430  0.5826 -0.0020  0.4905
 7667SOL    HW134637   0.305   3.714   6.365  0.8078 -0.2494  0.1546
 7667SOL    HW234638   0.252   3.591   6.418  0.8453 -0.0773 -0.8410
 7668SOL     OW34639   0.523   2.416   7.842  0.1538 -0.8486 -0.0419
 7668SOL    HW134640   0.544   2.326   7.866  0.0908 -0.6422  0.7895
 7668SOL    HW234641   0.578   2.425   7.765 -3.5897  1.0690 -2.4787
 7669SOL     OW34642   0.421   2.697   4.037 -0.3480 -0.4324  0.1586
 7669SOL    HW134643   0.343   2.743   4.069  0.7662  1.8722 -0.4382
 7669SOL    HW234644   0.395   2.654   3.956  1.5647 -0.3719 -0.4923
 7670SOL     OW34645   0.636   2.106  14.322 -0.3476 -0.2407  0.6217
 7670SOL    HW134646   0.692   2.168  14.275  0.5179 -1.1450  0.4563
 7670SOL    HW234647   0.561   2.118  14.263 -0.2585 -1.2208  0.2968
 7671SOL     OW34648   1.324   3.930  10.168  1.1655 -0.1078 -0.0883
 7671SOL    HW134649   1.415   3.912  10.192  0.4365 -1.6505  1.4913
 7671SOL    HW234650   1.272   3.870  10.221 -0.9293  1.6916 -0.1178
 7672SOL     OW34651   2.478   4.121   8.367  0.3557 -0.9174 -0.3556
 7672SOL    HW134652   2.503   4.028   8.371 -0.5481 -1.2107 -1.4905
 7672SOL    HW234653   2.555   4.163   8.329  0.0076  0.5701  0.6116
 7673SOL     OW34654   1.613   2.107   6.598 -0.1340 -0.0983  0.5484
 7673SOL    HW134655   1.525   2.088   6.564  0.2579 -1.7882  0.4688
 7673SOL    HW234656   1.664   2.098   6.517 -2.0984 -2.7855 -0.3935
 7674SOL     OW34657   3.344   0.445   6.946  0.2879 -0.3075 -0.3793
 7674SOL    HW134658   3.411   0.479   7.005 -0.5203  2.1669 -0.9154
 7674SOL    HW234659   3.392   0.474   6.868 -2.3478  1.3601 -1.3879
 7675SOL     OW34660   2.477   4.537  16.838 -1.0892  0.3543 -0.2335
 7675SOL    HW134661   2.521   4.462  16.878  1.3278  2.6186  1.3366
 7675SOL    HW234662   2.386   4.508  16.834 -0.8270 -0.7808  2.4195
 7676SOL     OW34663   3.205   2.249  12.228  0.1370 -0.2587  0.0411
 7676SOL    HW134664   3.274   2.314  12.245 -0.5731  1.1494 -2.3842
 7676SOL    HW234665   3.156   2.291  12.157 -0.5331  0.3583  0.8675
 7677SOL     OW34666   2.851   4.341   4.080  0.3334 -0.2107  0.2974
 7677SOL    HW134667   2.835   4.429   4.047  0.1538 -0.2759  0.2122
 7677SOL    HW234668   2.939   4.317   4.051  0.8126  0.3659  1.2923
 7678SOL     OW34669   2.085   4.235   8.632  0.2564  0.2388  0.0110
 7678SOL    HW134670   2.170   4.260   8.667  0.8493  0.0100 -1.2402
 7678SOL    HW234671   2.090   4.140   8.642 -0.9029 -0.0201 -1.8824
 7679SOL     OW34672   0.373   3.751   8.902 -0.2738  0.6422 -0.0091
 7679SOL    HW134673   0.374   3.846   8.905  1.1208  0.6551 -1.2393
 7679SOL    HW234674   0.458   3.744   8.946 -0.6625  1.0056  0.8030
 7680SOL     OW34675   0.911   1.688   6.324 -0.1735 -0.0622 -0.0876
 7680SOL    HW134676   0.917   1.594   6.337  1.1913  0.0633  0.1986
 7680SOL    HW234677   0.938   1.728   6.407  2.2183 -0.5434 -0.6359
 7681SOL     OW34678   4.554   3.831   7.935  0.0520 -0.2219 -0.1669
 7681SOL    HW134679   4.551   3.806   8.027  2.1091  1.5746  0.3702
 7681SOL    HW234680   4.488   3.781   7.885 -0.9232 -1.6634  2.5712
 7682SOL     OW34681   2.721   3.012  11.526  0.0990 -0.2285 -0.3780
 7682SOL    HW134682   2.799   2.996  11.579 -1.8309 -0.9075  2.2742
 7682SOL    HW234683   2.690   3.097  11.555  1.3537 -0.0729  0.5011
 7683SOL     OW34684   3.059   0.830   6.690 -0.4796 -0.2814  0.1109
 7683SOL    HW134685   3.144   0.865   6.665 -0.1804 -0.3335  1.0346
 7683SOL    HW234686   3.006   0.902   6.658  0.1642  0.4452  0.6632
 7684SOL     OW34687   1.393   3.723   4.711 -0.2029  0.5044 -0.0252
 7684SOL    HW134688   1.379   3.756   4.800 -0.6656  3.5782 -1.2376
 7684SOL    HW234689   1.368   3.802   4.662 -0.9558  0.7292  0.7268
 7685SOL     OW34690   1.156   2.022   0.724 -0.4283  0.0405 -0.1784
 7685SOL    HW134691   1.246   2.007   0.752 -0.6700 -0.1067  0.5193
 7685SOL    HW234692   1.136   2.113   0.749  1.3441  0.5225 -0.5300
 7686SOL     OW34693   2.587   1.729   1.295  0.0998  0.4278 -0.3866
 7686SOL    HW134694   2.514   1.791   1.307  0.9284  1.3919 -0.3197
 7686SOL    HW234695   2.556   1.654   1.346  2.6269 -1.7210 -1.9977
 7687SOL     OW34696   4.337   4.705   2.584  0.1128  0.1752  0.1834
 7687SOL    HW134697   4.316   0.063   2.590 -1.2474 -0.1690  0.7575
 7687SOL    HW234698   4.320   4.675   2.674 -0.5833  1.4959  0.4872
 7688SOL     OW34699   1.416   2.831   1.762  0.0650 -0.2090  0.2734
 7688SOL    HW134700   1.498   2.873   1.790 -0.2545  0.6098 -0.0208
 7688SOL    HW234701   1.361   2.901   1.727 -0.5238 -1.0047 -0.3688
 7689SOL     OW34702   0.765   3.465   6.643  0.1062 -0.7632  0.8262
 7689SOL    HW134703   0.680   3.499   6.614 -0.1289 -1.1890  1.0213
 7689SOL    HW234704   0.746   3.373   6.627 -0.3483 -0.6020  0.4421
 7690SOL     OW34705   0.806   1.451   4.908 -0.2257  0.0894  0.7076
 7690SOL    HW134706   0.719   1.485   4.888  0.5980 -0.0913 -3.0717
 7690SOL    HW234707   0.851   1.518   4.856  0.3036 -0.2235  0.7605
 7691SOL     OW34708   1.074   3.651  14.791 -0.4493 -0.2725  0.4911
 7691SOL    HW134709   1.036   3.564  14.776  1.2133 -1.1224  1.2276
 7691SOL    HW234710   1.042   3.684  14.707  1.9671  0.7053 -0.0460
 7692SOL     OW34711   4.561   0.151   2.804  0.6456 -0.7007  0.5975
 7692SOL    HW134712   4.548   0.231   2.754  1.7236 -1.5363 -0.9960
 7692SOL    HW234713   4.471   0.125   2.826 -0.3330  0.5248 -1.9746
 7693SOL     OW34714   4.626   1.878   5.786  0.9875 -0.2736 -0.7599
 7693SOL    HW134715   4.579   1.873   5.870 -0.5205  2.0240 -1.4403
 7693SOL    HW234716   4.673   1.960   5.800  1.0367 -0.5766  0.8754
 7694SOL     OW34717   0.000   0.541  14.778 -0.4385  0.3189 -0.3586
 7694SOL    HW134718   0.094   0.520  14.780  0.0297  2.5790  2.0088
 7694SOL    HW234719   4.728   0.584  14.693 -0.1846 -1.3929 -1.2455
 7695SOL     OW34720   3.183   2.061   8.324 -0.3105 -0.1722 -0.2626
 7695SOL    HW134721   3.245   2.065   8.397 -1.6909 -0.5803  0.9368
 7695SOL    HW234722   3.218   1.982   8.284 -1.7248 -1.1875  0.4773
 7696SOL     OW34723   0.912   0.448   9.392 -0.2868  0.4435 -0.0022
 7696SOL    HW134724   0.820   0.441   9.418  0.4559 -0.8450  2.2461
 7696SOL    HW234725   0.895   0.503   9.315 -4.1657 -0.4624  0.1878
 7697SOL     OW34726   3.218   2.212  16.118  0.1131  0.0993  0.5893
 7697SOL    HW134727   3.180   2.129  16.088  0.6940 -0.3578  1.1373
 7697SOL    HW234728   3.161   2.276  16.075 -1.5859 -0.9180  1.3255
 7698SOL     OW34729   2.314   3.250  14.681 -0.0604  0.4675 -0.0123
 7698SOL    HW134730   2.358   3.191  14.620 -2.7991 -1.0182 -0.5666
 7698SOL    HW234731   2.387   3.290  14.730  1.1431 -0.2613 -1.2259
 7699SOL     OW34732   2.756   4.065   4.225 -0.1431 -0.6119  0.0893
 7699SOL    HW134733   2.675   4.068   4.275 -0.7764 -1.3836 -0.9115
 7699SOL    HW234734   2.762   4.145   4.173  2.4198 -1.4089 -0.8315
 7700SOL     OW34735   4.133   3.351   4.569 -0.0809 -0.4964 -0.4112
 7700SOL    HW134736   4.155   3.269   4.525  0.4416 -0.5010 -0.1505
 7700SOL    HW234737   4.190   3.404   4.514 -0.7120 -0.1137 -0.6905
 7701SOL     OW34738   2.736   2.722   9.266  0.1692  0.6094 -0.1131
 7701SOL    HW134739   2.800   2.651   9.272 -0.1133  0.1934 -1.8679
 7701SOL    HW234740   2.782   2.789   9.317  0.5901  1.6852 -1.8677
 7702SOL     OW34741   3.660   1.135   6.539  0.6497  0.7282  0.2126
 7702SOL    HW134742   3.650   1.048   6.502  1.5581  0.3373  0.8946
 7702SOL    HW234743   3.617   1.191   6.474 -1.2754  1.6252  2.2473
 7703SOL     OW34744   1.572   3.588   8.219 -0.1685  0.3569  0.8217
 7703SOL    HW134745   1.617   3.672   8.211  2.0474 -0.8189  0.9252
 7703SOL    HW234746   1.614   3.531   8.155  0.9609  0.8301  1.1463
 7704SOL     OW34747   3.692   0.500   5.605  0.0806  0.2469  0.7168
 7704SOL    HW134748   3.635   0.480   5.530  0.7170 -0.9754  0.5470
 7704SOL    HW234749   3.629   0.473   5.671  0.6587 -1.7870  0.4257
 7705SOL     OW34750   0.250   4.321   5.273 -0.5015 -0.5740 -0.1431
 7705SOL    HW134751   0.262   4.232   5.305  1.7759 -0.1769  0.0468
 7705SOL    HW234752   0.307   4.313   5.196 -0.6410 -0.4311 -0.2632
 7706SOL     OW34753   3.344   2.648   7.963 -0.0925 -0.6247 -0.2213
 7706SOL    HW134754   3.276   2.608   8.017  2.9519 -2.2634  2.4017
 7706SOL    HW234755   3.420   2.636   8.020  1.7982 -1.9928 -3.0241
 7707SOL     OW34756   1.286   0.308   8.185  0.0824  0.8884  0.2005
 7707SOL    HW134757   1.318   0.385   8.137 -0.0725  0.5805 -0.3947
 7707SOL    HW234758   1.323   0.229   8.147  0.1877  1.7407 -1.4386
 7708SOL     OW34759   4.092   1.622   3.252 -0.2562  0.0068  0.2648
 7708SOL    HW134760   4.032   1.677   3.201  1.9067  2.9318  0.9014
 7708SOL    HW234761   4.070   1.644   3.343  2.2152  0.8774  0.6410
 7709SOL     OW34762   0.106   1.884   1.688 -0.6464  0.1512 -0.4824
 7709SOL    HW134763   0.106   1.904   1.594  0.4597 -0.5602 -0.6456
 7709SOL    HW234764   0.053   1.804   1.688 -1.4523  0.6928  1.2419
 7710SOL     OW34765   4.523   2.352   4.074  0.3521 -0.2482  0.0557
 7710SOL    HW134766   4.605   2.337   4.027 -0.4583 -1.6773 -0.9051
 7710SOL    HW234767   4.471   2.415   4.024  0.2235  0.4990  1.1172
 7711SOL     OW34768   0.592   0.033  12.625  0.1985 -0.3163  0.2442
 7711SOL    HW134769   0.549   0.097  12.568 -1.1643  0.9055  2.6739
 7711SOL    HW234770   0.622   0.078  12.704 -0.5329 -0.1754  0.4327
 7712SOL     OW34771   4.414   2.836   7.845 -0.8207 -0.4952  0.1559
 7712SOL    HW134772   4.369   2.914   7.810 -3.1393 -1.8354  0.1411
 7712SOL    HW234773   4.348   2.771   7.822  2.1686 -1.7609 -4.9493
 7713SOL     OW34774   3.045   4.266   5.063 -0.3182 -0.3569  0.2671
 7713SOL    HW134775   3.031   4.285   4.971 -0.6594  2.1999  0.8298
 7713SOL    HW234776   2.960   4.298   5.096 -1.1576 -1.5709 -0.7439
 7714SOL     OW34777   3.532   1.644   7.212  0.1131  0.3612  0.1790
 7714SOL    HW134778   3.437   1.650   7.197 -0.1450  0.7133  1.9627
 7714SOL    HW234779   3.573   1.662   7.128 -0.6496 -3.0602 -0.9200
 7715SOL     OW34780   3.578   2.810   3.724 -0.5124  0.3552 -0.1821
 7715SOL    HW134781   3.549   2.901   3.722 -0.2149  0.4844  1.3528
 7715SOL    HW234782   3.543   2.785   3.810 -1.0692  1.5957 -0.0509
 7716SOL     OW34783   2.690   4.562  12.669 -0.0785 -0.7292  0.4543
 7716SOL    HW134784   2.688   4.617  12.747  0.6386 -0.4816  0.2937
 7716SOL    HW234785   2.710   4.624  12.600 -3.4821 -0.6310 -0.4817
 7717SOL     OW34786   3.609   2.102  12.309 -0.1163 -0.8456 -0.0415
 7717SOL    HW134787   3.547   2.131  12.243  0.1898  3.9998  1.7966
 7717SOL    HW234788   3.646   2.021  12.273 -1.9356 -1.8227  0.3335
 7718SOL     OW34789   0.621   3.426   5.455  0.3803 -0.2755  0.6891
 7718SOL    HW134790   0.562   3.353   5.436  0.8757 -1.0153  2.0051
 7718SOL    HW234791   0.571   3.504   5.428  0.1153 -0.9463 -0.7723
 7719SOL     OW34792   2.640   1.746  12.058  0.2066  0.9426  0.2632
 7719SOL    HW134793   2.622   1.805  11.985 -2.0198  2.1897  1.8279
 7719SOL    HW234794   2.649   1.802  12.136  1.7530  1.3287 -0.1758
 7720SOL     OW34795   1.087   3.499   7.452 -0.4996 -0.5017  0.2055
 7720SOL    HW134796   1.064   3.565   7.387 -4.4603 -1.5861  0.4901
 7720SOL    HW234797   1.054   3.545   7.529 -1.3974  0.1484 -0.5739
 7721SOL     OW34798   4.551   1.618   3.378  0.0680 -0.1334  0.1227
 7721SOL    HW134799   4.532   1.610   3.471  1.1498 -0.6814  0.2891
 7721SOL    HW234800   4.539   1.527   3.349  1.1217 -0.5736  1.1233
 7722SOL     OW34801   1.860   1.963   1.169  0.6785 -0.0748 -0.0905
 7722SOL    HW134802   1.774   1.928   1.192  0.7285 -0.7477 -0.9281
 7722SOL    HW234803   1.900   1.946   1.255  1.5432 -1.4905 -0.7657
 7723SOL     OW34804   2.162   0.109   7.724 -0.3898  0.2807 -0.0950
 7723SOL    HW134805   2.202   0.174   7.665 -2.1461  0.7140 -0.8144
 7723SOL    HW234806   2.222   0.117   7.797 -0.0258  0.8064 -0.4490
 7724SOL     OW34807   2.226   0.120   6.781 -0.3653  0.7359 -0.3538
 7724SOL    HW134808   2.179   0.100   6.862  0.6254 -0.8418 -0.1733
 7724SOL    HW234809   2.148   0.150   6.734 -1.2426  0.0857  0.6849
 7725SOL     OW34810   1.406   0.202   7.085  0.0990 -0.5448  0.2672
 7725SOL    HW134811   1.327   0.158   7.116 -0.7194 -0.3381 -1.4912
 7725SOL    HW234812   1.438   0.229   7.171 -1.4311 -1.3883  1.1022
 7726SOL     OW34813   2.873   4.157   1.640 -0.1281 -0.0010  0.0122
 7726SOL    HW134814   2.780   4.133   1.650  0.1139 -0.7577  0.4314
 7726SOL    HW234815   2.911   4.070   1.648  0.0708  0.2365  1.7050
 7727SOL     OW34816   0.551   2.438   5.893 -0.3825 -0.2084 -0.0975
 7727SOL    HW134817   0.560   2.350   5.856  2.5257 -0.8187  2.0812
 7727SOL    HW234818   0.528   2.421   5.984  1.5788 -0.7836  0.2815
 7728SOL     OW34819   0.205   2.882   0.039  0.3814 -0.2933 -0.4866
 7728SOL    HW134820   0.153   2.803   0.056 -1.3219  1.4738  2.4780
 7728SOL    HW234821   0.142   2.953   0.052 -3.5914 -4.3340  2.4076
 7729SOL     OW34822   3.176   2.992  12.043 -0.8005 -0.0118  0.5309
 7729SOL    HW134823   3.237   3.064  12.027 -0.9286 -0.2808 -1.1703
 7729SOL    HW234824   3.125   2.993  11.963  3.8718 -1.2034 -2.4540
 7730SOL     OW34825   0.015   3.319  11.685  0.5321  0.0442  0.2548
 7730SOL    HW134826   4.691   3.261  11.732  2.3219 -0.8692  1.3731
 7730SOL    HW234827   0.103   3.282  11.697  0.1798 -0.4586  1.2508
 7731SOL     OW34828   1.520   4.504   1.336 -0.3662 -0.2160 -0.1006
 7731SOL    HW134829   1.579   4.430   1.321 -0.6229 -0.4070 -0.1742
 7731SOL    HW234830   1.447   4.448   1.361 -0.4197  0.1994  0.6911
 7732SOL     OW34831   1.230   1.016   9.904 -0.2452  0.5562 -0.1265
 7732SOL    HW134832   1.283   0.945   9.940  0.5829  1.1182 -0.2286
 7732SOL    HW234833   1.214   1.058   9.988 -1.1533  0.3756 -0.2124
 7733SOL     OW34834   0.675   1.405  14.541  0.2863  0.2219 -0.3145
 7733SOL    HW134835   0.688   1.494  14.509 -0.5850  0.7176  0.7164
 7733SOL    HW234836   0.584   1.407  14.571 -0.1608 -2.5976 -1.5273
 7734SOL     OW34837   4.104   0.784   9.823 -0.0947 -0.3608  0.4935
 7734SOL    HW134838   4.090   0.739   9.906  2.4020 -2.0044  0.0372
 7734SOL    HW234839   4.195   0.813   9.829 -0.5476  1.5369 -1.8406
 7735SOL     OW34840   0.325   0.329   2.319  0.1538  0.9387 -0.2389
 7735SOL    HW134841   0.276   0.255   2.355 -0.8188  2.0798  0.7885
 7735SOL    HW234842   0.350   0.294   2.234 -3.7275  1.0813 -1.4594
 7736SOL     OW34843   4.252   3.947   1.411 -0.6909  0.4347 -0.0631
 7736SOL    HW134844   4.262   3.918   1.502 -1.8243  1.4335  0.3703
 7736SOL    HW234845   4.216   3.866   1.375 -0.4186  1.0090 -1.6097
 7737SOL     OW34846   1.412   1.707   1.802 -0.2302 -0.0952  0.1235
 7737SOL    HW134847   1.387   1.629   1.852  0.8901 -0.5619 -0.0443
 7737SOL    HW234848   1.329   1.743   1.770  0.5227  1.8734  0.3692
 7738SOL     OW34849   4.732   4.006   3.878  0.5590  0.5792  0.4666
 7738SOL    HW134850   0.038   3.987   3.793 -0.2280 -0.9150  0.4164
 7738SOL    HW234851   4.672   4.077   3.856 -0.5104  0.4324  2.8964
 7739SOL     OW34852   4.148   2.074   1.431  0.0795  0.0634  0.1449
 7739SOL    HW134853   4.089   2.062   1.357  0.1815  1.7910 -0.2206
 7739SOL    HW234854   4.109   2.148   1.478  0.5194 -0.2907  1.0850
 7740SOL     OW34855   2.970   2.065   6.853 -0.2806 -0.6202  0.1595
 7740SOL    HW134856   3.045   2.105   6.898 -1.7358  3.6182 -1.2117
 7740SOL    HW234857   2.915   2.143   6.848  0.3247 -0.2097 -0.1990
 7741SOL     OW34858   3.226   3.022   3.924 -0.6461 -0.1567 -0.5450
 7741SOL    HW134859   3.265   3.051   3.841  0.5355  2.4955  0.9252
 7741SOL    HW234860   3.283   2.951   3.953  1.1270  1.5426  0.1342
 7742SOL     OW34861   2.071   4.514   5.782 -0.2364 -0.6868 -0.2102
 7742SOL    HW134862   2.044   4.448   5.846 -0.1607 -1.8264 -1.3337
 7742SOL    HW234863   2.059   4.599   5.824  0.9968 -2.1665  3.1272
 7743SOL     OW34864   3.041   3.899  15.237 -0.4780 -0.3926  0.1457
 7743SOL    HW134865   3.070   3.990  15.235 -0.8038 -0.3097 -0.8180
 7743SOL    HW234866   3.058   3.871  15.327  0.5828  2.0092  0.6943
 7744SOL     OW34867   0.723   0.796   6.191 -0.3024 -0.1829 -0.0799
 7744SOL    HW134868   0.657   0.765   6.253 -0.2154 -0.6027 -0.2003
 7744SOL    HW234869   0.670   0.863   6.148 -0.2387  0.0343  0.1799
 7745SOL     OW34870   4.581   0.732   4.924  0.0808 -0.5171  0.1434
 7745SOL    HW134871   4.584   0.758   4.832  0.6328 -0.5978  0.1394
 7745SOL    HW234872   4.621   0.800   4.978  0.2581 -0.3742 -0.1702
 7746SOL     OW34873   3.601   2.600   8.078 -0.1617 -0.0430 -0.0447
 7746SOL    HW134874   3.653   2.627   8.003  2.2482 -1.9187  0.9297
 7746SOL    HW234875   3.666   2.550   8.128 -0.5298 -0.2875  0.1880
 7747SOL     OW34876   4.001   4.529   0.618 -0.1582  0.0473 -0.4491
 7747SOL    HW134877   4.059   4.492   0.552 -1.2561 -1.3638 -0.6341
 7747SOL    HW234878   3.936   4.459   0.614  0.4360 -0.4940 -0.5760
 7748SOL     OW34879   3.909   2.750   4.585  0.9960  0.1207  0.4814
 7748SOL    HW134880   3.879   2.827   4.634 -0.3738  0.4080 -0.8203
 7748SOL    HW234881   3.912   2.794   4.500 -2.2201  0.0811  0.3570
 7749SOL     OW34882   4.677   0.916   6.134  0.4045 -0.4895 -0.0365
 7749SOL    HW134883   4.658   0.919   6.040  2.5940  2.4774 -0.3547
 7749SOL    HW234884   4.647   0.830   6.164 -1.8640  0.5526  0.6598
 7750SOL     OW34885   0.942   4.090   2.608 -0.4193  0.0444  0.1915
 7750SOL    HW134886   1.020   4.038   2.629  0.1626 -0.1007 -2.3416
 7750SOL    HW234887   0.962   4.172   2.653  0.2684 -0.6603  1.1849
 7751SOL     OW34888   3.037   1.538   1.225 -0.2080  0.2456 -0.1063
 7751SOL    HW134889   2.955   1.572   1.261  0.6416  2.2656 -0.0908
 7751SOL    HW234890   3.058   1.474   1.294  0.4637  0.5235 -0.0522
 7752SOL     OW34891   1.714   1.291   2.160  0.1978 -0.3616 -0.1862
 7752SOL    HW134892   1.723   1.366   2.101 -1.5052  0.9014  1.1573
 7752SOL    HW234893   1.775   1.307   2.232  1.2421 -0.5742 -1.0213
 7753SOL     OW34894   1.991   1.637   1.882 -0.5348 -0.0363  0.0437
 7753SOL    HW134895   1.999   1.642   1.787 -2.8865  0.7611 -0.1150
 7753SOL    HW234896   1.918   1.575   1.885 -0.4299 -0.1600  0.0417
 7754SOL     OW34897   4.067   0.142   7.667  0.2859 -0.1721 -0.7039
 7754SOL    HW134898   4.083   0.116   7.576  0.2813 -0.7073 -0.5535
 7754SOL    HW234899   3.989   0.198   7.666 -0.1181 -0.7360 -0.6720
 7755SOL     OW34900   2.373   0.456   2.236  0.8630 -0.0670  0.0193
 7755SOL    HW134901   2.299   0.459   2.296  0.8070  2.0079 -0.1646
 7755SOL    HW234902   2.417   0.541   2.232  0.0781  0.3103 -0.4912
 7756SOL     OW34903   3.238   0.269   8.405  0.4608 -0.1492  0.1719
 7756SOL    HW134904   3.330   0.286   8.383  0.9053 -0.3062  1.8791
 7756SOL    HW234905   3.234   0.186   8.357 -0.4840 -0.8047  1.3687
 7757SOL     OW34906   0.956   4.572   2.135 -0.2750  0.2616 -0.3400
 7757SOL    HW134907   0.961   4.481   2.162 -0.3020  0.8721  1.7500
 7757SOL    HW234908   0.866   4.581   2.105  0.3073  2.2660 -1.4488
 7758SOL     OW34909   4.365   3.107   4.952 -0.2002 -0.0414  0.5061
 7758SOL    HW134910   4.407   3.162   4.885  0.9788 -2.7478 -0.9675
 7758SOL    HW234911   4.434   3.123   5.017 -1.7148 -1.9186  2.5642
 7759SOL     OW34912   0.859   0.285   2.359 -0.8826  0.1745  0.4710
 7759SOL    HW134913   0.812   0.211   2.399 -0.9345 -0.4009 -0.6694
 7759SOL    HW234914   0.790   0.310   2.298  0.8801 -0.9799 -2.0155
 7760SOL     OW34915   2.441   4.698   6.696  0.2539 -0.2516 -0.0525
 7760SOL    HW134916   2.361   4.728   6.740  0.5443  1.2300 -0.5630
 7760SOL    HW234917   2.407   4.660   6.614  0.8691  1.2758 -0.9976
 7761SOL     OW34918   2.855   1.852   3.735  0.2559 -0.7958 -0.0948
 7761SOL    HW134919   2.948   1.853   3.754  0.1100  2.7592  0.3417
 7761SOL    HW234920   2.838   1.769   3.689  1.1793 -0.8230 -0.3906
 7762SOL     OW34921   1.256   4.649  11.788  0.3613 -0.0594  0.7098
 7762SOL    HW134922   1.199   4.583  11.828 -1.4362  0.2293 -1.3466
 7762SOL    HW234923   1.328   4.600  11.749 -0.0770 -0.7877  0.8114
 7763SOL     OW34924   4.705   4.259   3.630  0.3021  0.2488  0.3847
 7763SOL    HW134925   4.704   4.307   3.547 -0.0479  0.5167  0.5450
 7763SOL    HW234926   4.702   4.332   3.691 -0.6092  0.8621 -0.4058
 7764SOL     OW34927   0.989   0.973  16.882  0.1082  0.0315  0.3914
 7764SOL    HW134928   1.010   0.883  16.855  1.3218  0.6835 -0.7996
 7764SOL    HW234929   0.945   1.006  16.804  0.2849  0.2296  0.3766
 7765SOL     OW34930   3.066   1.137   4.276 -0.1500 -0.4349 -0.4847
 7765SOL    HW134931   2.976   1.138   4.306  0.4821 -0.8975  1.3933
 7765SOL    HW234932   3.058   1.051   4.233 -2.2990 -0.8251  0.7209
 7766SOL     OW34933   3.319   0.631   6.126 -0.2482 -0.1164 -0.4130
 7766SOL    HW134934   3.271   0.694   6.179 -0.5067 -0.3721 -0.3462
 7766SOL    HW234935   3.278   0.658   6.044 -2.4522  0.7673  0.9810
 7767SOL     OW34936   0.976   0.019  14.386  0.8543  0.1083 -0.2046
 7767SOL    HW134937   0.937   4.688  14.329 -0.9138 -0.2948  1.4855
 7767SOL    HW234938   0.931   4.729  14.466 -0.0478 -0.9244 -1.0352
 7768SOL     OW34939   0.593   4.601   5.480 -0.0880  0.3832 -0.2523
 7768SOL    HW134940   0.662   4.662   5.504 -1.7664  1.3236  2.2880
 7768SOL    HW234941   0.578   4.556   5.564  1.3685 -0.0900 -0.2444
 7769SOL     OW34942   4.638   1.921   6.317 -0.8452  0.2953 -0.1699
 7769SOL    HW134943   4.558   1.880   6.351  0.6870  0.4305  3.5324
 7769SOL    HW234944   4.696   1.925   6.392 -2.3767 -1.4674  1.1125
 7770SOL     OW34945   3.859   2.027   8.941 -0.1181 -0.6328 -0.0210
 7770SOL    HW134946   3.835   1.934   8.941 -1.9957 -0.1610  2.1417
 7770SOL    HW234947   3.827   2.044   9.029 -2.1481  0.8781 -1.0579
 7771SOL     OW34948   2.325   4.082   5.265  0.2304  0.1152  0.5989
 7771SOL    HW134949   2.344   3.991   5.242  1.1143  0.1392  1.2303
 7771SOL    HW234950   2.251   4.081   5.326  1.0247 -1.1158  1.5315
 7772SOL     OW34951   3.924   2.366   3.540  0.2129 -0.3110  0.3755
 7772SOL    HW134952   4.009   2.335   3.507  0.6199  0.8096  0.3645
 7772SOL    HW234953   3.948   2.457   3.560 -1.1007 -0.3913  2.3599
 7773SOL     OW34954   3.500   3.169   3.463 -0.6897 -0.2878  0.1810
 7773SOL    HW134955   3.455   3.229   3.404  1.0536 -0.8742 -1.7342
 7773SOL    HW234956   3.571   3.227   3.490 -1.4618  1.4050 -1.4214
 7774SOL     OW34957   1.006   3.603   6.771  0.6160  0.0930  0.5049
 7774SOL    HW134958   0.922   3.557   6.761  0.0354  1.2791 -0.0715
 7774SOL    HW234959   1.022   3.613   6.678 -0.9726 -0.8500  0.1216
 7775SOL     OW34960   3.709   2.911   5.939 -0.3936  0.1232 -0.0400
 7775SOL    HW134961   3.665   2.827   5.946 -1.6838  0.7061 -1.2147
 7775SOL    HW234962   3.710   2.944   6.029  1.5180  0.6556 -0.2583
 7776SOL     OW34963   0.752   3.077   5.726  0.3627  0.0410  0.0071
 7776SOL    HW134964   0.662   3.098   5.700 -0.6824 -1.2302  2.5385
 7776SOL    HW234965   0.784   3.117   5.646  3.3139 -2.1665  0.0657
 7777SOL     OW34966   4.590   4.031   5.848 -0.1800  0.3155  0.4293
 7777SOL    HW134967   4.536   4.074   5.782  0.5927 -3.8200 -2.9617
 7777SOL    HW234968   4.582   4.097   5.916  3.1178  1.0912  0.0802
 7778SOL     OW34969   0.100   2.490  13.457 -0.1218 -0.0203  0.3701
 7778SOL    HW134970   0.137   2.490  13.546 -0.7423 -0.8291  0.6291
 7778SOL    HW234971   0.131   2.575  13.424 -1.4649  0.6384  0.8301
 7779SOL     OW34972   2.786   3.676   5.020  0.3491 -0.2327 -0.2582
 7779SOL    HW134973   2.745   3.697   5.104  2.0532  1.3613  0.1781
 7779SOL    HW234974   2.710   3.646   4.970  0.2266 -0.4277  0.0450
 7780SOL     OW34975   4.414   2.941   6.247 -0.5798  0.1117  0.2994
 7780SOL    HW134976   4.447   2.953   6.158 -0.3602  2.6860  0.7147
 7780SOL    HW234977   4.407   3.030   6.281  0.6670  0.0649  0.6725
 7781SOL     OW34978   1.748   3.022   8.209 -0.0318 -0.1511  0.4623
 7781SOL    HW134979   1.734   3.075   8.288 -0.1183 -0.1527  0.4477
 7781SOL    HW234980   1.814   3.078   8.167 -0.8057  0.6624  0.3365
 7782SOL     OW34981   3.371   3.026   1.730 -0.6388 -0.7979 -0.5781
 7782SOL    HW134982   3.355   3.114   1.696  1.2651 -1.1608 -2.4201
 7782SOL    HW234983   3.323   2.981   1.660  0.0058  0.1885 -1.6552
 7783SOL     OW34984   2.843   3.403   4.697 -0.4511  0.4580 -0.4811
 7783SOL    HW134985   2.846   3.402   4.793  0.2415  2.4758 -0.4975
 7783SOL    HW234986   2.917   3.463   4.688 -0.2319  0.4704  1.4500
 7784SOL     OW34987   3.939   4.229   2.780  0.5300 -0.0581  0.0047
 7784SOL    HW134988   3.936   4.291   2.853 -0.3198 -0.0889 -0.0088
 7784SOL    HW234989   3.974   4.281   2.708  2.6708 -1.0501  0.3355
 7785SOL     OW34990   1.157   3.452   6.272  0.2267  0.1038  0.1592
 7785SOL    HW134991   1.236   3.402   6.255  0.5200  0.5815  0.1166
 7785SOL    HW234992   1.163   3.522   6.207  0.4269  1.1776  1.3406
 7786SOL     OW34993   1.589   0.999   0.517 -0.5054  0.0757 -0.4666
 7786SOL    HW134994   1.617   0.943   0.444  0.6759  0.4386 -0.2796
 7786SOL    HW234995   1.495   1.012   0.502 -0.8020 -0.3374  0.9807
 7787SOL     OW34996   0.558   2.007   3.443  0.1185 -0.0893 -0.5420
 7787SOL    HW134997   0.568   1.934   3.505  0.5926  1.3600  1.0971
 7787SOL    HW234998   0.615   2.075   3.480  2.0949 -0.7923 -2.3298
 7788SOL     OW34999   1.595   2.084   8.598  0.0173 -0.5087 -0.0524
 7788SOL    HW135000   1.683   2.060   8.569 -0.3524 -0.2970 -1.3729
 7788SOL    HW235001   1.532   2.051   8.534 -0.7171  1.2534 -0.2479
 7789SOL     OW35002   2.663   2.890   4.355  0.0372 -0.4649  0.6414
 7789SOL    HW135003   2.648   2.970   4.405  1.5965 -0.0183  0.3895
 7789SOL    HW235004   2.712   2.924   4.280  0.0360 -1.6474  0.0884
 7790SOL     OW35005   4.180   4.162   7.438 -0.1674 -0.4690  0.3458
 7790SOL    HW135006   4.139   4.191   7.519 -0.5873  1.1338 -0.4362
 7790SOL    HW235007   4.222   4.244   7.414 -0.2206 -0.4988  0.1524
 7791SOL     OW35008   2.242   3.475   4.378  0.4572 -0.3961 -0.3648
 7791SOL    HW135009   2.285   3.391   4.364  3.1893  0.8981  0.2167
 7791SOL    HW235010   2.268   3.521   4.298  0.2045  0.2780 -0.0578
 7792SOL     OW35011   1.906   2.973  16.135 -0.4982  0.2420 -0.0126
 7792SOL    HW135012   1.969   2.929  16.191  1.4337  1.5407 -1.1542
 7792SOL    HW235013   1.943   3.061  16.130 -0.3689  0.1513 -0.6184
 7793SOL     OW35014   1.323   4.124   5.134  0.1720 -0.1379 -0.0195
 7793SOL    HW135015   1.360   4.210   5.155 -4.5399  1.5636  1.2025
 7793SOL    HW235016   1.389   4.076   5.083 -0.9902 -1.2785 -0.4509
 7794SOL     OW35017   0.597   0.277   2.150 -0.2289 -0.0777  0.1454
 7794SOL    HW135018   0.684   0.285   2.113  0.3544 -0.4621  1.4130
 7794SOL    HW235019   0.549   0.338   2.095  0.8217 -1.7110 -2.6052
 7795SOL     OW35020   1.862   0.176   9.206 -0.2656 -0.2608 -0.0029
 7795SOL    HW135021   1.852   0.137   9.119  1.1789 -1.3803  0.3225
 7795SOL    HW235022   1.792   0.135   9.256 -1.7147 -1.6387 -3.1702
 7796SOL     OW35023   0.630   2.880   2.053  0.0144 -0.5204  0.2510
 7796SOL    HW135024   0.596   2.791   2.051  1.9569 -1.2964  2.8025
 7796SOL    HW235025   0.559   2.933   2.015 -0.9166 -0.8382  1.5534
 7797SOL     OW35026   3.413   3.416   3.986  0.3468 -0.1821 -0.3693
 7797SOL    HW135027   3.368   3.481   4.040  1.3458  0.0892  0.1450
 7797SOL    HW235028   3.447   3.357   4.054 -2.3035 -2.0822 -0.6979
 7798SOL     OW35029   3.021   4.603   5.010 -0.3402 -0.3312 -0.8623
 7798SOL    HW135030   2.976   4.649   4.939 -1.5229  1.4491  1.0395
 7798SOL    HW235031   3.014   4.514   4.974 -0.8505 -0.0333 -1.5062
 7799SOL     OW35032   0.172   0.746   0.893 -0.0148 -0.3579  0.1559
 7799SOL    HW135033   0.079   0.744   0.915  0.0106  0.9806  0.3735
 7799SOL    HW235034   0.172   0.771   0.801  2.5735  1.9003  0.7802
 7800SOL     OW35035   4.559   1.494   6.758  0.0524 -0.3981 -0.0592
 7800SOL    HW135036   4.480   1.544   6.776 -0.2360 -0.6000 -0.7885
 7800SOL    HW235037   4.588   1.479   6.848 -1.5315  0.7924  0.6420
 7801SOL     OW35038   3.394   0.603   4.603 -0.3933  0.1262 -0.2621
 7801SOL    HW135039   3.310   0.562   4.624 -0.9733  2.0961  1.3272
 7801SOL    HW235040   3.424   0.533   4.546  0.8579  0.5989 -0.1931
 7802SOL     OW35041   2.151   2.552   4.325 -0.9901 -0.1275  0.6817
 7802SOL    HW135042   2.188   2.552   4.413  0.1736 -1.6730  0.1878
 7802SOL    HW235043   2.131   2.459   4.314 -0.4777 -0.0685 -0.7792
 7803SOL     OW35044   4.271   0.391  14.765 -0.2573 -0.8399 -0.0770
 7803SOL    HW135045   4.286   0.485  14.766  1.6510 -1.1267  0.0641
 7803SOL    HW235046   4.208   0.389  14.836 -1.3975 -1.3388 -1.1098
 7804SOL     OW35047   1.895   0.337   1.572  0.0315 -0.0680 -0.4750
 7804SOL    HW135048   1.818   0.299   1.615 -0.1376  2.0514  1.0973
 7804SOL    HW235049   1.930   0.392   1.642 -0.1162  2.1173 -2.1210
 7805SOL     OW35050   0.564   3.520   3.509 -0.0261  0.0575  0.3575
 7805SOL    HW135051   0.626   3.448   3.514  0.1093  0.2118  1.0111
 7805SOL    HW235052   0.596   3.577   3.439 -0.6682 -0.8642 -0.6805
 7806SOL     OW35053   3.217   3.733   1.687  0.2615  0.4770 -0.1619
 7806SOL    HW135054   3.183   3.657   1.734  0.9438  0.6289  0.5737
 7806SOL    HW235055   3.308   3.707   1.680  0.0790  0.0833 -1.0872
 7807SOL     OW35056   1.221   2.978   3.892  0.3776  0.0485  0.4567
 7807SOL    HW135057   1.226   3.036   3.815  1.5384  0.9330  1.2049
 7807SOL    HW235058   1.300   3.007   3.936 -0.0376  0.6465  0.8173
 7808SOL     OW35059   4.439   4.174   3.564  0.0215  0.0496 -0.0774
 7808SOL    HW135060   4.528   4.173   3.597  0.2707  3.3884 -0.6974
 7808SOL    HW235061   4.418   4.081   3.576 -0.1707  0.2296  0.9836
 7809SOL     OW35062   3.529   2.255   5.299  0.0412  0.3063 -0.0560
 7809SOL    HW135063   3.532   2.223   5.209 -2.3646  1.1535 -0.4335
 7809SOL    HW235064   3.620   2.277   5.314 -0.4068 -0.6936  4.1782
 7810SOL     OW35065   2.232   0.454   2.567  0.6442  0.2148  0.1735
 7810SOL    HW135066   2.181   0.485   2.642 -0.5907 -1.5236  0.0573
 7810SOL    HW235067   2.184   0.375   2.541  0.4539  0.7412 -1.0540
 7811SOL     OW35068   0.385   4.084   8.455 -0.2108  0.0660  0.8020
 7811SOL    HW135069   0.352   3.996   8.440 -0.1209  0.1909 -0.1524
 7811SOL    HW235070   0.425   4.086   8.542 -1.5756 -1.7759  1.4432
 7812SOL     OW35071   0.148   2.044   7.459  0.4719  0.3817 -0.1278
 7812SOL    HW135072   0.230   2.082   7.492  0.1262  0.4822  0.6312
 7812SOL    HW235073   0.181   1.958   7.435 -1.0292 -1.0573  2.9393
 7813SOL     OW35074   2.353   1.822   2.925 -0.0828 -0.1919  0.1557
 7813SOL    HW135075   2.311   1.839   3.010  2.2765 -1.9054  1.6713
 7813SOL    HW235076   2.442   1.801   2.956 -0.5813 -0.9994  1.0460
 7814SOL     OW35077   2.871   0.846   4.668  0.3046  0.7098  0.2732
 7814SOL    HW135078   2.798   0.823   4.726  1.2702  1.9641  1.9834
 7814SOL    HW235079   2.873   0.942   4.669 -1.2685  0.7498  0.0438
 7815SOL     OW35080   3.335   1.310  15.933  0.4369 -0.0483 -0.0109
 7815SOL    HW135081   3.258   1.270  15.893  0.6813 -0.7299  0.2086
 7815SOL    HW235082   3.284   1.370  15.988  0.4383  1.1748 -1.3508
 7816SOL     OW35083   1.717   3.787   6.638  0.1717  0.2349  0.2529
 7816SOL    HW135084   1.759   3.833   6.710 -2.2603  0.2826  1.6733
 7816SOL    HW235085   1.702   3.707   6.690 -0.9703  0.7657  0.7427
 7817SOL     OW35086   1.872   0.238   6.070  0.3890 -0.8686  0.7637
 7817SOL    HW135087   1.927   0.226   6.147  1.6450  0.3847  0.0502
 7817SOL    HW235088   1.850   0.150   6.040  0.4174  0.8568 -4.3294
 7818SOL     OW35089   1.685   0.591   3.418 -0.3990  0.4688  0.2701
 7818SOL    HW135090   1.709   0.661   3.478  0.9211  1.3253 -1.2329
 7818SOL    HW235091   1.672   0.633   3.333 -0.9798  1.0051  0.6300
 7819SOL     OW35092   2.561   0.032   2.811 -0.2295  0.5421  0.3376
 7819SOL    HW135093   2.617   0.087   2.865 -0.4221  0.8643  0.2132
 7819SOL    HW235094   2.524   0.093   2.747  0.0670 -0.6884 -1.0010
 7820SOL     OW35095   0.888   4.170  14.994 -0.6080  0.5440 -0.1759
 7820SOL    HW135096   0.812   4.213  14.955 -2.1648 -1.8004  0.2864
 7820SOL    HW235097   0.930   4.238  15.046  0.6256 -1.4904  1.4848
 7821SOL     OW35098   4.318   4.406   7.390 -0.3266 -0.0539  0.5905
 7821SOL    HW135099   4.249   4.471   7.403 -0.9280 -0.7424  0.8115
 7821SOL    HW235100   4.364   4.441   7.313  1.8462  2.2040  2.9115
 7822SOL     OW35101   0.460   1.751   4.898 -0.2077 -0.1353  0.7477
 7822SOL    HW135102   0.530   1.806   4.934  1.8717 -2.5240  0.3155
 7822SOL    HW235103   0.383   1.801   4.928  0.9803  1.1368  1.6651
 7823SOL     OW35104   3.099   3.232   8.725  0.5696  0.0515 -0.0659
 7823SOL    HW135105   3.145   3.176   8.787 -0.7195  0.9596  1.7153
 7823SOL    HW235106   3.032   3.267   8.784 -0.4503 -1.6048 -0.2541
 7824SOL     OW35107   1.960   3.183  13.251 -0.0739 -0.5128  0.1242
 7824SOL    HW135108   1.866   3.171  13.264  0.2999 -2.1204  1.2555
 7824SOL    HW235109   1.953   3.215  13.161  1.9734  2.3348  0.9637
 7825SOL     OW35110   3.024   1.898  10.606  0.5772  0.1637  0.4162
 7825SOL    HW135111   3.033   1.904  10.511  1.0437  0.0051  0.4554
 7825SOL    HW235112   2.996   1.809  10.624  2.4559 -0.1662  1.6521
 7826SOL     OW35113   4.177   4.277   3.770  0.4682  0.2273 -0.0693
 7826SOL    HW135114   4.141   4.192   3.795  0.0501  1.0059  1.9499
 7826SOL    HW235115   4.271   4.260   3.775  0.8211  2.2475  0.3076
 7827SOL     OW35116   4.644   0.607   4.383  0.1711 -0.5970 -0.0846
 7827SOL    HW135117   4.689   0.684   4.347 -1.2532  0.6836  0.8686
 7827SOL    HW235118   4.665   0.542   4.316 -0.7669  2.2030 -3.0660
 7828SOL     OW35119   0.737   2.241  16.550  0.5373 -0.1396 -0.1427
 7828SOL    HW135120   0.717   2.316  16.605  2.4566 -0.6998  1.3052
 7828SOL    HW235121   0.721   2.268  16.460  0.0894  1.0068  0.2772
 7829SOL     OW35122   1.666   1.894  14.567 -0.3173  0.0036  0.1127
 7829SOL    HW135123   1.735   1.923  14.507 -1.1816 -0.9964 -1.3594
 7829SOL    HW235124   1.624   1.825  14.516  2.4994 -0.4325 -1.5812
 7830SOL     OW35125   3.661   0.938  14.907 -0.3024 -0.1494  0.0043
 7830SOL    HW135126   3.582   0.890  14.930  1.2011 -2.1165  1.0074
 7830SOL    HW235127   3.723   0.889  14.961 -0.7147 -1.5695 -0.8084
 7831SOL     OW35128   4.399   3.815   0.364  0.4541 -0.2396 -0.0877
 7831SOL    HW135129   4.350   3.833   0.284 -2.2021  0.8215  1.7797
 7831SOL    HW235130   4.336   3.853   0.424 -0.4256 -0.2386 -0.9983
 7832SOL     OW35131   1.483   2.647   2.956 -0.0284 -0.4963 -0.2542
 7832SOL    HW135132   1.425   2.720   2.934  0.2135 -0.1693  0.1878
 7832SOL    HW235133   1.424   2.574   2.974  0.1072 -0.1453  1.5817
 7833SOL     OW35134   1.979   4.394   8.445  0.2132 -0.4751 -0.3865
 7833SOL    HW135135   2.065   4.426   8.419 -0.1341  1.1334  0.4123
 7833SOL    HW235136   2.012   4.321   8.497 -0.9257 -0.3923  0.4560
 7834SOL     OW35137   3.206   3.839  11.630  0.0784 -0.4104 -0.0706
 7834SOL    HW135138   3.205   3.779  11.556 -1.2857 -0.1303 -0.2823
 7834SOL    HW235139   3.294   3.826  11.665  0.5573  0.6176 -0.9115
 7835SOL     OW35140   1.923   1.313  16.168  0.1837 -0.0730  0.3878
 7835SOL    HW135141   1.852   1.251  16.155  0.2166 -0.0436  0.0707
 7835SOL    HW235142   1.898   1.393  16.123 -2.0191 -0.7478  0.4386
 7836SOL     OW35143   4.202   2.416   7.255 -0.4813  0.1308  0.6452
 7836SOL    HW135144   4.142   2.411   7.181 -0.4113 -0.3298  0.6234
 7836SOL    HW235145   4.277   2.453   7.209 -0.4410  0.1358  0.7149
 7837SOL     OW35146   4.101   0.211   7.188  0.4426 -0.7156 -0.1874
 7837SOL    HW135147   4.009   0.210   7.161  1.0415 -0.4755 -2.2208
 7837SOL    HW235148   4.130   0.300   7.170  2.3827 -0.9487  1.7597
 7838SOL     OW35149   1.802   3.974   3.388  0.2159  0.0613 -0.5104
 7838SOL    HW135150   1.810   3.927   3.305  0.9146 -0.2530 -0.2612
 7838SOL    HW235151   1.893   3.994   3.407  1.2911 -3.3544 -2.0664
 7839SOL     OW35152   2.122   0.613   5.756 -0.3913  0.2131 -0.0920
 7839SOL    HW135153   2.101   0.596   5.664  0.5403  0.2624 -0.3158
 7839SOL    HW235154   2.171   0.534   5.780  1.5001  1.9335  1.7751
 7840SOL     OW35155   4.416   1.565   4.074  0.6000 -0.0831 -0.2333
 7840SOL    HW135156   4.372   1.488   4.037 -0.4729  0.6643 -0.5017
 7840SOL    HW235157   4.358   1.632   4.039  3.1073 -0.1380 -4.5074
 7841SOL     OW35158   0.844   2.855   8.177  0.2962 -0.4976  0.7984
 7841SOL    HW135159   0.784   2.902   8.234  2.1300  1.5299  1.0729
 7841SOL    HW235160   0.910   2.819   8.236  0.6697 -1.6301 -0.3188
 7842SOL     OW35161   1.571   2.210  12.592 -0.4379  0.4384  0.4460
 7842SOL    HW135162   1.653   2.203  12.542  0.3606  1.9065  1.5227
 7842SOL    HW235163   1.512   2.154  12.542 -1.4659  2.2789 -0.4192
 7843SOL     OW35164   4.592   3.027   3.625 -0.2452  0.7467 -0.3270
 7843SOL    HW135165   4.635   3.110   3.648 -1.6702  1.4612 -0.2243
 7843SOL    HW235166   4.643   2.993   3.552 -1.6823 -3.4481  0.6774
 7844SOL     OW35167   3.219   0.103   0.202 -0.2356  0.0937 -0.4427
 7844SOL    HW135168   3.138   0.053   0.192  0.2003 -0.1179 -3.0011
 7844SOL    HW235169   3.233   0.122   0.294 -1.0402  0.9041 -0.4803
 7845SOL     OW35170   3.311   2.387  11.514  0.0955 -0.3000 -0.9250
 7845SOL    HW135171   3.267   2.365  11.431 -0.5118 -2.0873 -0.1135
 7845SOL    HW235172   3.299   2.307  11.564  1.2147  0.8418  1.1832
 7846SOL     OW35173   4.612   4.207   8.582  0.1546  1.4223 -0.5711
 7846SOL    HW135174   4.560   4.164   8.514  1.6556  1.3689 -1.6906
 7846SOL    HW235175   4.623   4.132   8.640 -1.3325  0.6257 -1.3208
 7847SOL     OW35176   2.438   1.944   0.790 -0.1628 -0.1115 -0.5379
 7847SOL    HW135177   2.489   1.876   0.746 -1.1505 -0.0521 -1.7783
 7847SOL    HW235178   2.351   1.905   0.785  1.4135 -3.7552  0.7117
 7848SOL     OW35179   2.938   1.709   5.016  0.3595  0.0975  0.3916
 7848SOL    HW135180   2.932   1.704   4.921  1.2668  2.7048  0.2162
 7848SOL    HW235181   2.953   1.803   5.023  1.8983  0.0179 -1.8642
 7849SOL     OW35182   3.649   1.565   1.116  0.2772 -0.4307 -0.3128
 7849SOL    HW135183   3.725   1.506   1.116  0.0003 -0.7892 -0.0325
 7849SOL    HW235184   3.583   1.518   1.064 -1.9413  1.6638  0.6069
 7850SOL     OW35185   3.417   1.602   4.086 -0.8143  0.1592 -0.3028
 7850SOL    HW135186   3.393   1.609   4.179  0.2995  2.8362 -0.2267
 7850SOL    HW235187   3.421   1.693   4.058  2.4299  0.4662  1.1568
 7851SOL     OW35188   4.379   1.263   8.370  0.3293 -0.5519  0.4621
 7851SOL    HW135189   4.292   1.231   8.347 -0.4735  0.4468  2.0997
 7851SOL    HW235190   4.392   1.251   8.464 -0.8086 -0.0958  0.6805
 7852SOL     OW35191   0.510   2.901   8.738 -0.1419  0.7629  0.0305
 7852SOL    HW135192   0.581   2.854   8.696 -1.3571 -1.1969  0.1624
 7852SOL    HW235193   0.457   2.921   8.661  0.6778  1.2827 -0.3903
 7853SOL     OW35194   0.073   0.496   6.229 -0.1161  0.0605 -0.1211
 7853SOL    HW135195   4.712   0.498   6.221  0.0939  0.2896 -2.5533
 7853SOL    HW235196   0.093   0.477   6.321  0.0874 -2.6077 -0.7230
 7854SOL     OW35197   1.722   2.489   7.595  0.1371  0.1342 -0.3454
 7854SOL    HW135198   1.636   2.520   7.565  0.3720  1.2221  0.0936
 7854SOL    HW235199   1.708   2.401   7.629 -0.6826  0.2904 -0.2871
 7855SOL     OW35200   4.637   0.519   1.755  0.0880  0.2142 -0.0134
 7855SOL    HW135201   4.579   0.547   1.827  0.1627 -0.5858  0.3617
 7855SOL    HW235202   4.644   0.607   1.718  3.5168  0.3042  0.8805
 7856SOL     OW35203   3.119   4.199  15.173  0.4155 -0.6936 -0.2571
 7856SOL    HW135204   3.191   4.174  15.115  0.4335  2.7071 -1.7441
 7856SOL    HW235205   3.049   4.201  15.107  1.8041  1.3971 -1.6913
 7857SOL     OW35206   1.897   1.850   4.438 -0.0216  0.4883 -0.3366
 7857SOL    HW135207   1.899   1.754   4.441 -0.2626  0.5036  0.3330
 7857SOL    HW235208   1.804   1.870   4.432 -0.5385 -2.2934 -1.3788
 7858SOL     OW35209   1.247   0.519   8.382 -0.3048  0.0135  0.3928
 7858SOL    HW135210   1.178   0.514   8.448  0.4227  0.0054  1.1446
 7858SOL    HW235211   1.241   0.432   8.341 -1.5654  0.1732  0.2406
 7859SOL     OW35212   2.872   0.428  17.118  0.1245 -0.2962 -0.6671
 7859SOL    HW135213   2.827   0.497  17.167 -1.7518 -1.2336 -1.0678
 7859SOL    HW235214   2.855   0.472  17.035 -2.4369 -1.4444 -0.7549
 7860SOL     OW35215   2.998   2.783  13.630 -0.0547 -0.4270  0.6345
 7860SOL    HW135216   3.094   2.777  13.624  0.1321  1.6680  1.6090
 7860SOL    HW235217   2.970   2.724  13.560 -0.3074  0.3473  0.0836
 7861SOL     OW35218   4.457   2.693   1.667 -0.0408 -0.0970  0.0311
 7861SOL    HW135219   4.374   2.698   1.620 -1.8649  1.4714  3.3677
 7861SOL    HW235220   4.520   2.725   1.602  1.1863 -3.9839 -0.6990
 7862SOL     OW35221   2.666   1.597   5.069  0.5797  0.2650  1.1829
 7862SOL    HW135222   2.623   1.680   5.047  2.9560  0.8559 -1.3310
 7862SOL    HW235223   2.757   1.628   5.076  0.6072  0.8415 -1.4395
 7863SOL     OW35224   3.026   3.529   1.807  0.1763  0.0706  0.8842
 7863SOL    HW135225   2.935   3.509   1.825 -0.3350  0.8310 -0.8939
 7863SOL    HW235226   3.027   3.501   1.715 -1.1778 -0.4847  1.0514
 7864SOL     OW35227   4.617   0.903   5.846  0.0949  0.6275 -0.7504
 7864SOL    HW135228   4.607   0.982   5.793  1.9502  0.2721 -1.6421
 7864SOL    HW235229   4.630   0.844   5.771 -2.0987 -0.2585 -0.4458
 7865SOL     OW35230   1.094   0.114  11.679 -0.7798 -0.4363  0.0019
 7865SOL    HW135231   1.137   0.059  11.744 -0.3430 -0.4585 -0.3027
 7865SOL    HW235232   1.161   0.109  11.611  1.6481  1.8515  2.1657
 7866SOL     OW35233   4.105   0.377   3.596  0.2206 -0.0759 -0.9950
 7866SOL    HW135234   4.035   0.422   3.549 -0.7998 -0.2570  0.3267
 7866SOL    HW235235   4.082   0.374   3.689  1.6123  1.4994 -0.6092
 7867SOL     OW35236   1.382   2.654   5.467 -0.3348 -0.1555 -0.0335
 7867SOL    HW135237   1.319   2.714   5.509  2.2486  3.7129 -1.6610
 7867SOL    HW235238   1.467   2.683   5.498 -0.4954 -0.8032  1.0313
 7868SOL     OW35239   1.459   2.344   7.223  0.2193  0.1733  0.5276
 7868SOL    HW135240   1.385   2.289   7.247 -0.9837  0.5407 -2.2620
 7868SOL    HW235241   1.524   2.324   7.290 -0.3039  1.4521  1.4160
 7869SOL     OW35242   4.290   3.250  12.623  0.0475  0.2793  0.5163
 7869SOL    HW135243   4.351   3.175  12.623 -1.4959 -0.9601 -1.4442
 7869SOL    HW235244   4.229   3.230  12.553  0.8217  1.3155 -0.4502
 7870SOL     OW35245   1.859   3.156   2.601 -0.2082  0.1277  0.3676
 7870SOL    HW135246   1.791   3.152   2.534  1.1897  1.3669 -1.1125
 7870SOL    HW235247   1.877   3.062   2.597  2.3457  0.6054  0.5860
 7871SOL     OW35248   3.882   1.938   2.675  0.2507 -0.2590  0.5879
 7871SOL    HW135249   3.866   2.008   2.738 -0.6741  1.5445 -1.6170
 7871SOL    HW235250   3.951   1.979   2.622 -1.3835  2.1739  0.3167
 7872SOL     OW35251   3.460   1.770   9.139 -0.6020  0.4170  0.5135
 7872SOL    HW135252   3.449   1.692   9.084 -0.4098 -0.1557  1.2912
 7872SOL    HW235253   3.444   1.847   9.084 -0.9940 -0.1218 -0.1243
 7873SOL     OW35254   0.974   2.171  17.431 -0.4960  0.8955 -0.2679
 7873SOL    HW135255   1.032   2.242  17.404 -0.9972  1.9349  1.3570
 7873SOL    HW235256   0.950   2.149  17.341  0.6923 -1.2064 -0.0568
 7874SOL     OW35257   3.582   1.278   8.535  0.2821 -0.0793  0.7377
 7874SOL    HW135258   3.610   1.269   8.444 -1.3840  0.0090  0.2064
 7874SOL    HW235259   3.589   1.186   8.561  1.0560  0.0576  1.0168
 7875SOL     OW35260   0.704   1.521  14.795  0.0471 -0.3702 -0.1339
 7875SOL    HW135261   0.649   1.516  14.873  1.7725 -1.7115  0.9864
 7875SOL    HW235262   0.740   1.432  14.798 -0.5125 -0.5554  1.0481
 7876SOL     OW35263   3.947   3.907   2.391  0.2065  0.4267 -0.7534
 7876SOL    HW135264   4.008   3.921   2.464 -2.3313  0.1181  1.4369
 7876SOL    HW235265   4.010   3.862   2.335 -0.1036 -1.9213  0.7633
 7877SOL     OW35266   1.316   0.983   3.130 -0.1049 -0.1571  0.5775
 7877SOL    HW135267   1.380   1.054   3.129 -1.2657  0.8880  0.1712
 7877SOL    HW235268   1.348   0.944   3.049 -1.4034 -2.7498  1.3233
 7878SOL     OW35269   4.361   3.326   9.182  0.2661 -0.3980  0.5417
 7878SOL    HW135270   4.376   3.253   9.242 -0.1284 -0.4950  0.5229
 7878SOL    HW235271   4.311   3.279   9.116  1.1170 -0.0303 -0.3684
 7879SOL     OW35272   1.618   1.698  15.335 -0.2253 -0.5218  0.3739
 7879SOL    HW135273   1.674   1.714  15.259 -1.9926  3.0601 -0.1656
 7879SOL    HW235274   1.544   1.755  15.316 -0.3978 -0.3848  1.5069
 7880SOL     OW35275   2.429   2.226   6.408 -0.1046  0.0518  0.1791
 7880SOL    HW135276   2.466   2.138   6.399  0.8227  0.4665 -0.0428
 7880SOL    HW235277   2.450   2.252   6.497  2.1315 -0.6455 -0.1493
 7881SOL     OW35278   2.615   1.531   3.815  0.3882  0.6918  0.4715
 7881SOL    HW135279   2.662   1.589   3.875 -0.0119  1.7511 -0.2371
 7881SOL    HW235280   2.525   1.534   3.847 -0.3004 -0.5637 -1.3550
 7882SOL     OW35281   4.051   1.898  17.638 -0.8175  0.0982 -0.1351
 7882SOL    HW135282   4.009   1.888  17.552  1.2306 -2.9906 -0.7951
 7882SOL    HW235283   4.113   1.970  17.627  0.9166 -1.1442  1.5466
 7883SOL     OW35284   3.442   4.139   1.616  0.6751 -0.5458  0.0429
 7883SOL    HW135285   3.438   4.221   1.666 -0.8898  1.2002 -2.9557
 7883SOL    HW235286   3.509   4.167   1.553  0.3156  1.8761  0.7146
 7884SOL     OW35287   0.466   0.440   1.086 -0.3550 -0.0449 -0.0230
 7884SOL    HW135288   0.396   0.394   1.040  1.6697 -1.3221 -1.8720
 7884SOL    HW235289   0.424   0.479   1.162 -2.0589 -1.7713 -0.0697
 7885SOL     OW35290   3.387   3.673   9.533 -0.6071 -0.4939  0.0214
 7885SOL    HW135291   3.468   3.679   9.583 -0.5690 -3.1452  0.2392
 7885SOL    HW235292   3.359   3.765   9.533 -0.8189 -0.5586  1.9472
 7886SOL     OW35293   3.467   0.704   1.943  0.0469  0.2593  0.6262
 7886SOL    HW135294   3.531   0.634   1.932 -2.1399 -1.1756 -2.8116
 7886SOL    HW235295   3.464   0.754   1.862 -1.0492  0.4474  0.7792
 7887SOL     OW35296   2.705   3.242   2.036  0.3324 -0.0985 -0.3401
 7887SOL    HW135297   2.779   3.188   2.061 -1.0156 -2.1703 -0.7683
 7887SOL    HW235298   2.643   3.174   2.008 -0.8719  0.8319  0.0880
 7888SOL     OW35299   2.166   1.741   7.183  0.2029 -0.1071  0.5070
 7888SOL    HW135300   2.223   1.779   7.250  0.2169  0.6210  0.0798
 7888SOL    HW235301   2.125   1.812   7.135  2.0522 -0.6415 -1.8269
 7889SOL     OW35302   4.220   2.857   4.326  0.6495  0.5339 -0.1560
 7889SOL    HW135303   4.230   2.830   4.417  2.4101  1.9207  0.0663
 7889SOL    HW235304   4.296   2.815   4.284  2.8041  0.2647  4.0393
 7890SOL     OW35305   0.144   0.327  16.175 -0.2124 -0.4027  1.0018
 7890SOL    HW135306   0.219   0.387  16.174  0.3124 -1.0567  1.3936
 7890SOL    HW235307   0.180   0.252  16.127 -0.6901 -0.1131  0.1942
 7891SOL     OW35308   4.407   0.056  16.820 -0.6164  0.1245 -0.1021
 7891SOL    HW135309   4.496   0.086  16.806 -1.2896  1.6132 -1.1757
 7891SOL    HW235310   4.422   4.709  16.868  1.1672  1.0422  0.8690
 7892SOL     OW35311   2.082   2.412   9.564 -0.0352  0.3023 -0.0897
 7892SOL    HW135312   2.042   2.435   9.649 -1.2057 -1.1051 -0.2626
 7892SOL    HW235313   2.176   2.414   9.583 -0.0827 -2.5810  0.3995
 7893SOL     OW35314   2.627   0.546   5.188 -0.0431 -0.0278  0.5313
 7893SOL    HW135315   2.709   0.525   5.232  0.3038 -0.1035 -0.1506
 7893SOL    HW235316   2.645   0.523   5.097  3.2381 -0.3221  1.2801
 7894SOL     OW35317   4.016   3.505   9.908 -0.2170  0.6535  1.0328
 7894SOL    HW135318   3.925   3.520   9.881  0.5859  2.0292 -0.9413
 7894SOL    HW235319   4.029   3.588   9.954 -0.1995  0.8759  0.6318
 7895SOL     OW35320   1.762   3.212   2.853  0.1827 -0.1866  0.3755
 7895SOL    HW135321   1.690   3.250   2.801  0.0178 -0.4661  0.4020
 7895SOL    HW235322   1.830   3.221   2.786  0.2427 -0.0138  0.4603
 7896SOL     OW35323   3.570   0.537  11.515  0.3489 -0.2307  0.6733
 7896SOL    HW135324   3.536   0.495  11.593  1.1427  0.3911  1.3546
 7896SOL    HW235325   3.503   0.526  11.447  0.7438 -0.3172  0.2954
 7897SOL     OW35326   0.156   0.205   0.339 -0.2797  0.1232 -0.6639
 7897SOL    HW135327   0.166   0.171   0.428 -0.3695  1.8423 -0.0101
 7897SOL    HW235328   0.226   0.157   0.294 -0.6603 -0.0562 -1.0549
 7898SOL     OW35329   2.335   3.887   7.011 -0.3755  0.5325  0.0573
 7898SOL    HW135330   2.337   3.962   6.951  0.2564 -0.1290 -0.7419
 7898SOL    HW235331   2.426   3.893   7.039 -0.5579  1.5336  0.4335
 7899SOL     OW35332   3.159   4.087   1.133  0.2771  0.0131  0.0118
 7899SOL    HW135333   3.125   4.146   1.200 -0.9626 -1.6948  0.8771
 7899SOL    HW235334   3.076   4.049   1.105  0.2920  0.6734 -0.9240
 7900SOL     OW35335   3.412   3.507   4.541 -0.1069  0.5125 -0.4801
 7900SOL    HW135336   3.357   3.486   4.465 -1.1030  2.4765 -0.2959
 7900SOL    HW235337   3.497   3.478   4.510 -0.2737  1.4296 -1.7906
 7901SOL     OW35338   4.692   2.696   2.661 -0.2184 -0.4534 -0.3167
 7901SOL    HW135339   4.611   2.667   2.702 -0.1709 -0.4813 -0.2434
 7901SOL    HW235340   4.720   2.627   2.601  0.9327  0.8253 -1.2630
 7902SOL     OW35341   2.613   1.776   5.376 -0.0526 -0.0126  0.2304
 7902SOL    HW135342   2.577   1.720   5.307  0.1105  1.3455 -0.9451
 7902SOL    HW235343   2.708   1.765   5.386 -0.2703 -0.9087  1.3942
 7903SOL     OW35344   1.868   2.727   9.562  0.2821  0.3877  0.2797
 7903SOL    HW135345   1.891   2.663   9.495  0.7405 -0.3763  1.1672
 7903SOL    HW235346   1.773   2.735   9.552  0.5422 -3.0083 -4.2672
 7904SOL     OW35347   2.523   2.306   9.362 -0.2372  0.4588 -0.9492
 7904SOL    HW135348   2.473   2.384   9.339  0.9057  1.1471 -1.1208
 7904SOL    HW235349   2.558   2.276   9.278 -0.6294 -1.4342 -0.4385
 7905SOL     OW35350   2.479   1.276   8.033 -0.3419  0.0248  0.0554
 7905SOL    HW135351   2.385   1.259   8.023 -0.5757  0.7691  0.9586
 7905SOL    HW235352   2.482   1.225   8.114 -0.1564 -1.2940 -0.7960
 7906SOL     OW35353   3.593   2.042   8.715  0.0828  0.8400  0.0639
 7906SOL    HW135354   3.627   2.083   8.795 -0.7934  0.3527  0.6911
 7906SOL    HW235355   3.506   2.009   8.739  0.6390 -0.4496  0.2893
 7907SOL     OW35356   0.039   2.605   4.159 -1.0497 -0.6429  0.1704
 7907SOL    HW135357   0.040   2.518   4.199  1.7117 -0.1102  1.2548
 7907SOL    HW235358   0.040   2.664   4.234  0.4352 -0.5806  0.0916
 7908SOL     OW35359   3.347   3.537  10.031 -0.0271 -0.0409  0.6933
 7908SOL    HW135360   3.324   3.628  10.011 -0.6131 -0.0625  1.2481
 7908SOL    HW235361   3.434   3.545  10.069  0.2275  0.0557  0.0732
 7909SOL     OW35362   3.405   1.729   5.426  0.3263  0.4870  0.2706
 7909SOL    HW135363   3.480   1.688   5.383  1.4040  1.6693  1.0392
 7909SOL    HW235364   3.429   1.820   5.440  1.3776  0.4774 -1.4931
 7910SOL     OW35365   0.449   3.666   2.944 -0.1373  0.0071 -0.0610
 7910SOL    HW135366   0.534   3.706   2.925  0.7859 -1.0060  2.0469
 7910SOL    HW235367   0.394   3.737   2.909 -0.7059  0.5895  2.0461
 7911SOL     OW35368   2.271   0.951   8.085  0.2654 -0.5655 -0.4075
 7911SOL    HW135369   2.247   1.003   8.009 -0.1018 -1.0099 -0.5944
 7911SOL    HW235370   2.199   0.888   8.090 -0.6113  0.3690 -1.2764
 7912SOL     OW35371   1.301   2.015   0.384 -0.5851  0.0449 -0.4559
 7912SOL    HW135372   1.211   2.015   0.415 -0.6137 -0.7272 -0.5565
 7912SOL    HW235373   1.347   2.057   0.457  1.3495 -1.8247 -0.5949
 7913SOL     OW35374   1.008   2.962  16.173  0.8093 -0.2676  0.3397
 7913SOL    HW135375   1.061   2.902  16.225 -0.4782 -1.2468  0.5068
 7913SOL    HW235376   1.005   2.909  16.094 -0.6307 -4.0047  2.9146
 7914SOL     OW35377   0.853   4.018   2.921 -0.1729  0.2948  0.0771
 7914SOL    HW135378   0.943   4.020   2.952 -0.2010  1.2517  0.0925
 7914SOL    HW235379   0.844   4.094   2.864  1.4242 -0.1580 -0.7939
 7915SOL     OW35380   2.412   0.021   4.372  0.1342  0.6001  0.3603
 7915SOL    HW135381   2.350   4.732   4.441 -2.1405  0.2007 -1.8272
 7915SOL    HW235382   2.442   0.105   4.407  0.0372  2.5795 -4.3113
 7916SOL     OW35383   0.712   1.765   7.139  0.3523  0.0719  0.4721
 7916SOL    HW135384   0.640   1.723   7.092 -0.0719  0.6325  0.6032
 7916SOL    HW235385   0.730   1.722   7.223 -2.2343 -1.5203  0.2212
 7917SOL     OW35386   1.865   1.381   4.312  0.0704 -0.0818  0.1128
 7917SOL    HW135387   1.946   1.405   4.268 -0.1609  2.9925  1.3705
 7917SOL    HW235388   1.814   1.339   4.242 -0.7647  0.0958  0.6104
 7918SOL     OW35389   0.550   1.477  15.021 -0.2335 -0.5586 -0.4827
 7918SOL    HW135390   0.549   1.553  15.079  1.3257 -0.6250 -0.3752
 7918SOL    HW235391   0.589   1.408  15.075  0.3036 -1.2148 -1.6964
 7919SOL     OW35392   0.559   4.154   5.079 -0.1024 -0.6636 -0.2667
 7919SOL    HW135393   0.481   4.159   5.024  0.9523  2.0704 -1.5452
 7919SOL    HW235394   0.635   4.179   5.026 -0.9210  2.1911 -0.1154
 7920SOL     OW35395   0.448   0.021  13.716 -0.1807  0.2395  0.3031
 7920SOL    HW135396   0.456   0.095  13.656  1.3627 -1.2531 -1.3007
 7920SOL    HW235397   0.369   0.058  13.757 -0.3685 -1.2407  1.2603
 7921SOL     OW35398   4.452   3.056   2.423 -0.3362  0.4910 -0.3561
 7921SOL    HW135399   4.432   2.986   2.485  1.0932  0.0654 -0.3596
 7921SOL    HW235400   4.505   3.010   2.358  2.1381 -1.7794  3.2760
 7922SOL     OW35401   1.347   1.076   6.542  0.1369 -0.0202 -0.2976
 7922SOL    HW135402   1.336   1.100   6.450  0.2853 -0.1555 -0.3519
 7922SOL    HW235403   1.430   1.029   6.542  1.1928  1.8307 -2.8963
 7923SOL     OW35404   3.964   0.834   2.452  0.9922  0.1201  0.0576
 7923SOL    HW135405   4.002   0.799   2.533 -0.1610 -2.2758 -0.4644
 7923SOL    HW235406   4.014   0.787   2.385  0.6920 -1.8653  1.2182
 7924SOL     OW35407   3.868   0.986   2.233 -0.1347 -0.3488 -0.0223
 7924SOL    HW135408   3.941   0.958   2.289 -1.3288 -1.9166  0.7686
 7924SOL    HW235409   3.844   0.907   2.183 -2.3459 -0.2452  0.8846
 7925SOL     OW35410   3.131   3.210   5.036  0.3001 -0.6288 -0.2781
 7925SOL    HW135411   3.053   3.233   5.086 -1.4093 -0.0954 -3.2018
 7925SOL    HW235412   3.141   3.119   5.064 -0.0159 -0.5803 -0.0125
 7926SOL     OW35413   3.498   3.433   0.003  0.0807  0.1366  0.0018
 7926SOL    HW135414   3.511   3.376   0.078  1.6446 -0.0445 -0.4080
 7926SOL    HW235415   3.565   3.499   0.019 -0.8153  0.9507  0.4250
 7927SOL     OW35416   0.214   0.611   0.124  0.1159  0.4081  0.2980
 7927SOL    HW135417   0.267   0.645   0.052 -1.3517  1.2860 -0.3653
 7927SOL    HW235418   0.239   0.518   0.126  0.7239  0.5365 -1.4969
 7928SOL     OW35419   0.186   1.854  11.202 -0.4947 -0.5040 -0.4315
 7928SOL    HW135420   0.178   1.833  11.295 -0.5307  2.9929  0.3459
 7928SOL    HW235421   0.153   1.773  11.164 -2.2206  0.2855 -0.6000
 7929SOL     OW35422   3.229   1.817   3.255 -0.1625  0.0605  0.1683
 7929SOL    HW135423   3.170   1.763   3.306  0.6957  1.0045  2.1655
 7929SOL    HW235424   3.313   1.779   3.281  1.5276  2.5515 -1.6308
 7930SOL     OW35425   2.592   3.857   7.443  0.2258  0.0717 -0.1141
 7930SOL    HW135426   2.561   3.931   7.495 -0.7558 -0.6675  0.3612
 7930SOL    HW235427   2.686   3.853   7.459 -0.4935  1.4856  4.2691
 7931SOL     OW35428   3.763   0.340  16.534 -0.1963 -0.6075 -0.5516
 7931SOL    HW135429   3.845   0.292  16.523 -0.4353 -1.2613  0.5676
 7931SOL    HW235430   3.702   0.266  16.536  1.0078 -1.5887 -0.1760
 7932SOL     OW35431   0.305   4.304   3.729  0.3761  0.0168  0.3456
 7932SOL    HW135432   0.277   4.317   3.819 -0.3390 -2.1184  0.4399
 7932SOL    HW235433   0.393   4.272   3.746  1.8025  2.2204 -2.8796
 7933SOL     OW35434   3.763   0.371   6.968  0.5468 -0.0747 -0.3434
 7933SOL    HW135435   3.801   0.290   7.003  0.0774 -0.3619 -0.4969
 7933SOL    HW235436   3.836   0.432   6.964  0.1528  0.4594  0.5192
 7934SOL     OW35437   0.899   2.183   5.751  0.6761  0.0648  0.4255
 7934SOL    HW135438   0.973   2.148   5.703 -0.9470 -3.3638  0.4628
 7934SOL    HW235439   0.825   2.151   5.700  1.5917  1.0178 -1.5124
 7935SOL     OW35440   3.511   0.250   0.981 -0.3486 -0.4099 -0.4500
 7935SOL    HW135441   3.588   0.233   0.928 -0.0344 -0.5538  0.0546
 7935SOL    HW235442   3.455   0.173   0.976 -0.3842 -0.5020  1.0981
 7936SOL     OW35443   2.992   4.009   9.753  0.0963  0.9190  0.3473
 7936SOL    HW135444   2.938   4.087   9.761  0.2748  1.1335 -0.5657
 7936SOL    HW235445   3.081   4.032   9.782  1.0028 -1.1487 -0.7638
 7937SOL     OW35446   1.306   4.094  13.904  0.0667  0.5392  0.2251
 7937SOL    HW135447   1.218   4.105  13.867  0.0381  2.1802  0.7775
 7937SOL    HW235448   1.311   4.000  13.920 -1.7855  0.3454 -0.2607
 7938SOL     OW35449   1.719   1.034   6.206  0.1418  0.7255  0.9424
 7938SOL    HW135450   1.769   1.084   6.142 -0.0720 -1.2838 -0.7989
 7938SOL    HW235451   1.790   1.009   6.265 -0.2439  0.3191  1.2323
 7939SOL     OW35452   3.423   2.115  15.883 -0.0187 -0.9296  0.6444
 7939SOL    HW135453   3.376   2.140  15.963 -2.3634  0.8298 -1.3082
 7939SOL    HW235454   3.467   2.035  15.914 -2.1716 -2.2106  0.3527
 7940SOL     OW35455   0.420   4.629  11.436 -0.2699  0.4191 -0.5164
 7940SOL    HW135456   0.392   4.538  11.430 -0.2226  0.4796 -1.6509
 7940SOL    HW235457   0.507   4.629  11.476 -0.2738  1.3976 -0.5062
 7941SOL     OW35458   3.319   4.723   7.134 -0.3361 -0.0170  0.5064
 7941SOL    HW135459   3.348   4.642   7.092  2.0096  0.9225  0.3582
 7941SOL    HW235460   3.290   4.688   7.218  0.8972  1.5067  1.5628
 7942SOL     OW35461   2.459   3.833  10.785 -0.8412  0.1460 -0.0270
 7942SOL    HW135462   2.493   3.832  10.874  2.6182  0.8393 -1.3582
 7942SOL    HW235463   2.536   3.820  10.730 -0.8152 -0.8815  0.2370
 7943SOL     OW35464   3.091   2.812   2.667 -0.2052  0.3815 -0.0157
 7943SOL    HW135465   2.998   2.817   2.644 -0.1312  2.7349  0.2123
 7943SOL    HW235466   3.092   2.791   2.760  3.6560  1.7243  0.2006
 7944SOL     OW35467   3.102   0.821   6.352  0.8420 -0.2670 -0.2697
 7944SOL    HW135468   3.166   0.818   6.423  0.0987 -1.2042  0.3502
 7944SOL    HW235469   3.119   0.898   6.296  1.8423 -0.2567  0.0452
 7945SOL     OW35470   2.933   4.185  12.694  0.6878  0.0689 -0.0883
 7945SOL    HW135471   2.875   4.243  12.744 -0.6850  0.4137 -2.0678
 7945SOL    HW235472   2.878   4.147  12.626  1.0801 -1.5623  0.5201
 7946SOL     OW35473   0.738   4.460  16.577 -0.7350  0.3921  0.2826
 7946SOL    HW135474   0.746   4.382  16.632  1.0139  0.8366  0.6587
 7946SOL    HW235475   0.646   4.461  16.551 -0.5314  2.3322 -0.3436
 7947SOL     OW35476   3.175   4.238   4.660  0.5387  0.3672 -0.0434
 7947SOL    HW135477   3.240   4.168   4.657  0.8092  0.6020  0.3365
 7947SOL    HW235478   3.158   4.250   4.567 -0.5754  4.7206  0.6995
 7948SOL     OW35479   3.921   0.674   8.628  0.5743  0.5983  0.4370
 7948SOL    HW135480   3.970   0.714   8.557 -0.5836 -2.0592 -1.8269
 7948SOL    HW235481   3.921   0.748   8.690  3.8139  0.7191  0.2923
 7949SOL     OW35482   4.569   3.438  10.860  0.2902  0.1096  0.2338
 7949SOL    HW135483   4.614   3.510  10.815  1.2255 -1.5787 -1.5244
 7949SOL    HW235484   4.632   3.378  10.899  0.8063 -1.0820 -2.4339
 7950SOL     OW35485   1.536   0.572   4.980  0.1462 -0.1175 -0.9272
 7950SOL    HW135486   1.465   0.521   4.940  1.5064 -3.0653  0.4195
 7950SOL    HW235487   1.489   0.655   4.972  0.2717  0.1001  0.6663
 7951SOL     OW35488   2.547   2.771   1.747 -0.0331 -0.0695  0.1789
 7951SOL    HW135489   2.566   2.684   1.711  0.5670 -1.2901  3.4837
 7951SOL    HW235490   2.608   2.783   1.819 -3.5060  2.1265  2.7438
 7952SOL     OW35491   1.968   1.552   5.374 -0.8780 -0.0784  0.0422
 7952SOL    HW135492   2.015   1.514   5.449 -1.8635 -0.8006  0.2967
 7952SOL    HW235493   2.026   1.537   5.299  0.0208 -1.8404  1.0811
 7953SOL     OW35494   3.308   1.176   5.970 -0.1687 -0.0551 -0.1889
 7953SOL    HW135495   3.359   1.143   5.896 -1.3085  0.8857 -1.4015
 7953SOL    HW235496   3.229   1.200   5.922  1.7244  0.7934 -2.9134
 7954SOL     OW35497   0.831   3.316   5.263  0.1179 -0.6153 -0.3000
 7954SOL    HW135498   0.761   3.381   5.261 -0.2629 -1.0117  0.3570
 7954SOL    HW235499   0.905   3.372   5.238 -0.7964  0.8531  0.3765
 7955SOL     OW35500   2.148   1.599   6.887 -0.1732  0.2243  0.5553
 7955SOL    HW135501   2.113   1.685   6.911 -1.3220 -0.1570  0.2121
 7955SOL    HW235502   2.200   1.568   6.961  0.7624 -0.8586 -0.5615
 7956SOL     OW35503   0.250   1.419   5.471 -0.3799  0.4988 -0.1682
 7956SOL    HW135504   0.177   1.471   5.503 -0.1827 -0.7973  2.3564
 7956SOL    HW235505   0.322   1.448   5.527  1.1763  1.2028 -2.4852
 7957SOL     OW35506   1.469   2.832  16.787  0.0574  0.4454  0.0712
 7957SOL    HW135507   1.537   2.879  16.740  1.4000 -2.5398 -0.9842
 7957SOL    HW235508   1.522   2.806  16.863 -0.7922 -1.3036  0.0783
 7958SOL     OW35509   3.002   1.122   5.569  0.3697 -0.4205  0.5967
 7958SOL    HW135510   3.007   1.046   5.511  2.3484 -0.0951  0.3688
 7958SOL    HW235511   3.040   1.185   5.508  0.7499 -0.1809  1.0820
 7959SOL     OW35512   3.795   2.094   7.376  0.1608  0.2378 -0.1629
 7959SOL    HW135513   3.822   2.024   7.435  2.3841 -1.1156 -2.7501
 7959SOL    HW235514   3.869   2.155   7.379  0.0134  0.3848  0.4105
 7960SOL     OW35515   0.488   2.658   0.740 -0.4817  0.2409 -0.0344
 7960SOL    HW135516   0.423   2.597   0.706 -1.9068  1.7456 -0.0296
 7960SOL    HW235517   0.491   2.704   0.656 -1.5295  0.9403  0.3083
 7961SOL     OW35518   2.356   1.870   3.888  0.1252  0.0135 -0.1104
 7961SOL    HW135519   2.429   1.878   3.826  1.8293 -0.4711  1.8230
 7961SOL    HW235520   2.322   1.782   3.875 -1.5938  0.8997 -1.6221
 7962SOL     OW35521   1.519   0.689  16.163  0.2176  0.0483  0.0588
 7962SOL    HW135522   1.430   0.680  16.129  1.1792 -0.5163 -2.2803
 7962SOL    HW235523   1.563   0.694  16.078  1.4938  1.4097  0.7980
 7963SOL     OW35524   4.357   3.708   7.805 -0.1123  0.4323 -0.3156
 7963SOL    HW135525   4.313   3.693   7.721  0.3064 -1.1217 -0.2613
 7963SOL    HW235526   4.300   3.655   7.861  1.6028 -0.0467  0.9513
 7964SOL     OW35527   0.509   2.254  17.145 -1.0051  0.3856 -0.0107
 7964SOL    HW135528   0.558   2.178  17.113 -0.1006  1.0452 -0.2098
 7964SOL    HW235529   0.429   2.247  17.092 -1.0803 -0.9638  0.2960
 7965SOL     OW35530   2.205   0.000   9.829  0.1438 -0.2803 -0.2822
 7965SOL    HW135531   2.228   4.675   9.758  2.7639 -1.0458  1.2092
 7965SOL    HW235532   2.172   4.676   9.896  0.8401 -2.3069 -1.7261
 7966SOL     OW35533   3.989   3.283  14.349 -0.2457 -0.1381  0.2469
 7966SOL    HW135534   3.979   3.224  14.273 -0.2602 -2.6799  2.2240
 7966SOL    HW235535   4.002   3.370  14.312  1.2322 -0.5341 -0.1585
 7967SOL     OW35536   1.716   3.308   5.930 -0.3394  0.7294  0.1721
 7967SOL    HW135537   1.802   3.284   5.966 -0.4503 -1.1811 -0.8259
 7967SOL    HW235538   1.710   3.400   5.956 -0.0230  0.8806 -0.2904
 7968SOL     OW35539   3.575   2.221   1.222  0.3585  0.4552 -0.1193
 7968SOL    HW135540   3.484   2.232   1.247 -0.3424 -1.9207 -1.6585
 7968SOL    HW235541   3.595   2.307   1.185 -1.5827  1.2166  0.6223
 7969SOL     OW35542   0.100   2.865  13.039  0.1175  0.3805 -0.0906
 7969SOL    HW135543   0.153   2.787  13.053 -0.7714 -0.6285 -2.2764
 7969SOL    HW235544   0.017   2.819  13.026  0.0611  0.6851 -0.8221
 7970SOL     OW35545   0.498   2.291  16.782 -0.1316  0.3444  0.6291
 7970SOL    HW135546   0.423   2.259  16.834 -0.3588 -0.1637 -0.0056
 7970SOL    HW235547   0.500   2.233  16.706 -0.0230 -0.8833  1.5590
 7971SOL     OW35548   0.333   1.304   7.832 -0.0155 -0.5255  0.5550
 7971SOL    HW135549   0.412   1.277   7.784  0.7571  0.7471  1.1176
 7971SOL    HW235550   0.300   1.215   7.847 -3.0293  0.6847  1.0863
 7972SOL     OW35551   1.477   0.517   8.531 -0.8148  0.4296  0.0809
 7972SOL    HW135552   1.408   0.517   8.465  0.1548 -1.3850 -0.9063
 7972SOL    HW235553   1.466   0.607   8.562  2.2519  0.6834  0.4125
 7973SOL     OW35554   0.517   0.677   8.172  0.0999 -0.0846 -0.1462
 7973SOL    HW135555   0.526   0.597   8.121 -1.0170 -1.1980  1.3842
 7973SOL    HW235556   0.603   0.676   8.216  0.3750  0.4943 -0.6695
 7974SOL     OW35557   2.539   2.064   4.086 -0.2903  0.3246 -0.9025
 7974SOL    HW135558   2.603   2.001   4.053 -0.6266 -1.0564  1.0771
 7974SOL    HW235559   2.542   2.051   4.180  0.2415  0.7601 -0.8547
 7975SOL     OW35560   1.035   3.916   0.679  0.0049  0.3896 -0.0842
 7975SOL    HW135561   0.954   3.865   0.677 -0.7703  1.5467  1.6593
 7975SOL    HW235562   1.082   3.858   0.739 -0.6688 -1.5462 -1.4092
 7976SOL     OW35563   2.167   1.157   4.885 -0.3065  0.0351  0.2847
 7976SOL    HW135564   2.231   1.189   4.948  0.4878 -1.3353  0.1792
 7976SOL    HW235565   2.190   1.205   4.805 -0.7633  0.4736  0.4212
 7977SOL     OW35566   3.696   1.289   4.822  0.2660  0.0308 -0.2201
 7977SOL    HW135567   3.684   1.221   4.757  2.0620  1.0911 -1.6389
 7977SOL    HW235568   3.784   1.321   4.805 -0.0473  1.3554  0.6032
 7978SOL     OW35569   2.171   0.111   9.387  0.7833 -0.1886  0.2193
 7978SOL    HW135570   2.152   0.035   9.442  0.0208 -1.7848 -2.2573
 7978SOL    HW235571   2.110   0.107   9.313  1.1245  1.0320 -0.1380
 7979SOL     OW35572   4.616   3.602   5.799 -0.3464 -0.2735  0.2142
 7979SOL    HW135573   4.661   3.527   5.840  1.2288  1.3941  1.5567
 7979SOL    HW235574   4.538   3.600   5.855  0.2037 -1.4784  0.9531
 7980SOL     OW35575   3.339   3.648   0.323 -0.2155  0.5585  0.1667
 7980SOL    HW135576   3.329   3.677   0.233 -0.7484 -3.2620 -0.9976
 7980SOL    HW235577   3.389   3.568   0.307  0.8539  1.3779 -0.5654
 7981SOL     OW35578   1.549   2.111  13.855  0.1749  0.0620  0.1051
 7981SOL    HW135579   1.551   2.020  13.886 -0.2958 -0.5229 -1.5991
 7981SOL    HW235580   1.474   2.104  13.796 -0.0010 -0.9322  0.4431
 7982SOL     OW35581   3.427   2.445   2.035  0.2776 -0.2599 -0.4253
 7982SOL    HW135582   3.414   2.360   1.993  0.2830  0.2061 -1.3685
 7982SOL    HW235583   3.456   2.422   2.123 -1.0517 -0.3904 -0.0183
 7983SOL     OW35584   0.259   2.442   9.123 -0.0652 -0.2770  0.5672
 7983SOL    HW135585   0.173   2.474   9.151 -0.1107 -0.8049  1.0446
 7983SOL    HW235586   0.257   2.459   9.029 -1.5433 -2.9895  0.0989
 7984SOL     OW35587   3.707   1.972  13.269 -0.3221 -0.2670  0.3261
 7984SOL    HW135588   3.748   2.002  13.351 -1.5753  3.0856 -0.2865
 7984SOL    HW235589   3.770   1.902  13.251 -1.3137 -0.9904 -0.3264
 7985SOL     OW35590   1.219   4.106   5.723 -0.5305 -0.2735  0.1146
 7985SOL    HW135591   1.273   4.156   5.662  1.8477 -2.5777  0.3375
 7985SOL    HW235592   1.144   4.083   5.668 -1.6960  1.4278  0.9798
 7986SOL     OW35593   1.452   2.167   0.211  0.3877 -0.0175  0.2269
 7986SOL    HW135594   1.452   2.255   0.249 -1.8010  1.4764 -3.2256
 7986SOL    HW235595   1.391   2.120   0.268  0.0260  1.0339  0.7013
 7987SOL     OW35596   2.245   2.857   3.159  0.1648 -0.1196 -0.0666
 7987SOL    HW135597   2.261   2.829   3.069  0.6202  0.3425 -0.1332
 7987SOL    HW235598   2.327   2.849   3.208  1.4038 -0.6450 -2.2204
 7988SOL     OW35599   2.163   4.634   4.506 -0.5123  0.0170  0.0625
 7988SOL    HW135600   2.132   4.568   4.444  2.2051 -0.5694 -0.6733
 7988SOL    HW235601   2.092   4.691   4.535  0.1385  0.2005  1.3051
 7989SOL     OW35602   2.339   4.292   7.946  0.5833  0.0103 -0.2084
 7989SOL    HW135603   2.277   4.351   7.989 -1.2482 -1.6400 -0.5682
 7989SOL    HW235604   2.297   4.210   7.970  0.2379 -0.1595 -1.3939
 7990SOL     OW35605   3.452   1.435   0.479 -0.3474  0.4015 -0.2884
 7990SOL    HW135606   3.486   1.521   0.504  0.2940 -0.6479  2.3914
 7990SOL    HW235607   3.465   1.377   0.554  1.0177  2.0432  0.7437
 7991SOL     OW35608   3.624   3.460   7.106  0.3040  0.2585  0.0928
 7991SOL    HW135609   3.658   3.378   7.141 -1.4801 -1.0047 -1.0924
 7991SOL    HW235610   3.677   3.477   7.028 -1.8804  2.4929 -0.9324
 7992SOL     OW35611   0.570   2.960   0.681  0.6906 -0.0658  0.1599
 7992SOL    HW135612   0.626   2.983   0.755  1.6098 -1.0662 -0.2290
 7992SOL    HW235613   0.598   3.025   0.616  1.4896 -0.7842 -0.2195
 7993SOL     OW35614   0.182   4.708  14.613  0.5752 -0.3682  0.2417
 7993SOL    HW135615   0.204   4.733  14.703 -1.4257 -0.8984  0.8754
 7993SOL    HW235616   0.256   4.648  14.601 -0.4804 -1.1438 -2.3929
 7994SOL     OW35617   4.288   3.593   2.589 -0.2560  0.2185  0.1688
 7994SOL    HW135618   4.376   3.558   2.600  0.4423  2.2844  1.3219
 7994SOL    HW235619   4.303   3.664   2.526  1.0050  0.2476  0.5046
 7995SOL     OW35620   3.934   2.567   6.435  0.2250 -0.1902  0.5110
 7995SOL    HW135621   3.977   2.495   6.482  2.0476  0.1005 -0.7500
 7995SOL    HW235622   3.999   2.607   6.379 -1.4271  0.9421 -0.5951
 7996SOL     OW35623   3.916   2.876  12.405 -0.1552 -0.7151  0.0752
 7996SOL    HW135624   3.903   2.796  12.354  0.7464 -0.2062 -0.9460
 7996SOL    HW235625   4.009   2.864  12.424 -0.3537  1.4122  2.2575
 7997SOL     OW35626   3.157   0.155  16.510  0.4370  0.4452  0.0605
 7997SOL    HW135627   3.210   0.091  16.557  1.9546  1.5870 -0.0867
 7997SOL    HW235628   3.066   0.126  16.516 -0.1047  1.9001 -1.2177
 7998SOL     OW35629   3.306   0.900   2.346  0.5524  0.1922  0.6313
 7998SOL    HW135630   3.256   0.978   2.322 -0.2549 -1.4081 -2.8243
 7998SOL    HW235631   3.231   0.841   2.357  0.8375  0.0433  1.8605
 7999SOL     OW35632   0.083   0.930   0.164  0.4968  0.5004  0.4865
 7999SOL    HW135633   0.179   0.937   0.167  0.5524 -0.2290  0.3172
 7999SOL    HW235634   0.057   1.020   0.185 -0.1820  0.2979  0.4846
 8000SOL     OW35635   2.328   4.055   3.513 -0.5276 -0.1377  0.2498
 8000SOL    HW135636   2.294   4.139   3.484 -1.9387 -0.5402  0.7611
 8000SOL    HW235637   2.396   4.071   3.579  0.4617 -0.5258 -0.6624
 8001SOL     OW35638   1.566   3.651  13.446  0.0981  0.7821  0.0138
 8001SOL    HW135639   1.477   3.617  13.431  0.6388  0.4482 -2.4725
 8001SOL    HW235640   1.551   3.683  13.535 -4.9501  0.5423 -0.7353
 8002SOL     OW35641   3.729   1.803  12.621  0.1775 -0.1802 -0.1871
 8002SOL    HW135642   3.766   1.817  12.709  1.3561  1.1873 -0.8842
 8002SOL    HW235643   3.711   1.894  12.595  2.9385  0.2595 -0.6391
 8003SOL     OW35644   2.400   2.791   7.592 -0.0483 -0.3252 -0.4205
 8003SOL    HW135645   2.447   2.776   7.510 -0.2185  0.0265 -0.5843
 8003SOL    HW235646   2.317   2.819   7.553 -1.2796 -1.1675  1.6025
 8004SOL     OW35647   4.443   3.299   4.739 -0.0101  0.3131 -0.5144
 8004SOL    HW135648   4.515   3.307   4.801 -0.8060 -1.2712  0.6103
 8004SOL    HW235649   4.475   3.344   4.661  2.4681 -3.3738 -1.5827
 8005SOL     OW35650   3.914   4.154  11.072 -0.3089 -0.2356 -0.0788
 8005SOL    HW135651   3.893   4.171  11.164  0.7290  0.2443  0.0619
 8005SOL    HW235652   3.833   4.104  11.059 -0.5304 -0.2653  1.3682
 8006SOL     OW35653   0.462   0.686  15.411  0.2467 -0.2970 -0.6388
 8006SOL    HW135654   0.530   0.751  15.428 -1.3489  0.8814  1.3524
 8006SOL    HW235655   0.445   0.716  15.322  1.1907 -1.2601 -1.1384
 8007SOL     OW35656   2.853   3.302  10.895  0.7617 -0.1248 -0.2459
 8007SOL    HW135657   2.840   3.221  10.944  0.1777 -1.3353 -2.4095
 8007SOL    HW235658   2.813   3.273  10.812  1.3973  1.9165 -1.2765
 8008SOL     OW35659   1.548   4.579  11.201 -0.1710 -0.4980 -0.1964
 8008SOL    HW135660   1.504   4.497  11.221 -1.0426 -0.0327 -0.2358
 8008SOL    HW235661   1.582   4.561  11.113  0.6495 -1.5404  0.3410
 8009SOL     OW35662   0.279   2.185   1.891  0.0412  0.0418 -0.2557
 8009SOL    HW135663   0.261   2.248   1.821  1.9828  2.1067  1.1340
 8009SOL    HW235664   0.299   2.103   1.846 -0.3281 -0.5657  0.7027
 8010SOL     OW35665   1.227   2.992   3.310 -0.1017  0.7371 -0.4295
 8010SOL    HW135666   1.144   2.996   3.356 -0.0390 -1.0111 -0.1597
 8010SOL    HW235667   1.196   2.992   3.219 -0.5622  0.0397 -0.2733
 8011SOL     OW35668   2.528   0.320  10.535  0.6961  0.2745  0.1207
 8011SOL    HW135669   2.569   0.357  10.613  1.8975  1.0894 -0.9013
 8011SOL    HW235670   2.604   0.301  10.480 -1.1923 -1.1362 -2.0001
 8012SOL     OW35671   1.823   0.522  12.976  0.1371 -0.6517  0.6198
 8012SOL    HW135672   1.743   0.572  12.990  1.0901  0.1718  3.2708
 8012SOL    HW235673   1.808   0.501  12.884  3.8572 -0.5326  0.0019
 8013SOL     OW35674   2.112   1.702   3.255 -0.2133 -0.4176 -0.0708
 8013SOL    HW135675   2.175   1.678   3.323  1.2119  2.0275 -0.5336
 8013SOL    HW235676   2.156   1.776   3.214  0.3457  0.3161  1.8983
 8014SOL     OW35677   0.481   0.542   1.706 -0.0961 -0.2409 -0.2721
 8014SOL    HW135678   0.564   0.497   1.699  0.0191 -0.0824  0.0645
 8014SOL    HW235679   0.442   0.532   1.619 -0.5373  1.6666 -0.3074
 8015SOL     OW35680   2.634   3.379  13.698 -0.4403 -0.1880  1.0361
 8015SOL    HW135681   2.598   3.338  13.777  0.4204  0.3970  1.7419
 8015SOL    HW235682   2.722   3.341  13.700 -0.4514 -0.2546 -0.2707
 8016SOL     OW35683   2.218   4.173   6.348  0.0273  0.0988  0.5079
 8016SOL    HW135684   2.278   4.106   6.315  0.3020  1.2730 -1.3932
 8016SOL    HW235685   2.211   4.229   6.270  0.8689 -0.3458  0.1145
 8017SOL     OW35686   2.062   3.918  13.827  0.1489  0.4563  0.2447
 8017SOL    HW135687   2.098   3.931  13.739 -0.7748 -0.6362 -0.3002
 8017SOL    HW235688   2.127   3.955  13.886 -1.5765  2.2792  1.0135
 8018SOL     OW35689   2.607   0.161  15.350 -0.4368 -0.0347 -0.0438
 8018SOL    HW135690   2.686   0.155  15.295 -0.2168 -0.7688  0.3580
 8018SOL    HW235691   2.617   0.252  15.378 -1.5228 -0.1463  0.6896
 8019SOL     OW35692   4.489   3.487   8.438 -0.0580 -0.2904  0.3106
 8019SOL    HW135693   4.467   3.560   8.496  2.5276  0.0035  0.9291
 8019SOL    HW235694   4.400   3.457   8.420 -0.1171  0.5323 -0.7828
 8020SOL     OW35695   1.533   0.166  16.775  0.4662  0.4464 -0.7874
 8020SOL    HW135696   1.597   0.237  16.771 -1.1517  2.0067  0.4089
 8020SOL    HW235697   1.463   0.195  16.717  0.8867  2.3195 -0.3725
 8021SOL     OW35698   3.582   2.073   1.628  0.4229  0.2729 -0.3210
 8021SOL    HW135699   3.492   2.043   1.635  0.6715 -0.5509 -0.5517
 8021SOL    HW235700   3.567   2.167   1.634  1.1006  0.4922 -2.0431
 8022SOL     OW35701   0.163   1.616   0.102 -0.2516 -0.1907 -0.1318
 8022SOL    HW135702   0.237   1.656   0.056  1.5724 -1.9487  1.2965
 8022SOL    HW235703   0.194   1.627   0.192 -2.6787  2.2085  0.4227
 8023SOL     OW35704   4.127   1.536   4.841 -0.0553  0.0539  0.5814
 8023SOL    HW135705   4.173   1.515   4.922 -0.1341 -1.9570  0.0897
 8023SOL    HW235706   4.092   1.448   4.827 -0.2124  0.2515 -0.2397
 8024SOL     OW35707   2.187   3.649   9.623  0.5822  0.5921 -0.0262
 8024SOL    HW135708   2.272   3.613   9.646  1.0618 -0.3323 -3.2455
 8024SOL    HW235709   2.208   3.738   9.596 -2.6397  1.1467 -0.7952
 8025SOL     OW35710   1.698   4.489  13.930  0.4293  0.5681  0.1534
 8025SOL    HW135711   1.788   4.501  13.959  0.1538  3.5835 -0.2729
 8025SOL    HW235712   1.640   4.538  13.988  0.6135  2.3877 -1.1969
 8026SOL     OW35713   0.292   3.166   1.733  0.3541 -0.1403 -0.9688
 8026SOL    HW135714   0.242   3.106   1.677  1.5726 -0.9087 -1.2290
 8026SOL    HW235715   0.237   3.165   1.811  2.6423  0.0384  0.6366
 8027SOL     OW35716   2.197   0.688  10.625 -0.4210  0.2708  0.1015
 8027SOL    HW135717   2.230   0.631  10.695  1.9356  1.0084 -0.3935
 8027SOL    HW235718   2.193   0.761  10.687  1.5744  1.8926 -1.6423
 8028SOL     OW35719   2.496   2.640   5.039  0.2846  0.0107 -0.5849
 8028SOL    HW135720   2.520   2.626   4.948 -4.6824  1.8101 -2.1836
 8028SOL    HW235721   2.416   2.589   5.052 -0.2790  0.7038 -1.3653
 8029SOL     OW35722   0.604   1.932   8.051 -0.4852 -0.4539 -0.2167
 8029SOL    HW135723   0.610   1.837   8.062 -0.3971 -0.5001 -0.6639
 8029SOL    HW235724   0.652   1.970   8.124  0.5624 -0.7285 -0.7717
 8030SOL     OW35725   1.736   3.992   3.091 -0.3245  0.2700 -0.1656
 8030SOL    HW135726   1.693   4.078   3.095 -0.0419  0.3780  0.6755
 8030SOL    HW235727   1.826   4.012   3.118 -0.5558  1.4020 -0.2231
 8031SOL     OW35728   2.590   4.430   7.965 -0.5245  0.1244 -0.1554
 8031SOL    HW135729   2.505   4.388   7.974 -0.5040  0.0188 -0.4380
 8031SOL    HW235730   2.563   4.504   7.911 -0.8549  0.1082 -0.0065
 8032SOL     OW35731   1.669   3.712   3.505 -0.3125  0.6816 -0.1693
 8032SOL    HW135732   1.712   3.673   3.429  0.2871 -1.9656  1.5472
 8032SOL    HW235733   1.738   3.738   3.566 -0.6274 -0.9842  0.9063
 8033SOL     OW35734   4.367   1.697  12.384 -0.1066 -0.5242  0.1124
 8033SOL    HW135735   4.394   1.730  12.299 -1.8251 -2.0334 -1.0324
 8033SOL    HW235736   4.271   1.702  12.380 -0.0202  0.4348 -0.6736
 8034SOL     OW35737   3.548   4.020  16.395  0.1700  0.0965 -0.0580
 8034SOL    HW135738   3.489   4.090  16.423 -0.2230 -0.6943  1.0775
 8034SOL    HW235739   3.593   4.059  16.320  1.6401 -0.2438  0.6516
 8035SOL     OW35740   1.926   1.863   3.696  0.0741  0.5291 -0.2338
 8035SOL    HW135741   1.952   1.794   3.634  0.6133 -1.9111  2.7030
 8035SOL    HW235742   1.980   1.830   3.768  0.2269  2.8760  0.7217
 8036SOL     OW35743   0.970   2.901   3.356 -0.3624  0.4270 -0.1701
 8036SOL    HW135744   0.952   2.820   3.307  0.7293 -0.9055  1.6318
 8036SOL    HW235745   0.903   2.959   3.320 -0.2218  1.3849  1.1285
 8037SOL     OW35746   0.580   3.046   7.167 -0.0215 -0.1456 -0.3250
 8037SOL    HW135747   0.634   3.000   7.102 -0.0091 -2.3705  1.2389
 8037SOL    HW235748   0.510   3.075   7.109 -0.8797 -1.7967 -0.1149
 8038SOL     OW35749   4.354   4.600   1.204  0.4370  0.2183 -0.2298
 8038SOL    HW135750   4.294   4.528   1.225 -0.3215  1.1972  0.9780
 8038SOL    HW235751   4.344   4.653   1.284 -2.0434 -1.9052  0.8668
 8039SOL     OW35752   1.822   1.308   3.983 -0.6423  0.2950 -0.3458
 8039SOL    HW135753   1.842   1.290   3.892 -1.5159  0.4984 -0.5757
 8039SOL    HW235754   1.878   1.382   4.004  0.5334 -0.1432 -2.0215
 8040SOL     OW35755   2.370   2.788   2.566 -0.7436  0.0303  0.2020
 8040SOL    HW135756   2.311   2.850   2.609 -0.2358  0.9715 -0.4847
 8040SOL    HW235757   2.305   2.717   2.562 -2.4809  1.4703  2.9283
 8041SOL     OW35758   0.277   3.777  11.740 -0.4592  0.1816  0.1397
 8041SOL    HW135759   0.249   3.712  11.675  1.5240  1.1581 -1.7051
 8041SOL    HW235760   0.193   3.823  11.748 -0.8001 -0.4475  0.1348
 8042SOL     OW35761   0.380   1.402   6.627 -0.7444  0.2500 -0.2647
 8042SOL    HW135762   0.451   1.338   6.640 -1.0037 -0.4009 -2.1340
 8042SOL    HW235763   0.430   1.475   6.591  0.6280 -0.2154  0.6756
 8043SOL     OW35764   3.820   0.266   1.123 -0.6940  0.1298 -0.0450
 8043SOL    HW135765   3.780   0.255   1.037  0.6670 -1.3000 -0.5028
 8043SOL    HW235766   3.748   0.227   1.173 -0.6802  1.0213  0.6706
 8044SOL     OW35767   4.395   1.848   2.087  0.2643  0.3516  0.0859
 8044SOL    HW135768   4.479   1.845   2.133 -0.5978 -0.6125  1.5621
 8044SOL    HW235769   4.329   1.843   2.155 -1.4349  2.4128 -1.4085
 8045SOL     OW35770   3.988   2.075   3.596  0.6563  0.0327  0.0859
 8045SOL    HW135771   3.911   2.033   3.636  1.3886 -1.9650 -0.5907
 8045SOL    HW235772   3.998   2.152   3.652  0.1680  0.0227  0.1915
 8046SOL     OW35773   0.963   2.156   6.564 -0.0546  0.1677 -0.0680
 8046SOL    HW135774   1.003   2.217   6.501 -1.3980 -0.6364 -1.6853
 8046SOL    HW235775   0.993   2.189   6.649 -0.8314 -0.0131  0.2787
 8047SOL     OW35776   0.873   4.147   5.310 -0.0314  0.4084  0.0915
 8047SOL    HW135777   0.927   4.153   5.230 -0.0921  0.2754  0.0396
 8047SOL    HW235778   0.784   4.137   5.278  0.5966 -2.5175 -0.8358
 8048SOL     OW35779   1.896   1.282   7.359  0.0237 -0.4597  0.1220
 8048SOL    HW135780   1.901   1.367   7.315  0.0404 -0.6282 -0.2086
 8048SOL    HW235781   1.950   1.304   7.435 -0.6579  1.8887 -0.0798
 8049SOL     OW35782   2.313   3.079   9.602  0.0196 -0.5970 -0.4733
 8049SOL    HW135783   2.363   2.998   9.587 -0.1425 -0.5957 -1.0042
 8049SOL    HW235784   2.234   3.046   9.559  0.0363 -2.4657  0.9406
 8050SOL     OW35785   3.706   3.371   1.682 -0.0942  0.0811 -0.0828
 8050SOL    HW135786   3.714   3.280   1.711  0.5819  0.3984  0.7497
 8050SOL    HW235787   3.768   3.413   1.741 -0.0564 -0.0967  0.0054
 8051SOL     OW35788   2.032   0.055  10.554 -0.1528 -0.2989  0.4053
 8051SOL    HW135789   2.122   0.026  10.540 -1.1182 -3.3031  0.2799
 8051SOL    HW235790   1.990   0.012  10.480  2.1707  0.2701 -1.2018
 8052SOL     OW35791   3.438   1.108   0.126  0.4159 -0.2207 -0.5045
 8052SOL    HW135792   3.479   1.191   0.150  2.6051 -0.6691 -2.6614
 8052SOL    HW235793   3.357   1.110   0.177  1.9262 -3.7778  2.0401
 8053SOL     OW35794   1.117   3.646   3.955 -0.2082  0.4601  0.0926
 8053SOL    HW135795   1.023   3.638   3.940 -0.2532  0.8733  0.1794
 8053SOL    HW235796   1.102   3.649   4.049  1.2346 -1.0702  0.3809
 8054SOL     OW35797   0.352   0.261  10.860  0.3131  0.1085  0.3284
 8054SOL    HW135798   0.411   0.333  10.882  3.9487 -3.2562  1.6400
 8054SOL    HW235799   0.311   0.242  10.944  0.6609 -0.6966  0.3181
 8055SOL     OW35800   1.229   4.379   3.645 -0.1321 -0.5639 -0.0843
 8055SOL    HW135801   1.160   4.359   3.582 -0.7715 -0.2307  0.5188
 8055SOL    HW235802   1.264   4.461   3.612  0.7720 -1.1676 -0.6324
 8056SOL     OW35803   2.824   1.367   4.295 -0.5391 -0.5462  0.4143
 8056SOL    HW135804   2.787   1.279   4.308  0.0580 -0.6673  1.3504
 8056SOL    HW235805   2.851   1.357   4.204  0.4805  0.7334  0.5839
 8057SOL     OW35806   0.075   0.563   8.329 -0.1248 -0.8288  0.3320
 8057SOL    HW135807   0.136   0.502   8.371  1.6236 -0.1540 -1.2131
 8057SOL    HW235808   0.032   0.595   8.408  1.1791 -0.9759  1.1006
 8058SOL     OW35809   3.429   2.419   8.790  0.2876 -0.2803  0.1737
 8058SOL    HW135810   3.519   2.390   8.801  0.3205 -0.4469 -0.5783
 8058SOL    HW235811   3.444   2.497   8.736  0.3240 -0.5422 -0.1890
 8059SOL     OW35812   1.014   3.324  14.107 -0.1062  0.2612 -0.2247
 8059SOL    HW135813   1.009   3.419  14.103 -2.7475  0.0256 -2.7051
 8059SOL    HW235814   0.945   3.307  14.043 -0.2792  2.0194 -0.5139
 8060SOL     OW35815   3.874   4.666  16.715  0.5076  0.4936 -0.1295
 8060SOL    HW135816   3.844   4.679  16.805  2.3178  1.5569  0.3078
 8060SOL    HW235817   3.827   4.585  16.694 -1.5210  1.5955  0.1240
 8061SOL     OW35818   2.653   2.034  12.883  0.0378  0.3165 -0.1665
 8061SOL    HW135819   2.738   2.041  12.839  0.4044 -0.5249  0.3862
 8061SOL    HW235820   2.634   2.123  12.912 -0.0396  0.0918  0.4828
 8062SOL     OW35821   2.978   3.707   4.268  0.0747 -0.2764 -0.2680
 8062SOL    HW135822   2.963   3.757   4.188  0.2883  1.8236  1.0153
 8062SOL    HW235823   2.999   3.622   4.228  1.9727  0.0751 -0.0226
 8063SOL     OW35824   1.645   3.409   4.938 -0.5347 -0.2270 -0.5252
 8063SOL    HW135825   1.553   3.422   4.917 -0.9994  1.1009  2.3534
 8063SOL    HW235826   1.693   3.422   4.856  1.5046 -0.8050  0.5636
 8064SOL     OW35827   1.972   4.419   3.037 -0.2749 -0.6248 -0.3398
 8064SOL    HW135828   1.998   4.334   3.003  1.1014  0.7740 -2.8069
 8064SOL    HW235829   2.030   4.477   2.987  1.2690 -0.3455  1.8095
 8065SOL     OW35830   0.722   4.573  12.515 -0.2732  0.5534  0.1428
 8065SOL    HW135831   0.687   4.650  12.560 -0.8893  0.3323  0.0397
 8065SOL    HW235832   0.812   4.606  12.511  0.3574 -0.9495  2.0042
 8066SOL     OW35833   4.493   4.567  15.337  0.1905 -0.2235 -0.0289
 8066SOL    HW135834   4.428   4.623  15.379  0.9293  0.6989 -0.1041
 8066SOL    HW235835   4.494   4.599  15.247 -1.4456  0.6744  0.2747
 8067SOL     OW35836   0.154   4.274  10.551  0.6884  0.1314  0.3882
 8067SOL    HW135837   0.231   4.329  10.537  0.8720 -0.2081  0.0685
 8067SOL    HW235838   0.165   4.201  10.491 -1.3093  1.2608 -1.3265
 8068SOL     OW35839   2.448   2.014   5.017 -0.4430  0.4129 -0.1207
 8068SOL    HW135840   2.463   2.104   5.047 -3.8216  0.2752  2.0130
 8068SOL    HW235841   2.355   1.993   5.028  0.1056 -1.9215  0.0657
 8069SOL     OW35842   1.049   0.224  17.555 -0.4831  0.4718  0.2335
 8069SOL    HW135843   1.085   0.247  17.470 -0.7661  0.9739  0.2477
 8069SOL    HW235844   1.033   0.130  17.560  2.2079  0.0936  2.0108
 8070SOL     OW35845   1.175   2.831  16.832  0.1695 -0.3224 -0.0332
 8070SOL    HW135846   1.245   2.881  16.791  1.4199 -1.2839  0.9078
 8070SOL    HW235847   1.223   2.754  16.864  0.3934  0.2848  1.0739
 8071SOL     OW35848   3.923   3.080   6.686  0.4180  0.1105  0.0668
 8071SOL    HW135849   3.992   3.018   6.661 -1.1006 -1.4203 -0.3751
 8071SOL    HW235850   3.862   3.076   6.612 -1.5319 -1.4734  1.7416
 8072SOL     OW35851   1.029   0.970   5.337  0.2137  0.6625  0.3580
 8072SOL    HW135852   1.042   0.888   5.384 -1.4912 -1.0570 -2.1800
 8072SOL    HW235853   0.934   0.976   5.350  0.0863  0.8792 -0.6863
 8073SOL     OW35854   0.048   2.244   3.918  0.0803 -0.7562  0.0861
 8073SOL    HW135855   0.139   2.248   3.946 -0.1555 -0.6639  0.8460
 8073SOL    HW235856   0.022   2.157   3.949 -1.7642 -0.7923 -1.5751
 8074SOL     OW35857   4.663   0.526   5.306  0.2078  0.6263 -0.0979
 8074SOL    HW135858   0.001   0.489   5.356 -0.8390 -0.5696  0.5336
 8074SOL    HW235859   4.675   0.482   5.222  2.3532  0.7718  0.1498
 8075SOL     OW35860   0.407   3.086  16.603  0.3619  0.3813  0.3016
 8075SOL    HW135861   0.445   3.014  16.653 -1.1260 -1.3329 -1.0588
 8075SOL    HW235862   0.486   3.123  16.563 -0.1613 -0.7712 -1.7849
 8076SOL     OW35863   3.183   0.445   4.615  0.8338  0.0206  0.3405
 8076SOL    HW135864   3.122   0.511   4.648  1.1425  0.3221  0.3144
 8076SOL    HW235865   3.127   0.377   4.579  0.9009 -0.4626  1.1425
 8077SOL     OW35866   4.397   4.099   2.002  0.3805 -0.4501 -0.3709
 8077SOL    HW135867   4.323   4.038   2.007  0.3849 -0.3700  0.6218
 8077SOL    HW235868   4.357   4.182   2.028  0.4765 -0.6388  0.3634
 8078SOL     OW35869   2.367   3.827   4.745 -0.3763 -0.5734 -0.0331
 8078SOL    HW135870   2.318   3.745   4.732 -1.3065 -0.6185  3.7536
 8078SOL    HW235871   2.413   3.829   4.661  0.7768 -0.7480  0.5998
 8079SOL     OW35872   2.710   1.184   2.810  0.0442 -0.3393  0.2980
 8079SOL    HW135873   2.796   1.224   2.821 -1.0421  2.4437 -1.0817
 8079SOL    HW235874   2.650   1.255   2.786  0.0812 -0.7800 -1.1167
 8080SOL     OW35875   3.666   1.979   3.037  0.2582  0.3292 -1.3418
 8080SOL    HW135876   3.669   2.032   3.117  0.1682 -3.0150  0.8932
 8080SOL    HW235877   3.649   1.888   3.063  1.0013  0.4266 -0.5025
 8081SOL     OW35878   2.655   3.254   1.237  0.8390 -0.4965 -0.8780
 8081SOL    HW135879   2.587   3.223   1.297  2.5454 -0.7048  0.9419
 8081SOL    HW235880   2.613   3.325   1.187 -1.0728 -0.4085  0.8458
 8082SOL     OW35881   0.547   0.078   2.299 -0.0764  0.0157  0.1911
 8082SOL    HW135882   0.453   0.076   2.313 -0.1966  1.0775 -0.5061
 8082SOL    HW235883   0.559   0.160   2.251  0.4884  0.6866  1.4674
 8083SOL     OW35884   4.271   1.705   0.275 -0.1921 -0.0520  0.0361
 8083SOL    HW135885   4.360   1.717   0.306 -0.9001  1.3297  1.5367
 8083SOL    HW235886   4.248   1.622   0.316  2.2885 -1.8332 -2.2010
 8084SOL     OW35887   1.050   0.938   4.339 -0.0230  0.7775  0.1472
 8084SOL    HW135888   0.966   0.934   4.385 -0.1248  0.6658 -0.0498
 8084SOL    HW235889   1.103   0.891   4.404 -0.5604  2.0138  1.4877
 8085SOL     OW35890   4.015   3.448  13.681 -0.0776 -0.1910 -0.0619
 8085SOL    HW135891   4.085   3.498  13.639 -0.9264  0.9397 -0.1296
 8085SOL    HW235892   3.935   3.491  13.652  0.5783  0.8838 -0.2964
 8086SOL     OW35893   0.634   1.744   8.664 -0.2972  0.4686 -0.2053
 8086SOL    HW135894   0.627   1.649   8.668 -0.6195  0.6151  3.2950
 8086SOL    HW235895   0.595   1.774   8.746  1.0846  1.0490  0.2447
 8087SOL     OW35896   1.580   4.427  14.578  0.0217  0.6787 -0.0372
 8087SOL    HW135897   1.589   4.336  14.605  2.5971  1.0023  0.1628
 8087SOL    HW235898   1.520   4.424  14.503 -0.0557  0.4203  0.0324
 8088SOL     OW35899   3.603   1.516   5.894  0.4701  0.4586 -0.4661
 8088SOL    HW135900   3.574   1.603   5.869 -1.7152  0.3199  1.5613
 8088SOL    HW235901   3.679   1.538   5.948 -0.7536 -0.2062  1.5415
 8089SOL     OW35902   3.093   1.406   2.184  0.2164 -0.1786 -0.0171
 8089SOL    HW135903   3.028   1.347   2.146  0.2369 -0.7788  0.8827
 8089SOL    HW235904   3.092   1.398   2.279  0.1783 -1.1246 -0.0981
 8090SOL     OW35905   2.663   3.509   1.627  0.1914 -0.6294  0.1370
 8090SOL    HW135906   2.660   3.417   1.652 -0.2030 -0.8631 -0.7825
 8090SOL    HW235907   2.744   3.502   1.576  0.9816  0.4200  1.2467
 8091SOL     OW35908   4.563   0.392   8.211  0.4846  0.3662 -0.3099
 8091SOL    HW135909   4.485   0.439   8.183 -0.1579 -0.3080  0.3458
 8091SOL    HW235910   4.618   0.397   8.133  1.7704  1.5559  0.6652
 8092SOL     OW35911   0.247   0.107   7.493 -0.5532  0.2100  0.4393
 8092SOL    HW135912   0.295   0.078   7.570 -0.9576  2.8190  1.6735
 8092SOL    HW235913   0.167   0.145   7.532 -0.8764 -1.5360  1.4737
 8093SOL     OW35914   1.723   0.521   0.963  0.3684  0.2892  0.1359
 8093SOL    HW135915   1.670   0.584   0.914 -2.2109 -0.8481  1.4676
 8093SOL    HW235916   1.756   0.572   1.037  1.9787  0.0759 -0.4506
 8094SOL     OW35917   1.854   3.485   0.835 -0.2303  0.0509 -0.7962
 8094SOL    HW135918   1.845   3.482   0.930 -0.8059 -0.2418 -0.8612
 8094SOL    HW235919   1.801   3.564   0.823 -0.3126  0.2498  0.9388
 8095SOL     OW35920   4.000   3.297   2.340 -0.0074 -0.2642  0.3786
 8095SOL    HW135921   4.001   3.374   2.283  1.1375 -1.6301 -1.4730
 8095SOL    HW235922   4.011   3.341   2.424  0.7888  1.4817 -0.6262
 8096SOL     OW35923   3.801   1.482  17.000 -0.3175 -0.2833 -0.2055
 8096SOL    HW135924   3.876   1.469  17.058 -0.1911  0.8332 -0.1145
 8096SOL    HW235925   3.814   1.575  16.983 -1.4166  0.0521  0.7130
 8097SOL     OW35926   3.169   2.844   2.940  0.1985  0.1386  0.0679
 8097SOL    HW135927   3.244   2.787   2.926  0.0552  0.1580 -0.7700
 8097SOL    HW235928   3.204   2.874   3.025 -1.3954 -2.0879  1.5156
 8098SOL     OW35929   4.411   0.512   9.985  0.5365  0.6536  0.8626
 8098SOL    HW135930   4.421   0.600   9.949  4.4685 -1.1538 -2.4290
 8098SOL    HW235931   4.494   0.504  10.031  1.4687 -0.0519 -0.9490
 8099SOL     OW35932   3.321   3.811   5.667  0.1753  0.1897  0.2791
 8099SOL    HW135933   3.393   3.843   5.721 -1.4656  4.1434  0.0694
 8099SOL    HW235934   3.257   3.804   5.738 -0.1082 -0.3133 -0.0256
 8100SOL     OW35935   1.226   0.155  10.704  0.1458  0.0902 -0.3918
 8100SOL    HW135936   1.240   0.151  10.798  0.5792  1.0421 -0.4197
 8100SOL    HW235937   1.282   0.230  10.688  1.6798 -0.9162  0.3317
 8101SOL     OW35938   0.451   0.154   7.046  0.1321 -0.3368  0.4087
 8101SOL    HW135939   0.392   0.080   7.039 -1.2384  0.5577  2.5723
 8101SOL    HW235940   0.475   0.156   7.139 -0.7378 -2.5853  0.6816
 8102SOL     OW35941   1.720   3.568   6.040  0.3153  0.1867  1.0854
 8102SOL    HW135942   1.787   3.631   6.067 -0.2585  1.2202  0.1307
 8102SOL    HW235943   1.675   3.558   6.124  2.0335  1.3496  2.1294
 8103SOL     OW35944   2.049   0.343  17.635  0.2093 -0.3064  0.3940
 8103SOL    HW135945   2.125   0.296  17.601  1.5890  3.3556 -1.6583
 8103SOL    HW235946   2.091   0.389  17.708 -0.7677 -2.2002  2.1666
 8104SOL     OW35947   4.020   4.640  14.509  0.7146  0.5286 -0.0216
 8104SOL    HW135948   4.079   4.571  14.479 -0.5016 -0.9818  1.0583
 8104SOL    HW235949   3.958   4.654  14.437  0.9582  0.5235 -0.2306
 8105SOL     OW35950   0.970   3.966   8.159  0.1622 -0.0149 -0.0178
 8105SOL    HW135951   1.030   3.892   8.166 -1.1843 -1.1267 -0.3359
 8105SOL    HW235952   0.963   3.990   8.251 -1.9101  0.1634 -0.2221
 8106SOL     OW35953   3.269   1.693  13.980  0.2662  0.2220  0.5247
 8106SOL    HW135954   3.250   1.784  13.954  0.8081  0.3411  0.5513
 8106SOL    HW235955   3.195   1.676  14.038 -0.6628  2.9439  0.1608
 8107SOL     OW35956   1.242   1.135   6.802  0.3195  0.1320 -0.3306
 8107SOL    HW135957   1.253   1.041   6.818 -0.0319  0.3704  1.3577
 8107SOL    HW235958   1.235   1.142   6.707 -0.4159 -0.6220 -0.3280
 8108SOL     OW35959   4.181   2.200   1.689 -0.3186 -0.0316 -0.1117
 8108SOL    HW135960   4.087   2.217   1.700 -0.2018  1.2975 -1.2337
 8108SOL    HW235961   4.202   2.114   1.725  0.0274  0.3111  0.5118
 8109SOL     OW35962   3.274   3.664   7.321  0.4917 -0.6474 -0.4958
 8109SOL    HW135963   3.273   3.683   7.227  2.4605  0.3839 -0.3043
 8109SOL    HW235964   3.200   3.605   7.339 -1.9934  2.3458 -0.8571
 8110SOL     OW35965   2.716   2.283   9.148 -0.0286 -0.7288 -0.1409
 8110SOL    HW135966   2.749   2.196   9.172  0.6317 -0.2112  0.8261
 8110SOL    HW235967   2.652   2.263   9.081 -0.7210 -0.5324  0.4636
 8111SOL     OW35968   3.596   1.464  15.993  0.0232  0.0063  0.1165
 8111SOL    HW135969   3.630   1.519  16.063 -2.4037 -0.6063  1.7642
 8111SOL    HW235970   3.501   1.453  16.002 -0.3137  0.4694 -2.9667
 8112SOL     OW35971   4.150   1.389   1.552 -0.0997  0.2959  0.6273
 8112SOL    HW135972   4.225   1.333   1.534 -1.0849 -0.0825 -2.3140
 8112SOL    HW235973   4.182   1.431   1.632  0.2319  0.9626  0.1405
 8113SOL     OW35974   3.415   0.956   7.118 -0.4659 -0.0799  0.0953
 8113SOL    HW135975   3.351   0.924   7.182 -1.0357 -0.7985 -0.8225
 8113SOL    HW235976   3.491   0.933   7.171 -0.0096 -1.6424 -1.2191
 8114SOL     OW35977   3.069   1.358   6.111 -0.3976  0.0708  0.3624
 8114SOL    HW135978   3.058   1.297   6.038  0.2563 -0.5099  0.7451
 8114SOL    HW235979   3.156   1.397   6.099 -0.4994  0.4481  0.8606
 8115SOL     OW35980   2.883   2.838   8.849 -0.3726  0.3263  0.5438
 8115SOL    HW135981   2.853   2.779   8.918 -0.6330  1.2088  1.1804
 8115SOL    HW235982   2.816   2.907   8.853 -0.8150 -0.0810  0.2051
 8116SOL     OW35983   0.844   2.715   6.473 -0.2654 -0.0119  0.1214
 8116SOL    HW135984   0.866   2.802   6.440 -2.1640  0.0730 -0.8622
 8116SOL    HW235985   0.905   2.715   6.548  1.6415 -1.4558 -1.4409
 8117SOL     OW35986   1.236   0.634   3.830  0.4066 -0.1556 -0.4798
 8117SOL    HW135987   1.232   0.539   3.816  1.4183  0.1272 -2.6524
 8117SOL    HW235988   1.323   0.652   3.795  1.3598 -1.1002  1.3667
 8118SOL     OW35989   1.945   1.294  14.999  0.0769  0.0047  0.8513
 8118SOL    HW135990   1.909   1.374  15.036  2.0013  0.5073  1.5904
 8118SOL    HW235991   1.986   1.258  15.078  1.5498  0.2931  0.2185
 8119SOL     OW35992   1.854   3.060   0.826  0.5250 -0.4190  0.6982
 8119SOL    HW135993   1.869   3.087   0.736  0.3168 -2.7559 -0.0497
 8119SOL    HW235994   1.780   3.001   0.809  0.4914 -0.0246 -0.5198
 8120SOL     OW35995   1.648   3.037   7.460 -0.2599  0.1565  0.2507
 8120SOL    HW135996   1.628   3.125   7.494  0.3338 -0.3535  1.9078
 8120SOL    HW235997   1.590   3.039   7.384 -1.8022  3.1058  1.5094
 8121SOL     OW35998   1.101   4.109  11.930  0.1492  0.6295  0.2134
 8121SOL    HW135999   1.173   4.122  11.867 -0.1587 -0.6599 -0.4202
 8121SOL    HW236000   1.037   4.176  11.909  0.6514  0.5883 -1.5039
 8122SOL     OW36001   4.026   0.672   1.803 -0.1203  0.5291 -0.9855
 8122SOL    HW136002   4.056   0.761   1.784  1.3349  0.2805  0.1420
 8122SOL    HW236003   3.943   0.666   1.756 -0.6856  1.1416 -0.0741
 8123SOL     OW36004   1.159   3.007   3.013  0.0090 -0.7841 -0.5303
 8123SOL    HW136005   1.144   3.100   2.995  3.3832  0.1197  1.2384
 8123SOL    HW236006   1.248   2.992   2.981 -0.1826 -1.2286 -0.8577
 8124SOL     OW36007   3.967   1.258   0.152 -0.0072 -0.1743  0.1723
 8124SOL    HW136008   4.010   1.204   0.218 -0.6452  0.3502  1.0295
 8124SOL    HW236009   3.928   1.193   0.094 -0.1304  0.8111 -0.8419
 8125SOL     OW36010   2.962   0.906   2.937 -0.2833 -0.5728 -0.8577
 8125SOL    HW136011   2.941   0.815   2.914 -0.1487 -1.2258  1.6136
 8125SOL    HW236012   2.882   0.939   2.979  1.0706  1.3776  0.2087
 8126SOL     OW36013   4.054   2.365   5.408  0.1338  0.3448  0.2408
 8126SOL    HW136014   4.075   2.311   5.484 -1.1422  1.8132  1.6178
 8126SOL    HW236015   4.133   2.347   5.356 -0.9894  0.3078 -1.4463
 8127SOL     OW36016   1.876   3.667   2.679  0.2363 -0.1460 -0.1512
 8127SOL    HW136017   1.902   3.729   2.747 -0.3129  0.3776 -0.4290
 8127SOL    HW236018   1.914   3.703   2.599 -1.2448  3.6159  0.8402
 8128SOL     OW36019   1.595   2.741  10.143  0.5210 -0.2465 -0.9802
 8128SOL    HW136020   1.628   2.752  10.232 -2.3033  1.0809 -0.0987
 8128SOL    HW236021   1.519   2.682  10.146  0.0283  0.4796  0.6008
 8129SOL     OW36022   1.979   3.514   9.466  0.0446 -0.2929  0.0210
 8129SOL    HW136023   2.042   3.556   9.524  1.8726 -0.3349 -1.9113
 8129SOL    HW236024   1.899   3.537   9.513 -0.4933 -1.4985 -0.3182
 8130SOL     OW36025   2.744   0.038   2.430  0.5833  0.3079  0.5769
 8130SOL    HW136026   2.651   0.053   2.416  0.4455 -0.2701  0.8847
 8130SOL    HW236027   2.771   0.130   2.435 -1.6490  1.1804 -2.8892
 8131SOL     OW36028   1.211   2.403  15.125 -0.0287 -0.5397 -0.3782
 8131SOL    HW136029   1.291   2.413  15.073 -0.4320 -0.6853 -1.0222
 8131SOL    HW236030   1.179   2.316  15.105 -2.2101  0.1051  0.2551
 8132SOL     OW36031   0.362   2.620   3.185 -0.4753  0.5789 -0.0311
 8132SOL    HW136032   0.442   2.606   3.236 -1.4947 -4.3222  0.2163
 8132SOL    HW236033   0.294   2.622   3.253 -0.2597  1.3121  0.1661
 8133SOL     OW36034   4.562   3.554   2.604 -0.0343  0.7214  0.2946
 8133SOL    HW136035   4.595   3.607   2.532  2.2615 -0.3650  0.5619
 8133SOL    HW236036   4.605   3.473   2.578 -3.1223 -0.4950 -1.0888
 8134SOL     OW36037   3.552   1.095   3.830 -0.1737  0.1949  0.0619
 8134SOL    HW136038   3.634   1.116   3.786 -0.9870  1.1977 -0.9443
 8134SOL    HW236039   3.535   1.007   3.798  3.7925 -0.6721  0.2645
 8135SOL     OW36040   3.354   2.154   2.055  0.2512  0.2583  0.4732
 8135SOL    HW136041   3.323   2.157   1.965  1.3005  1.4356  0.1424
 8135SOL    HW236042   3.430   2.096   2.044  0.3082 -0.0632  2.4662
 8136SOL     OW36043   4.714   4.210   0.782 -0.2367 -0.3044 -0.2267
 8136SOL    HW136044   4.734   4.118   0.796  2.3731  0.2639 -0.1606
 8136SOL    HW236045   0.063   4.238   0.821 -0.2654 -0.7684  0.1583
 8137SOL     OW36046   3.694   0.784  13.995 -0.1084 -0.3915  0.1338
 8137SOL    HW136047   3.625   0.792  13.930 -0.2299  1.9367  0.5440
 8137SOL    HW236048   3.684   0.691  14.015  1.0894 -0.4854  0.3115
 8138SOL     OW36049   2.997   4.632   8.865 -0.6514 -0.0525  0.7795
 8138SOL    HW136050   3.076   4.660   8.911 -0.0450 -1.0291  0.3177
 8138SOL    HW236051   2.983   4.704   8.804  2.4406  0.2933  0.4751
 8139SOL     OW36052   2.597   3.559   7.874  0.6318 -0.0092 -0.0926
 8139SOL    HW136053   2.631   3.486   7.822  2.8380  1.7340 -1.0799
 8139SOL    HW236054   2.549   3.613   7.812 -0.6184  0.3576  1.1934
 8140SOL     OW36055   1.731   2.132   9.749  0.0144 -0.0631  0.4274
 8140SOL    HW136056   1.743   2.042   9.781  1.6874 -0.3306 -0.8954
 8140SOL    HW236057   1.666   2.171   9.807  1.4484  1.3782  1.0648
 8141SOL     OW36058   3.973   2.569   5.646 -0.3115 -0.3527 -0.1848
 8141SOL    HW136059   3.962   2.475   5.630 -1.1267 -1.0525  4.7004
 8141SOL    HW236060   3.883   2.595   5.663 -0.3669 -0.2117 -0.6787
 8142SOL     OW36061   2.355   3.022   6.011  0.0052  0.2515 -0.0920
 8142SOL    HW136062   2.422   3.060   6.067  0.5714  0.1127 -0.6691
 8142SOL    HW236063   2.400   3.020   5.926 -1.6468  1.5093 -0.9994
 8143SOL     OW36064   0.186   0.024   6.171 -0.5700 -0.1658 -0.0936
 8143SOL    HW136065   0.259   4.729   6.116 -0.5709  1.0622 -0.7567
 8143SOL    HW236066   0.229   0.030   6.256  0.3430  1.6889 -0.6909
 8144SOL     OW36067   1.407   1.997   6.410 -0.0511  0.0050 -0.0414
 8144SOL    HW136068   1.429   1.904   6.416  1.5167  0.5113  2.2744
 8144SOL    HW236069   1.429   2.014   6.319  0.1967  1.0022  0.1980
 8145SOL     OW36070   1.985   1.495   7.222 -0.0698  0.3498 -0.5950
 8145SOL    HW136071   2.072   1.530   7.201  0.1025 -1.1613 -2.3404
 8145SOL    HW236072   1.928   1.552   7.170 -0.5126 -0.2342 -0.7411
 8146SOL     OW36073   2.803   4.610   7.593 -0.0408  0.0009 -0.6204
 8146SOL    HW136074   2.746   4.533   7.581 -1.1977  1.0233 -1.6599
 8146SOL    HW236075   2.878   4.570   7.636 -0.4693 -1.2067 -0.9841
 8147SOL     OW36076   2.850   1.397   5.348 -1.2131  0.0191  0.2278
 8147SOL    HW136077   2.882   1.417   5.260  1.9180  1.2846  1.6287
 8147SOL    HW236078   2.933   1.364   5.382 -0.5731  2.1486  0.7466
 8148SOL     OW36079   2.057   4.002   6.210  0.4533 -0.0693  0.7384
 8148SOL    HW136080   1.990   4.064   6.240  0.7515 -0.5780  2.4659
 8148SOL    HW236081   2.126   4.024   6.273  0.7936  2.3654 -0.5002
 8149SOL     OW36082   2.742   1.454  16.582 -0.6065 -0.4985  0.0217
 8149SOL    HW136083   2.782   1.397  16.515 -3.3281  0.1841 -2.1895
 8149SOL    HW236084   2.726   1.385  16.647 -3.1329  0.1012  0.0403
 8150SOL     OW36085   0.386   1.314   1.665  0.3485 -0.3649 -0.1965
 8150SOL    HW136086   0.399   1.220   1.648 -1.3651 -0.4056 -1.2788
 8150SOL    HW236087   0.300   1.314   1.707 -0.6904 -2.5071 -2.3177
 8151SOL     OW36088   0.161   0.404   6.976 -0.3240 -0.1947 -0.2360
 8151SOL    HW136089   0.130   0.347   7.047  0.9876 -0.0541  0.4437
 8151SOL    HW236090   0.190   0.330   6.922 -2.2461 -1.4169  0.3963
 8152SOL     OW36091   0.076   2.363   4.280 -0.2236  0.2019 -0.4874
 8152SOL    HW136092   0.108   2.274   4.285  0.9414  0.6710  0.3096
 8152SOL    HW236093   4.717   2.340   4.278 -0.4408  1.0400 -0.1322
 8153SOL     OW36094   3.996   1.692   0.310 -0.6796  0.2463 -0.2361
 8153SOL    HW136095   4.087   1.710   0.287 -1.0228  1.6377 -0.5309
 8153SOL    HW236096   3.955   1.769   0.270  0.4210  0.0324 -1.7729
 8154SOL     OW36097   3.465   3.088   8.519 -0.2588 -0.0723 -0.2840
 8154SOL    HW136098   3.488   3.004   8.559  1.4311  0.3729 -0.3173
 8154SOL    HW236099   3.410   3.059   8.446 -0.4078  1.2483 -0.7076
 8155SOL     OW36100   1.846   0.749   5.882 -0.3974  0.2845  0.3176
 8155SOL    HW136101   1.872   0.658   5.896  3.4170  1.1999 -0.7131
 8155SOL    HW236102   1.831   0.755   5.787 -3.5242 -0.0212  0.8161
 8156SOL     OW36103   2.486   2.505   6.045  0.2305 -0.1305  0.5080
 8156SOL    HW136104   2.405   2.519   5.997  1.1314 -0.3832 -1.0868
 8156SOL    HW236105   2.465   2.511   6.139 -0.5217 -0.3320  0.3488
 8157SOL     OW36106   0.478   4.191  16.902 -0.2061 -0.4660 -0.3250
 8157SOL    HW136107   0.388   4.159  16.895  0.1769 -1.6021 -0.0039
 8157SOL    HW236108   0.505   4.180  16.810  0.8621 -0.8980  0.0359
 8158SOL     OW36109   2.316   2.997   2.769  0.1802 -0.1245  0.0908
 8158SOL    HW136110   2.285   2.916   2.810  0.6810  0.0344  0.7687
 8158SOL    HW236111   2.301   3.051   2.846  1.9757  0.3007  0.1305
 8159SOL     OW36112   0.697   3.242  10.867 -0.0953  0.1418 -0.6165
 8159SOL    HW136113   0.663   3.167  10.917 -0.7551  1.0382  0.2718
 8159SOL    HW236114   0.706   3.298  10.944 -0.5429  1.9035 -1.8754
 8160SOL     OW36115   1.491   3.818  10.860  0.0638  0.1509  0.0988
 8160SOL    HW136116   1.547   3.743  10.879  0.3722  0.5676  0.8182
 8160SOL    HW236117   1.541   3.888  10.901 -1.4203  1.5011 -0.4108
 8161SOL     OW36118   1.794   2.273  17.066 -0.2386  0.3111 -0.0735
 8161SOL    HW136119   1.850   2.248  17.139  1.0779  0.3270 -1.0843
 8161SOL    HW236120   1.784   2.190  17.021  0.8023  0.2010 -0.1039
 8162SOL     OW36121   0.629   4.270  16.272  0.1679 -0.5510  0.3916
 8162SOL    HW136122   0.623   4.271  16.367 -1.8762 -1.0178  0.2779
 8162SOL    HW236123   0.713   4.229  16.253  0.3186 -0.6494  1.3007
 8163SOL     OW36124   0.660   1.567  10.354  0.3828 -0.0638  0.5081
 8163SOL    HW136125   0.649   1.573  10.259  0.0374  0.3282  0.5741
 8163SOL    HW236126   0.683   1.474  10.358  1.2570  0.1213 -0.1322
 8164SOL     OW36127   4.292   3.345   5.918  0.2438  0.5193  0.1681
 8164SOL    HW136128   4.239   3.348   5.998  0.3324 -0.7107  0.2714
 8164SOL    HW236129   4.352   3.275   5.944 -1.0073 -0.8600 -0.7294
 8165SOL     OW36130   4.048   3.475   6.709 -0.5243  0.6266 -0.2853
 8165SOL    HW136131   3.969   3.421   6.719 -0.4413  1.0354  2.6660
 8165SOL    HW236132   4.040   3.532   6.786 -1.3487  0.4757 -0.2565
 8166SOL     OW36133   4.348   2.084   2.516  0.2608  0.8395 -0.3766
 8166SOL    HW136134   4.374   2.064   2.426  1.5758  0.7014  0.0232
 8166SOL    HW236135   4.422   2.060   2.572 -0.5960  1.3206  0.9471
 8167SOL     OW36136   2.855   4.188   0.827 -0.9831 -0.0309  0.3499
 8167SOL    HW136137   2.892   4.145   0.904 -0.7464 -0.4544  0.0036
 8167SOL    HW236138   2.918   4.259   0.817  1.2495 -1.8877  1.2576
 8168SOL     OW36139   0.589   2.046   4.638  0.1235  0.2447 -0.1856
 8168SOL    HW136140   0.553   2.107   4.573  0.4612  1.7247  1.0264
 8168SOL    HW236141   0.634   1.985   4.580  0.9615 -0.8886  1.6895
 8169SOL     OW36142   1.306   2.814   3.519 -0.2778  0.1271 -0.5639
 8169SOL    HW136143   1.232   2.783   3.571  0.9866 -0.4531  0.8744
 8169SOL    HW236144   1.270   2.886   3.466 -0.1031 -0.0777 -0.9632
 8170SOL     OW36145   4.286   2.319  14.824  0.1336  0.0124  0.0546
 8170SOL    HW136146   4.258   2.306  14.734 -1.1145 -2.0163  0.7338
 8170SOL    HW236147   4.289   2.415  14.827  0.3837 -0.1041  3.5846
 8171SOL     OW36148   0.432   0.693   7.610 -0.6895  0.2586 -0.8862
 8171SOL    HW136149   0.513   0.718   7.565  0.0274  2.1572  1.4389
 8171SOL    HW236150   0.472   0.647   7.684 -1.2395  1.6789  0.2951
 8172SOL     OW36151   3.917   1.035  16.358 -0.5287 -0.3789 -0.3973
 8172SOL    HW136152   3.981   0.986  16.306  0.3143 -1.2399  1.4435
 8172SOL    HW236153   3.951   1.124  16.349 -2.1116  0.1643 -0.9164
 8173SOL     OW36154   0.170   1.771   7.659  0.0619 -0.0151  0.4590
 8173SOL    HW136155   0.081   1.780   7.694  0.1183  0.2696  0.5298
 8173SOL    HW236156   0.164   1.677   7.643  0.4813  0.2708 -1.3978
 8174SOL     OW36157   2.288   2.700  16.421  0.2466  0.3904 -0.5534
 8174SOL    HW136158   2.292   2.723  16.514  0.4562  2.6506 -1.1293
 8174SOL    HW236159   2.376   2.728  16.396  0.3464  0.9834  0.4473
 8175SOL     OW36160   2.041   1.936  10.808  0.1446  0.5797 -0.2697
 8175SOL    HW136161   2.105   1.985  10.859 -0.7829  0.9528  0.5341
 8175SOL    HW236162   1.957   1.980  10.825 -0.9617 -1.5549 -0.1297
 8176SOL     OW36163   2.818   3.964  10.829  0.8908 -0.0179 -0.2437
 8176SOL    HW136164   2.871   3.976  10.749  0.1925  2.6299 -0.2988
 8176SOL    HW236165   2.850   3.877  10.851  0.4491 -0.7575 -2.4928
 8177SOL     OW36166   2.160   4.252   4.972  0.0154 -0.2242  0.2442
 8177SOL    HW136167   2.199   4.168   4.996  1.2689  0.8821  2.0953
 8177SOL    HW236168   2.142   4.290   5.058 -0.9833  1.1295 -0.5618
 8178SOL     OW36169   1.784   2.345  12.734  0.9272 -0.7783 -0.1358
 8178SOL    HW136170   1.813   2.274  12.791  0.2874  0.7732  2.1453
 8178SOL    HW236171   1.722   2.291  12.686 -0.1730 -0.5655  1.0455
 8179SOL     OW36172   0.344   3.080   9.166  0.2974 -0.3349 -0.4510
 8179SOL    HW136173   0.404   3.089   9.092  1.2993 -1.1901  0.2755
 8179SOL    HW236174   0.339   3.173   9.191 -3.2743 -0.4702 -0.5531
 8180SOL     OW36175   0.677   4.557   5.759  0.2712 -0.0057  0.0697
 8180SOL    HW136176   0.597   4.566   5.812  0.2675  0.7884 -0.0782
 8180SOL    HW236177   0.682   4.461   5.756 -2.9666 -0.1506 -0.9083
 8181SOL     OW36178   2.598   3.263  15.527 -0.2011  0.3790  0.3588
 8181SOL    HW136179   2.619   3.289  15.437 -2.9207  0.3542 -0.2809
 8181SOL    HW236180   2.508   3.293  15.536 -1.0280 -1.4211 -1.8618
 8182SOL     OW36181   1.564   3.027   8.839 -0.0903 -0.6070  0.3743
 8182SOL    HW136182   1.521   3.011   8.755  2.2845 -1.0167 -0.7475
 8182SOL    HW236183   1.606   2.941   8.848 -0.2915 -0.6798  0.6350
 8183SOL     OW36184   2.522   4.265   2.956  0.1258  0.1969 -0.3587
 8183SOL    HW136185   2.617   4.276   2.962  0.2836 -0.8435 -0.9556
 8183SOL    HW236186   2.499   4.317   2.879 -1.3856 -0.4278 -0.3309
 8184SOL     OW36187   1.130   4.571   6.171  0.2186 -0.3666 -0.6347
 8184SOL    HW136188   1.131   4.523   6.254  1.0116  1.8032  0.5952
 8184SOL    HW236189   1.050   4.547   6.125  1.3694 -3.7135 -0.8991
 8185SOL     OW36190   4.385   0.854   7.673 -0.6329  0.1311 -0.3739
 8185SOL    HW136191   4.353   0.793   7.608  0.4542 -1.2821  0.4196
 8185SOL    HW236192   4.318   0.923   7.674  0.7806  1.5105  0.5245
 8186SOL     OW36193   1.762   3.211  11.339 -0.2798  0.4806 -0.2303
 8186SOL    HW136194   1.671   3.227  11.312 -1.2354  0.1269  2.7025
 8186SOL    HW236195   1.803   3.282  11.290  0.4317 -1.8837 -3.0118
 8187SOL     OW36196   2.054   4.607  10.035  0.5789  0.2024 -0.0611
 8187SOL    HW136197   2.094   4.646  10.113  0.8629 -2.1995  0.9818
 8187SOL    HW236198   1.992   4.549  10.078  0.1261  0.1537 -0.7784
 8188SOL     OW36199   4.077   2.533   4.859  0.1407  0.3474  0.2508
 8188SOL    HW136200   4.115   2.446   4.847  2.9023  1.6061 -0.2408
 8188SOL    HW236201   4.064   2.526   4.954  2.0284 -0.9122  0.4351
 8189SOL     OW36202   4.443   1.348   3.411 -0.7117 -0.1433 -0.0474
 8189SOL    HW136203   4.355   1.313   3.402  0.0904 -0.8472 -4.7106
 8189SOL    HW236204   4.484   1.344   3.325 -1.1617 -3.3547 -0.1172
 8190SOL     OW36205   0.668   4.623   2.150  0.5391 -0.3641 -0.0231
 8190SOL    HW136206   0.656   4.666   2.065  0.8993 -0.4772 -0.1307
 8190SOL    HW236207   0.630   4.687   2.210 -2.2453 -0.9235 -1.1918
 8191SOL     OW36208   4.722   4.331   3.120 -0.5104  0.2207  0.0156
 8191SOL    HW136209   4.685   4.406   3.074  1.2358  0.1188 -1.5850
 8191SOL    HW236210   4.660   4.328   3.193 -1.3740 -0.6926 -0.7619
 8192SOL     OW36211   0.594   1.243   2.712  0.0058 -0.3646  0.2152
 8192SOL    HW136212   0.632   1.181   2.649 -1.4397 -0.2118 -0.8188
 8192SOL    HW236213   0.659   1.243   2.781 -1.2146  0.9193  1.3657
 8193SOL     OW36214   2.189   1.908   6.340 -0.3081  0.4414 -0.4800
 8193SOL    HW136215   2.173   1.998   6.309 -2.0945 -0.2406 -1.5381
 8193SOL    HW236216   2.163   1.923   6.431 -1.2294 -0.1957 -0.6362
 8194SOL     OW36217   0.086   1.401  15.253 -0.0239  0.6674  0.2043
 8194SOL    HW136218   0.098   1.495  15.266  1.2344  0.3276  1.6302
 8194SOL    HW236219   0.171   1.365  15.278 -0.5438 -1.6102 -1.3820
 8195SOL     OW36220   3.841   1.743   1.127  0.1448 -0.7332  0.3218
 8195SOL    HW136221   3.768   1.681   1.124  0.4744 -1.1516  0.8454
 8195SOL    HW236222   3.804   1.814   1.179 -1.1724  1.0938 -3.1376
 8196SOL     OW36223   0.816   1.406   8.864 -0.1135 -0.8419 -0.1706
 8196SOL    HW136224   0.859   1.474   8.812 -0.3060  0.3190  1.1994
 8196SOL    HW236225   0.738   1.456   8.888  0.6102 -0.3563  1.1521
 8197SOL     OW36226   0.009   4.167   4.928  0.2659 -0.5019 -0.4583
 8197SOL    HW136227   0.075   4.187   4.862 -1.1617  1.2094 -1.3561
 8197SOL    HW236228   0.013   4.250   4.975  0.1770 -1.0543  0.5191
 8198SOL     OW36229   3.749   3.406  16.760 -0.8089 -0.4309 -0.4811
 8198SOL    HW136230   3.843   3.425  16.763 -0.5678 -1.5355 -0.7607
 8198SOL    HW236231   3.708   3.458  16.692 -0.2591  1.0660  0.3335
 8199SOL     OW36232   0.546   1.912  17.336  0.3162  0.3895 -0.0092
 8199SOL    HW136233   0.533   1.990  17.389 -1.3617  0.5782 -0.6829
 8199SOL    HW236234   0.637   1.890  17.354  0.7464 -0.4226 -3.2202
 8200SOL     OW36235   0.914   4.432   9.389  0.1167 -0.4932 -0.0780
 8200SOL    HW136236   0.842   4.397   9.336  0.9137  0.7052 -1.9687
 8200SOL    HW236237   0.880   4.407   9.475 -1.0800 -0.5659 -0.5705
 8201SOL     OW36238   1.548   4.055   7.878 -0.0211  0.0520  0.2447
 8201SOL    HW136239   1.599   4.110   7.819 -0.0977 -0.3840 -0.2220
 8201SOL    HW236240   1.457   4.061   7.849  0.6144 -0.5203 -1.8358
 8202SOL     OW36241   3.013   3.615   3.173 -0.1995 -0.0053  0.1019
 8202SOL    HW136242   3.102   3.613   3.139  0.7583 -1.4271  2.7451
 8202SOL    HW236243   2.955   3.566   3.115  0.5177 -1.4297  0.5832
 8203SOL     OW36244   0.623   1.831   6.455  0.1705  0.3206 -0.1409
 8203SOL    HW136245   0.678   1.891   6.505 -0.1823  0.1125  0.5031
 8203SOL    HW236246   0.667   1.840   6.371  0.0903  3.0258  0.1073
 8204SOL     OW36247   1.154   4.179   9.521 -0.3063 -0.2662 -0.1013
 8204SOL    HW136248   1.128   4.238   9.593  0.7213  1.7703 -1.4000
 8204SOL    HW236249   1.155   4.232   9.442  0.3905  2.2549  1.5900
 8205SOL     OW36250   4.053   0.345  11.086 -0.3903  0.1158  0.3332
 8205SOL    HW136251   4.140   0.310  11.104 -0.8330 -1.0877  0.1005
 8205SOL    HW236252   4.061   0.431  11.128  1.9959 -0.1254  0.3313
 8206SOL     OW36253   2.000   1.127  16.527  0.3061 -0.0802 -0.2258
 8206SOL    HW136254   2.084   1.099  16.564  0.3019  0.9011  0.5195
 8206SOL    HW236255   1.969   1.045  16.488  3.0635 -1.1389 -0.2150
 8207SOL     OW36256   0.104   2.237  16.812 -0.1410 -0.0683  0.5334
 8207SOL    HW136257   0.171   2.225  16.879  1.4916 -1.8887 -1.4020
 8207SOL    HW236258   0.121   2.166  16.750 -0.8402 -1.9237  2.4911
 8208SOL     OW36259   0.227   3.011   7.316  0.1249  0.1422  0.2279
 8208SOL    HW136260   0.218   2.921   7.283  1.2856 -0.4481  1.5223
 8208SOL    HW236261   0.137   3.034   7.296  0.3812 -0.0235 -1.1123
 8209SOL     OW36262   0.486   2.674  16.294  0.5634  0.3673  0.0466
 8209SOL    HW136263   0.510   2.605  16.232  1.6307  0.3321  0.4994
 8209SOL    HW236264   0.567   2.700  16.336  1.3169  0.3086 -1.3685
 8210SOL     OW36265   2.340   1.853   1.348  0.0567  0.5743 -0.5294
 8210SOL    HW136266   2.275   1.859   1.278  0.5801  2.2038 -0.8646
 8210SOL    HW236267   2.282   1.865   1.424  0.1486 -1.5254 -0.1045
 8211SOL     OW36268   2.716   1.097  12.371 -0.1962  0.0601 -0.2366
 8211SOL    HW136269   2.779   1.061  12.309 -1.7135 -2.1907 -0.4775
 8211SOL    HW236270   2.710   1.186  12.335 -0.9613 -0.2925 -0.9732
 8212SOL     OW36271   3.566   3.343   5.977  0.3159 -0.2725 -0.4743
 8212SOL    HW136272   3.593   3.283   6.046 -0.7304  1.2971  1.2907
 8212SOL    HW236273   3.498   3.289   5.936  1.9651 -0.5781 -2.8144
 8213SOL     OW36274   2.526   2.598   4.376 -0.6024  0.2433 -0.4544
 8213SOL    HW136275   2.542   2.564   4.289  2.6557 -0.3618  0.4089
 8213SOL    HW236276   2.590   2.669   4.372  0.3050 -0.5173  0.5902
 8214SOL     OW36277   2.728   1.696  16.972 -0.0506  0.0911 -0.1205
 8214SOL    HW136278   2.701   1.788  16.974  0.6155  0.2705  0.4772
 8214SOL    HW236279   2.726   1.686  16.877  0.0168  0.1955 -0.1320
 8215SOL     OW36280   2.088   0.551   5.431 -0.2470  0.2247 -0.3374
 8215SOL    HW136281   1.997   0.522   5.423 -0.4552  1.0253 -0.8975
 8215SOL    HW236282   2.127   0.480   5.380 -1.4107 -1.0931  0.6339
 8216SOL     OW36283   0.450   4.707   8.737  0.0763  0.2619  0.0659
 8216SOL    HW136284   0.434   4.620   8.774  0.5276 -0.0279 -0.4259
 8216SOL    HW236285   0.364   0.004   8.765 -0.3684 -1.4074  0.5651
 8217SOL     OW36286   0.473   4.443  11.767  0.0563 -0.5494  0.8273
 8217SOL    HW136287   0.470   4.442  11.671 -2.2505  0.9184  0.8809
 8217SOL    HW236288   0.551   4.389  11.778 -0.8864 -1.6298  2.0168
 8218SOL     OW36289   2.533   2.369   3.614  0.2824  0.2018  0.0681
 8218SOL    HW136290   2.514   2.380   3.707 -1.0830  1.1045 -0.3155
 8218SOL    HW236291   2.446   2.334   3.595  0.5203 -0.0175 -0.6266
 8219SOL     OW36292   1.590   1.131   7.091 -0.3516 -0.2616  0.2498
 8219SOL    HW136293   1.624   1.198   7.150 -0.9116 -0.5436  0.8946
 8219SOL    HW236294   1.599   1.181   7.010  1.5126 -2.6542 -1.0109
 8220SOL     OW36295   0.121   1.052   7.852  0.5795  0.3366  0.6165
 8220SOL    HW136296   0.184   1.000   7.803  0.3097  0.2060  0.4037
 8220SOL    HW236297   0.053   1.063   7.784  1.7787  1.2548 -0.4257
 8221SOL     OW36298   4.091   1.431   5.577  0.4937  0.0303 -0.5313
 8221SOL    HW136299   4.136   1.445   5.493 -0.1754 -1.1791 -1.0813
 8221SOL    HW236300   3.999   1.424   5.554  0.0589 -0.7127  1.4414
 8222SOL     OW36301   3.301   4.219   6.262 -0.5166  0.0929  0.1505
 8222SOL    HW136302   3.255   4.281   6.205  1.2696  0.9563 -0.3347
 8222SOL    HW236303   3.310   4.269   6.343 -0.9608  0.3776  0.0246
 8223SOL     OW36304   0.485   2.772   7.616  0.2066  0.0365  0.4036
 8223SOL    HW136305   0.580   2.769   7.604  0.0658 -3.2777 -0.0193
 8223SOL    HW236306   0.488   2.865   7.639 -0.4663  0.1238  0.1452
 8224SOL     OW36307   0.861   0.147  16.460 -0.1048  0.3766  0.3291
 8224SOL    HW136308   0.900   0.068  16.423 -1.5941 -0.3273  0.2942
 8224SOL    HW236309   0.825   0.193  16.384 -0.3936 -0.3743  0.0185
 8225SOL     OW36310   0.520   3.657   8.216 -0.0298  0.0423  0.3924
 8225SOL    HW136311   0.567   3.730   8.255  1.7109 -1.1351  0.4769
 8225SOL    HW236312   0.447   3.636   8.275 -0.8772 -3.0966 -1.7501
 8226SOL     OW36313   2.878   0.927   2.262 -0.0641 -0.2048 -0.3554
 8226SOL    HW136314   2.823   0.875   2.321 -0.3598  1.7347  1.0862
 8226SOL    HW236315   2.960   0.881   2.245  1.1169  2.4567 -1.8749
 8227SOL     OW36316   1.926   1.257   4.548  0.3247 -0.0328  0.1096
 8227SOL    HW136317   2.013   1.220   4.534  0.3595  0.4606 -0.9494
 8227SOL    HW236318   1.928   1.309   4.468  0.2646  0.5952  0.5199
 8228SOL     OW36319   2.402   0.276   5.584 -0.0013 -0.3338 -0.3928
 8228SOL    HW136320   2.338   0.305   5.519 -1.5335  1.6975  2.0235
 8228SOL    HW236321   2.478   0.328   5.556  1.4599 -0.9778  2.3448
 8229SOL     OW36322   2.733   2.027   9.206 -0.2914  0.2763  0.1159
 8229SOL    HW136323   2.651   1.977   9.204 -0.2907  0.2796  0.0049
 8229SOL    HW236324   2.799   1.967   9.172  0.6330  0.7092  1.1404
 8230SOL     OW36325   3.409   1.979   9.605 -0.4199  0.5028 -0.2418
 8230SOL    HW136326   3.450   2.060   9.575  1.8083 -1.0474 -1.4811
 8230SOL    HW236327   3.480   1.953   9.665  0.7298  1.6717 -1.0858
 8231SOL     OW36328   0.357   1.070   8.526 -0.0813 -0.1118  0.2213
 8231SOL    HW136329   0.326   1.002   8.585 -2.1285 -0.1795 -0.9413
 8231SOL    HW236330   0.416   1.012   8.478 -1.0929 -0.1198 -0.9880
 8232SOL     OW36331   0.791   4.135  14.359  0.2401 -0.4228  0.1456
 8232SOL    HW136332   0.839   4.218  14.358 -3.4903  1.7930  2.8532
 8232SOL    HW236333   0.765   4.118  14.269 -0.5419 -1.8308  0.6400
 8233SOL     OW36334   2.916   1.503   0.615 -0.1477  0.5242 -0.3127
 8233SOL    HW136335   2.855   1.429   0.619  0.4466  0.1468  1.6299
 8233SOL    HW236336   2.905   1.541   0.702 -0.4069 -1.8000  0.6843
 8234SOL     OW36337   2.383   2.735   4.553  0.5168  0.0936  0.2449
 8234SOL    HW136338   2.333   2.667   4.598 -0.3155 -0.2555 -1.2189
 8234SOL    HW236339   2.446   2.680   4.507 -2.0149 -2.9801  0.4472
 8235SOL     OW36340   2.370   1.210   8.823 -0.1345  0.1322  0.1776
 8235SOL    HW136341   2.365   1.253   8.737  2.3133  1.1242  0.5360
 8235SOL    HW236342   2.323   1.275   8.876 -0.0825  0.8990 -0.7015
 8236SOL     OW36343   1.135   4.579  11.111  0.0195 -0.3464  0.2051
 8236SOL    HW136344   1.166   4.554  11.024 -0.7522  1.9297 -0.7484
 8236SOL    HW236345   1.119   4.674  11.107 -0.0564 -0.2616  2.6224
 8237SOL     OW36346   3.572   1.165   9.221 -0.6040 -0.0849 -0.1071
 8237SOL    HW136347   3.588   1.089   9.278  3.4790  0.9191  0.0758
 8237SOL    HW236348   3.523   1.114   9.156 -1.5032 -0.8269  1.1418
 8238SOL     OW36349   3.551   3.805  10.273 -0.6226  0.2209  0.0092
 8238SOL    HW136350   3.458   3.817  10.288 -1.0021  0.0340 -2.1631
 8238SOL    HW236351   3.560   3.719  10.232  2.2539  0.0858  0.9217
 8239SOL     OW36352   2.873   0.293   9.038  0.3491  0.0815  0.5159
 8239SOL    HW136353   2.923   0.227   9.087 -1.0496 -1.1759  0.2518
 8239SOL    HW236354   2.818   0.243   8.978  0.3782 -0.2229  0.7398
 8240SOL     OW36355   2.993   0.389  11.718  0.0958 -0.4464  0.1359
 8240SOL    HW136356   2.977   0.480  11.695 -0.3054 -0.0734  1.8386
 8240SOL    HW236357   3.088   0.378  11.718  0.0191 -1.1469  3.3304
 8241SOL     OW36358   0.986   1.836   2.370 -0.4427 -0.4146 -0.6557
 8241SOL    HW136359   1.022   1.815   2.456  2.1686  0.4388 -1.5574
 8241SOL    HW236360   0.959   1.749   2.340  0.3802 -0.3212 -1.6393
 8242SOL     OW36361   1.783   4.453   6.205 -0.3862  0.0123 -0.0098
 8242SOL    HW136362   1.791   4.542   6.239 -1.0563 -1.4251  3.9390
 8242SOL    HW236363   1.690   4.445   6.225 -0.3478 -0.3740  0.0203
 8243SOL     OW36364   1.400   4.466   4.693  0.1800 -0.0894 -0.1605
 8243SOL    HW136365   1.414   4.480   4.599 -1.3047  0.2540 -0.3212
 8243SOL    HW236366   1.492   4.468   4.720  0.2262 -3.0322 -0.1025
 8244SOL     OW36367   0.281   3.272   5.973  0.6953  0.6436  0.5821
 8244SOL    HW136368   0.323   3.195   5.934 -2.4783  0.2043 -2.0338
 8244SOL    HW236369   0.357   3.329   5.986  1.3729 -0.2224  0.3758
 8245SOL     OW36370   0.247   3.488   6.164  0.5125 -0.1018  0.4594
 8245SOL    HW136371   0.332   3.455   6.193  0.9224  0.1090 -0.4900
 8245SOL    HW236372   0.269   3.580   6.182 -0.6213  0.1187  0.7159
 8246SOL     OW36373   4.307   2.581   8.265 -0.0347  0.1672  0.3984
 8246SOL    HW136374   4.296   2.662   8.315 -0.8648  0.5050 -0.3109
 8246SOL    HW236375   4.337   2.530   8.340 -0.9847  0.7781  1.1943
 8247SOL     OW36376   2.176   1.954   2.711  0.1776  0.1497 -0.0262
 8247SOL    HW136377   2.203   1.903   2.787  0.6505 -0.1847 -0.4202
 8247SOL    HW236378   2.133   2.024   2.761 -0.3211 -0.8955  1.0249
 8248SOL     OW36379   0.708   1.189   3.314  0.0714 -0.4263 -0.0963
 8248SOL    HW136380   0.673   1.109   3.353  1.0330 -0.8756 -0.1587
 8248SOL    HW236381   0.645   1.203   3.243  0.6789 -2.4279 -1.0197
 8249SOL     OW36382   0.388   0.517   3.830 -0.2293  0.1211 -0.2062
 8249SOL    HW136383   0.421   0.521   3.741  1.2514  0.8985  0.3811
 8249SOL    HW236384   0.314   0.459   3.813 -0.7703  0.5807  0.5522
 8250SOL     OW36385   2.500   0.924   3.552  0.1430  0.0177  0.4494
 8250SOL    HW136386   2.528   0.957   3.467 -0.1805 -0.2758  0.2336
 8250SOL    HW236387   2.531   0.835   3.564 -2.0967 -1.0471 -1.7784
 8251SOL     OW36388   1.514   1.568  15.984  0.8193 -0.2922 -0.1963
 8251SOL    HW136389   1.420   1.584  15.973  0.9962  1.0636  0.2256
 8251SOL    HW236390   1.518   1.525  16.069  0.3051 -0.1074 -0.0772
 8252SOL     OW36391   4.612   1.555   1.981 -0.3653 -0.5775 -0.1083
 8252SOL    HW136392   4.623   1.468   1.942  1.7626 -0.5445  0.4211
 8252SOL    HW236393   4.554   1.523   2.051  2.4155  0.9412  2.8768
 8253SOL     OW36394   1.561   1.777   7.011  0.0107 -0.5346  0.3136
 8253SOL    HW136395   1.582   1.825   7.091 -0.8009  0.5507 -0.1255
 8253SOL    HW236396   1.471   1.806   6.996  0.3939  0.8985  0.8253
 8254SOL     OW36397   3.944   2.184  15.842 -0.5709 -0.5576 -0.5743
 8254SOL    HW136398   3.953   2.242  15.766  0.0829  1.0497  0.7332
 8254SOL    HW236399   4.036   2.155  15.841 -0.5955 -0.6842  2.0395
 8255SOL     OW36400   4.727   2.063   3.618 -0.0946 -0.2026 -0.3720
 8255SOL    HW136401   4.706   2.049   3.710 -1.3761  0.1100 -0.6133
 8255SOL    HW236402   0.041   1.983   3.601 -1.7641 -1.2809 -0.1342
 8256SOL     OW36403   3.581   1.431  13.417 -0.1536 -0.4061  0.5787
 8256SOL    HW136404   3.593   1.462  13.328  0.3626  2.9235  1.8097
 8256SOL    HW236405   3.505   1.485  13.441  1.4137  2.1033 -0.2162
 8257SOL     OW36406   0.426   0.378   3.448 -0.2560 -0.2456 -0.1079
 8257SOL    HW136407   0.358   0.330   3.494  1.6173 -2.1286  0.6702
 8257SOL    HW236408   0.471   0.305   3.406  0.6191  0.2962 -0.1132
 8258SOL     OW36409   4.079   2.558   2.898 -0.0870 -0.1971  0.3462
 8258SOL    HW136410   3.984   2.555   2.897 -0.0636 -0.8444 -0.5320
 8258SOL    HW236411   4.089   2.532   2.807  0.6140 -1.3787  0.7546
 8259SOL     OW36412   3.808   3.692   5.117 -1.0666  0.4017  0.2137
 8259SOL    HW136413   3.892   3.666   5.079 -1.5730  0.3715 -0.8928
 8259SOL    HW236414   3.808   3.633   5.192 -1.4637  1.5696  1.1303
 8260SOL     OW36415   4.497   3.993   1.755  0.0127  0.3651 -0.2018
 8260SOL    HW136416   4.569   4.018   1.698 -2.1719  2.5029 -1.9817
 8260SOL    HW236417   4.535   4.033   1.834 -1.7940 -1.7038  1.7290
 8261SOL     OW36418   2.452   1.587   2.383 -0.1756 -0.7862  0.0418
 8261SOL    HW136419   2.371   1.588   2.331  0.5924 -3.0932 -1.1943
 8261SOL    HW236420   2.460   1.676   2.417  3.2071  0.3838 -3.9959
 8262SOL     OW36421   4.356   0.988   5.424  0.0527 -0.3946  0.0858
 8262SOL    HW136422   4.328   0.926   5.357 -0.9133  0.0194  0.1142
 8262SOL    HW236423   4.303   1.065   5.404 -0.9239 -1.5374 -1.6697
 8263SOL     OW36424   0.746   2.392   4.067  0.2326 -0.3428  0.1453
 8263SOL    HW136425   0.740   2.477   4.110  3.2021 -1.2287  2.3027
 8263SOL    HW236426   0.716   2.342   4.143  1.9590 -1.1116  0.3383
 8264SOL     OW36427   0.670   4.506  13.027 -0.3333 -0.1343 -0.4360
 8264SOL    HW136428   0.730   4.469  12.963  0.4174  3.0019 -1.5283
 8264SOL    HW236429   0.683   4.442  13.098  2.3684  0.4872 -0.3811
 8265SOL     OW36430   3.365   1.526   7.574 -0.1971  0.6569 -0.0937
 8265SOL    HW136431   3.406   1.534   7.660 -0.4309  0.3712  0.0450
 8265SOL    HW236432   3.440   1.532   7.514 -0.8545 -0.7320 -1.0424
 8266SOL     OW36433   4.616   4.488  13.671 -0.3499  0.1845  0.0191
 8266SOL    HW136434   4.543   4.473  13.732  1.8459  0.3340  2.7140
 8266SOL    HW236435   4.587   4.575  13.645 -1.6995  0.0032  0.9178
 8267SOL     OW36436   3.365   4.416   4.862  0.0657 -0.5327  1.0085
 8267SOL    HW136437   3.304   4.367   4.807 -0.5626  0.4421  0.8384
 8267SOL    HW236438   3.417   4.344   4.897  2.7998  0.0827 -1.7332
 8268SOL     OW36439   2.533   0.165   8.645 -0.5916  0.3968 -0.0104
 8268SOL    HW136440   2.532   0.135   8.736  0.1539 -0.9597 -0.4518
 8268SOL    HW236441   2.507   0.090   8.592 -0.3783  0.3375 -0.0341
 8269SOL     OW36442   3.590   3.556   3.480 -0.6681 -0.1225  0.5632
 8269SOL    HW136443   3.641   3.478   3.503 -1.1528 -0.5346  0.2526
 8269SOL    HW236444   3.661   3.619   3.489 -0.8805 -0.3624  3.7383
 8270SOL     OW36445   1.911   2.880   8.557 -0.3293  0.0225  0.0529
 8270SOL    HW136446   1.878   2.845   8.640 -1.8285  1.4613  0.0632
 8270SOL    HW236447   1.844   2.852   8.494 -0.3099 -1.1084  0.5224
 8271SOL     OW36448   2.415   1.020   3.028 -0.3172  0.3219 -0.5283
 8271SOL    HW136449   2.451   1.105   3.056  1.5826 -0.3442 -0.9295
 8271SOL    HW236450   2.326   1.047   3.007 -0.2236 -0.0222 -1.3727
 8272SOL     OW36451   0.048   3.763   9.062 -0.4270 -0.2326  0.7212
 8272SOL    HW136452   0.083   3.852   9.060 -0.3168 -0.2792  0.3934
 8272SOL    HW236453   4.705   3.777   9.115  0.3362 -1.2595  2.1206
 8273SOL     OW36454   1.438   2.742   1.115 -0.3622  0.1596  0.1110
 8273SOL    HW136455   1.458   2.674   1.179  0.2729 -1.3858 -1.7189
 8273SOL    HW236456   1.488   2.811   1.158 -0.2402  1.4217 -2.0309
 8274SOL     OW36457   0.454   0.504  11.890  1.1522  0.1877  0.0447
 8274SOL    HW136458   0.382   0.528  11.949  0.7864 -2.5798  0.7097
 8274SOL    HW236459   0.505   0.585  11.893  0.5799  0.5604 -0.1893
 8275SOL     OW36460   3.073   1.130   8.195  0.1632  0.2664 -0.1719
 8275SOL    HW136461   3.045   1.183   8.270 -2.1454  1.2712 -1.7472
 8275SOL    HW236462   3.150   1.092   8.237  0.3971 -0.7467 -1.5405
 8276SOL     OW36463   2.965   0.636   2.217 -0.2103 -0.5486 -0.2744
 8276SOL    HW136464   2.879   0.599   2.196 -1.9565  2.6168  1.2452
 8276SOL    HW236465   3.016   0.591   2.149  0.3394  0.7183 -0.6959
 8277SOL     OW36466   2.711   1.372  12.302 -0.1652  0.1598  0.4007
 8277SOL    HW136467   2.686   1.383  12.394 -1.2182 -2.7202  0.4734
 8277SOL    HW236468   2.804   1.390  12.319 -0.0351  1.6523 -1.9746
 8278SOL     OW36469   0.465   1.120  11.584 -0.6398 -0.8321  0.5144
 8278SOL    HW136470   0.373   1.148  11.580 -0.1863  0.3258 -1.8099
 8278SOL    HW236471   0.461   1.038  11.633  0.1522 -1.4148 -0.4076
 8279SOL     OW36472   4.011   2.413   5.103 -0.4326  0.0641  0.2924
 8279SOL    HW136473   4.037   2.479   5.168  2.6509 -1.5208  0.7092
 8279SOL    HW236474   4.087   2.356   5.112 -0.3242  0.6915  3.5465
 8280SOL     OW36475   2.880   2.494  17.673  0.1479 -0.1202  0.4842
 8280SOL    HW136476   2.816   2.565  17.664  0.6429  0.5102  2.0045
 8280SOL    HW236477   2.962   2.534  17.701  0.2309 -0.1420  0.2717
 8281SOL     OW36478   1.034   3.680   7.259  0.2427  0.0292 -0.0827
 8281SOL    HW136479   0.959   3.698   7.203 -1.2183 -1.1516  1.4858
 8281SOL    HW236480   1.106   3.724   7.213 -0.0636  0.6222  0.0063
 8282SOL     OW36481   3.116   3.158  14.446 -0.3564 -0.0248  0.2810
 8282SOL    HW136482   3.045   3.153  14.511 -1.6871 -0.8121 -1.2406
 8282SOL    HW236483   3.145   3.245  14.472 -0.7693  0.5005 -1.0215
 8283SOL     OW36484   1.545   1.209   6.347 -0.5202 -0.2652  0.0085
 8283SOL    HW136485   1.453   1.197   6.323 -0.6789  0.9559 -0.0322
 8283SOL    HW236486   1.595   1.159   6.283 -0.3431  0.8341 -0.7182
 8284SOL     OW36487   1.223   3.849   7.182 -0.1061 -0.4632  0.4068
 8284SOL    HW136488   1.223   3.940   7.209 -1.2623  0.2300 -1.9761
 8284SOL    HW236489   1.313   3.822   7.199 -0.8162 -2.2182  1.4872
 8285SOL     OW36490   3.170   2.174   4.306  0.1537 -0.0271  0.3758
 8285SOL    HW136491   3.202   2.253   4.263 -0.1875 -1.2535 -2.1596
 8285SOL    HW236492   3.237   2.162   4.373 -0.2424  1.2043  0.9861
 8286SOL     OW36493   2.756   1.167   5.910 -0.5769 -0.0326  0.0920
 8286SOL    HW136494   2.705   1.220   5.849 -0.9071  0.2180  0.5825
 8286SOL    HW236495   2.678   1.117   5.933 -1.3324  0.0494 -2.3837
 8287SOL     OW36496   3.381   1.194   6.976 -0.1290 -0.5368 -0.8723
 8287SOL    HW136497   3.336   1.246   7.042 -1.2609 -0.9865 -1.2979
 8287SOL    HW236498   3.397   1.111   7.021 -2.8276 -0.6104 -0.0867
 8288SOL     OW36499   1.415   2.881   6.875 -0.3847  0.3445  0.0573
 8288SOL    HW136500   1.388   2.903   6.786 -1.1185  1.2070  0.4873
 8288SOL    HW236501   1.387   2.790   6.878  1.5278 -0.2077  1.1888
 8289SOL     OW36502   2.365   4.575   4.682 -0.3834  0.2223  0.1416
 8289SOL    HW136503   2.291   4.587   4.623 -1.9252 -1.3371  1.7676
 8289SOL    HW236504   2.363   4.479   4.679  0.8471  0.2142 -0.6496
 8290SOL     OW36505   2.589   0.839   1.259 -0.5379 -0.0637  0.2045
 8290SOL    HW136506   2.521   0.774   1.277  0.0097 -1.0480 -1.2900
 8290SOL    HW236507   2.669   0.794   1.288 -0.6237 -0.0417  0.4779
 8291SOL     OW36508   3.076   0.413   7.051 -0.0572  0.1797 -0.0981
 8291SOL    HW136509   3.029   0.463   6.984  0.2871 -1.1650 -1.3252
 8291SOL    HW236510   3.160   0.406   7.006 -0.0265  0.9319 -0.1557
 8292SOL     OW36511   0.516   3.563   1.174  0.1493  0.3016 -0.3997
 8292SOL    HW136512   0.442   3.533   1.121  0.1936  1.3647 -1.0616
 8292SOL    HW236513   0.467   3.595   1.250 -0.3280  2.6934 -1.6933
 8293SOL     OW36514   1.416   4.721  16.987 -0.1756  0.8239 -0.4103
 8293SOL    HW136515   1.431   0.061  16.930 -0.6508  2.7594  2.0008
 8293SOL    HW236516   1.413   4.652  16.921 -0.9889 -0.1304  0.6189
 8294SOL     OW36517   3.572   4.232  15.092 -0.7106  0.3703 -0.4790
 8294SOL    HW136518   3.594   4.194  15.177 -1.8260 -0.8087 -0.7260
 8294SOL    HW236519   3.555   4.325  15.112  2.2308  0.5763  1.0604
 8295SOL     OW36520   2.031   3.166   9.502 -0.4710  0.0125 -0.4111
 8295SOL    HW136521   2.070   3.199   9.583 -2.5168  0.5050  0.3847
 8295SOL    HW236522   2.075   3.224   9.439 -0.7360  1.9674  1.1997
 8296SOL     OW36523   3.401   3.141  12.017  0.0241 -0.3303 -0.4863
 8296SOL    HW136524   3.444   3.181  11.942 -0.8991 -1.1916 -1.4707
 8296SOL    HW236525   3.398   3.214  12.079  1.7079 -1.0738  0.4806
 8297SOL     OW36526   0.737   3.126   2.115 -0.0704  0.0465 -0.0120
 8297SOL    HW136527   0.699   3.038   2.115  0.1373 -0.0402  0.2686
 8297SOL    HW236528   0.783   3.121   2.198 -0.2142  1.0616  0.1325
 8298SOL     OW36529   3.958   0.016   9.507  0.0617  0.1030  0.1387
 8298SOL    HW136530   3.943   0.081   9.439  1.0897  0.4727  0.2708
 8298SOL    HW236531   3.918   4.678   9.459 -0.7708 -0.2101  1.2998
 8299SOL     OW36532   3.663   1.408   4.347  0.2887 -0.4038  0.4579
 8299SOL    HW136533   3.594   1.418   4.282  0.2971  0.2057  0.5420
 8299SOL    HW236534   3.744   1.396   4.297  1.6816  2.2704  2.0884
 8300SOL     OW36535   4.131   0.107   0.032 -0.2028 -0.1113  0.2894
 8300SOL    HW136536   4.193   0.101  17.697 -0.1839 -1.4720  0.4309
 8300SOL    HW236537   4.088   0.189   0.007  0.8410  0.3007 -0.1758
 8301SOL     OW36538   0.333   4.018  15.846 -0.2725  0.2477  0.2383
 8301SOL    HW136539   0.356   4.103  15.882 -0.6277  0.7217 -0.6563
 8301SOL    HW236540   0.248   4.009  15.889 -0.9981  0.4142 -1.1458
 8302SOL     OW36541   3.622   1.912   6.485 -0.2219  0.1508 -0.2867
 8302SOL    HW136542   3.565   1.853   6.434 -0.7803  0.3113  0.1515
 8302SOL    HW236543   3.599   1.890   6.575  1.2585  1.9341  0.5203
 8303SOL     OW36544   4.461   1.912   3.334 -0.4053  0.2166 -0.4620
 8303SOL    HW136545   4.527   1.848   3.360  1.1589  2.1618  0.3049
 8303SOL    HW236546   4.427   1.867   3.256  0.4583 -0.1094 -0.6481
 8304SOL     OW36547   2.730   0.603   6.488  0.2280  0.0761  0.1610
 8304SOL    HW136548   2.749   0.554   6.568  0.1205  2.3934  1.6004
 8304SOL    HW236549   2.660   0.551   6.449  0.9719 -1.6122  1.0614
 8305SOL     OW36550   0.678   1.616  13.796 -0.1506  0.1621 -0.4449
 8305SOL    HW136551   0.614   1.576  13.738 -1.3849 -0.9344  1.6748
 8305SOL    HW236552   0.725   1.681  13.744  1.0206  0.6302  1.1801
 8306SOL     OW36553   1.959   0.428   3.457 -0.3087 -0.3552  0.3392
 8306SOL    HW136554   1.869   0.404   3.478 -0.1082  0.4712  2.1373
 8306SOL    HW236555   2.002   0.343   3.456 -1.9049 -1.1638  1.9863
 8307SOL     OW36556   0.460   0.194   1.779 -0.7126  0.4519  0.4628
 8307SOL    HW136557   0.375   0.226   1.751 -0.1605 -0.1679 -1.9697
 8307SOL    HW236558   0.491   0.270   1.827  2.0457 -0.5239  0.2505
 8308SOL     OW36559   1.214   0.106   3.758 -0.0564  0.4026  0.5115
 8308SOL    HW136560   1.123   0.101   3.787 -0.9728  0.9370 -2.2395
 8308SOL    HW236561   1.257   0.042   3.815 -1.0430 -0.7026  0.0218
 8309SOL     OW36562   4.477   3.654   7.049 -0.1174 -0.3715  0.0070
 8309SOL    HW136563   4.495   3.687   7.137 -0.9106 -2.9607  1.1512
 8309SOL    HW236564   4.565   3.673   7.017 -1.0666  0.5588 -2.0740
 8310SOL     OW36565   4.265   1.111  15.351 -0.6083  0.3017 -0.2615
 8310SOL    HW136566   4.202   1.125  15.422 -0.8135 -2.4253  0.1237
 8310SOL    HW236567   4.326   1.053  15.398  1.6757  1.8054 -1.3402
 8311SOL     OW36568   1.829   4.037   4.489 -0.2611  0.4592 -0.4101
 8311SOL    HW136569   1.889   4.037   4.415  1.7038  0.9755  1.1771
 8311SOL    HW236570   1.820   3.944   4.512  2.7405  0.3343  0.2095
 8312SOL     OW36571   4.162   1.497   8.322  0.4021 -0.4394 -0.3058
 8312SOL    HW136572   4.078   1.459   8.347  0.6496 -1.5180 -1.1196
 8312SOL    HW236573   4.200   1.540   8.399  2.2222  0.0326 -1.4767
 8313SOL     OW36574   2.386   1.782  11.143 -0.4186 -0.2730 -0.4033
 8313SOL    HW136575   2.438   1.702  11.142  2.7803  1.7756  1.7849
 8313SOL    HW236576   2.305   1.758  11.188  1.0122 -0.8405  1.8482
 8314SOL     OW36577   3.541   4.432   2.940 -0.5088 -0.1916  0.5662
 8314SOL    HW136578   3.543   4.527   2.934 -3.6232 -0.1907 -0.3047
 8314SOL    HW236579   3.446   4.419   2.948 -0.8995  2.2295 -0.4611
 8315SOL     OW36580   0.435   0.359  14.447  0.3832 -0.0935  0.4050
 8315SOL    HW136581   0.409   0.451  14.443 -0.1781 -0.1882  1.8564
 8315SOL    HW236582   0.431   0.342  14.353  1.3714  0.6002  0.2358
 8316SOL     OW36583   3.211   1.571  16.483  0.2298  0.1690 -0.1032
 8316SOL    HW136584   3.140   1.611  16.432  0.5080 -0.4993 -1.0005
 8316SOL    HW236585   3.282   1.634  16.471  1.1915 -0.8253  0.4602
 8317SOL     OW36586   0.982   2.030   8.227 -0.1948  0.1857 -0.2926
 8317SOL    HW136587   1.001   1.963   8.162  0.7554  1.8605 -1.7425
 8317SOL    HW236588   0.994   2.108   8.172 -2.3461 -0.2675 -1.4026
 8318SOL     OW36589   0.462   2.327  16.419  0.4365 -0.1244 -0.1374
 8318SOL    HW136590   0.461   2.409  16.369  3.1361 -0.6089 -0.9827
 8318SOL    HW236591   0.425   2.354  16.503 -1.0235  2.3975 -1.6120
 8319SOL     OW36592   2.744   0.546   3.198  0.0463  0.1693 -0.1089
 8319SOL    HW136593   2.705   0.599   3.129 -2.1697  0.6489  1.4918
 8319SOL    HW236594   2.833   0.577   3.210  0.0249  0.9403 -2.0034
 8320SOL     OW36595   1.050   0.143   7.415 -0.2981 -0.2351 -0.5003
 8320SOL    HW136596   1.088   0.055   7.423  0.4082 -0.1834 -3.3652
 8320SOL    HW236597   1.125   0.203   7.413 -0.7083  0.3057  0.2586
 8321SOL     OW36598   4.321   0.209   7.824  0.1120  0.5672 -0.0751
 8321SOL    HW136599   4.308   0.115   7.829  2.0793  0.3790  1.5996
 8321SOL    HW236600   4.382   0.210   7.750 -1.1756 -1.3893 -1.1576
 8322SOL     OW36601   4.610   2.222   3.211 -0.1548  0.2321  0.3030
 8322SOL    HW136602   4.647   2.162   3.146 -0.7618 -0.4925  0.6257
 8322SOL    HW236603   4.572   2.281   3.145  0.9689  1.1002  0.4352
 8323SOL     OW36604   3.292   1.388   1.463 -0.7673  0.2355 -0.4521
 8323SOL    HW136605   3.248   1.330   1.401  0.0845 -1.7116  0.7709
 8323SOL    HW236606   3.276   1.344   1.546  1.9027 -0.4577 -0.2937
 8324SOL     OW36607   0.948   4.084   2.023 -0.3529  0.6170 -0.2180
 8324SOL    HW136608   0.900   4.008   1.991 -0.5970  0.0321  1.5221
 8324SOL    HW236609   1.029   4.039   2.045 -0.1235  1.0275 -0.2220
 8325SOL     OW36610   0.735   2.315   2.215 -0.1291 -0.0884 -0.0425
 8325SOL    HW136611   0.738   2.308   2.120  2.0424  1.8667 -0.1357
 8325SOL    HW236612   0.747   2.226   2.249  2.3389  0.9423  1.7967
 8326SOL     OW36613   4.111   3.973  10.664 -0.0051  0.0743 -0.2663
 8326SOL    HW136614   4.133   3.932  10.747 -0.1192 -2.5906 -1.5255
 8326SOL    HW236615   4.090   4.060  10.695  0.2152  0.2897 -0.7111
 8327SOL     OW36616   2.310   4.329   4.769  0.1764 -0.3116 -0.2140
 8327SOL    HW136617   2.390   4.316   4.820  0.5337 -1.3504 -1.0541
 8327SOL    HW236618   2.253   4.306   4.843  0.9226  0.6957  0.6691
 8328SOL     OW36619   1.476   1.370   7.252  0.2088 -1.0573 -0.2027
 8328SOL    HW136620   1.524   1.452   7.262  1.6648 -1.9615  0.3830
 8328SOL    HW236621   1.414   1.379   7.180  0.5100 -0.6605 -0.4097
 8329SOL     OW36622   2.786   1.670  15.453  0.0915  1.0395 -0.4525
 8329SOL    HW136623   2.730   1.596  15.476 -0.8151  1.3176 -1.7561
 8329SOL    HW236624   2.783   1.658  15.358 -1.6307 -1.3005 -0.0836
 8330SOL     OW36625   1.742   3.575  16.403  0.2419  0.3802  0.2661
 8330SOL    HW136626   1.695   3.653  16.374  1.2332  0.1574 -1.9826
 8330SOL    HW236627   1.803   3.612  16.467  0.4229  1.0360 -0.2889
 8331SOL     OW36628   1.964   0.373   3.999 -0.5853 -0.6174 -0.5886
 8331SOL    HW136629   1.997   0.445   3.945 -1.5029 -1.1411 -1.8442
 8331SOL    HW236630   2.050   0.341   4.029 -1.0006  0.1792  1.4931
 8332SOL     OW36631   1.788   4.143  14.364  0.5578  0.0229 -0.2863
 8332SOL    HW136632   1.791   4.162  14.458  1.3963 -1.8746  0.0725
 8332SOL    HW236633   1.770   4.227  14.321  0.4220 -0.2498 -0.7623
 8333SOL     OW36634   4.065   1.418   2.016  0.0883 -0.5346 -0.1204
 8333SOL    HW136635   3.994   1.473   1.984  0.9681  1.2521  1.0282
 8333SOL    HW236636   4.033   1.400   2.104 -2.2587  1.6830 -0.5349
 8334SOL     OW36637   3.556   4.063  14.049 -0.9909 -0.2321  0.1698
 8334SOL    HW136638   3.502   4.113  14.110  0.4075 -0.5744  1.6717
 8334SOL    HW236639   3.613   4.007  14.102 -0.5177  1.8038  1.8037
 8335SOL     OW36640   2.109   4.202  12.665 -0.1323  0.7118 -0.3836
 8335SOL    HW136641   2.056   4.279  12.646  2.2129  2.5672  0.5971
 8335SOL    HW236642   2.090   4.144  12.591 -0.9792 -1.5985  1.6136
 8336SOL     OW36643   4.102   4.185   1.228  0.3044  0.7077 -0.2391
 8336SOL    HW136644   4.138   4.255   1.281  1.1033  0.7882 -0.8893
 8336SOL    HW236645   4.159   4.108   1.238 -1.9936 -0.9883 -0.0472
 8337SOL     OW36646   3.702   0.827   2.571  0.1266  0.1324 -0.1330
 8337SOL    HW136647   3.643   0.895   2.539  0.2341 -1.0713 -2.9271
 8337SOL    HW236648   3.789   0.863   2.552 -0.3115  1.5278  0.5337
 8338SOL     OW36649   1.274   0.173   3.458  0.1461 -0.4049 -0.1240
 8338SOL    HW136650   1.308   0.209   3.540 -0.4872 -0.6554  0.2524
 8338SOL    HW236651   1.191   0.221   3.466  1.7894  2.0956  1.9592
 8339SOL     OW36652   0.351   4.504  10.462  0.4240  0.6486  0.1422
 8339SOL    HW136653   0.340   4.577  10.523 -0.4068  0.1084  0.6349
 8339SOL    HW236654   0.329   4.548  10.380 -1.3053  0.1871  0.3626
 8340SOL     OW36655   3.879   1.565   3.952 -0.6446  0.0921  0.2943
 8340SOL    HW136656   3.824   1.504   3.902  2.0222 -0.4020 -2.0271
 8340SOL    HW236657   3.820   1.615   4.009  1.7259  3.0727  0.1076
 8341SOL     OW36658   3.138   0.964   7.643 -0.4999 -0.4180 -0.2831
 8341SOL    HW136659   3.172   0.974   7.554  0.5745  0.7940  0.2618
 8341SOL    HW236660   3.053   1.008   7.645 -1.1524 -1.7337  0.9035
 8342SOL     OW36661   0.894   4.405   2.483 -0.2843  0.0587 -0.0758
 8342SOL    HW136662   0.972   4.460   2.474 -1.9631  2.0710 -2.1309
 8342SOL    HW236663   0.896   4.367   2.395 -2.0072 -1.3429  0.4814
 8343SOL     OW36664   1.556   3.390  11.084  0.1582 -0.1283 -0.1826
 8343SOL    HW136665   1.530   3.361  11.172 -1.0828  0.4061 -0.3845
 8343SOL    HW236666   1.649   3.399  11.105  0.4161  0.4700 -1.5969
 8344SOL     OW36667   3.945   1.973   2.052 -0.7561 -0.0460 -0.4183
 8344SOL    HW136668   3.999   1.908   2.006  0.7685  0.7844  0.1938
 8344SOL    HW236669   3.992   2.050   2.018 -2.0679  0.6323 -0.6749
 8345SOL     OW36670   1.568   3.575   4.328 -0.6277 -0.3496  0.1529
 8345SOL    HW136671   1.531   3.524   4.400  0.7040 -2.5623 -0.7341
 8345SOL    HW236672   1.537   3.524   4.254 -0.4104  1.0502 -0.9152
 8346SOL     OW36673   1.408   2.916   2.904  0.0466 -0.7621  0.2852
 8346SOL    HW136674   1.491   2.925   2.950  0.2713 -0.8836 -0.0959
 8346SOL    HW236675   1.426   2.966   2.824 -0.2978  0.1590  0.7787
 8347SOL     OW36676   1.491   3.837   7.216 -0.0559  0.0139 -0.3020
 8347SOL    HW136677   1.580   3.860   7.189 -0.6263  2.7787  0.1671
 8347SOL    HW236678   1.493   3.746   7.244  0.3579  0.2240  0.3463
 8348SOL     OW36679   2.615   2.261  12.571  0.0207 -0.5471 -0.5607
 8348SOL    HW136680   2.582   2.335  12.521 -1.5486 -0.4469  0.6384
 8348SOL    HW236681   2.694   2.303  12.605 -1.7466 -0.8732  3.9075
 8349SOL     OW36682   1.703   2.267   4.449 -0.0554 -0.1332 -0.2770
 8349SOL    HW136683   1.612   2.287   4.472 -0.3766 -0.7897 -1.0015
 8349SOL    HW236684   1.728   2.340   4.393  0.7755 -1.0342 -1.0806
 8350SOL     OW36685   3.998   1.362   7.865 -0.3518  0.3148  0.6099
 8350SOL    HW136686   3.914   1.405   7.881 -0.9182 -1.0014  1.2408
 8350SOL    HW236687   4.055   1.407   7.926 -0.1644 -1.3303  1.6425
 8351SOL     OW36688   3.142   1.024   5.332 -0.3720  0.3458  0.3983
 8351SOL    HW136689   3.235   1.047   5.322  0.2285 -1.2234  2.3484
 8351SOL    HW236690   3.102   1.074   5.261  0.4218  0.0733 -0.2468
 8352SOL     OW36691   1.369   3.226   2.901  1.0037  0.1292 -0.9954
 8352SOL    HW136692   1.421   3.188   2.831  0.7014 -0.4881 -0.8882
 8352SOL    HW236693   1.381   3.320   2.887 -0.5617  0.1896 -1.9312
 8353SOL     OW36694   3.680   2.525   5.614  0.2630  0.0273 -0.3019
 8353SOL    HW136695   3.597   2.486   5.583 -1.0444  1.6449  1.1883
 8353SOL    HW236696   3.735   2.449   5.595  2.4388  1.4128  0.6190
 8354SOL     OW36697   3.429   0.977   9.763 -0.7130 -0.1876 -0.1524
 8354SOL    HW136698   3.411   1.050   9.823  3.0419  0.9630 -0.3775
 8354SOL    HW236699   3.512   0.995   9.718 -0.1774 -1.0123  0.5169
 8355SOL     OW36700   0.652   3.388   4.793 -0.2954 -0.1833 -0.3759
 8355SOL    HW136701   0.632   3.335   4.870  1.3630 -1.3635 -0.7586
 8355SOL    HW236702   0.586   3.354   4.733 -0.5483 -2.8829  1.4563
 8356SOL     OW36703   4.130   2.155  15.556 -0.2536  0.4420 -0.4360
 8356SOL    HW136704   4.131   2.150  15.461  1.0905 -0.0049 -0.3945
 8356SOL    HW236705   4.068   2.226  15.572 -1.8960 -0.8511 -0.9982
 8357SOL     OW36706   4.092   0.094  17.020  0.2384 -0.6116 -1.0216
 8357SOL    HW136707   4.142   0.055  16.948 -0.5893 -0.8191 -1.4756
 8357SOL    HW236708   4.080   0.025  17.084  0.2352 -0.2056 -0.5819
 8358SOL     OW36709   1.235   1.296   0.382 -0.0859  0.0834 -0.2332
 8358SOL    HW136710   1.324   1.274   0.409 -0.2888 -1.3302 -0.7517
 8358SOL    HW236711   1.220   1.359   0.452 -1.1412  0.8985 -1.1838
 8359SOL     OW36712   2.200   4.305  12.339  0.4735 -0.5893  0.3332
 8359SOL    HW136713   2.227   4.336  12.426  3.2181  0.5010 -0.9238
 8359SOL    HW236714   2.168   4.391  12.312 -0.3863 -0.4920  1.6288
 8360SOL     OW36715   0.830   3.549   3.439  0.7979 -0.4590  0.2596
 8360SOL    HW136716   0.880   3.572   3.361 -1.3454 -1.5550 -1.4390
 8360SOL    HW236717   0.857   3.616   3.502  1.7921 -0.7682  0.1567
 8361SOL     OW36718   2.020   0.316   1.346  0.1660  0.3935 -0.4941
 8361SOL    HW136719   2.091   0.365   1.388  1.7611 -0.8305 -1.7727
 8361SOL    HW236720   1.976   0.288   1.427 -2.2745 -0.4861 -2.1460
 8362SOL     OW36721   1.227   2.570   7.593 -0.0596 -0.2359  0.3286
 8362SOL    HW136722   1.216   2.495   7.534 -1.3862  0.7953 -0.7650
 8362SOL    HW236723   1.173   2.637   7.550  1.3964  2.1527  2.2937
 8363SOL     OW36724   1.167   1.987   4.398 -0.1816  0.2917 -0.0799
 8363SOL    HW136725   1.129   1.985   4.310 -1.5756 -1.8430  0.5763
 8363SOL    HW236726   1.130   2.072   4.425 -2.4089 -0.8794  0.5645
 8364SOL     OW36727   0.692   4.701   4.330 -0.1179  0.4536  0.1812
 8364SOL    HW136728   0.630   4.633   4.357  2.9924 -1.3640  2.7579
 8364SOL    HW236729   0.646   0.050   4.336  0.8159  0.9762  0.0457
 8365SOL     OW36730   0.931   4.375  14.390  0.5962 -0.4633 -0.9527
 8365SOL    HW136731   1.002   4.392  14.452  0.7624  3.5160 -2.2150
 8365SOL    HW236732   0.884   4.459  14.398  0.3272 -0.8412  1.4039
 8366SOL     OW36733   2.284   0.570   7.359  0.3984  0.0175 -0.5050
 8366SOL    HW136734   2.273   0.665   7.361  1.3188  0.0528  3.3964
 8366SOL    HW236735   2.296   0.552   7.452 -1.8944 -1.8176 -0.5663
 8367SOL     OW36736   3.891   0.552  16.969 -0.3993  0.1273  0.1117
 8367SOL    HW136737   3.944   0.627  16.941 -0.9814  1.5110  2.6382
 8367SOL    HW236738   3.917   0.486  16.905 -0.4615 -0.5039  0.7367
 8368SOL     OW36739   1.965   3.779  16.270 -0.2610 -0.0520  0.4069
 8368SOL    HW136740   1.981   3.684  16.269  1.9965  0.3112 -0.1223
 8368SOL    HW236741   1.885   3.774  16.218  0.5264  0.8163 -0.8770
 8369SOL     OW36742   4.268   2.622   7.747 -0.0047  0.0369 -0.1483
 8369SOL    HW136743   4.293   2.621   7.655 -1.3745 -0.4041 -0.5092
 8369SOL    HW236744   4.292   2.535   7.779 -0.9205  0.0600  0.6335
 8370SOL     OW36745   0.333   1.595   6.823  0.7034 -0.1560  0.2103
 8370SOL    HW136746   0.312   1.552   6.740 -1.1428 -0.3818  0.7910
 8370SOL    HW236747   0.429   1.594   6.825  0.7452  1.3742 -0.6983
 8371SOL     OW36748   1.724   3.443   8.027  0.2262 -0.0472 -0.3341
 8371SOL    HW136749   1.693   3.357   8.058 -1.5338 -0.3288 -2.8456
 8371SOL    HW236750   1.815   3.453   8.056 -0.2678 -0.8436  1.4996
 8372SOL     OW36751   1.908   2.108   4.319 -0.1513  0.4068  0.0096
 8372SOL    HW136752   1.841   2.162   4.360  0.0973 -0.3154  1.3670
 8372SOL    HW236753   1.885   2.021   4.353  1.8362 -0.8526 -1.9208
 8373SOL     OW36754   4.322   4.428   3.273  0.2311 -0.6629  0.1314
 8373SOL    HW136755   4.359   4.499   3.220  0.2806 -0.2439  0.7188
 8373SOL    HW236756   4.243   4.415   3.221  0.7109 -0.1278 -0.7441
 8374SOL     OW36757   3.923   1.417   8.362  0.7461 -0.5917  0.1680
 8374SOL    HW136758   3.864   1.348   8.332  0.5839 -0.3233 -0.1211
 8374SOL    HW236759   3.862   1.484   8.392  0.3142  0.5557 -3.3190
 8375SOL     OW36760   2.935   0.007  16.530  0.2770 -0.2201  0.0825
 8375SOL    HW136761   2.855   0.023  16.481  0.3149  1.4871  0.5937
 8375SOL    HW236762   2.926   4.659  16.577 -1.3203  0.1018  0.3432
 8376SOL     OW36763   2.762   4.479   6.122 -0.2490  0.7264 -0.1691
 8376SOL    HW136764   2.764   4.520   6.208 -0.7180 -0.1288  0.2455
 8376SOL    HW236765   2.671   4.450   6.130 -0.2870  0.1573 -2.4913
 8377SOL     OW36766   4.263   4.407   2.867  0.4684 -0.0245  0.0833
 8377SOL    HW136767   4.305   4.468   2.805  1.7747 -0.9173  0.0862
 8377SOL    HW236768   4.197   4.370   2.809  0.5697 -1.2319  0.7341
 8378SOL     OW36769   4.549   2.962   6.002 -0.4531 -0.1537  0.2517
 8378SOL    HW136770   4.549   2.939   5.909 -0.2892  0.3185  0.1340
 8378SOL    HW236771   4.630   2.932   6.043 -0.2832 -0.5626 -0.3888
 8379SOL     OW36772   1.513   4.003   6.951  0.2703 -0.1686  0.0010
 8379SOL    HW136773   1.431   4.029   6.993  1.0262 -1.3579  2.2421
 8379SOL    HW236774   1.489   3.933   6.891  0.7698 -0.3589  0.0250
 8380SOL     OW36775   1.064   0.735  16.800 -0.0662  0.0256  0.3436
 8380SOL    HW136776   1.088   0.663  16.859 -0.2441 -1.1913 -1.0727
 8380SOL    HW236777   1.143   0.741  16.745  0.3246  0.6194  0.9628
 8381SOL     OW36778   1.729   0.873   1.982  0.7292 -0.0721 -0.1192
 8381SOL    HW136779   1.647   0.831   1.956  0.1428  0.2728  1.1539
 8381SOL    HW236780   1.786   0.797   1.989 -1.3269 -1.5436  0.6960
 8382SOL     OW36781   1.418   2.202   1.972  0.1314 -0.0512 -0.0269
 8382SOL    HW136782   1.407   2.173   2.063 -0.4330  0.8870  0.2036
 8382SOL    HW236783   1.341   2.162   1.931 -0.5120 -0.2467  1.3364
 8383SOL     OW36784   0.744   1.761   7.724  0.6415 -0.4984 -0.1144
 8383SOL    HW136785   0.807   1.813   7.774 -0.4636 -0.8922  1.7162
 8383SOL    HW236786   0.680   1.831   7.709 -0.1648 -0.6522  2.4765
 8384SOL     OW36787   1.236   2.326   2.668  0.4832  0.7026  0.2412
 8384SOL    HW136788   1.184   2.352   2.593  1.2793 -0.7189 -0.8091
 8384SOL    HW236789   1.177   2.291   2.735  1.4206 -1.8855 -0.2595
 8385SOL     OW36790   3.895   4.242   0.254  0.5087  0.4275  0.7403
 8385SOL    HW136791   3.890   4.338   0.247  1.5367  0.5483  1.6553
 8385SOL    HW236792   3.976   4.221   0.208 -0.0893 -0.2978  0.0278
 8386SOL     OW36793   4.468   1.723  12.127  0.1078  0.3895  0.0671
 8386SOL    HW136794   4.562   1.709  12.140 -0.1428 -0.3342  1.0742
 8386SOL    HW236795   4.469   1.799  12.069  4.6775 -0.7001 -1.3008
 8387SOL     OW36796   0.757   2.724   4.930  0.0854  0.0928  0.1145
 8387SOL    HW136797   0.794   2.672   5.001  2.5795  0.8323 -0.6422
 8387SOL    HW236798   0.802   2.808   4.939 -0.8333  0.6147 -0.0975
 8388SOL     OW36799   4.170   1.197   3.169  0.2398 -0.0026 -0.0971
 8388SOL    HW136800   4.208   1.164   3.088  2.1061  2.4468 -0.1843
 8388SOL    HW236801   4.234   1.164   3.232 -0.0779 -0.3472  0.0516
 8389SOL     OW36802   0.231   2.682  11.107  0.4108 -0.2085  0.6706
 8389SOL    HW136803   0.160   2.666  11.169 -1.1641 -1.4278 -1.4538
 8389SOL    HW236804   0.304   2.670  11.168  0.2875  1.9012  1.2339
 8390SOL     OW36805   4.703   1.419  14.898 -0.3069  0.5744  0.4252
 8390SOL    HW136806   4.721   1.504  14.858  2.0685  0.8738  2.1553
 8390SOL    HW236807   4.704   1.363  14.820  2.0038  1.1531  0.0228
 8391SOL     OW36808   2.221   1.900   5.460  0.3436  0.4520  0.0375
 8391SOL    HW136809   2.164   1.907   5.383  2.4521 -1.1577 -1.6384
 8391SOL    HW236810   2.300   1.944   5.429  1.1298 -1.8262 -1.1755
 8392SOL     OW36811   1.707   2.416   2.194 -0.0539 -0.2726  0.4367
 8392SOL    HW136812   1.650   2.458   2.130 -1.3340 -0.4040  1.4757
 8392SOL    HW236813   1.636   2.368   2.238 -0.6496  0.4724  0.2857
 8393SOL     OW36814   3.524   3.332   9.514 -0.0343  0.5927 -0.0640
 8393SOL    HW136815   3.492   3.381   9.590  2.2039 -1.0486  1.9422
 8393SOL    HW236816   3.474   3.372   9.443 -1.0002 -1.7342 -0.6820
 8394SOL     OW36817   1.570   0.986  12.401  0.6995 -0.0513  0.0396
 8394SOL    HW136818   1.505   0.916  12.400  1.1189 -0.4576  0.8125
 8394SOL    HW236819   1.523   1.066  12.380  0.1858 -0.8390 -1.7751
 8395SOL     OW36820   2.521   3.279   6.821  0.2538  0.2994 -0.2260
 8395SOL    HW136821   2.521   3.225   6.900 -0.4055 -1.0689 -1.1597
 8395SOL    HW236822   2.602   3.248   6.781 -1.0172  0.8166 -3.1721
 8396SOL     OW36823   3.668   2.643   5.849 -0.1428 -0.1242 -0.2075
 8396SOL    HW136824   3.661   2.624   5.755  1.3109  2.0912 -0.7545
 8396SOL    HW236825   3.575   2.631   5.867 -0.0829  0.9688  0.8346
 8397SOL     OW36826   0.562   3.637   4.805  0.4016  0.6041 -0.0835
 8397SOL    HW136827   0.611   3.556   4.793 -1.6699 -0.5905 -0.5421
 8397SOL    HW236828   0.471   3.610   4.818  0.7264 -1.0139 -1.2221
 8398SOL     OW36829   4.396   2.978   1.455  0.4408 -0.1179 -0.3379
 8398SOL    HW136830   4.463   2.915   1.429  1.0073  1.2846 -2.3163
 8398SOL    HW236831   4.331   2.955   1.388 -0.9520 -0.8245  1.2631
 8399SOL     OW36832   0.089   1.100  10.742  0.0192  0.0593 -0.0827
 8399SOL    HW136833   0.141   1.061  10.671 -0.9631 -1.2666 -0.0783
 8399SOL    HW236834   0.028   1.154  10.692 -0.4928  1.4480  2.0149
 8400SOL     OW36835   1.614   3.910   8.822 -0.3469  0.0136 -0.3127
 8400SOL    HW136836   1.599   3.828   8.868 -0.2136 -0.1627 -0.5830
 8400SOL    HW236837   1.700   3.900   8.780 -0.9662 -2.8719 -0.9008
 8401SOL     OW36838   2.691   3.057   9.525 -0.2835  0.2465 -0.0578
 8401SOL    HW136839   2.613   3.005   9.545 -0.3579  0.3174 -0.1615
 8401SOL    HW236840   2.751   2.991   9.490 -1.4265 -1.8810  1.9808
 8402SOL     OW36841   2.417   0.713   4.896 -0.3979 -0.8976  0.3154
 8402SOL    HW136842   2.439   0.620   4.900  0.3499 -0.5353  4.1329
 8402SOL    HW236843   2.386   0.726   4.985  0.7505 -0.5256  0.6615
 8403SOL     OW36844   1.390   4.171   4.090  0.0791 -0.2358  0.5808
 8403SOL    HW136845   1.336   4.214   4.024  2.5545 -1.2857 -2.1190
 8403SOL    HW236846   1.457   4.238   4.097  3.3813 -3.2903 -2.0558
 8404SOL     OW36847   3.992   3.009   2.895  0.2103  0.5012 -0.5683
 8404SOL    HW136848   3.949   2.995   2.811  0.0395  2.4558 -0.8000
 8404SOL    HW236849   3.940   2.957   2.957  1.0565 -0.1662 -0.4185
 8405SOL     OW36850   0.013   1.448   0.803  0.0833  0.0039 -0.7925
 8405SOL    HW136851   4.677   1.483   0.857  1.9537  0.8185  1.1551
 8405SOL    HW236852   0.086   1.446   0.865  0.9894  0.5569 -1.8448
 8406SOL     OW36853   4.029   2.744  11.590 -0.2368 -0.0107 -0.2116
 8406SOL    HW136854   3.936   2.720  11.585 -0.0605 -0.9242  0.7561
 8406SOL    HW236855   4.066   2.665  11.630  2.5651  2.1922  1.4775
 8407SOL     OW36856   4.070   0.300  12.062  0.5473 -0.4365 -0.0307
 8407SOL    HW136857   4.141   0.360  12.039  0.7319  0.3853  2.6681
 8407SOL    HW236858   4.111   0.245  12.130  0.5698  0.1775  0.4529
 8408SOL     OW36859   2.385   4.728   5.671  0.3285 -0.3651  0.3116
 8408SOL    HW136860   2.385   0.076   5.624  1.3566 -0.4306  0.1865
 8408SOL    HW236861   2.446   0.015   5.741  1.0229 -0.0216 -0.3887
 8409SOL     OW36862   3.457   0.461  12.186  0.0403 -0.1787  0.4756
 8409SOL    HW136863   3.450   0.478  12.279 -0.2410  0.8490  0.2598
 8409SOL    HW236864   3.548   0.433  12.178  0.1566  0.0360  1.0876
 8410SOL     OW36865   2.582   2.582   7.955 -0.4230  0.4857  0.2509
 8410SOL    HW136866   2.630   2.502   7.976 -1.0087  0.3047  0.9389
 8410SOL    HW236867   2.513   2.549   7.897 -0.6953  1.6979 -0.1303
 8411SOL     OW36868   3.107   0.661   4.297  0.0786  0.0759 -0.3593
 8411SOL    HW136869   3.160   0.700   4.367 -0.1021 -0.7913  0.2567
 8411SOL    HW236870   3.146   0.574   4.294 -1.9732 -0.7821 -1.8228
 8412SOL     OW36871   3.876   4.178  12.546  0.5052 -0.3880  0.6338
 8412SOL    HW136872   3.829   4.197  12.465 -0.3799 -0.7204  1.0754
 8412SOL    HW236873   3.806   4.175  12.610 -3.2178  1.5617 -3.3071
 8413SOL     OW36874   1.622   2.895   7.985 -0.3644  0.5709 -0.3054
 8413SOL    HW136875   1.643   2.957   8.055  3.4814  1.8435 -2.5911
 8413SOL    HW236876   1.712   2.886   7.954  0.3218  2.5141  1.0765
 8414SOL     OW36877   2.826   2.173   4.053 -0.5213 -0.1622  0.1634
 8414SOL    HW136878   2.835   2.078   4.044 -1.4231 -0.2757  0.4556
 8414SOL    HW236879   2.767   2.191   3.980  1.5593  1.3515 -1.1579
 8415SOL     OW36880   3.882   1.829  10.112 -0.2926 -0.1881  0.2403
 8415SOL    HW136881   3.849   1.748  10.074  0.5114  0.3991 -1.6871
 8415SOL    HW236882   3.804   1.883  10.121 -1.7570 -2.2127 -0.3929
 8416SOL     OW36883   3.002   4.269   0.077  0.2929 -0.0991  0.0914
 8416SOL    HW136884   2.975   4.215   0.152  0.1681  0.2592  0.3068
 8416SOL    HW236885   3.092   4.240   0.075  0.3451 -0.0335  1.3013
 8417SOL     OW36886   3.576   3.882  13.343  0.1884 -0.5090 -0.0719
 8417SOL    HW136887   3.569   3.916  13.254 -1.7938 -0.2558  0.1698
 8417SOL    HW236888   3.486   3.907  13.364 -0.1185 -1.3527 -0.3949
 8418SOL     OW36889   4.728   1.718   4.502  0.7395  0.4630 -0.0602
 8418SOL    HW136890   0.038   1.645   4.546  1.8669  0.6352 -0.9334
 8418SOL    HW236891   4.695   1.669   4.427  1.6848 -0.2490 -0.0172
 8419SOL     OW36892   4.425   4.221   1.383  0.5131 -0.3526 -0.1834
 8419SOL    HW136893   4.380   4.143   1.416 -1.0685  0.4984 -0.3054
 8419SOL    HW236894   4.476   4.187   1.310  1.1770 -0.1787  0.2036
 8420SOL     OW36895   2.148   3.776   7.302 -0.2019  0.2108  0.6801
 8420SOL    HW136896   2.214   3.723   7.346  1.7307  0.0783 -2.4284
 8420SOL    HW236897   2.199   3.834   7.246  0.3673 -0.8491  0.1009
 8421SOL     OW36898   3.446   4.511   6.977  0.1342  0.0439  0.4936
 8421SOL    HW136899   3.383   4.461   7.028 -0.8228 -0.9135 -1.6251
 8421SOL    HW236900   3.481   4.432   6.934 -2.7549 -1.0211  0.1078
 8422SOL     OW36901   1.394   3.939   8.138 -0.0446 -0.2222 -0.2792
 8422SOL    HW136902   1.373   4.012   8.080 -1.1184  0.9495  1.5870
 8422SOL    HW236903   1.383   3.865   8.078  2.6355 -0.7275 -0.1403
 8423SOL     OW36904   4.233   4.388   1.353  0.4777  0.6197  0.3057
 8423SOL    HW136905   4.226   4.402   1.447  0.2198 -0.2441  0.4126
 8423SOL    HW236906   4.301   4.321   1.349 -2.1433 -1.9967  0.0633
 8424SOL     OW36907   0.958   1.421  14.476  0.6061 -0.0282 -0.2609
 8424SOL    HW136908   0.944   1.459  14.389  0.2724  1.3304  0.3882
 8424SOL    HW236909   0.871   1.401  14.510  1.3527  0.0554  1.7123
 8425SOL     OW36910   1.227   0.915   0.565  0.2218  0.2019 -0.6026
 8425SOL    HW136911   1.162   0.978   0.533 -2.1730 -1.1669  1.6079
 8425SOL    HW236912   1.242   0.874   0.480  2.2934  2.7667 -1.5042
 8426SOL     OW36913   3.510   0.662  14.206  0.0966 -0.7887  0.0157
 8426SOL    HW136914   3.427   0.675  14.251  0.4410  0.3926  0.2885
 8426SOL    HW236915   3.478   0.665  14.116 -1.2880 -0.9326  0.5069
 8427SOL     OW36916   3.784   1.256   9.462 -0.6458 -0.4183  0.0400
 8427SOL    HW136917   3.874   1.236   9.488  0.1272  2.2922 -0.5900
 8427SOL    HW236918   3.753   1.173   9.426 -0.2052  0.1083 -1.5171
 8428SOL     OW36919   2.030   0.197   8.036  0.3322 -0.8555  0.6980
 8428SOL    HW136920   1.984   0.276   8.007 -0.4394 -0.9230  1.7278
 8428SOL    HW236921   2.117   0.229   8.058  0.0093  0.8691 -0.5393
 8429SOL     OW36922   1.763   0.155   6.893 -0.0839  0.1950  0.5032
 8429SOL    HW136923   1.715   0.098   6.954 -0.1454 -0.6261 -0.3067
 8429SOL    HW236924   1.704   0.230   6.898 -1.6119 -1.0649  1.1982
 8430SOL     OW36925   3.028   1.272   9.127  0.4959  0.2983 -0.4166
 8430SOL    HW136926   2.964   1.202   9.138  0.2984  0.1717 -2.5311
 8430SOL    HW236927   3.115   1.230   9.127  0.6976  0.7081  0.1026
 8431SOL     OW36928   0.437   1.179  10.002 -0.5894  1.1352 -1.0465
 8431SOL    HW136929   0.492   1.256   9.989  1.4387 -0.1399 -0.0072
 8431SOL    HW236930   0.373   1.225  10.055  0.3976 -0.0996  1.1981
 8432SOL     OW36931   2.112   4.616   4.091 -0.3424  0.4763 -0.5895
 8432SOL    HW136932   2.026   4.654   4.110  0.4871  1.6741  0.8125
 8432SOL    HW236933   2.089   4.536   4.044 -1.4012  0.6468 -0.3557
 8433SOL     OW36934   4.203   2.744   3.870 -0.3216  0.3252 -0.0731
 8433SOL    HW136935   4.175   2.678   3.807 -0.9830  1.2271 -0.7301
 8433SOL    HW236936   4.136   2.736   3.938 -1.6770 -1.5963 -1.6367
 8434SOL     OW36937   3.758   1.938   9.536 -0.2000 -0.2994 -0.2510
 8434SOL    HW136938   3.737   1.857   9.583  0.5547 -0.2774  0.1280
 8434SOL    HW236939   3.732   1.923   9.445 -0.2061 -0.7520 -0.1760
 8435SOL     OW36940   1.097   2.702   8.661  0.2502 -0.4831 -0.2392
 8435SOL    HW136941   1.054   2.637   8.717 -1.3200 -0.6290 -1.6198
 8435SOL    HW236942   1.176   2.658   8.630  0.1711  0.0433 -1.1705
 8436SOL     OW36943   4.252   1.143   7.671 -0.2291  0.1806 -0.5219
 8436SOL    HW136944   4.256   1.191   7.589  1.7304 -1.0658 -1.1751
 8436SOL    HW236945   4.282   1.207   7.736 -0.7449  0.3007 -0.4029
 8437SOL     OW36946   1.161   3.926   2.146  0.2100  0.1804 -0.6990
 8437SOL    HW136947   1.094   3.920   2.214 -0.9972 -1.7570 -2.0644
 8437SOL    HW236948   1.241   3.941   2.197  1.4924  0.3797 -2.7919
 8438SOL     OW36949   2.066   0.695   3.468  0.2702  0.0557 -0.7968
 8438SOL    HW136950   2.158   0.683   3.444 -0.3484 -1.1187 -2.5091
 8438SOL    HW236951   2.029   0.607   3.467 -0.4519  0.3541 -0.3728
 8439SOL     OW36952   2.510   2.742  15.628  0.5435  0.0889  0.1820
 8439SOL    HW136953   2.493   2.773  15.539  0.3034 -2.6356 -0.7305
 8439SOL    HW236954   2.577   2.802  15.660 -2.4729  3.5847 -0.1175
 8440SOL     OW36955   3.081   4.313   5.412  0.2414 -0.5208 -0.1750
 8440SOL    HW136956   3.036   4.397   5.423  1.5271  0.2842 -1.0233
 8440SOL    HW236957   3.070   4.305   5.317 -1.1973  0.1633 -0.0801
 8441SOL     OW36958   0.581   2.279  12.216  0.2550 -0.3602 -0.2372
 8441SOL    HW136959   0.580   2.188  12.187 -1.2528  0.5673 -3.0651
 8441SOL    HW236960   0.580   2.329  12.135 -1.9138 -3.2613 -1.9985
 8442SOL     OW36961   0.826   1.709   4.325  0.3177  0.2025 -0.1804
 8442SOL    HW136962   0.827   1.635   4.264  0.0965 -1.2188  1.5473
 8442SOL    HW236963   0.918   1.733   4.336 -0.1225  1.7693  0.1750
 8443SOL     OW36964   3.181   4.729   3.177 -0.0287 -0.4677  0.4802
 8443SOL    HW136965   3.167   4.646   3.222  0.0341 -1.2885 -1.0034
 8443SOL    HW236966   3.100   4.729   3.126 -0.2442  0.2897  0.8118
 8444SOL     OW36967   3.802   2.959   4.726 -0.3747  0.4524 -0.3227
 8444SOL    HW136968   3.797   3.054   4.736 -0.8237  0.5032 -1.0395
 8444SOL    HW236969   3.865   2.939   4.795 -1.2720 -2.5601 -0.3799
 8445SOL     OW36970   1.974   3.610   3.953  0.2154 -0.2397  0.3116
 8445SOL    HW136971   1.971   3.523   3.993 -0.9353  0.1897  1.1828
 8445SOL    HW236972   2.033   3.661   4.008 -0.9869  2.9438 -1.3729
 8446SOL     OW36973   4.617   4.467   6.339 -0.1250 -0.0197 -0.1108
 8446SOL    HW136974   4.679   4.403   6.372  0.5357  0.0942 -1.1348
 8446SOL    HW236975   4.648   4.479   6.250  1.1189 -1.1491  0.1834
 8447SOL     OW36976   0.466   2.179   4.422 -0.1670  0.2275  0.2815
 8447SOL    HW136977   0.408   2.219   4.487 -0.6284  1.0269 -0.6201
 8447SOL    HW236978   0.465   2.241   4.350 -0.0333 -1.2420 -0.9821
 8448SOL     OW36979   1.050   2.159   9.050  0.4315  0.5351  0.1972
 8448SOL    HW136980   1.068   2.132   8.960 -0.1748 -0.3302  0.3363
 8448SOL    HW236981   1.100   2.091   9.096  1.0936 -0.6296 -2.1943
 8449SOL     OW36982   3.029   0.551   3.547 -0.1981 -0.0023  0.1322
 8449SOL    HW136983   3.102   0.549   3.609 -1.0731  2.6012  1.2890
 8449SOL    HW236984   2.958   0.543   3.611  1.3438 -1.3542  1.6880
 8450SOL     OW36985   2.584   2.693   5.818  0.1510 -0.3675 -0.2104
 8450SOL    HW136986   2.625   2.658   5.739  0.6903 -2.3867  0.9816
 8450SOL    HW236987   2.555   2.609   5.855  0.7768 -0.5483 -0.1284
 8451SOL     OW36988   0.888   3.044   4.921  0.7397 -0.5317 -0.5902
 8451SOL    HW136989   0.852   3.075   5.005 -0.3375 -0.8187 -0.9463
 8451SOL    HW236990   0.977   3.079   4.920  1.1524 -1.5381  0.6310
 8452SOL     OW36991   0.982   2.598  11.736  0.4976  0.0443  0.8125
 8452SOL    HW136992   0.973   2.668  11.800  2.3231  1.3124 -0.3154
 8452SOL    HW236993   1.045   2.637  11.675  0.3031 -0.1781  0.4631
 8453SOL     OW36994   1.331   3.021   4.461 -0.2195  0.1423  0.2961
 8453SOL    HW136995   1.373   3.106   4.473  0.2854  0.1372 -1.3964
 8453SOL    HW236996   1.281   3.008   4.542 -0.1198 -0.4307  0.2709
 8454SOL     OW36997   3.419   3.819   2.894  0.5640  0.2810  0.0138
 8454SOL    HW136998   3.505   3.853   2.870  1.2483 -1.6055 -0.2495
 8454SOL    HW236999   3.397   3.783   2.808  0.1624  0.8041 -0.0994
 8455SOL     OW37000   0.030   0.351   2.197 -0.1403  0.0220  0.2076
 8455SOL    HW137001   0.061   0.441   2.198 -1.3257  0.4385  0.1135
 8455SOL    HW237002   0.100   0.311   2.146  0.4094  0.1589  0.8629
 8456SOL     OW37003   2.629   2.242   4.393 -0.3330 -0.3413  0.2780
 8456SOL    HW137004   2.622   2.150   4.367  2.7031 -1.0780  1.9373
 8456SOL    HW237005   2.724   2.258   4.396 -0.2361 -0.4799 -1.6878
 8457SOL     OW37006   0.451   0.252   5.323  0.5121 -0.0224  0.6165
 8457SOL    HW137007   0.465   0.163   5.293  0.9568  0.1078  0.4456
 8457SOL    HW237008   0.401   0.298   5.256 -1.0477 -1.4254  0.8173
 8458SOL     OW37009   0.681   0.617   7.352  0.8346 -0.1525  0.1639
 8458SOL    HW137010   0.730   0.662   7.283  0.0777 -1.0778 -0.9842
 8458SOL    HW237011   0.656   0.534   7.311  1.4026 -0.1752 -0.1388
 8459SOL     OW37012   1.146   1.833   8.399 -0.1647  0.2357  0.3810
 8459SOL    HW137013   1.127   1.922   8.368 -0.5097 -0.4614 -1.4037
 8459SOL    HW237014   1.109   1.788   8.324  1.6981 -0.0278 -0.3981
 8460SOL     OW37015   1.817   3.368   9.085  0.2110 -0.8993  0.9509
 8460SOL    HW137016   1.842   3.315   9.009 -0.6348 -0.0217  0.0607
 8460SOL    HW237017   1.848   3.453   9.053  1.4452 -0.5612  3.0306
 8461SOL     OW37018   2.126   3.686   2.480 -0.4931 -0.0056  0.2199
 8461SOL    HW137019   2.194   3.655   2.420 -0.0829  1.5083 -0.0964
 8461SOL    HW237020   2.094   3.605   2.520  2.2630 -0.2992  1.8142
 8462SOL     OW37021   3.405   0.606   6.727  0.4207 -0.0202 -0.2111
 8462SOL    HW137022   3.484   0.553   6.726  1.0466  0.9316 -1.9594
 8462SOL    HW237023   3.433   0.682   6.777  2.1675 -0.3389 -0.7059
 8463SOL     OW37024   3.958   0.534   9.961 -0.7304  0.3126 -0.5892
 8463SOL    HW137025   4.001   0.449   9.971  1.9557  1.4232 -2.5552
 8463SOL    HW237026   4.002   0.579  10.033 -0.4007 -1.3393  0.2498
 8464SOL     OW37027   2.982   3.566   7.391  0.3775 -0.2222 -0.2406
 8464SOL    HW137028   3.005   3.479   7.426  0.1045 -0.9943 -1.9701
 8464SOL    HW237029   2.957   3.618   7.467 -1.3857 -1.6049  0.1348
 8465SOL     OW37030   2.850   4.110  14.534  0.3815 -0.5170 -0.2569
 8465SOL    HW137031   2.799   4.055  14.474 -0.2671  0.3712 -0.5264
 8465SOL    HW237032   2.880   4.185  14.484 -2.8105  1.7202  1.1767
 8466SOL     OW37033   2.244   2.901   1.119  0.4076  0.5221 -0.0407
 8466SOL    HW137034   2.322   2.949   1.090 -0.2208  3.2481  2.8224
 8466SOL    HW237035   2.256   2.821   1.068  1.2824  2.1410 -2.3757
 8467SOL     OW37036   3.047   0.104   0.600  0.9195  0.2545  0.0729
 8467SOL    HW137037   2.968   0.100   0.653  0.8751 -1.8721 -0.1773
 8467SOL    HW237038   3.019   0.156   0.525 -1.3864 -0.1241  0.6806
 8468SOL     OW37039   4.241   2.998  16.178 -0.7864  0.5998 -0.0999
 8468SOL    HW137040   4.306   3.031  16.240 -0.0074  0.5875 -0.9221
 8468SOL    HW237041   4.292   2.925  16.143 -2.2601 -0.7960  0.6632
 8469SOL     OW37042   1.445   1.712   7.773 -0.4015 -0.5133  0.0441
 8469SOL    HW137043   1.490   1.679   7.696  0.3015  0.4976  0.0277
 8469SOL    HW237044   1.444   1.633   7.828  1.4673  1.4290  2.8638
 8470SOL     OW37045   2.568   0.160   5.205  0.2584 -0.5948  0.2685
 8470SOL    HW137046   2.480   0.173   5.171 -0.1265  0.5935  1.7052
 8470SOL    HW237047   2.588   0.071   5.178  0.5062  0.2500 -2.3706
 8471SOL     OW37048   2.678   0.585   8.640 -0.0137  0.0153  0.3108
 8471SOL    HW137049   2.761   0.590   8.592 -0.5745  0.0659 -0.6668
 8471SOL    HW237050   2.677   0.675   8.671  0.8709 -0.3741  1.4571
 8472SOL     OW37051   4.130   3.545  14.777  0.5302  0.3337  0.5658
 8472SOL    HW137052   4.131   3.639  14.797  0.8445  0.5221 -0.3468
 8472SOL    HW237053   4.195   3.521  14.843  2.4141 -0.1658 -1.4931
 8473SOL     OW37054   1.993   4.280   2.642  0.2133 -0.0759 -0.5603
 8473SOL    HW137055   2.061   4.261   2.706 -1.8458 -1.2055  1.3011
 8473SOL    HW237056   1.979   4.374   2.650 -1.1662 -0.1884 -1.6937
 8474SOL     OW37057   1.904   3.873   9.372  0.6523 -0.2029 -0.2491
 8474SOL    HW137058   1.996   3.873   9.344  0.9912 -0.9741  0.8630
 8474SOL    HW237059   1.896   3.777   9.364  0.5781 -0.2689  0.7014
 8475SOL     OW37060   3.258   1.297   1.712  0.0061 -0.3572  0.2442
 8475SOL    HW137061   3.237   1.369   1.772  0.7894  0.1401 -0.0815
 8475SOL    HW237062   3.189   1.238   1.740 -0.9627  0.5863 -0.1393
 8476SOL     OW37063   3.683   0.621   8.036  1.0497 -0.5266  0.2172
 8476SOL    HW137064   3.724   0.682   8.098 -0.9459 -0.1237  1.1437
 8476SOL    HW237065   3.601   0.665   8.015  1.5528  0.0860 -0.4459
 8477SOL     OW37066   4.536   3.989   5.344 -0.2534  0.0147 -0.4241
 8477SOL    HW137067   4.551   3.904   5.302  1.8819  0.4482 -0.5244
 8477SOL    HW237068   4.492   4.030   5.269 -1.3208  1.7651  1.1684
 8478SOL     OW37069   3.771   0.166   4.788  0.0491 -0.0458 -0.4499
 8478SOL    HW137070   3.784   0.124   4.703  2.1026  1.8457 -1.0877
 8478SOL    HW237071   3.774   0.085   4.838  1.2597  0.3922  0.1975
 8479SOL     OW37072   1.389   1.126   5.739 -0.4593  0.3471 -0.0297
 8479SOL    HW137073   1.470   1.177   5.746  0.0942 -0.6728  0.8112
 8479SOL    HW237074   1.422   1.042   5.709  2.3329  1.6988 -0.7458
 8480SOL     OW37075   4.509   2.821  11.502  0.6799  0.1843 -0.1106
 8480SOL    HW137076   4.524   2.741  11.452  1.9332  0.9276 -0.9076
 8480SOL    HW237077   4.418   2.841  11.480  0.8799  3.2169  1.7628
 8481SOL     OW37078   0.242   4.316   6.696 -0.1801  0.0081 -0.2923
 8481SOL    HW137079   0.307   4.246   6.687 -0.3796 -0.2878  0.6347
 8481SOL    HW237080   0.248   4.334   6.789  0.3588  3.2697 -0.9471
 8482SOL     OW37081   3.330   3.022   7.379 -0.3806  0.2365  0.1915
 8482SOL    HW137082   3.249   3.020   7.429 -0.0895 -0.1583  0.6447
 8482SOL    HW237083   3.325   3.103   7.327 -1.0854  0.2954  0.3476
 8483SOL     OW37084   3.793   4.419   5.263 -0.9349 -0.2717 -0.4344
 8483SOL    HW137085   3.851   4.383   5.330 -1.1636 -1.5343 -0.9070
 8483SOL    HW237086   3.728   4.456   5.322  1.3948  1.3262  1.1294
 8484SOL     OW37087   1.257   1.918   3.452  0.3715 -0.0602  0.4503
 8484SOL    HW137088   1.338   1.883   3.415 -0.6996 -1.7569 -0.2629
 8484SOL    HW237089   1.248   2.009   3.425 -0.1136  0.1535  1.3044
 8485SOL     OW37090   4.378   1.095   9.072 -0.0696 -0.0015 -0.1442
 8485SOL    HW137091   4.393   1.007   9.037  0.2899  0.4408 -1.1087
 8485SOL    HW237092   4.377   1.149   8.992 -0.0451  1.3918  0.8056
 8486SOL     OW37093   1.954   4.152  12.336  0.3879  0.3511  0.1199
 8486SOL    HW137094   1.909   4.236  12.350 -1.1089 -0.2869 -0.9021
 8486SOL    HW237095   2.043   4.177  12.313  0.1095  0.6037 -0.7017
 8487SOL     OW37096   4.432   2.839   5.315 -0.1246 -0.3420 -0.6028
 8487SOL    HW137097   4.510   2.881   5.352 -0.3485 -0.6229  0.1886
 8487SOL    HW237098   4.467   2.814   5.229 -0.9274 -1.2885 -0.6500
 8488SOL     OW37099   4.657   1.560   6.522 -0.5499 -0.1154 -0.6046
 8488SOL    HW137100   4.734   1.617   6.516  0.2908 -1.1412  0.5723
 8488SOL    HW237101   4.648   1.535   6.614  0.6729  2.0232  0.0977
 8489SOL     OW37102   2.773   3.964   7.787 -0.2401 -0.5324  0.5113
 8489SOL    HW137103   2.743   4.037   7.843  3.3933  2.5484 -1.5718
 8489SOL    HW237104   2.715   3.970   7.711  0.7014 -1.3762 -0.2659
 8490SOL     OW37105   0.276   3.873   2.838  0.4855 -0.4129 -0.4011
 8490SOL    HW137106   0.212   3.884   2.908  1.8811  0.5822  0.7230
 8490SOL    HW237107   0.223   3.826   2.774 -3.5233  0.0646  2.5976
 8491SOL     OW37108   4.189   1.587  13.147  0.5213 -0.2153  0.1982
 8491SOL    HW137109   4.273   1.577  13.102  0.1772 -0.8208 -0.3128
 8491SOL    HW237110   4.135   1.519  13.106 -1.0211  0.6001  0.9056
 8492SOL     OW37111   3.816   2.181   6.736 -0.0425 -0.1444 -0.2367
 8492SOL    HW137112   3.869   2.258   6.756  1.1139 -1.1105  0.4192
 8492SOL    HW237113   3.727   2.214   6.750 -0.3293 -1.3474  0.6783
 8493SOL     OW37114   1.211   0.995  11.024 -0.4216 -0.4230 -0.4815
 8493SOL    HW137115   1.295   0.998  11.070 -1.2104  1.3588  0.8629
 8493SOL    HW237116   1.143   0.985  11.091  1.2988  1.0104  1.4730
 8494SOL     OW37117   0.832   3.435  14.430  0.2294 -0.7277  0.2651
 8494SOL    HW137118   0.873   3.349  14.433 -0.1317 -0.9650 -1.6655
 8494SOL    HW237119   0.767   3.434  14.359 -1.2345 -0.2210  1.5880
 8495SOL     OW37120   1.200   4.087   2.731  0.0762 -1.0243 -0.2150
 8495SOL    HW137121   1.242   4.169   2.708 -2.8224  0.2843 -0.8452
 8495SOL    HW237122   1.279   4.034   2.732 -0.0872 -1.2684 -0.2973
 8496SOL     OW37123   4.382   3.906   4.493 -0.3174  0.1499  0.1643
 8496SOL    HW137124   4.313   3.869   4.548  1.0185 -2.4717  0.0932
 8496SOL    HW237125   4.397   3.990   4.536 -0.2385  1.2590 -2.0603
 8497SOL     OW37126   0.452   4.222   0.135  0.4342 -0.3916  0.4518
 8497SOL    HW137127   0.518   4.285   0.106  0.7736 -0.5660  0.8435
 8497SOL    HW237128   0.442   4.166   0.058  0.7956 -0.4928  0.4786
 8498SOL     OW37129   1.032   3.009  12.952 -0.1736  0.4131 -0.4085
 8498SOL    HW137130   1.096   3.080  12.948 -0.1171  0.4036  0.4056
 8498SOL    HW237131   1.063   2.957  13.025  0.3537  0.7329 -0.4070
 8499SOL     OW37132   3.898   3.452   6.979 -0.3592 -0.0732 -0.6592
 8499SOL    HW137133   3.901   3.357   6.986  2.6133  0.0825  0.2337
 8499SOL    HW237134   3.856   3.464   6.894 -1.6909  1.6520  0.2587
 8500SOL     OW37135   0.777   4.153  17.623  0.0541 -0.6529  0.1960
 8500SOL    HW137136   0.858   4.202  17.633 -1.6392  1.9417  0.9889
 8500SOL    HW237137   0.719   4.220  17.657  1.3822  0.7265 -0.2464
 8501SOL     OW37138   0.622   3.116  10.281  0.2713 -0.1038  1.0371
 8501SOL    HW137139   0.568   3.195  10.279 -0.6494 -0.7616  0.3152
 8501SOL    HW237140   0.584   3.061  10.350  0.8942 -1.6041  0.1796
 8502SOL     OW37141   0.761   1.653   8.284  0.2927 -0.4800  0.3142
 8502SOL    HW137142   0.739   1.589   8.351 -3.5409  0.4362 -0.1162
 8502SOL    HW237143   0.700   1.630   8.214 -0.3378 -0.4754  0.8605
 8503SOL     OW37144   1.250   1.954  11.921 -0.4035 -0.2340 -0.0797
 8503SOL    HW137145   1.298   1.935  11.841 -0.4825  0.4136 -0.2884
 8503SOL    HW237146   1.195   2.026  11.889  0.4378  0.7135  0.6182
 8504SOL     OW37147   3.558   1.689  13.252 -0.3773 -0.2872  0.1507
 8504SOL    HW137148   3.538   1.768  13.303 -1.2347  1.3385 -2.6659
 8504SOL    HW237149   3.478   1.652  13.215 -0.6913  1.1438 -0.6132
 8505SOL     OW37150   4.132   2.337   0.056 -0.5861 -0.0630  0.3318
 8505SOL    HW137151   4.221   2.335   0.093  0.3480 -2.1595 -2.0194
 8505SOL    HW237152   4.147   2.395  17.720 -1.1997 -1.6963 -1.0659
 8506SOL     OW37153   1.594   0.532   2.170 -0.1898  0.5139  0.4253
 8506SOL    HW137154   1.627   0.597   2.232 -0.3053  0.8325  0.1507
 8506SOL    HW237155   1.675   0.509   2.124 -1.2399 -0.1837 -1.0800
 8507SOL     OW37156   0.337   3.911   5.037 -0.1639 -0.3120 -0.7044
 8507SOL    HW137157   0.383   3.827   5.045 -0.5022 -0.5156 -0.8676
 8507SOL    HW237158   0.388   3.950   4.966  3.7171 -0.5994  1.9296
 8508SOL     OW37159   1.407   2.181   5.573  0.2541 -0.0221 -0.3347
 8508SOL    HW137160   1.371   2.269   5.579 -1.5723 -0.8600  0.9816
 8508SOL    HW237161   1.390   2.140   5.658  0.1811  1.0385  0.1536
 8509SOL     OW37162   4.536   2.193  13.133 -0.4415  0.4871 -0.4588
 8509SOL    HW137163   4.565   2.104  13.116 -0.0718  0.3219  1.0763
 8509SOL    HW237164   4.602   2.231  13.191 -0.2091  1.5404 -1.3995
 8510SOL     OW37165   0.629   2.250   8.138  0.0041  0.2539  0.6610
 8510SOL    HW137166   0.540   2.223   8.113 -0.7866  0.4796  3.2854
 8510SOL    HW237167   0.642   2.182   8.203 -1.2456 -0.4479  0.1842
 8511SOL     OW37168   1.361   0.834   8.051 -0.5934 -0.2693  0.4283
 8511SOL    HW137169   1.345   0.894   7.978  0.0440 -1.2857 -0.5454
 8511SOL    HW237170   1.418   0.892   8.102 -0.7274 -0.0952  0.3807
 8512SOL     OW37171   3.190   3.451   5.401  0.7140 -0.5955 -0.2560
 8512SOL    HW137172   3.098   3.460   5.376  0.5122 -1.6062  0.1409
 8512SOL    HW237173   3.182   3.375   5.458  1.9698 -0.0526  0.6326
 8513SOL     OW37174   2.867   2.131   2.036  0.2187 -0.5023  0.8069
 8513SOL    HW137175   2.893   2.045   2.004  0.9133  0.3570 -0.9556
 8513SOL    HW237176   2.838   2.181   1.960  3.0910  0.6495  0.4836
 8514SOL     OW37177   1.938   1.169   9.868 -0.3249  0.6620  0.1227
 8514SOL    HW137178   1.954   1.099   9.932 -2.6680 -0.1450 -0.1721
 8514SOL    HW237179   1.858   1.136   9.827 -0.1911  2.3605 -1.4639
 8515SOL     OW37180   3.902   0.830   7.944  0.0570  0.2295  0.1720
 8515SOL    HW137181   3.964   0.887   7.899 -0.3948  1.9006  1.6512
 8515SOL    HW237182   3.937   0.742   7.932 -1.5560 -0.2278 -1.2201
 8516SOL     OW37183   2.780   3.623   6.363  0.2732  0.0537 -0.8547
 8516SOL    HW137184   2.863   3.652   6.324  1.6497 -1.1896  1.1532
 8516SOL    HW237185   2.803   3.535   6.393  0.6070  0.9329  1.4981
 8517SOL     OW37186   3.793   3.279   0.929  0.5090 -0.1897 -0.4714
 8517SOL    HW137187   3.751   3.351   0.976 -0.5607 -1.3680  0.3891
 8517SOL    HW237188   3.882   3.275   0.964  0.1535 -0.3117  0.4135
 8518SOL     OW37189   3.242   4.644   9.041 -0.0620  0.2491  0.1683
 8518SOL    HW137190   3.319   4.662   9.095 -0.7411  1.6450  0.6655
 8518SOL    HW237191   3.218   4.573   9.101  2.4815  0.0722  0.9911
 8519SOL     OW37192   2.928   2.674  16.660  0.4345 -0.0056  0.2623
 8519SOL    HW137193   2.929   2.623  16.579 -0.8881 -1.3960  1.1182
 8519SOL    HW237194   2.837   2.705  16.666  0.6639  0.3113  2.2535
 8520SOL     OW37195   2.306   1.187  15.395 -0.4347  0.2775 -0.0817
 8520SOL    HW137196   2.342   1.260  15.447 -1.0126 -1.1120  2.2828
 8520SOL    HW237197   2.370   1.116  15.395 -2.2886 -1.3748  0.5478
 8521SOL     OW37198   1.719   3.643   8.885  0.3010  0.1413  0.4231
 8521SOL    HW137199   1.812   3.625   8.872  0.6655  1.5028  1.1363
 8521SOL    HW237200   1.680   3.576   8.829 -1.9825  0.6907  1.3620
 8522SOL     OW37201   3.517   3.127   3.051 -0.4066  0.5104  0.2012
 8522SOL    HW137202   3.573   3.086   3.117 -0.4240  0.5112  0.2167
 8522SOL    HW237203   3.580   3.136   2.980  0.1867 -2.1954  0.3930
 8523SOL     OW37204   0.281   3.918   9.398 -0.0772 -0.3806  0.1601
 8523SOL    HW137205   0.322   3.921   9.484  1.1180 -2.1768 -0.3438
 8523SOL    HW237206   0.350   3.866   9.359 -0.7646 -0.4882 -0.9168
 8524SOL     OW37207   3.784   3.028   5.365 -0.0202  0.0315  0.5873
 8524SOL    HW137208   3.789   2.956   5.428 -0.7225 -0.4003  0.1553
 8524SOL    HW237209   3.695   3.029   5.329  0.4295  1.7497 -0.4750
 8525SOL     OW37210   1.392   0.840   8.797  0.1046  0.1263 -0.0123
 8525SOL    HW137211   1.391   0.813   8.705  0.6497 -1.2610  0.4045
 8525SOL    HW237212   1.473   0.891   8.798  0.7321 -0.9113  1.2770
 8526SOL     OW37213   4.030   0.551  15.655 -0.0858 -0.4542 -0.5266
 8526SOL    HW137214   3.971   0.626  15.656 -0.6464 -0.8927  0.9019
 8526SOL    HW237215   3.977   0.484  15.699 -1.2282  0.9315  0.1940
 8527SOL     OW37216   2.791   1.150   8.686 -0.4293 -0.1331 -0.4212
 8527SOL    HW137217   2.824   1.235   8.715 -0.2266 -0.1561 -0.5845
 8527SOL    HW237218   2.785   1.112   8.774 -2.2763  1.1741  0.0185
 8528SOL     OW37219   0.244   1.649   1.321  0.5797 -0.2150  0.1462
 8528SOL    HW137220   0.159   1.624   1.356 -0.2356  0.1050 -1.5744
 8528SOL    HW237221   0.307   1.606   1.379  0.6037 -1.5388 -0.8440
 8529SOL     OW37222   1.956   1.881   7.703  0.1572  0.3340 -0.0433
 8529SOL    HW137223   1.932   1.923   7.786 -2.0132 -2.6613  0.8505
 8529SOL    HW237224   1.955   1.789   7.729 -0.2659  0.4803  0.4762
 8530SOL     OW37225   1.244   0.965   7.819  0.5492  0.1699 -0.2522
 8530SOL    HW137226   1.161   1.005   7.793 -0.1520 -0.0766  1.6350
 8530SOL    HW237227   1.309   1.008   7.763 -0.5257  3.0925  0.6984
 8531SOL     OW37228   0.415   3.859  14.508  0.1575  0.2194  0.2272
 8531SOL    HW137229   0.509   3.861  14.493  0.0353  1.9297 -0.2872
 8531SOL    HW237230   0.404   3.793  14.577 -0.1797  0.6374  0.5693
 8532SOL     OW37231   2.841   3.715   7.200  1.4141  0.4668  0.4885
 8532SOL    HW137232   2.840   3.645   7.135 -0.6463  0.4193  0.5579
 8532SOL    HW237233   2.901   3.678   7.265 -0.0376 -0.3028  1.4084
 8533SOL     OW37234   2.400   1.108   2.745 -0.2764  0.1409  0.2925
 8533SOL    HW137235   2.352   1.186   2.773 -2.1143 -1.7087  2.2200
 8533SOL    HW237236   2.448   1.080   2.823 -0.6692 -0.6215  0.2625
 8534SOL     OW37237   4.189   3.809  15.171  0.2413 -0.3731  0.1878
 8534SOL    HW137238   4.260   3.771  15.224  2.0059 -0.3409 -2.1804
 8534SOL    HW237239   4.170   3.894  15.212 -0.3895 -0.9183  1.0282
 8535SOL     OW37240   1.355   0.287   8.639 -0.4170  0.1653 -0.4001
 8535SOL    HW137241   1.402   0.356   8.593  1.5157 -0.6582  0.2903
 8535SOL    HW237242   1.391   0.312   8.724 -1.2112  2.0765 -0.6388
 8536SOL     OW37243   3.058   1.282   2.544 -0.2508 -0.0659  0.4228
 8536SOL    HW137244   2.973   1.253   2.513  0.3070 -0.5140 -0.7000
 8536SOL    HW237245   3.030   1.274   2.635  1.4259  0.2104  0.9689
 8537SOL     OW37246   0.700   2.107   7.016 -0.1343 -0.4294 -0.4327
 8537SOL    HW137247   0.787   2.069   7.029 -0.1244 -0.1551  0.3667
 8537SOL    HW237248   0.710   2.169   6.944  0.5543  0.4165  0.3715
 8538SOL     OW37249   0.764   4.266  14.694 -0.1714  0.3104 -0.5588
 8538SOL    HW137250   0.687   4.266  14.637  0.5990 -0.3747 -1.6047
 8538SOL    HW237251   0.728   4.298  14.777  1.7942 -0.5156  0.6122
 8539SOL     OW37252   2.996   2.079   3.017 -0.1694 -0.8573  0.7034
 8539SOL    HW137253   2.994   2.038   2.931 -0.8700 -0.4904  0.5521
 8539SOL    HW237254   3.090   2.075   3.036  0.0562 -0.4295 -0.3582
 8540SOL     OW37255   2.798   3.321   4.981 -0.3343 -0.1635 -0.3848
 8540SOL    HW137256   2.748   3.254   4.933  0.2899 -0.8872 -0.0302
 8540SOL    HW237257   2.834   3.265   5.050 -1.9692 -0.5316  0.1774
 8541SOL     OW37258   1.602   4.284   2.545 -0.2749  0.0594  0.0882
 8541SOL    HW137259   1.592   4.208   2.487 -0.4397 -0.0349  0.2391
 8541SOL    HW237260   1.652   4.228   2.605  1.0113  0.6875 -0.4229
 8542SOL     OW37261   2.719   1.868   7.182 -0.0527  0.5817 -0.3654
 8542SOL    HW137262   2.710   1.963   7.181  1.3533  0.7272  0.9828
 8542SOL    HW237263   2.766   1.855   7.099  1.5546  2.8627  0.1948
 8543SOL     OW37264   4.101   2.583  10.524 -0.0918 -0.4440 -0.2206
 8543SOL    HW137265   4.145   2.511  10.479 -1.6479 -1.1624 -0.5740
 8543SOL    HW237266   4.080   2.639  10.449 -1.3478  1.0299  1.2037
 8544SOL     OW37267   1.872   3.649   5.373  0.2113 -0.0346  0.0815
 8544SOL    HW137268   1.947   3.617   5.423 -0.1907  1.2051  1.4551
 8544SOL    HW237269   1.905   3.726   5.328 -0.1697  0.5920  0.8800
 8545SOL     OW37270   2.290   4.326   0.870  0.1972 -0.2873  0.0769
 8545SOL    HW137271   2.217   4.277   0.831  0.1582  0.1441 -0.3891
 8545SOL    HW237272   2.356   4.261   0.894  0.1051 -0.0200  1.0359
 8546SOL     OW37273   4.013   1.456   2.294  0.1857  0.6375 -0.0551
 8546SOL    HW137274   3.957   1.409   2.355 -0.6728  3.4197  1.3215
 8546SOL    HW237275   3.974   1.543   2.283 -0.9512 -0.0302 -1.2057
 8547SOL     OW37276   3.005   0.321   2.437 -0.2484  0.0886 -0.2692
 8547SOL    HW137277   3.078   0.372   2.470  0.4747 -1.4872  0.5830
 8547SOL    HW237278   3.004   0.346   2.345 -2.4774 -0.8541 -0.5144
 8548SOL     OW37279   0.390   0.431   9.696 -0.0824 -0.3867 -0.0826
 8548SOL    HW137280   0.420   0.517   9.725  0.1139 -0.5129  0.0927
 8548SOL    HW237281   0.462   0.401   9.640 -0.0641  0.7207 -0.6493
 8549SOL     OW37282   3.665   1.873   1.461  0.4546  0.1429  0.1125
 8549SOL    HW137283   3.646   1.784   1.491  1.4045  0.3997  1.4750
 8549SOL    HW237284   3.624   1.938   1.518 -0.4489  0.1957 -0.6072
 8550SOL     OW37285   4.412   0.170   7.508 -0.0739 -0.1439 -0.2795
 8550SOL    HW137286   4.474   0.123   7.451 -1.1228 -0.0578 -1.4718
 8550SOL    HW237287   4.331   0.142   7.466  1.9298 -1.8082 -3.0514
 8551SOL     OW37288   4.680   0.006   4.797  0.3222 -0.3279 -0.1454
 8551SOL    HW137289   4.696   0.081   4.740  0.6995  0.0594  0.4687
 8551SOL    HW237290   4.700   0.027   4.888  1.4085 -0.9976 -0.2300
 8552SOL     OW37291   0.318   3.212   1.225  0.3745 -0.3647  0.3778
 8552SOL    HW137292   0.282   3.297   1.199  0.0776 -0.5533  0.1763
 8552SOL    HW237293   0.260   3.158   1.171 -1.0891 -0.2699  1.8407
 8553SOL     OW37294   0.951   3.325   8.807  0.1505  0.2992  0.0521
 8553SOL    HW137295   1.013   3.352   8.740  1.5703  1.8877  1.9895
 8553SOL    HW237296   0.986   3.242   8.840 -2.5164 -0.2505  1.4846
 8554SOL     OW37297   2.293   2.006   5.852 -0.2562 -0.5358  0.1205
 8554SOL    HW137298   2.387   2.017   5.867  0.0450 -2.5668 -0.3075
 8554SOL    HW237299   2.273   1.938   5.916  0.8626  0.0629  1.1186
 8555SOL     OW37300   1.397   3.031  10.131  0.3858 -0.2784  0.3759
 8555SOL    HW137301   1.446   3.077  10.200  0.7368  1.5448 -1.0994
 8555SOL    HW237302   1.464   2.969  10.103  0.4626  0.4506 -1.0278
 8556SOL     OW37303   3.036   0.091   9.138  0.1552 -0.1592  0.0970
 8556SOL    HW137304   3.044   0.041   9.219  0.0878 -0.1642  0.1010
 8556SOL    HW237305   3.106   0.051   9.087 -0.4918 -1.8536  0.5207
 8557SOL     OW37306   0.760   4.213   7.232  0.0101  0.1782 -0.1340
 8557SOL    HW137307   0.797   4.295   7.198  1.2525  0.1809  1.2349
 8557SOL    HW237308   0.683   4.252   7.273 -0.0706 -0.4733  0.3271
 8558SOL     OW37309   3.110   1.194   0.686  0.0227 -0.5664 -0.6829
 8558SOL    HW137310   3.096   1.266   0.625 -0.2731  0.4366  0.5510
 8558SOL    HW237311   3.203   1.181   0.667  0.6007  2.8444 -0.2521
 8559SOL     OW37312   4.342   3.074   3.192 -0.0223 -0.3163  0.8215
 8559SOL    HW137313   4.349   3.082   3.287  0.8946 -0.2595  0.7525
 8559SOL    HW237314   4.404   3.144   3.173 -1.3100 -0.2267 -3.0323
 8560SOL     OW37315   2.796   0.332   5.883 -0.2020  0.3478  0.0124
 8560SOL    HW137316   2.852   0.402   5.849  2.5702 -1.4027  0.9257
 8560SOL    HW237317   2.792   0.268   5.812 -1.7434 -0.3003  0.6973
 8561SOL     OW37318   0.977   1.025   2.233 -0.3600  0.3961 -0.0462
 8561SOL    HW137319   0.975   0.929   2.234  1.4062  0.3635 -0.0250
 8561SOL    HW237320   1.052   1.038   2.291 -1.0576 -1.4211  1.2831
 8562SOL     OW37321   4.126   2.247   8.719  0.0887  0.5702 -0.0021
 8562SOL    HW137322   4.044   2.246   8.769  0.2169  3.2736  0.2446
 8562SOL    HW237323   4.123   2.332   8.676 -2.3708  1.2874  1.6003
 8563SOL     OW37324   3.130   3.228   8.452 -0.2668  0.8052  0.0044
 8563SOL    HW137325   3.154   3.137   8.437  3.1094  1.7062 -0.0848
 8563SOL    HW237326   3.125   3.221   8.547  0.1495  0.7247  0.0221
 8564SOL     OW37327   0.629   4.699   8.523 -0.9038 -0.0696 -0.6023
 8564SOL    HW137328   0.553   0.001   8.478 -1.0999 -0.3155 -0.4730
 8564SOL    HW237329   0.603   4.703   8.615 -0.1086 -0.1028 -0.3786
 8565SOL     OW37330   1.189   0.169   8.447  0.4126 -0.0771  0.3311
 8565SOL    HW137331   1.241   0.205   8.518  1.8996  1.5763 -1.6141
 8565SOL    HW237332   1.125   0.238   8.431  2.2361  1.1037 -1.8228
 8566SOL     OW37333   0.426   3.256   4.692  0.9142  0.2414 -0.2810
 8566SOL    HW137334   0.474   3.175   4.711 -2.2726 -1.2266  1.3399
 8566SOL    HW237335   0.378   3.219   4.618  1.3776 -0.5860 -0.1669
 8567SOL     OW37336   0.564   1.398  11.943 -0.3304 -0.1358 -0.9742
 8567SOL    HW137337   0.575   1.360  12.031 -1.4400  1.4001 -0.1785
 8567SOL    HW237338   0.470   1.409  11.960 -0.7819 -0.7911 -3.0351
 8568SOL     OW37339   2.116   3.506   5.489  0.3184  0.4928 -0.5625
 8568SOL    HW137340   2.178   3.433   5.484  1.6296  1.5900 -0.5487
 8568SOL    HW237341   2.176   3.575   5.518  0.0665 -0.3913  2.1200
 8569SOL     OW37342   1.254   4.633   2.645 -0.2888 -0.1129 -0.3032
 8569SOL    HW137343   1.232   4.725   2.633 -1.8000 -0.1274  2.3075
 8569SOL    HW237344   1.239   4.592   2.560 -0.3229  0.4424 -0.5643
 8570SOL     OW37345   4.120   2.742   5.124  0.5844 -0.3580  0.0613
 8570SOL    HW137346   4.147   2.808   5.189  0.1302 -0.2708  0.1617
 8570SOL    HW237347   4.046   2.726   5.183 -0.6074  1.0610 -1.0584
 8571SOL     OW37348   2.892   2.025   8.261 -0.2790  0.5363  0.1400
 8571SOL    HW137349   2.979   2.045   8.297 -0.2041 -1.1073  0.8648
 8571SOL    HW237350   2.863   1.957   8.321  0.3197  0.2878  0.1525
 8572SOL     OW37351   3.462   1.733   6.344  0.8213 -0.2013 -0.1655
 8572SOL    HW137352   3.412   1.723   6.262  1.3817 -0.9713 -0.4142
 8572SOL    HW237353   3.413   1.666   6.391  0.1832  2.2688  2.6930
 8573SOL     OW37354   4.313   1.282  12.752  0.4186 -0.1701  0.4120
 8573SOL    HW137355   4.363   1.323  12.681 -0.6701  0.7407  0.1842
 8573SOL    HW237356   4.270   1.213  12.702  0.8391  0.4405 -0.7881
 8574SOL     OW37357   0.574   1.865   6.894 -0.1652  0.7450 -0.0033
 8574SOL    HW137358   0.484   1.848   6.922 -0.0002 -1.2963 -0.6724
 8574SOL    HW237359   0.612   1.911   6.968  0.9086 -1.8398  1.0642
 8575SOL     OW37360   2.551   1.746   3.380  0.0749 -0.5397 -0.4918
 8575SOL    HW137361   2.593   1.820   3.336  0.4454  0.6068  1.7731
 8575SOL    HW237362   2.614   1.723   3.449  0.1012 -0.9271 -0.6420
 8576SOL     OW37363   0.080   1.943   9.938  0.3449  0.5011 -0.3392
 8576SOL    HW137364   0.120   1.978  10.017 -3.4221  1.8262  0.9811
 8576SOL    HW237365   4.725   1.951   9.969  0.9322 -0.4053  1.5589
 8577SOL     OW37366   3.840   1.539   1.866  0.2522 -0.4123 -0.0581
 8577SOL    HW137367   3.860   1.519   1.774  0.8745 -1.7175  0.3710
 8577SOL    HW237368   3.762   1.486   1.880 -1.0525  2.1650  2.5043
 8578SOL     OW37369   1.126   1.379  15.145  0.1485 -0.4582  0.0681
 8578SOL    HW137370   1.144   1.316  15.075 -2.5234 -1.3386  0.1887
 8578SOL    HW237371   1.034   1.401  15.127  0.5457  2.0480  1.1519
 8579SOL     OW37372   0.959   0.987  15.170  0.3199  0.4342  0.0936
 8579SOL    HW137373   0.934   0.912  15.223  1.3867 -0.0083 -0.0237
 8579SOL    HW237374   1.054   1.000  15.171  0.5282 -0.5345 -4.2319
 8580SOL     OW37375   3.692   0.155   8.849  0.3224 -0.6851  0.0907
 8580SOL    HW137376   3.606   0.149   8.807 -0.1274 -0.2784  0.9534
 8580SOL    HW237377   3.684   0.093   8.921  0.5998  0.9071  1.4863
 8581SOL     OW37378   4.685   3.456   2.200  0.3343  0.2287 -0.5284
 8581SOL    HW137379   4.605   3.406   2.219 -0.1479  0.4229 -2.0778
 8581SOL    HW237380   4.663   3.491   2.114  2.8592  3.4142  0.1125
 8582SOL     OW37381   4.111   2.010   5.415 -0.0335  0.4465 -0.5099
 8582SOL    HW137382   4.022   2.032   5.443  0.0732  1.9169 -1.3613
 8582SOL    HW237383   4.148   2.090   5.453  1.6922 -0.9160  0.6855
 8583SOL     OW37384   2.893   1.535   7.824  0.1171  0.1151 -0.1501
 8583SOL    HW137385   2.921   1.626   7.836 -0.3008  0.6159 -2.8053
 8583SOL    HW237386   2.810   1.529   7.871  0.3936 -0.9274  0.1957
 8584SOL     OW37387   3.198   1.453   3.862  0.1980  0.0623 -0.6611
 8584SOL    HW137388   3.194   1.387   3.931  0.5499 -1.7972 -2.4257
 8584SOL    HW237389   3.204   1.539   3.904  0.1193 -0.0334 -0.4562
 8585SOL     OW37390   4.579   4.537  13.349 -0.4461  0.7846  0.6073
 8585SOL    HW137391   4.525   4.458  13.354 -0.9946  0.9426 -2.4700
 8585SOL    HW237392   4.581   4.558  13.442  1.3360 -2.6728  1.3400
 8586SOL     OW37393   0.659   1.999  15.144 -0.1287  0.0363 -0.2280
 8586SOL    HW137394   0.573   2.040  15.130  0.5877  1.8560  0.7021
 8586SOL    HW237395   0.701   2.071  15.098 -0.1049  0.6849  0.7989
 8587SOL     OW37396   1.538   0.957   6.022 -0.3921 -0.1033 -0.1663
 8587SOL    HW137397   1.563   1.042   5.986  0.1390  0.4639  1.5510
 8587SOL    HW237398   1.604   0.954   6.090  0.9548  1.0208 -1.4382
 8588SOL     OW37399   1.769   3.866   7.622  0.0372 -0.2714 -0.9790
 8588SOL    HW137400   1.807   3.882   7.536  0.0864  2.4500 -0.4581
 8588SOL    HW237401   1.710   3.940   7.638  0.4349 -0.1140 -0.2441
 8589SOL     OW37402   3.588   4.212   4.108  0.2153  0.3640 -0.7923
 8589SOL    HW137403   3.567   4.266   4.184 -0.5471  0.5593 -1.1399
 8589SOL    HW237404   3.641   4.138   4.138 -1.8341 -0.3614  1.0356
 8590SOL     OW37405   3.796   0.235  13.601 -0.0955  0.1248  0.6503
 8590SOL    HW137406   3.775   0.222  13.509  0.5640  2.1468  0.2142
 8590SOL    HW237407   3.716   0.219  13.652  0.8569 -0.7673  1.8715
 8591SOL     OW37408   4.291   3.384  11.831 -0.3393 -0.1285 -0.4816
 8591SOL    HW137409   4.213   3.413  11.878  0.1952 -2.9828  2.1476
 8591SOL    HW237410   4.320   3.469  11.796 -2.6228  1.3292  1.1814
 8592SOL     OW37411   4.129   1.960  14.861  0.9239 -0.7523  0.1090
 8592SOL    HW137412   4.223   1.977  14.853  1.1020 -2.0981 -0.6632
 8592SOL    HW237413   4.097   2.009  14.785  0.8648 -0.0038  0.6113
 8593SOL     OW37414   4.016   4.209   7.677 -0.5990 -0.3458 -0.5050
 8593SOL    HW137415   3.921   4.198   7.690 -0.4386  1.4042  2.0166
 8593SOL    HW237416   4.039   4.217   7.769  0.5381 -1.3563 -0.7114
 8594SOL     OW37417   0.559   1.248  14.122  0.7216 -0.2670 -0.2651
 8594SOL    HW137418   0.563   1.343  14.112  1.6684 -0.4703 -1.8518
 8594SOL    HW237419   0.521   1.229  14.036 -0.9858  0.4073  0.3405
 8595SOL     OW37420   4.439   3.479   8.834 -0.0971  0.2877 -0.1941
 8595SOL    HW137421   4.526   3.494   8.872 -0.2520  2.0170 -0.5349
 8595SOL    HW237422   4.435   3.383   8.834  0.7687  0.2541  1.1839
 8596SOL     OW37423   0.977   2.531   4.399  0.4842 -0.3206  0.1933
 8596SOL    HW137424   0.992   2.526   4.305 -0.8916  0.4538 -0.0667
 8596SOL    HW237425   0.893   2.575   4.410 -0.0706 -1.4094  0.3002
 8597SOL     OW37426   1.713   2.732   4.953  0.5171  0.5182 -0.3655
 8597SOL    HW137427   1.678   2.787   5.023  1.4641 -0.2818  0.7264
 8597SOL    HW237428   1.727   2.648   4.998  0.8289  1.6866  1.6862
 8598SOL     OW37429   1.551   3.556   7.839 -0.3691 -0.5227  0.3841
 8598SOL    HW137430   1.613   3.542   7.911 -1.3326 -2.6583  0.8127
 8598SOL    HW237431   1.528   3.648   7.852 -1.7852 -0.9087  0.6948
 8599SOL     OW37432   2.059   4.460   9.821 -0.3713 -0.3502 -0.0308
 8599SOL    HW137433   2.009   4.388   9.859  1.5087 -0.7336  1.7118
 8599SOL    HW237434   2.046   4.525   9.890 -2.5380 -0.9436  0.1366
 8600SOL     OW37435   2.831   3.865   4.448  0.2571 -0.2380  0.2095
 8600SOL    HW137436   2.801   3.930   4.384 -0.3663  0.1898  0.9432
 8600SOL    HW237437   2.893   3.817   4.394 -1.9228 -1.0387 -1.5929
 8601SOL     OW37438   3.186   3.950   3.801  0.0864 -0.1225 -0.1441
 8601SOL    HW137439   3.170   4.031   3.753 -1.8465 -0.5733 -0.2573
 8601SOL    HW237440   3.234   3.900   3.735  1.5788  1.6625 -0.4167
 8602SOL     OW37441   4.429   0.181   6.076 -0.2484 -0.1522 -0.1244
 8602SOL    HW137442   4.442   0.111   6.140  2.8848  0.6925  0.1250
 8602SOL    HW237443   4.414   0.126   6.000 -1.7669 -1.4058  1.0789
 8603SOL     OW37444   4.003   1.235  15.170 -0.0096  0.0190 -0.7346
 8603SOL    HW137445   3.956   1.246  15.088  1.4263 -3.4363 -2.0669
 8603SOL    HW237446   4.093   1.249  15.140 -0.0079  0.5213 -0.4791
 8604SOL     OW37447   2.386   2.567   1.024 -0.7392 -0.0262 -0.3823
 8604SOL    HW137448   2.398   2.628   0.951  1.3881  0.3860  0.3155
 8604SOL    HW237449   2.392   2.629   1.096  1.2569 -1.3879  0.6010
 8605SOL     OW37450   1.257   0.578   0.241  0.0638  0.1791 -0.4511
 8605SOL    HW137451   1.243   0.649   0.304  0.1420 -1.0415  0.9571
 8605SOL    HW237452   1.173   0.563   0.197 -0.1457  0.8288 -0.2655
 8606SOL     OW37453   2.261   2.301   5.727 -0.1487 -0.5023 -0.1714
 8606SOL    HW137454   2.186   2.242   5.722 -1.9487  1.9115 -2.4821
 8606SOL    HW237455   2.271   2.322   5.820  0.0590  0.7322 -0.4684
 8607SOL     OW37456   2.957   3.005  15.695  0.0162  0.2629  0.6976
 8607SOL    HW137457   2.885   3.000  15.757  0.5711 -0.0502  1.3130
 8607SOL    HW237458   3.019   3.057  15.746  0.5907 -2.4359  2.6960
 8608SOL     OW37459   2.320   0.414   6.944  0.0386 -0.1246  0.2745
 8608SOL    HW137460   2.239   0.449   6.906 -0.6047 -0.9584  0.8565
 8608SOL    HW237461   2.358   0.496   6.974  0.3127  0.4336 -1.5830
 8609SOL     OW37462   0.839   1.270   6.696  0.1691 -0.5874 -0.5434
 8609SOL    HW137463   0.861   1.183   6.663  2.1634 -0.6201  0.8956
 8609SOL    HW237464   0.747   1.285   6.672 -0.3504 -1.6671  0.7637
 8610SOL     OW37465   4.660   2.322   3.649 -0.5003  0.1149 -0.6737
 8610SOL    HW137466   4.697   2.311   3.736  0.1219 -2.2965 -1.2518
 8610SOL    HW237467   4.681   2.234   3.619  1.1031  0.0573  0.6440
 8611SOL     OW37468   0.145   2.909   1.152  0.3053 -0.9210 -0.0367
 8611SOL    HW137469   0.101   2.992   1.135 -0.0179 -1.7930 -3.3533
 8611SOL    HW237470   0.070   2.850   1.160  0.9706 -1.9801 -1.7440
 8612SOL     OW37471   1.939   2.317   6.911  0.2070  0.5739 -0.4296
 8612SOL    HW137472   1.858   2.270   6.892 -0.4102  1.5852 -0.3214
 8612SOL    HW237473   1.972   2.343   6.825  0.4948 -0.0035 -0.4922
 8613SOL     OW37474   0.737   3.742   5.546 -0.1377 -0.2508  0.5308
 8613SOL    HW137475   0.710   3.651   5.551  0.9761 -0.5910  0.2100
 8613SOL    HW237476   0.755   3.773   5.635  2.1153  1.9565 -0.6898
 8614SOL     OW37477   1.338   1.930  11.641  0.4204  0.0164  0.6697
 8614SOL    HW137478   1.386   1.917  11.559 -2.5834  1.5131 -1.3277
 8614SOL    HW237479   1.268   1.990  11.616  2.5186  2.0104 -0.4470
 8615SOL     OW37480   4.384   2.570   9.926 -0.3963 -0.1685 -0.8423
 8615SOL    HW137481   4.295   2.603   9.925  0.2086  1.4044 -2.5957
 8615SOL    HW237482   4.429   2.648   9.961 -0.0272  0.4098 -2.5738
 8616SOL     OW37483   3.899   2.384   7.588 -0.1152  0.2958  0.3083
 8616SOL    HW137484   3.850   2.348   7.661 -0.7116  0.1710 -0.1525
 8616SOL    HW237485   3.827   2.399   7.527  0.5388  1.8697 -0.1035
 8617SOL     OW37486   3.858   1.509  12.577  0.4370  0.3355  0.2359
 8617SOL    HW137487   3.773   1.512  12.621  0.5045 -2.1287  0.5390
 8617SOL    HW237488   3.838   1.555  12.495 -0.5496  1.9341  1.3777
 8618SOL     OW37489   0.672   2.540   1.771  0.0004  0.1853 -0.0513
 8618SOL    HW137490   0.706   2.459   1.734  0.7722 -0.6944  2.6093
 8618SOL    HW237491   0.661   2.593   1.692  0.5571 -1.2259 -1.0659
 8619SOL     OW37492   4.543   0.734  14.301 -0.2802 -0.2416  0.4123
 8619SOL    HW137493   4.494   0.656  14.326 -0.3015 -0.5889 -0.6775
 8619SOL    HW237494   4.561   0.782  14.381 -0.6331 -0.0295  0.3669
 8620SOL     OW37495   4.438   0.385   4.168  0.6443 -0.1752 -0.0845
 8620SOL    HW137496   4.364   0.325   4.179 -1.1127  1.8169 -0.7868
 8620SOL    HW237497   4.390   0.466   4.151 -0.7782 -0.6731  1.5097
 8621SOL     OW37498   1.287   1.722   6.904  0.1211  0.3137 -0.2914
 8621SOL    HW137499   1.311   1.657   6.839  1.9772  0.7349 -0.0497
 8621SOL    HW237500   1.233   1.674   6.966 -0.2956  0.0837 -0.8432
 8622SOL     OW37501   2.903   2.196   4.347 -0.0121  0.0246  0.7956
 8622SOL    HW137502   2.868   2.159   4.266  1.7463 -0.3981  0.2095
 8622SOL    HW237503   2.995   2.189   4.322 -0.1049  0.0751  0.4466
 8623SOL     OW37504   3.811   2.420   3.802 -0.2081  0.5698  0.2755
 8623SOL    HW137505   3.859   2.391   3.724 -1.0236  0.5011 -0.2024
 8623SOL    HW237506   3.723   2.408   3.766 -0.0977  1.2885 -0.2459
 8624SOL     OW37507   2.353   3.614   2.302 -0.1894 -0.0538  0.1398
 8624SOL    HW137508   2.445   3.602   2.327  0.1014 -0.9305 -1.3569
 8624SOL    HW237509   2.331   3.521   2.311  0.0637 -0.1741 -0.4743
 8625SOL     OW37510   3.358   4.207  16.490 -0.1128  0.3128 -0.2199
 8625SOL    HW137511   3.339   4.276  16.426  2.3162  0.4034 -0.8582
 8625SOL    HW237512   3.285   4.208  16.551 -0.8492 -2.8011 -1.0587
 8626SOL     OW37513   0.730   2.894   7.010 -0.2426  0.2468 -0.1003
 8626SOL    HW137514   0.725   2.850   6.925 -0.1388 -0.5518  0.3069
 8626SOL    HW237515   0.810   2.945   7.001 -0.8652  0.6974 -3.2423
 8627SOL     OW37516   2.322   4.182   3.110 -0.2487 -0.0602 -0.8379
 8627SOL    HW137517   2.370   4.204   3.030  0.4259 -1.3548 -0.7800
 8627SOL    HW237518   2.297   4.090   3.110 -1.3857  0.2426 -0.0346
 8628SOL     OW37519   1.199   4.142   4.819  0.0728  0.0736 -0.1785
 8628SOL    HW137520   1.159   4.183   4.743 -0.8176  1.5820  1.0899
 8628SOL    HW237521   1.224   4.213   4.879  2.0104 -1.4614  0.8437
 8629SOL     OW37522   1.319   1.004  17.332 -0.3882 -0.1176  0.5728
 8629SOL    HW137523   1.273   1.021  17.414  1.2595  0.0264  1.4650
 8629SOL    HW237524   1.241   1.011  17.277 -0.6168 -0.3488  0.8693
 8630SOL     OW37525   1.061   1.358   3.438 -0.5246 -0.8005  0.8311
 8630SOL    HW137526   1.094   1.448   3.435  0.8481 -1.3256 -0.0770
 8630SOL    HW237527   1.144   1.311   3.428 -0.9015 -1.1196 -0.8278
 8631SOL     OW37528   4.619   1.714   5.424 -0.0116 -0.0143  0.6159
 8631SOL    HW137529   4.670   1.687   5.500 -0.1263 -0.8019  0.4154
 8631SOL    HW237530   4.561   1.638   5.416  1.5085 -1.0977 -0.2268
 8632SOL     OW37531   3.906   1.986  11.380  0.5353  0.7376 -0.0866
 8632SOL    HW137532   3.978   2.033  11.338 -0.9443  1.5379 -1.7844
 8632SOL    HW237533   3.907   1.909  11.323 -0.0706  1.0912 -0.5848
 8633SOL     OW37534   2.235   4.208   2.801  0.0089  0.5751  0.2005
 8633SOL    HW137535   2.291   4.284   2.818 -0.6648  1.1040  0.0630
 8633SOL    HW237536   2.303   4.149   2.769  0.7164  1.1207  0.7002
 8634SOL     OW37537   0.344   3.355   6.620 -0.2004  0.2013  0.5795
 8634SOL    HW137538   0.361   3.261   6.617  1.2343  0.4741  0.0107
 8634SOL    HW237539   0.250   3.344   6.630 -0.0812 -0.4696  0.9991
 8635SOL     OW37540   4.012   1.684   7.530  0.4830  0.1116  0.2392
 8635SOL    HW137541   4.064   1.617   7.576  3.7349  0.3834 -3.0940
 8635SOL    HW237542   3.927   1.639   7.537  0.2336  0.6945  0.9323
 8636SOL     OW37543   3.895   1.332   5.898  0.2970  0.2895 -0.0914
 8636SOL    HW137544   3.872   1.328   5.991  2.0157  2.8157  0.4268
 8636SOL    HW237545   3.971   1.274   5.906 -0.4982 -1.1047 -2.5171
 8637SOL     OW37546   2.059   1.029  12.229  0.6324  0.2720  0.1760
 8637SOL    HW137547   2.091   0.939  12.236 -0.6700 -0.2955 -1.1356
 8637SOL    HW237548   1.964   1.014  12.232  0.5738  0.5682 -0.4183
 8638SOL     OW37549   0.463   0.953   2.362 -0.3335  0.0547  0.5097
 8638SOL    HW137550   0.423   0.887   2.418  0.3402 -1.5943 -0.9476
 8638SOL    HW237551   0.510   0.898   2.299 -0.3571 -1.2629  1.6371
 8639SOL     OW37552   2.386   1.836   2.069  0.0532  0.1287  0.2649
 8639SOL    HW137553   2.377   1.908   2.007  1.0352  1.6114  1.8462
 8639SOL    HW237554   2.295   1.811   2.078  1.0182 -3.4532  0.0520
 8640SOL     OW37555   3.704   1.943   5.835 -0.1082 -0.1774 -0.2729
 8640SOL    HW137556   3.654   2.024   5.833  1.2642  0.6752 -0.7376
 8640SOL    HW237557   3.784   1.968   5.788 -0.9189 -2.0541 -2.6648
 8641SOL     OW37558   1.792   4.730  13.762 -0.3408  0.4599 -0.9820
 8641SOL    HW137559   1.839   4.655  13.798 -0.5074  0.0215 -1.6712
 8641SOL    HW237560   1.702   4.702  13.778  0.2516 -1.7809 -1.5202
 8642SOL     OW37561   4.444   1.770   1.579  0.7709 -0.4239 -0.2187
 8642SOL    HW137562   4.353   1.775   1.550  0.1056  1.7513  2.2836
 8642SOL    HW237563   4.445   1.741   1.670 -3.6916 -1.7290 -0.6116
 8643SOL     OW37564   0.277   2.284   4.626  0.1350 -0.2336  0.5348
 8643SOL    HW137565   0.324   2.298   4.708  0.2395  0.4691  0.3522
 8643SOL    HW237566   0.215   2.221   4.663  1.9879 -1.7025  1.0848
 8644SOL     OW37567   3.840   1.331   7.325  0.2284  0.4200 -0.4325
 8644SOL    HW137568   3.860   1.394   7.256 -1.3637  0.8377 -0.5222
 8644SOL    HW237569   3.794   1.266   7.270 -0.5961  0.4880  0.1749
 8645SOL     OW37570   0.887   3.961  17.467  0.2912 -0.0148  0.4316
 8645SOL    HW137571   0.829   3.999  17.532  0.0772  0.5247 -0.0783
 8645SOL    HW237572   0.937   3.894  17.514  0.0898 -0.0126  0.6460
 8646SOL     OW37573   2.684   0.819   4.868  0.1199  0.2336 -0.2584
 8646SOL    HW137574   2.591   0.809   4.850 -0.3053 -0.0299  2.1795
 8646SOL    HW237575   2.683   0.862   4.953  0.3440 -0.6906  0.2112
 8647SOL     OW37576   0.912   4.660   3.678  0.1972 -0.4640  0.1290
 8647SOL    HW137577   0.916   4.582   3.733  0.4125 -1.1184 -0.8055
 8647SOL    HW237578   0.953   4.639   3.594  0.2570  0.4068 -0.0578
 8648SOL     OW37579   0.661   0.644   1.324 -0.5523  0.3069  0.1488
 8648SOL    HW137580   0.666   0.675   1.415 -0.8537 -0.9114  0.5698
 8648SOL    HW237581   0.715   0.566   1.327 -1.5800 -0.4774 -2.3004
 8649SOL     OW37582   3.300   3.673  11.432 -0.0375  0.1997  0.3340
 8649SOL    HW137583   3.374   3.614  11.444 -0.2643  0.0304  0.9390
 8649SOL    HW237584   3.221   3.618  11.442  0.7622 -0.6033  2.2866
 8650SOL     OW37585   1.309   3.918  13.271  0.1319 -0.2202 -0.2467
 8650SOL    HW137586   1.383   3.972  13.298  1.9013 -2.2706 -1.0205
 8650SOL    HW237587   1.356   3.850  13.222 -1.4427 -0.0968 -1.9653
 8651SOL     OW37588   0.894   1.376   8.097  0.2650 -0.0593 -0.5559
 8651SOL    HW137589   0.907   1.291   8.055  0.3432 -0.6529  0.6810
 8651SOL    HW237590   0.802   1.365   8.124  0.3176  0.2178 -0.2624
 8652SOL     OW37591   4.242   1.429   3.904  0.1368 -0.0294 -0.0819
 8652SOL    HW137592   4.173   1.376   3.863  1.3078  0.9353 -3.2669
 8652SOL    HW237593   4.287   1.461   3.826  2.3437 -2.6231  0.1513
 8653SOL     OW37594   0.099   3.697   1.519  0.4813  0.5295 -0.5556
 8653SOL    HW137595   0.022   3.692   1.577  1.1781 -0.7126  0.2678
 8653SOL    HW237596   0.158   3.747   1.575  0.3546  1.3488 -1.1731
 8654SOL     OW37597   1.121   2.345  13.029  0.1667  0.2160 -0.4776
 8654SOL    HW137598   1.068   2.274  12.994  1.7319 -1.2923  0.2032
 8654SOL    HW237599   1.182   2.347  12.956  2.1325  2.3623  1.2134
 8655SOL     OW37600   3.358   0.227  16.126 -0.4144 -0.1067 -0.2013
 8655SOL    HW137601   3.436   0.221  16.071 -0.8719  1.3657 -1.0010
 8655SOL    HW237602   3.383   0.303  16.179  0.8568 -0.8645  0.2963
 8656SOL     OW37603   0.128   3.014  13.861 -0.4391 -0.4133  0.4051
 8656SOL    HW137604   0.078   3.077  13.913  0.1337  0.4555 -0.1034
 8656SOL    HW237605   0.065   2.976  13.800  0.0165 -0.6421  0.0841
 8657SOL     OW37606   2.239   0.204  17.465 -0.1073 -0.0778 -0.5920
 8657SOL    HW137607   2.280   0.166  17.543 -1.1614 -1.5113 -0.7367
 8657SOL    HW237608   2.168   0.142  17.450  1.3569 -1.9439  0.0927
 8658SOL     OW37609   2.109   0.553   3.809 -0.2317 -0.4390  0.0287
 8658SOL    HW137610   2.166   0.575   3.883  2.1446  1.3543 -2.3656
 8658SOL    HW237611   2.145   0.475   3.767  1.6792  0.0680  0.7454
 8659SOL     OW37612   4.118   4.213   3.497  0.3286 -0.3294  0.2757
 8659SOL    HW137613   4.159   4.232   3.582 -0.5810  0.9707  0.4316
 8659SOL    HW237614   4.174   4.143   3.464  0.0260 -0.8924  0.9636
 8660SOL     OW37615   3.992   1.940   5.006 -0.4698  0.0138 -0.0986
 8660SOL    HW137616   4.073   1.889   5.011  0.3229  1.4329  1.6387
 8660SOL    HW237617   3.974   1.920   4.915 -0.6321 -1.2226  0.2012
 8661SOL     OW37618   3.752   3.563  15.122 -0.2572  0.1693  0.3995
 8661SOL    HW137619   3.841   3.535  15.141 -0.3785 -1.1344 -0.9425
 8661SOL    HW237620   3.750   3.546  15.027  2.3674 -2.5552  0.8462
 8662SOL     OW37621   3.009   3.695  11.807 -0.1252  0.2031 -0.4842
 8662SOL    HW137622   2.918   3.699  11.777  0.0095  0.8991 -0.7966
 8662SOL    HW237623   3.058   3.761  11.758 -0.8631 -1.5878 -3.6032
 8663SOL     OW37624   3.231   0.725   0.272  0.6493  0.2215  0.4337
 8663SOL    HW137625   3.159   0.784   0.250  0.1522  0.0935  1.7210
 8663SOL    HW237626   3.309   0.771   0.240  0.6635  1.6440  2.4841
 8664SOL     OW37627   2.758   0.566   4.908  0.1196  0.2143  0.3326
 8664SOL    HW137628   2.836   0.575   4.964  0.4358  0.8736 -0.2242
 8664SOL    HW237629   2.718   0.652   4.908 -0.5280 -0.0887  0.1314
 8665SOL     OW37630   2.273   3.415   2.690  0.2948 -0.0134  0.6277
 8665SOL    HW137631   2.228   3.466   2.757 -1.6125  0.9614 -1.3860
 8665SOL    HW237632   2.202   3.397   2.628  1.3974 -0.0817 -0.6084
 8666SOL     OW37633   2.578   2.036   5.931  0.9341 -0.7768  0.0269
 8666SOL    HW137634   2.658   1.989   5.954  0.4144 -1.7139 -0.0539
 8666SOL    HW237635   2.558   2.096   6.003  0.0062  2.0360 -2.5661
 8667SOL     OW37636   0.050   0.598  14.518 -0.2066 -0.5193  0.2691
 8667SOL    HW137637   4.722   0.670  14.505 -0.0248 -0.5870 -0.9668
 8667SOL    HW237638   0.077   0.589  14.427 -3.9707  0.5640 -0.9441
 8668SOL     OW37639   0.134   3.128   5.232 -0.0293  0.3720  0.3796
 8668SOL    HW137640   0.184   3.175   5.165 -0.9927  0.5504 -0.2275
 8668SOL    HW237641   0.190   3.054   5.254 -1.2224 -0.2651  1.3161
 8669SOL     OW37642   0.274   1.319  16.338  0.1677  0.0680 -0.1565
 8669SOL    HW137643   0.213   1.346  16.406  0.7941  2.4105 -0.5101
 8669SOL    HW237644   0.270   1.402  16.290  1.4737  0.8179  1.0154
 8670SOL     OW37645   0.838   0.632   9.180 -0.1515  0.5560 -0.7682
 8670SOL    HW137646   0.767   0.695   9.187  0.8537  1.7094 -1.0203
 8670SOL    HW237647   0.916   0.680   9.153  0.0885 -0.3711 -1.7214
 8671SOL     OW37648   4.438   0.525   3.719  0.0415 -0.0110 -0.4212
 8671SOL    HW137649   4.505   0.527   3.652 -2.0971  1.9381 -2.5134
 8671SOL    HW237650   4.494   0.515   3.796 -0.0113 -3.2562 -0.8209
 8672SOL     OW37651   1.081   0.794   7.124  0.3724  0.3012  0.2629
 8672SOL    HW137652   1.119   0.808   7.037 -1.4371 -1.7835 -0.8702
 8672SOL    HW237653   1.126   0.717   7.159  0.3667 -1.0768 -2.7214
 8673SOL     OW37654   3.606   1.831   7.731 -0.3786 -0.0549 -0.2548
 8673SOL    HW137655   3.665   1.817   7.805 -0.3620 -1.6954 -0.5829
 8673SOL    HW237656   3.672   1.857   7.667 -0.4643  0.1974 -0.2422
 8674SOL     OW37657   2.755   3.364   7.462  0.0311  0.4998  0.3610
 8674SOL    HW137658   2.698   3.440   7.454 -0.3030  0.0877 -1.3732
 8674SOL    HW237659   2.698   3.308   7.408 -0.2517  1.3091 -0.1833
 8675SOL     OW37660   3.675   3.314   3.632  0.5138 -0.1206 -0.6979
 8675SOL    HW137661   3.763   3.284   3.655 -0.5271 -0.4554  2.8362
 8675SOL    HW237662   3.658   3.388   3.691  2.0719 -0.6959  0.4823
 8676SOL     OW37663   0.080   3.787   3.003  0.4530  0.5359  0.1565
 8676SOL    HW137664   0.133   3.722   3.049 -0.7736 -0.5737 -0.0002
 8676SOL    HW237665   4.730   3.752   3.032  0.4437  1.2836  1.0225
 8677SOL     OW37666   4.421   4.665  14.821 -0.0292 -0.2063 -0.1584
 8677SOL    HW137667   4.473   4.650  14.742  0.7999  1.0673  0.1472
 8677SOL    HW237668   4.361   4.733  14.790 -0.2848 -0.2130  0.3255
 8678SOL     OW37669   2.874   0.259   8.482  0.3200  0.2957 -0.0633
 8678SOL    HW137670   2.787   0.299   8.482 -0.1541 -0.7192  0.7825
 8678SOL    HW237671   2.893   0.251   8.389  0.1396 -0.8368 -0.0019
 8679SOL     OW37672   3.971   3.222   1.637  0.0092  0.3206  0.0263
 8679SOL    HW137673   4.051   3.171   1.654 -0.1765 -0.3061 -0.9439
 8679SOL    HW237674   3.950   3.247   1.726 -4.1093 -1.0983 -0.5488
 8680SOL     OW37675   0.849   3.200  17.003  0.4280  0.0457 -0.3313
 8680SOL    HW137676   0.770   3.226  16.955  0.2945 -1.4761 -0.9347
 8680SOL    HW237677   0.813   3.198  17.091  0.1470  0.1511 -0.4424
 8681SOL     OW37678   2.667   4.206   9.266 -0.0919 -0.3089 -0.1822
 8681SOL    HW137679   2.710   4.292   9.261 -1.0442  0.2906  1.9294
 8681SOL    HW237680   2.671   4.178   9.357 -2.4438 -0.3552 -0.1018
 8682SOL     OW37681   3.017   3.097   2.447 -0.1316 -0.0107  0.0905
 8682SOL    HW137682   2.950   3.136   2.503 -0.2020 -0.4247  0.2983
 8682SOL    HW237683   3.093   3.083   2.504 -0.7069  1.2553  1.1693
 8683SOL     OW37684   3.668   4.046  12.257  0.1606  0.0775 -0.3527
 8683SOL    HW137685   3.651   4.135  12.290 -1.3322 -1.4925  3.1280
 8683SOL    HW237686   3.655   3.991  12.335  0.8729  0.6562  0.1681
 8684SOL     OW37687   0.412   0.313   6.170 -0.5589 -0.4322  0.5332
 8684SOL    HW137688   0.502   0.283   6.178 -0.5587 -0.7235 -0.5679
 8684SOL    HW237689   0.390   0.274   6.255  1.1528 -0.1788  1.0821
 8685SOL     OW37690   3.824   1.428   2.591  0.2131 -0.7468 -0.0069
 8685SOL    HW137691   3.779   1.484   2.528  1.7598  0.5720  0.0763
 8685SOL    HW237692   3.741   1.385   2.613 -0.1513 -0.5647 -1.0243
 8686SOL     OW37693   4.421   3.740   8.620 -0.1829 -0.1601  0.1849
 8686SOL    HW137694   4.331   3.709   8.620  0.0143 -0.6897  1.9576
 8686SOL    HW237695   4.414   3.825   8.577 -1.6174  0.1219  0.9759
 8687SOL     OW37696   0.249   2.944   4.025 -0.6948 -0.0131  0.1736
 8687SOL    HW137697   0.204   2.948   4.110 -2.1567  1.2841 -0.6631
 8687SOL    HW237698   0.178   2.964   3.964 -0.6522  0.3881  0.2523
 8688SOL     OW37699   0.081   2.277   8.662 -0.0099 -0.7577 -0.2372
 8688SOL    HW137700   0.069   2.358   8.613 -0.1568 -0.9731 -0.5587
 8688SOL    HW237701   0.155   2.247   8.609 -0.8160 -3.2083  0.0079
 8689SOL     OW37702   2.492   4.637   7.772 -0.2274  0.0344 -0.2439
 8689SOL    HW137703   2.569   4.684   7.740  0.0274  0.1484  0.5195
 8689SOL    HW237704   2.446   4.630   7.689 -0.5233  2.3197 -0.2767
 8690SOL     OW37705   0.605   3.260  16.904 -0.1067 -0.5374  0.2056
 8690SOL    HW137706   0.548   3.214  16.965 -0.1888  1.6654  1.8171
 8690SOL    HW237707   0.547   3.313  16.849  0.2838 -1.0806 -0.7170
 8691SOL     OW37708   0.159   3.113   2.294 -0.5788 -0.5873  0.1567
 8691SOL    HW137709   0.162   3.093   2.387  0.0330  0.5285  0.3771
 8691SOL    HW237710   0.235   3.058   2.274 -0.3102 -0.4919  0.9183
 8692SOL     OW37711   2.882   3.470   2.495 -0.6311 -0.1068 -0.4174
 8692SOL    HW137712   2.904   3.474   2.402  2.3043 -0.8373  0.2558
 8692SOL    HW237713   2.863   3.377   2.505  0.2483  0.0574  2.9230
 8693SOL     OW37714   0.111   1.769   7.373 -0.0047 -0.0759  0.4197
 8693SOL    HW137715   0.084   1.764   7.282  1.3672 -0.0410  0.0154
 8693SOL    HW237716   0.094   1.685   7.415  2.6945 -0.7178  0.2066
 8694SOL     OW37717   2.655   4.123   3.927 -0.3757  0.4007 -0.0332
 8694SOL    HW137718   2.580   4.115   3.987  0.7958 -1.1056  1.2203
 8694SOL    HW237719   2.695   4.207   3.949 -1.9896  1.0940  0.3109
 8695SOL     OW37720   2.773   2.539  12.392  0.0034  0.0673 -0.2318
 8695SOL    HW137721   2.767   2.629  12.362 -2.7927  0.1724  0.5792
 8695SOL    HW237722   2.866   2.532  12.413 -0.5286  1.3196  2.4992
 8696SOL     OW37723   4.201   4.521   6.642 -0.5257  0.5226  0.5136
 8696SOL    HW137724   4.206   4.428   6.622  0.4531  0.4387  1.1568
 8696SOL    HW237725   4.127   4.552   6.589  0.4104  1.2818 -0.3625
 8697SOL     OW37726   3.160   3.464   6.770  0.4871  0.5981  0.2110
 8697SOL    HW137727   3.202   3.544   6.799 -1.1935  0.8581  1.9473
 8697SOL    HW237728   3.220   3.397   6.803 -2.7569 -1.2854  2.3307
 8698SOL     OW37729   1.693   1.501   1.947 -0.0479 -0.6600 -0.8444
 8698SOL    HW137730   1.730   1.431   1.894  0.6577 -0.8834 -0.0509
 8698SOL    HW237731   1.603   1.468   1.955 -0.8080  1.2339 -1.6778
 8699SOL     OW37732   4.699   2.737  12.189 -0.2779  0.6209 -0.3294
 8699SOL    HW137733   0.004   2.695  12.265  2.0199  1.6722 -0.9642
 8699SOL    HW237734   4.711   2.675  12.118  1.9227  0.4140  0.2316
 8700SOL     OW37735   0.191   3.845   4.061 -0.1260 -0.4904  0.3562
 8700SOL    HW137736   0.172   3.888   3.978  1.0364 -0.7074 -0.0216
 8700SOL    HW237737   0.240   3.768   4.030  1.4167  0.3070  0.8058
 8701SOL     OW37738   1.732   2.301  13.585  0.0364 -0.0840  0.4451
 8701SOL    HW137739   1.640   2.318  13.606  0.7079  0.6201  2.8113
 8701SOL    HW237740   1.750   2.391  13.558 -0.2718  0.1004  0.8575
 8702SOL     OW37741   3.731   2.694  15.246  0.3232  0.1041 -0.1826
 8702SOL    HW137742   3.700   2.673  15.157  0.2612  0.2682 -0.1985
 8702SOL    HW237743   3.661   2.662  15.302  0.4797  0.3864  0.1685
 8703SOL     OW37744   2.864   0.972   2.667  0.1635  0.6155 -0.0989
 8703SOL    HW137745   2.804   1.025   2.719  0.7171  0.6855  0.4736
 8703SOL    HW237746   2.860   0.893   2.721 -0.6112 -0.3163 -1.5281
 8704SOL     OW37747   2.015   0.947   8.725  0.3049 -0.2448  0.1489
 8704SOL    HW137748   1.980   0.877   8.670  0.0084 -0.3715  0.4878
 8704SOL    HW237749   2.101   0.958   8.687 -0.5492 -0.0021 -1.6867
 8705SOL     OW37750   0.211   4.270   7.219 -0.0417  0.3999  0.4668
 8705SOL    HW137751   0.162   4.206   7.271 -0.8198  0.1370 -0.6088
 8705SOL    HW237752   0.235   4.342   7.277  2.8169  2.4082 -3.2268
 8706SOL     OW37753   3.864   0.742  15.707  0.2346  0.7235 -0.1342
 8706SOL    HW137754   3.774   0.725  15.735  0.0775 -0.0248 -1.0889
 8706SOL    HW237755   3.852   0.743  15.612 -1.5867 -0.7806  0.0865
 8707SOL     OW37756   2.585   3.116   4.467  0.0626 -0.2324  0.0220
 8707SOL    HW137757   2.562   3.124   4.559 -0.8502  0.5130 -0.2577
 8707SOL    HW237758   2.625   3.202   4.454 -0.7229  0.0552 -0.5317
 8708SOL     OW37759   4.064   4.399   2.557  0.0089 -0.1725 -0.1624
 8708SOL    HW137760   4.141   4.419   2.503  0.3041  0.5680  0.5305
 8708SOL    HW237761   4.062   4.481   2.606 -0.9964  0.6736 -1.6358
 8709SOL     OW37762   4.525   3.298  16.131  0.2642  0.9466 -0.2366
 8709SOL    HW137763   4.502   3.276  16.041 -0.6400  1.2878 -0.0927
 8709SOL    HW237764   4.603   3.353  16.124 -0.0385  1.4405  0.2177
 8710SOL     OW37765   3.547   3.609   5.973 -0.2351 -0.1331 -0.4929
 8710SOL    HW137766   3.531   3.617   5.879 -1.4574  1.6519 -0.1515
 8710SOL    HW237767   3.560   3.515   5.976  0.2318 -0.0418  0.2310
 8711SOL     OW37768   1.407   1.493  15.368 -0.4272 -0.4259 -0.7153
 8711SOL    HW137769   1.368   1.513  15.454 -0.8226 -0.0603 -0.9753
 8711SOL    HW237770   1.484   1.550  15.365  0.3221 -1.4172 -0.1874
 8712SOL     OW37771   2.856   3.916   6.778 -0.2482  0.5419  0.1871
 8712SOL    HW137772   2.779   3.951   6.732 -0.6082 -1.0683 -0.4304
 8712SOL    HW237773   2.868   3.972   6.855 -0.7917  0.5700  0.2581
 8713SOL     OW37774   0.965   1.136   7.449 -0.2450 -0.5283  0.1408
 8713SOL    HW137775   0.990   1.221   7.413  0.9235 -0.5800  0.8278
 8713SOL    HW237776   1.036   1.076   7.427  0.5509 -0.3307  2.1096
 8714SOL     OW37777   3.296   0.561  12.819  0.3984  0.2514 -0.2052
 8714SOL    HW137778   3.286   0.561  12.724  3.0023 -1.5418 -0.4727
 8714SOL    HW237779   3.204   0.573  12.843  0.3475 -1.1471  0.2975
 8715SOL     OW37780   3.920   0.995   5.139  0.1318  0.2949 -0.2318
 8715SOL    HW137781   3.872   1.060   5.191 -2.1290 -1.6274  0.0944
 8715SOL    HW237782   3.850   0.936   5.111 -1.3480  0.7827  2.4009
 8716SOL     OW37783   4.216   0.004   2.019  0.4650 -0.4861  0.4240
 8716SOL    HW137784   4.304   4.712   2.046  1.0544  2.4088  1.4288
 8716SOL    HW237785   4.235   0.067   1.949 -1.1042 -1.3604 -0.7857
 8717SOL     OW37786   1.669   1.539   0.325  0.3766 -0.0955  0.5321
 8717SOL    HW137787   1.663   1.443   0.327  0.2754 -0.0837  0.7770
 8717SOL    HW237788   1.591   1.564   0.276  1.0064 -1.9691 -1.4347
 8718SOL     OW37789   3.604   1.074   1.984  0.4307  0.0327  0.8138
 8718SOL    HW137790   3.683   1.095   2.034  1.2098  1.0131 -0.8432
 8718SOL    HW237791   3.618   0.981   1.965  0.7019 -0.0613  1.4905
 8719SOL     OW37792   4.012   1.371   2.805  0.2292  0.5218 -0.0224
 8719SOL    HW137793   3.967   1.316   2.870  0.3165 -0.2194 -0.5893
 8719SOL    HW237794   3.931   1.390   2.758  0.7502  2.6961 -0.0046
 8720SOL     OW37795   4.635   4.137   2.111 -0.4564 -0.4559  0.6904
 8720SOL    HW137796   4.550   4.133   2.066  0.1026  0.7810 -0.4726
 8720SOL    HW237797   4.651   4.043   2.106 -0.7900 -0.5256  0.9062
 8721SOL     OW37798   4.513   4.160   9.627 -0.1546 -0.1394 -0.3073
 8721SOL    HW137799   4.461   4.105   9.685  0.3096  1.0014  1.1913
 8721SOL    HW237800   4.604   4.139   9.648 -0.2050  1.8530  1.9538
 8722SOL     OW37801   3.775   3.741   1.512  0.1680 -0.6142  0.1444
 8722SOL    HW137802   3.820   3.739   1.597 -0.9707 -1.8312  0.7280
 8722SOL    HW237803   3.730   3.657   1.517 -3.9342  1.5711 -0.5974
 8723SOL     OW37804   1.914   2.108   6.710  0.0553 -0.2334 -0.4640
 8723SOL    HW137805   1.879   2.075   6.793  2.3800 -1.2997  0.0992
 8723SOL    HW237806   1.835   2.132   6.663 -1.0227  1.7612  2.3489
 8724SOL     OW37807   3.872   2.983  13.693 -0.6507 -0.2633 -0.5163
 8724SOL    HW137808   3.805   2.999  13.760 -1.1914 -1.3219 -0.7952
 8724SOL    HW237809   3.914   3.067  13.677 -0.5948 -0.5830 -2.0641
 8725SOL     OW37810   4.448   3.161   8.862 -0.0310  0.7522  0.2167
 8725SOL    HW137811   4.515   3.168   8.930 -1.1848  0.0403  1.4203
 8725SOL    HW237812   4.480   3.089   8.807 -1.9482 -0.7045  1.0101
 8726SOL     OW37813   3.830   4.468   7.943  0.3394 -0.5138 -0.4777
 8726SOL    HW137814   3.806   4.553   7.906  1.8669 -0.2199 -0.8219
 8726SOL    HW237815   3.926   4.467   7.939  0.4204 -0.6802  1.4838
 8727SOL     OW37816   2.222   2.243   2.721 -0.1179  0.0392  0.6566
 8727SOL    HW137817   2.254   2.312   2.663 -0.8125 -0.8577 -0.8219
 8727SOL    HW237818   2.203   2.295   2.799 -2.6487  0.7155 -0.4230
 8728SOL     OW37819   2.600   2.983  17.444 -0.0854  0.0109 -0.5318
 8728SOL    HW137820   2.609   3.078  17.437 -1.1660  0.2225  1.2558
 8728SOL    HW237821   2.692   2.957  17.447  0.2331  1.3630  1.1757
 8729SOL     OW37822   2.411   1.297   2.403  0.0260  0.5796 -0.2314
 8729SOL    HW137823   2.383   1.256   2.321  1.4470 -0.0506 -0.3902
 8729SOL    HW237824   2.415   1.388   2.374  0.3280  1.0624  1.2853
 8730SOL     OW37825   4.329   2.544   1.131 -0.8616  0.5191  0.1942
 8730SOL    HW137826   4.382   2.622   1.115  0.3145 -0.2259  0.5516
 8730SOL    HW237827   4.244   2.581   1.106 -1.4122  0.0264  1.3301
 8731SOL     OW37828   3.071   2.788   6.675  0.4522  0.3181 -0.2186
 8731SOL    HW137829   3.042   2.764   6.763  2.8040 -1.0765  0.1803
 8731SOL    HW237830   2.989   2.811   6.632  0.9080 -0.4212 -1.4897
 8732SOL     OW37831   1.330   0.777   5.208  0.0849  0.0926  0.1957
 8732SOL    HW137832   1.340   0.780   5.113  1.5558  2.7857  0.4382
 8732SOL    HW237833   1.263   0.712   5.230  0.3403 -0.5178 -0.8165
 8733SOL     OW37834   3.538   1.103  11.413 -0.1576  0.3640 -0.2158
 8733SOL    HW137835   3.461   1.153  11.441 -0.8659 -0.7652 -0.1282
 8733SOL    HW237836   3.599   1.112  11.486  1.0318  2.5005 -1.4602
 8734SOL     OW37837   3.721   0.757   3.645  0.1234 -0.4045 -0.0663
 8734SOL    HW137838   3.648   0.808   3.680 -0.2172 -1.1027  0.2589
 8734SOL    HW237839   3.791   0.768   3.709  1.3630  1.5088 -1.7846
 8735SOL     OW37840   2.636   3.462  17.106 -0.0473 -0.1808  0.5863
 8735SOL    HW137841   2.573   3.394  17.128 -2.0564  0.8058 -2.1183
 8735SOL    HW237842   2.674   3.485  17.191 -0.9318  1.1145  0.6447
 8736SOL     OW37843   0.955   1.776   8.947 -0.4438 -0.6343 -0.5620
 8736SOL    HW137844   1.048   1.753   8.943 -0.9334 -3.0481  1.8638
 8736SOL    HW237845   0.944   1.746   8.856 -0.4479 -4.0532  0.5524
 8737SOL     OW37846   4.638   2.774   1.185  0.3903 -0.4382  0.1615
 8737SOL    HW137847   4.548   2.793   1.159  0.7331 -0.4430 -1.0432
 8737SOL    HW237848   4.649   2.689   1.144 -1.2600 -0.8506  0.5738
 8738SOL     OW37849   3.369   2.456   2.471 -0.4318 -0.5282 -0.1097
 8738SOL    HW137850   3.388   2.383   2.412 -1.0690 -2.4601  2.0357
 8738SOL    HW237851   3.277   2.470   2.447 -0.8075  0.2122  1.7330
 8739SOL     OW37852   1.372   1.443   2.920  0.3187 -0.4375 -0.4641
 8739SOL    HW137853   1.289   1.480   2.891 -0.8334 -0.8031  2.4515
 8739SOL    HW237854   1.354   1.442   3.014 -0.2775 -2.4391 -0.5987
 8740SOL     OW37855   1.080   0.206   2.202  0.0766 -0.5031 -0.6485
 8740SOL    HW137856   1.013   0.220   2.269  2.8096 -0.1089  2.0271
 8740SOL    HW237857   1.120   0.125   2.232 -1.3218 -1.5782 -1.7073
 8741SOL     OW37858   0.851   0.705   4.637 -0.1134 -0.0676  0.5962
 8741SOL    HW137859   0.824   0.616   4.614  1.7744 -1.2709  3.0349
 8741SOL    HW237860   0.808   0.716   4.723 -1.2534  0.7896 -0.0815
 8742SOL     OW37861   4.068   2.620   1.040 -0.3594  0.5531  0.0525
 8742SOL    HW137862   4.029   2.708   1.047  0.7105  1.1615 -1.8919
 8742SOL    HW237863   4.042   2.585   1.126 -2.3092 -0.6065 -1.0100
 8743SOL     OW37864   0.874   1.456   2.645 -0.7463  0.4572  0.7249
 8743SOL    HW137865   0.901   1.365   2.627 -1.9296  0.2148  0.1492
 8743SOL    HW237866   0.788   1.459   2.602 -1.1782  0.6575  1.6109
 8744SOL     OW37867   3.109   2.557   0.070  0.0026  0.2558  0.6734
 8744SOL    HW137868   3.201   2.551   0.096 -0.4943  1.6600  2.7908
 8744SOL    HW237869   3.071   2.555   0.158 -1.8999 -0.9025 -0.1754
 8745SOL     OW37870   3.776   4.690   9.916 -0.1223  0.5555 -0.2152
 8745SOL    HW137871   3.842   0.023   9.902  1.3180 -0.5290  1.1717
 8745SOL    HW237872   3.801   4.689  10.009 -1.3483  1.2300  0.1273
 8746SOL     OW37873   2.266   0.317   8.040  0.4283 -0.5496 -0.0333
 8746SOL    HW137874   2.261   0.230   8.000 -0.7020  0.8187 -2.8494
 8746SOL    HW237875   2.361   0.331   8.035 -0.2971  4.3430  0.5278
 8747SOL     OW37876   3.221   2.959   9.369  0.1194 -0.3041  0.2181
 8747SOL    HW137877   3.302   2.989   9.411  0.8850 -0.8984 -0.8452
 8747SOL    HW237878   3.164   3.036   9.371  0.0400 -0.3469 -0.5693
 8748SOL     OW37879   3.229   2.681   7.436  0.1283  0.1007  0.3306
 8748SOL    HW137880   3.269   2.658   7.520 -0.6543 -0.5719  0.5223
 8748SOL    HW237881   3.303   2.683   7.375 -0.4629 -0.9486 -0.4305
 8749SOL     OW37882   4.720   1.242   8.640 -0.1852 -0.3963 -0.3968
 8749SOL    HW137883   4.698   1.168   8.696  1.3214 -1.0653 -0.6885
 8749SOL    HW237884   0.062   1.205   8.596  0.1083 -2.2586  1.6928
 8750SOL     OW37885   1.136   2.761   1.312  0.2252 -0.2810  0.7039
 8750SOL    HW137886   1.175   2.675   1.295 -0.6182 -0.3594 -0.9097
 8750SOL    HW237887   1.203   2.826   1.332  0.8342 -0.6499 -0.1219
 8751SOL     OW37888   1.298   2.605  11.628 -0.8596  0.0613  0.1532
 8751SOL    HW137889   1.347   2.673  11.581 -0.4536  0.4674  1.1566
 8751SOL    HW237890   1.302   2.527  11.572 -0.7592 -0.8581  1.4444
 8752SOL     OW37891   2.572   1.648   2.800  0.3307 -0.1817 -0.4367
 8752SOL    HW137892   2.551   1.716   2.737  2.5800  1.1822  0.3033
 8752SOL    HW237893   2.592   1.704   2.874  0.3760  0.8715 -1.2553
 8753SOL     OW37894   0.337   0.084   0.185 -0.0507  0.2977  0.0672
 8753SOL    HW137895   0.412   0.122   0.231  0.8951 -0.8112 -0.5718
 8753SOL    HW237896   0.383   0.014   0.139  0.7411 -1.6414  3.8182
 8754SOL     OW37897   4.637   3.249  17.204  0.0776  0.6518 -0.0071
 8754SOL    HW137898   4.702   3.213  17.143 -0.3202 -0.3668  0.1789
 8754SOL    HW237899   4.575   3.297  17.150  1.0828  1.9311 -0.0181
 8755SOL     OW37900   3.401   2.440   1.273 -0.3919  0.4551  0.0886
 8755SOL    HW137901   3.332   2.431   1.338  1.0665 -0.1435  1.5458
 8755SOL    HW237902   3.470   2.475   1.328 -2.5530  1.2199  2.2917
 8756SOL     OW37903   1.112   3.974   2.963  0.1832  0.2981 -0.1685
 8756SOL    HW137904   1.162   4.041   3.010 -0.6178  2.0685 -1.8267
 8756SOL    HW237905   1.135   4.004   2.875 -2.3808 -0.1050 -0.9490
 8757SOL     OW37906   2.664   3.501   4.074  0.0076 -0.0565 -0.0825
 8757SOL    HW137907   2.642   3.594   4.071  0.7542  0.1268  0.0266
 8757SOL    HW237908   2.650   3.480   3.982  2.8156  1.4732 -0.8631
 8758SOL     OW37909   4.111   3.837   7.183  0.4963  1.2586 -0.1197
 8758SOL    HW137910   4.145   3.890   7.256 -0.1012  0.1461  0.9786
 8758SOL    HW237911   4.141   3.747   7.201  2.2128  1.7950 -0.3080
 8759SOL     OW37912   2.436   4.180   4.051 -0.4410  0.1368 -0.0533
 8759SOL    HW137913   2.413   4.238   4.123  0.1781 -1.0722  1.1107
 8759SOL    HW237914   2.370   4.208   3.987 -1.0100 -0.1533  0.4049
 8760SOL     OW37915   0.612   3.342  13.482 -0.4020 -0.5021 -0.3298
 8760SOL    HW137916   0.663   3.420  13.504 -0.1672 -1.0451  1.0229
 8760SOL    HW237917   0.536   3.378  13.437 -0.4507  0.2138  0.3307
 8761SOL     OW37918   1.563   1.760   6.674 -0.6245 -0.0479 -0.5233
 8761SOL    HW137919   1.651   1.770   6.712 -1.1121 -0.8501  0.7850
 8761SOL    HW237920   1.589   1.737   6.584 -1.5969 -0.9991 -0.5501
 8762SOL     OW37921   1.576   2.588   7.198 -0.1444 -0.3577  0.1341
 8762SOL    HW137922   1.527   2.507   7.214 -2.6429  1.1686  0.2780
 8762SOL    HW237923   1.634   2.564   7.127  1.3540 -0.8225  1.5224
 8763SOL     OW37924   1.005   2.124   3.602  0.0370  0.3569 -0.1424
 8763SOL    HW137925   1.030   2.033   3.617 -0.5803  0.4492  1.5038
 8763SOL    HW237926   1.036   2.167   3.682  2.6372  0.5634 -1.2836
 8764SOL     OW37927   2.269   1.658   5.572  0.1991 -0.5317 -0.1209
 8764SOL    HW137928   2.358   1.673   5.605 -0.3385 -1.1936  1.6246
 8764SOL    HW237929   2.248   1.738   5.524 -2.4098 -0.1262  1.7053
 8765SOL     OW37930   1.172   1.179   9.645  0.0937 -0.6438  0.2010
 8765SOL    HW137931   1.077   1.193   9.643  0.2897  0.9146  1.3236
 8765SOL    HW237932   1.183   1.164   9.739 -3.8041  0.8973  0.8908
 8766SOL     OW37933   4.646   4.453   1.737 -0.4355  0.8762 -0.1007
 8766SOL    HW137934   4.709   4.380   1.738 -0.4074  0.9128  0.5296
 8766SOL    HW237935   4.622   4.448   1.829  2.7249 -0.9688  0.6619
 8767SOL     OW37936   3.634   3.642   7.322 -0.1120  0.4639  0.3342
 8767SOL    HW137937   3.625   3.563   7.268  1.2251 -0.8597  2.0363
 8767SOL    HW237938   3.705   3.681   7.271 -1.2434  1.0086 -0.7949
 8768SOL     OW37939   2.988   3.157  14.696 -0.1620  0.5436  0.2448
 8768SOL    HW137940   3.022   3.235  14.740 -1.4075  1.0263  0.3350
 8768SOL    HW237941   2.985   3.091  14.766  2.5736 -0.5785 -0.6994
 8769SOL     OW37942   3.517   0.631   2.303  0.4077 -0.2120  0.3014
 8769SOL    HW137943   3.446   0.574   2.272  1.3290 -0.1623 -1.8903
 8769SOL    HW237944   3.468   0.713   2.317  2.4344  1.1178 -0.4522
 8770SOL     OW37945   1.175   1.543   7.100  0.4940  0.0642 -0.0322
 8770SOL    HW137946   1.221   1.461   7.084  0.3471 -0.2668  1.2152
 8770SOL    HW237947   1.172   1.552   7.195  1.9172 -1.9304  0.1934
 8771SOL     OW37948   2.025   3.409   2.559 -0.2565 -0.2361 -0.4147
 8771SOL    HW137949   1.976   3.405   2.477 -0.4246  0.3881 -0.3476
 8771SOL    HW237950   1.979   3.336   2.601  2.7504 -1.2814  1.1027
 8772SOL     OW37951   2.342   0.999   5.204 -0.3176  0.1340 -0.3834
 8772SOL    HW137952   2.379   0.980   5.290 -0.7462  0.0013 -0.2296
 8772SOL    HW237953   2.330   1.094   5.211  2.2802  0.3797  0.7499
 8773SOL     OW37954   4.064   3.237   9.909 -0.2242 -0.3898 -1.1549
 8773SOL    HW137955   4.065   3.332   9.923 -2.2528 -0.1051 -2.9652
 8773SOL    HW237956   4.035   3.252   9.819  1.3840 -0.0836 -1.6175
 8774SOL     OW37957   1.321   1.195   2.786  0.0810  0.3039 -0.4767
 8774SOL    HW137958   1.368   1.277   2.799  0.0212  0.5374 -1.7077
 8774SOL    HW237959   1.249   1.196   2.849 -0.4422  2.6210 -1.1079
 8775SOL     OW37960   4.617   1.927   7.497  0.1096  0.4413 -0.2915
 8775SOL    HW137961   4.711   1.912   7.486  0.6352  2.9712  0.8671
 8775SOL    HW237962   4.614   1.944   7.591  2.4573  0.0936 -0.1572
 8776SOL     OW37963   3.867   0.324   7.552  0.0456 -0.4410  0.0047
 8776SOL    HW137964   3.812   0.307   7.475 -0.0742 -1.1174  0.2442
 8776SOL    HW237965   3.840   0.410   7.584 -0.5406 -0.2939 -0.8732
 8777SOL     OW37966   1.136   3.265   2.253 -0.0486 -0.1501  0.0984
 8777SOL    HW137967   1.160   3.357   2.257 -1.4795  0.2873 -1.7841
 8777SOL    HW237968   1.106   3.268   2.162 -2.2199  1.0490  0.8567
 8778SOL     OW37969   0.257   2.589   7.057  0.4220 -0.1215 -0.2404
 8778SOL    HW137970   0.221   2.611   6.971 -0.9868  0.1017  0.4063
 8778SOL    HW237971   0.335   2.643   7.061 -0.8552  1.8249 -1.8501
 8779SOL     OW37972   1.223   3.668   6.920 -0.0742  0.2351 -0.5945
 8779SOL    HW137973   1.210   3.734   6.987  1.4459 -0.2071  0.1393
 8779SOL    HW237974   1.134   3.652   6.887  0.7561 -1.3986 -2.0696
 8780SOL     OW37975   2.104   0.970   2.721  0.2266  0.1073  0.0269
 8780SOL    HW137976   2.120   0.982   2.815  0.3673  4.6706 -0.5559
 8780SOL    HW237977   2.048   0.893   2.733 -1.7287  1.3152 -1.2973
 8781SOL     OW37978   3.356   1.231   7.807  0.9807 -0.4148 -0.2952
 8781SOL    HW137979   3.316   1.179   7.737  0.4866  0.7263 -0.8610
 8781SOL    HW237980   3.390   1.165   7.867 -0.3386  0.8163  1.7969
 8782SOL     OW37981   3.466   4.520   4.607  0.1866 -0.0919 -0.0756
 8782SOL    HW137982   3.418   4.507   4.688  1.9687  0.0501  0.9962
 8782SOL    HW237983   3.512   4.436   4.611  0.2718 -0.0662 -0.5288
 8783SOL     OW37984   2.265   3.446   6.364 -0.7054 -0.1815 -0.5945
 8783SOL    HW137985   2.338   3.450   6.302 -0.6540 -1.6539 -0.6166
 8783SOL    HW237986   2.261   3.532   6.407 -0.9240 -1.0732  1.1425
 8784SOL     OW37987   3.350   4.108   7.693 -0.8186 -0.3768 -0.2394
 8784SOL    HW137988   3.310   4.185   7.734  1.1144 -0.1264  1.1475
 8784SOL    HW237989   3.271   4.054   7.689 -1.4848  0.6853 -1.6267
 8785SOL     OW37990   3.421   3.445   9.739 -0.0427 -0.2351 -0.0113
 8785SOL    HW137991   3.380   3.359   9.750 -0.4615  0.0955  1.0338
 8785SOL    HW237992   3.365   3.508   9.783  0.0305 -0.2857  0.1587
 8786SOL     OW37993   2.568   3.638   6.088  0.2820  0.3190  1.0978
 8786SOL    HW137994   2.596   3.574   6.023  0.1614  1.8714 -0.4727
 8786SOL    HW237995   2.626   3.714   6.078  0.0665  0.5398  1.5373
 8787SOL     OW37996   2.365   4.535   6.974 -0.7735  0.2637 -0.5385
 8787SOL    HW137997   2.286   4.531   6.920 -1.0223  0.3470 -0.1806
 8787SOL    HW237998   2.352   4.450   7.015  1.1162 -0.0337 -0.5297
 8788SOL     OW37999   3.563   2.918  10.724 -0.5796 -0.3881 -0.3231
 8788SOL    HW138000   3.643   2.928  10.673 -1.4758  1.2476 -1.4178
 8788SOL    HW238001   3.510   2.900  10.647  0.9956  4.2219 -2.4940
 8789SOL     OW38002   4.587   3.539   1.366  0.2637 -0.2201 -0.6150
 8789SOL    HW138003   4.546   3.483   1.432 -0.5846 -1.7626 -2.4522
 8789SOL    HW238004   4.522   3.600   1.331  0.0873  0.5295  1.0159
 8790SOL     OW38005   4.028   4.173  10.830 -0.4968 -0.2657 -0.7183
 8790SOL    HW138006   3.983   4.150  10.911  1.3750 -0.5312  0.2306
 8790SOL    HW238007   4.079   4.249  10.858  1.0610 -1.0917 -1.3068
 8791SOL     OW38008   2.372   2.802   8.777 -0.5055 -0.0510  0.4991
 8791SOL    HW138009   2.292   2.756   8.752 -1.1358  0.8851  0.7926
 8791SOL    HW238010   2.421   2.779   8.698  1.6055  1.0520  1.4649
 8792SOL     OW38011   3.748   4.681   1.635  0.1325  0.5210 -0.6813
 8792SOL    HW138012   3.764   4.662   1.727  1.6994 -1.0314 -1.2955
 8792SOL    HW238013   3.758   4.594   1.598  0.9779  0.9273 -1.3948
 8793SOL     OW38014   2.163   1.427   8.926 -0.0286  0.2172  0.2555
 8793SOL    HW138015   2.083   1.382   8.901 -0.0643 -0.7362  2.0624
 8793SOL    HW238016   2.122   1.511   8.949 -4.1995 -1.1571 -2.1019
 8794SOL     OW38017   0.225   3.864   4.464 -0.3545 -0.2003  0.0301
 8794SOL    HW138018   0.163   3.846   4.535  0.4122  0.8847  0.9683
 8794SOL    HW238019   0.237   3.781   4.418 -2.4920  1.1325 -2.9268
 8795SOL     OW38020   1.312   2.025   2.612  0.5443 -0.1221 -0.6402
 8795SOL    HW138021   1.245   2.074   2.563 -0.7640 -1.4716 -0.1990
 8795SOL    HW238022   1.279   1.998   2.698  1.1813 -0.4309 -0.4937
 8796SOL     OW38023   3.736   3.536   4.833 -0.1245  0.0590 -0.1819
 8796SOL    HW138024   3.688   3.610   4.870  0.2214  2.3865 -4.4066
 8796SOL    HW238025   3.800   3.586   4.783 -0.6402  1.4629  0.5622
 8797SOL     OW38026   2.190   3.512   5.061 -0.3570  0.1769  0.0248
 8797SOL    HW138027   2.277   3.489   5.091 -1.2586 -1.6747  1.2264
 8797SOL    HW238028   2.174   3.592   5.112 -1.7764  0.5540 -0.9886
 8798SOL     OW38029   2.467   1.351   0.844  0.2778  0.3536 -0.3018
 8798SOL    HW138030   2.506   1.333   0.759  1.0663 -0.3002  0.1991
 8798SOL    HW238031   2.409   1.276   0.856  0.2406  0.2356 -1.2051
 8799SOL     OW38032   2.559   0.858   4.106  0.1334  0.0597  0.3409
 8799SOL    HW138033   2.586   0.770   4.134  2.3315  0.4865 -0.4135
 8799SOL    HW238034   2.487   0.855   4.044 -1.2506  0.8467  1.9044
 8800SOL     OW38035   0.138   0.776  10.044  0.2931 -0.5697 -0.1660
 8800SOL    HW138036   0.161   0.751   9.954  2.6301  0.2640  0.1948
 8800SOL    HW238037   0.122   0.684  10.066  0.3320 -0.7589 -0.9068
 8801SOL     OW38038   0.695   4.576  12.100  0.0346 -0.1675  0.5166
 8801SOL    HW138039   0.662   4.491  12.068  1.4305 -0.9175  1.0732
 8801SOL    HW238040   0.681   4.624  12.018  1.3000  0.0586  0.4302
 8802SOL     OW38041   4.092   3.259   4.811 -0.1684  0.0111  0.1961
 8802SOL    HW138042   4.167   3.278   4.867  0.4883  3.8144 -2.0046
 8802SOL    HW238043   4.108   3.321   4.740  0.8378  2.1593  2.3029
 8803SOL     OW38044   1.213   0.929  12.200 -0.3389 -0.3927 -0.0708
 8803SOL    HW138045   1.264   1.010  12.202 -0.0890 -0.5525 -0.0142
 8803SOL    HW238046   1.141   0.970  12.152 -0.1332  0.9388  0.7478
 8804SOL     OW38047   3.703   0.763   6.879  0.0656  0.0948 -0.2211
 8804SOL    HW138048   3.609   0.777   6.891  0.5059  3.0480 -0.2324
 8804SOL    HW238049   3.723   0.709   6.956  0.0654 -0.1356 -0.3821
 8805SOL     OW38050   3.185   3.278   9.804 -0.1959  0.4475  0.6911
 8805SOL    HW138051   3.109   3.220   9.806 -0.6264  0.9086 -1.7176
 8805SOL    HW238052   3.169   3.328   9.724 -0.4349  0.2258  0.5992
 8806SOL     OW38053   4.657   0.380   4.956 -0.3380  0.2473  0.0264
 8806SOL    HW138054   4.660   0.397   4.862  0.1801 -0.0612 -0.0162
 8806SOL    HW238055   4.722   0.309   4.958  0.8942  1.3985  1.0816
 8807SOL     OW38056   0.509   3.164   5.411 -0.1901 -0.3915  0.1572
 8807SOL    HW138057   0.566   3.095   5.377  0.5477 -0.9589  2.5337
 8807SOL    HW238058   0.468   3.119   5.485 -0.3968  0.5914  0.6428
 8808SOL     OW38059   4.069   4.288   6.510  0.8237 -0.3920  0.0109
 8808SOL    HW138060   4.008   4.217   6.490 -1.4642  1.9706 -1.4609
 8808SOL    HW238061   4.077   4.331   6.425  0.2232 -0.7333 -0.2146
 8809SOL     OW38062   1.797   1.554   8.702 -0.4990  0.2773  0.2720
 8809SOL    HW138063   1.702   1.564   8.710 -0.4069  2.8134 -1.7539
 8809SOL    HW238064   1.806   1.530   8.610  1.0743  1.8240  0.0186
 8810SOL     OW38065   2.423   3.014   3.819 -0.2898 -0.3604 -0.2166
 8810SOL    HW138066   2.413   3.033   3.725 -0.1672  0.3657 -0.0870
 8810SOL    HW238067   2.363   2.942   3.839 -0.2948 -0.2476  0.1756
 8811SOL     OW38068   2.378   2.787  12.789  0.0344  0.0074  0.5279
 8811SOL    HW138069   2.364   2.879  12.770  1.5734 -0.0183 -0.7411
 8811SOL    HW238070   2.286   2.758  12.784  0.3096 -1.1386  2.3226
 8812SOL     OW38071   4.085   4.232   5.906  0.8118  0.3534 -0.2596
 8812SOL    HW138072   4.175   4.258   5.925  0.6883  1.9883 -1.8271
 8812SOL    HW238073   4.042   4.316   5.923 -0.2829  0.3376 -2.9481
 8813SOL     OW38074   1.963   3.072   7.743  0.6688  0.0708 -0.2061
 8813SOL    HW138075   2.047   3.026   7.740  1.1750  0.8462  2.5037
 8813SOL    HW238076   1.953   3.073   7.648 -0.6446  1.5706 -0.0575
 8814SOL     OW38077   3.623   1.267   2.660  0.1537  0.4488 -0.5307
 8814SOL    HW138078   3.561   1.246   2.589 -0.9632 -2.7643  1.3918
 8814SOL    HW238079   3.621   1.183   2.705  2.9780  0.4381 -0.4417
 8815SOL     OW38080   3.745   2.014   8.367 -0.5366 -0.4963  0.3152
 8815SOL    HW138081   3.781   1.938   8.321  0.8862 -0.4961  1.4366
 8815SOL    HW238082   3.789   2.026   8.451  0.2899  0.5663 -0.2768
 8816SOL     OW38083   4.281   4.505   5.008 -0.0348  0.2361 -0.5449
 8816SOL    HW138084   4.376   4.503   5.002  0.0917 -1.5325  2.0445
 8816SOL    HW238085   4.268   4.596   5.036  1.2043  0.1161  0.4223
 8817SOL     OW38086   0.678   0.732   0.289  0.4844  0.8557  0.2673
 8817SOL    HW138087   0.762   0.719   0.333 -1.7506 -0.4361  4.1576
 8817SOL    HW238088   0.668   0.827   0.291 -2.0322  0.5556  1.7345
 8818SOL     OW38089   4.166   3.083   2.325  0.2801  0.2891  1.1196
 8818SOL    HW138090   4.090   3.140   2.312 -1.1623 -1.9216 -0.2632
 8818SOL    HW238091   4.181   3.090   2.419  2.3824  2.4005  0.6271
 8819SOL     OW38092   2.677   4.175   3.490  0.3074 -0.5073 -0.1168
 8819SOL    HW138093   2.605   4.191   3.430 -0.0507 -1.3765  0.0878
 8819SOL    HW238094   2.629   4.138   3.564 -0.1541 -0.5006 -0.4161
 8820SOL     OW38095   2.538   2.817   7.375 -0.6811 -0.0516  0.2688
 8820SOL    HW138096   2.585   2.742   7.340 -0.2634  1.1180 -1.6833
 8820SOL    HW238097   2.615   2.870   7.398  0.5755 -1.9048  0.3384
 8821SOL     OW38098   1.285   2.927   6.309 -0.5472  0.4722  0.1126
 8821SOL    HW138099   1.256   2.891   6.225 -0.3979 -2.3820  1.2727
 8821SOL    HW238100   1.312   3.013   6.278 -0.6518  0.6358  0.4829
 8822SOL     OW38101   4.059   3.538   3.580  0.4264 -0.0397 -0.0632
 8822SOL    HW138102   4.082   3.567   3.492  3.3215  0.6680  0.9261
 8822SOL    HW238103   3.967   3.561   3.571 -0.3792 -3.1386  0.1025
 8823SOL     OW38104   4.120   3.669   0.153  0.6180  0.1814  0.2833
 8823SOL    HW138105   4.094   3.732   0.221  0.9334  0.5867  0.0316
 8823SOL    HW238106   4.131   3.722   0.074 -0.1884 -3.3900 -2.2162
 8824SOL     OW38107   4.688   2.410   0.117 -0.0664 -0.4406 -0.0845
 8824SOL    HW138108   4.705   2.390   0.208  0.1507 -0.6094 -0.1629
 8824SOL    HW238109   0.027   2.368   0.073  1.1706  0.7109  0.8907
 8825SOL     OW38110   3.496   2.077   4.658 -0.0650 -0.0222  0.5051
 8825SOL    HW138111   3.418   2.076   4.713  1.2170  0.3294  2.3336
 8825SOL    HW238112   3.570   2.096   4.715  0.7955 -1.2193 -0.2037
 8826SOL     OW38113   1.886   0.809  10.255  0.1709 -0.1240  0.3130
 8826SOL    HW138114   1.896   0.740  10.320 -0.6361  0.0487  0.6139
 8826SOL    HW238115   1.962   0.863  10.279 -0.6121  0.8821  0.5333
 8827SOL     OW38116   3.338   1.813   7.745  0.2118  0.1682 -0.5495
 8827SOL    HW138117   3.431   1.818   7.764  0.1292 -2.8287  0.7427
 8827SOL    HW238118   3.309   1.902   7.726 -0.2948 -0.0022 -0.5848
 8828SOL     OW38119   1.789   1.599  16.129  0.1821  0.2699  0.2404
 8828SOL    HW138120   1.826   1.669  16.182  2.9122  2.0783 -4.0765
 8828SOL    HW238121   1.798   1.636  16.041 -0.0345 -0.4170 -0.0775
 8829SOL     OW38122   2.255   1.611   6.083 -0.2199 -0.0224  0.4503
 8829SOL    HW138123   2.278   1.564   6.003  0.2528  0.6526  0.1926
 8829SOL    HW238124   2.230   1.693   6.041 -0.5136  0.5033  1.6592
 8830SOL     OW38125   4.373   0.294   3.577  0.1104  0.1297  0.1648
 8830SOL    HW138126   4.292   0.337   3.548 -0.2385 -0.2729  0.5402
 8830SOL    HW238127   4.411   0.379   3.597  0.6787 -0.2240  0.5772
 8831SOL     OW38128   0.653   4.314  14.923 -0.7647 -0.1018 -0.2349
 8831SOL    HW138129   0.664   4.366  15.002  1.0803  1.8025 -1.7461
 8831SOL    HW238130   0.560   4.326  14.903 -0.3886  2.3761 -0.5074
 8832SOL     OW38131   2.486   2.257   8.052  0.1702 -0.3749 -0.3478
 8832SOL    HW138132   2.436   2.301   7.983 -0.0602  1.9871  1.3020
 8832SOL    HW238133   2.477   2.322   8.122 -2.8444  0.0112 -1.0806
 8833SOL     OW38134   3.135   4.587   0.617 -0.1765  0.2627 -0.2734
 8833SOL    HW138135   3.136   4.571   0.522  1.9809  1.8244 -0.5367
 8833SOL    HW238136   3.103   4.677   0.610 -2.0154 -0.2758  1.3122
 8834SOL     OW38137   2.349   3.533   4.100 -0.2089  0.4365 -0.3595
 8834SOL    HW138138   2.299   3.464   4.057  0.7729 -0.3394 -0.2730
 8834SOL    HW238139   2.332   3.599   4.034 -1.6704 -0.2964 -0.6979
 8835SOL     OW38140   2.353   3.248  12.798 -0.4952 -0.6606  0.3645
 8835SOL    HW138141   2.350   3.338  12.830  1.3150 -0.7145  0.6963
 8835SOL    HW238142   2.429   3.215  12.846  0.7460  0.7302 -0.6191
 8836SOL     OW38143   0.394   1.517   9.587 -0.1093  0.0546  0.2306
 8836SOL    HW138144   0.373   1.463   9.511 -2.2643 -1.1466  1.6531
 8836SOL    HW238145   0.325   1.583   9.584  0.5145  0.6507 -0.8190
 8837SOL     OW38146   2.020   0.720  17.481  0.7608  0.0318 -0.3761
 8837SOL    HW138147   1.973   0.790  17.525  2.4048  1.0171 -0.1926
 8837SOL    HW238148   2.091   0.771  17.442 -0.7410  2.2313 -0.1888
 8838SOL     OW38149   2.660   0.387   3.543  0.5074  0.0268 -0.0719
 8838SOL    HW138150   2.576   0.430   3.561  0.8604  0.6134  0.1979
 8838SOL    HW238151   2.723   0.439   3.594  1.6882  0.3037 -1.8354
 8839SOL     OW38152   3.602   1.587   8.086  0.0222 -0.2871  0.3190
 8839SOL    HW138153   3.524   1.565   8.034 -0.8788 -0.1839  1.6292
 8839SOL    HW238154   3.567   1.610   8.172  1.3047  1.9351  0.2261
 8840SOL     OW38155   4.325   3.411   3.294 -0.6065  0.0287 -0.7551
 8840SOL    HW138156   4.230   3.410   3.279 -0.9252  0.4536  1.2929
 8840SOL    HW238157   4.349   3.444   3.207 -1.3389  0.8420 -0.6453
 8841SOL     OW38158   1.141   2.546  14.138  0.4007 -0.3986 -0.6837
 8841SOL    HW138159   1.151   2.608  14.210  0.6571 -1.9119  0.5699
 8841SOL    HW238160   1.047   2.538  14.121  0.1513 -1.3905  1.1148
 8842SOL     OW38161   0.312   1.798  16.669  0.5606  0.2472  0.0443
 8842SOL    HW138162   0.327   1.705  16.650 -1.3172 -0.2412  1.0297
 8842SOL    HW238163   0.405   1.818  16.684  0.6006 -0.9573  1.3988
 8843SOL     OW38164   3.252   1.189   4.956 -0.3357  0.1945  0.0306
 8843SOL    HW138165   3.277   1.097   4.944 -1.5119 -0.5499  3.4689
 8843SOL    HW238166   3.324   1.236   4.913  0.1088  1.0110  1.6558
 8844SOL     OW38167   1.839   4.567   9.697  0.0342  0.0625 -0.5820
 8844SOL    HW138168   1.914   4.521   9.733 -2.0565 -3.1330 -0.3579
 8844SOL    HW238169   1.877   4.610   9.620 -0.0650  0.0437 -0.6423
 8845SOL     OW38170   0.505   3.774   1.989  0.1078  0.1080  0.3797
 8845SOL    HW138171   0.491   3.681   2.007 -0.5861 -0.0505 -1.0115
 8845SOL    HW238172   0.499   3.812   2.077  2.0822  0.5120  0.3291
 8846SOL     OW38173   4.720   2.950   7.160 -0.0405  0.2607  0.1688
 8846SOL    HW138174   4.686   2.862   7.179 -2.0114  0.2926 -3.2309
 8846SOL    HW238175   4.639   3.000   7.170 -1.3572 -1.7336 -0.4333
 8847SOL     OW38176   4.365   4.715   1.455 -0.2660  0.1141  0.1593
 8847SOL    HW138177   4.373   4.680   1.544 -1.0554  1.9802  0.9541
 8847SOL    HW238178   4.275   0.009   1.445 -0.2527  0.1734  0.2083
 8848SOL     OW38179   2.617   4.661   3.794 -0.5785  0.3959 -0.2885
 8848SOL    HW138180   2.633   4.722   3.722 -2.0056 -0.2157 -1.1284
 8848SOL    HW238181   2.525   4.684   3.802 -0.3503  0.9534  0.7183
 8849SOL     OW38182   0.746   4.047  16.503 -0.0998  0.0059  0.8746
 8849SOL    HW138183   0.785   4.052  16.416  1.3766  2.3193  1.6724
 8849SOL    HW238184   0.808   3.984  16.538  0.6139  0.0371 -0.3381
 8850SOL     OW38185   2.665   0.602   8.014 -0.5529  0.0069  0.0558
 8850SOL    HW138186   2.684   0.607   8.108 -0.0036 -1.9184  0.0334
 8850SOL    HW238187   2.725   0.668   7.979 -0.6005  0.3004  0.5336
 8851SOL     OW38188   4.321   0.277   4.713  0.3771  0.4549 -0.1228
 8851SOL    HW138189   4.302   0.346   4.777 -2.3637 -0.9116  0.5493
 8851SOL    HW238190   4.291   0.319   4.632  0.1126  0.6406  0.0700
 8852SOL     OW38191   2.475   3.348  12.423  0.1977  0.3121  0.2165
 8852SOL    HW138192   2.386   3.383  12.436  0.4668  0.5700  1.3601
 8852SOL    HW238193   2.527   3.424  12.450  0.9927 -0.0653 -0.2524
 8853SOL     OW38194   3.586   2.934   0.198  0.3453  0.1038  0.6431
 8853SOL    HW138195   3.530   2.890   0.263  0.8058  0.0241  0.9837
 8853SOL    HW238196   3.586   2.868   0.130 -0.1953  0.9847 -0.2205
 8854SOL     OW38197   3.363   1.216   2.876  0.6363 -0.1567 -0.0140
 8854SOL    HW138198   3.428   1.172   2.931  1.7036 -1.8160 -2.6108
 8854SOL    HW238199   3.293   1.153   2.861  1.3222 -0.6174 -1.2743
 8855SOL     OW38200   4.336   2.009   3.956  0.1263 -0.3099  0.2529
 8855SOL    HW138201   4.358   1.999   3.863  1.1015 -0.6152  0.5174
 8855SOL    HW238202   4.343   2.104   3.968 -0.5879  0.0330 -2.0636
 8856SOL     OW38203   2.390   0.307   4.178  0.0865  0.0935  0.2740
 8856SOL    HW138204   2.360   0.363   4.250  0.9764  1.9419 -0.7846
 8856SOL    HW238205   2.331   0.233   4.191 -0.3716  0.0097 -2.4355
 8857SOL     OW38206   3.380   2.512   3.264  0.2696  0.0695 -0.0949
 8857SOL    HW138207   3.470   2.524   3.292 -0.1031  2.4271  0.0804
 8857SOL    HW238208   3.350   2.597   3.233 -1.2472 -0.9793 -1.5390
 8858SOL     OW38209   2.938   4.064  15.770  0.0915 -0.2449  0.6273
 8858SOL    HW138210   2.918   4.065  15.677 -1.8922  1.2860  1.0751
 8858SOL    HW238211   2.888   3.994  15.810  0.3642 -0.4577  0.5964
 8859SOL     OW38212   4.084   4.168  11.620  0.0008 -0.0529  0.8711
 8859SOL    HW138213   4.104   4.093  11.564  1.6835  0.4112  0.8534
 8859SOL    HW238214   4.038   4.130  11.695  0.3263  0.5672  1.3855
 8860SOL     OW38215   2.952   1.240   1.782 -0.1078 -0.1458  0.0506
 8860SOL    HW138216   2.872   1.260   1.831 -0.3536  1.9861 -1.2115
 8860SOL    HW238217   2.955   1.318   1.727  3.1129  1.0935  1.9711
 8861SOL     OW38218   2.829   2.287   1.693  0.1274 -0.0093  0.2375
 8861SOL    HW138219   2.906   2.277   1.637 -0.5998  0.9759 -0.9137
 8861SOL    HW238220   2.866   2.324   1.773  0.4370  0.5683 -0.1742
 8862SOL     OW38221   2.441   3.319   6.131 -0.1175  0.2853  0.2999
 8862SOL    HW138222   2.479   3.378   6.197  0.9514  0.9820 -0.9320
 8862SOL    HW238223   2.518   3.299   6.078 -0.5330  0.0668 -0.2098
 8863SOL     OW38224   1.412   3.443  13.153 -0.7089  0.6834 -0.0446
 8863SOL    HW138225   1.350   3.476  13.088 -0.1079  0.1446 -0.8866
 8863SOL    HW238226   1.358   3.369  13.181 -0.1548  0.2342 -0.1750
 8864SOL     OW38227   3.460   3.152   8.863 -0.0644 -0.7273 -0.3497
 8864SOL    HW138228   3.507   3.152   8.780  2.0850  0.0966  0.8889
 8864SOL    HW238229   3.417   3.066   8.853  0.4814 -1.0305 -0.0861
 8865SOL     OW38230   0.056   3.764   5.647  0.0911 -0.0845  0.1166
 8865SOL    HW138231   0.012   3.741   5.729  1.3114  1.3939  1.1893
 8865SOL    HW238232   0.114   3.690   5.631 -0.6002 -0.4500 -0.7134
 8866SOL     OW38233   4.720   1.370   4.784 -0.2874 -0.0018 -0.3163
 8866SOL    HW138234   0.063   1.377   4.839 -0.2069  1.8027 -0.6713
 8866SOL    HW238235   4.670   1.448   4.808  0.2906  1.1233 -2.8395
 8867SOL     OW38236   3.781   0.711   1.670 -0.4204 -0.3991 -0.2180
 8867SOL    HW138237   3.728   0.659   1.731  0.6506 -1.5691 -0.2802
 8867SOL    HW238238   3.728   0.791   1.668  2.2001  1.2883 -1.7092
 8868SOL     OW38239   0.435   3.945   3.065 -0.1439 -0.3217 -0.5929
 8868SOL    HW138240   0.391   3.936   3.150 -0.5208  3.8926 -0.3001
 8868SOL    HW238241   0.371   3.912   3.003 -1.2521  0.1472  0.3130
 8869SOL     OW38242   3.467   3.786  16.521  0.0192  0.8055 -0.1897
 8869SOL    HW138243   3.485   3.858  16.461 -2.1074  0.8431 -0.7781
 8869SOL    HW238244   3.441   3.841  16.595 -0.6491 -2.2827  1.8751
 8870SOL     OW38245   2.493   0.412   7.598  0.4631 -0.0737  0.0321
 8870SOL    HW138246   2.421   0.457   7.642 -2.3369 -2.0406 -2.4939
 8870SOL    HW238247   2.537   0.493   7.572  1.8510 -1.0003 -0.4606
 8871SOL     OW38248   3.219   0.275  13.674  0.3470  0.4980  0.0089
 8871SOL    HW138249   3.283   0.330  13.719  0.0619  0.5386  0.3715
 8871SOL    HW238250   3.233   0.194  13.724  3.0422  0.8275 -0.1954
 8872SOL     OW38251   0.872   2.282   2.756 -0.3016  0.0108 -0.8970
 8872SOL    HW138252   0.890   2.290   2.662 -0.4624  2.2961 -0.7403
 8872SOL    HW238253   0.776   2.288   2.757 -0.3048 -0.0490 -0.8852
 8873SOL     OW38254   3.331   2.855   7.753  0.1024 -0.4724 -0.0082
 8873SOL    HW138255   3.316   2.799   7.829  0.7448 -0.5638  0.0519
 8873SOL    HW238256   3.244   2.891   7.738  1.7628  3.4023 -0.1510
 8874SOL     OW38257   0.870   3.263   8.199  0.3830  0.1904  0.0693
 8874SOL    HW138258   0.806   3.334   8.188 -0.2813 -0.5294 -0.6222
 8874SOL    HW238259   0.878   3.265   8.294 -0.2972  0.2290  0.1282
 8875SOL     OW38260   3.626   0.445   6.749  0.3406  0.5343 -0.3290
 8875SOL    HW138261   3.593   0.359   6.723  0.1221  0.8980 -1.2253
 8875SOL    HW238262   3.668   0.424   6.833  1.0326  0.6766 -0.6472
 8876SOL     OW38263   2.094   2.550   7.748 -0.1086 -0.3777  0.7001
 8876SOL    HW138264   2.039   2.545   7.826 -1.3974 -2.3654 -0.3217
 8876SOL    HW238265   2.041   2.609   7.694  0.2962 -1.3064 -0.7421
 8877SOL     OW38266   1.885   0.212   3.252  0.1334  0.5612  0.0944
 8877SOL    HW138267   1.804   0.161   3.251  0.2404  0.4139 -0.5283
 8877SOL    HW238268   1.862   0.285   3.195  0.3326  0.6854  0.1716
 8878SOL     OW38269   0.945   1.118  14.246 -0.0022  0.1227  0.2226
 8878SOL    HW138270   1.020   1.175  14.230 -0.1027  0.1060 -0.2908
 8878SOL    HW238271   0.873   1.169  14.284  0.2214  2.1716 -2.1308
 8879SOL     OW38272   0.249   2.632   7.637  0.4929 -0.4406 -0.0177
 8879SOL    HW138273   0.178   2.687   7.604  0.5841  1.0334  2.1678
 8879SOL    HW238274   0.333   2.675   7.619 -0.8573  1.4139 -1.9493
 8880SOL     OW38275   4.096   1.285   6.503  0.2231 -0.4315 -0.2576
 8880SOL    HW138276   4.086   1.355   6.438 -1.4038 -2.4151 -2.1333
 8880SOL    HW238277   4.187   1.256   6.492  0.4814  0.0603  0.6057
 8881SOL     OW38278   3.103   2.558   4.677  0.1274 -0.0541  0.2985
 8881SOL    HW138279   3.119   2.651   4.666  1.1345 -0.2210  0.4339
 8881SOL    HW238280   3.192   2.531   4.697  0.1712 -0.5303 -0.5285
 8882SOL     OW38281   2.147   0.583   0.329  0.6110 -0.2742  0.4491
 8882SOL    HW138282   2.128   0.500   0.373  0.6671 -1.0000 -0.9196
 8882SOL    HW238283   2.198   0.627   0.397 -0.1377  0.8372  0.3034
 8883SOL     OW38284   3.316   4.531   8.747 -0.9704  0.4562  0.1259
 8883SOL    HW138285   3.360   4.447   8.730  0.4665  1.2404 -0.0144
 8883SOL    HW238286   3.248   4.506   8.809 -0.7939 -0.2723  0.0265
 8884SOL     OW38287   2.106   1.083  15.564  0.1365  0.1478 -0.0315
 8884SOL    HW138288   2.166   1.145  15.522  0.1329 -0.6632 -1.2440
 8884SOL    HW238289   2.167   1.032  15.618  0.1854  1.3983  1.1040
 8885SOL     OW38290   3.670   0.954   5.809  0.1166  0.0022 -0.2759
 8885SOL    HW138291   3.684   0.961   5.903 -0.2933  0.2378 -0.2320
 8885SOL    HW238292   3.583   0.915   5.808  0.4625 -0.7618 -0.8428
 8886SOL     OW38293   2.930   1.123  16.227 -0.7639 -0.7662 -0.3735
 8886SOL    HW138294   3.001   1.059  16.233 -2.4837 -2.8848 -2.2258
 8886SOL    HW238295   2.894   1.112  16.139  1.8904  1.4813 -1.7128
 8887SOL     OW38296   3.645   0.412   5.064  0.0327 -0.1989 -0.0486
 8887SOL    HW138297   3.555   0.431   5.092  1.2705  0.8191  3.1958
 8887SOL    HW238298   3.653   0.320   5.089 -0.2164  0.3710  2.0751
 8888SOL     OW38299   3.846   2.298   5.623  0.1307 -0.1686 -0.2947
 8888SOL    HW138300   3.858   2.212   5.582  3.5884 -0.0814  0.5782
 8888SOL    HW238301   3.822   2.267   5.710  0.4239  1.3731  0.3232
 8889SOL     OW38302   3.062   1.576  15.200  0.9375  0.1312 -0.0851
 8889SOL    HW138303   3.102   1.630  15.268 -1.8991  1.1656  0.7892
 8889SOL    HW238304   3.142   1.548  15.156  0.5506  1.7318 -1.7813
 8890SOL     OW38305   0.470   0.543   6.063 -0.1401 -0.5426  0.2510
 8890SOL    HW138306   0.386   0.550   6.017 -1.1215 -0.9530  1.9974
 8890SOL    HW238307   0.449   0.462   6.109  1.6827 -0.7212  0.7672
 8891SOL     OW38308   0.821   4.599   5.243  0.2682 -0.0571  0.4339
 8891SOL    HW138309   0.764   4.672   5.221 -0.7040 -0.4062  1.8467
 8891SOL    HW238310   0.765   4.522   5.248 -0.1982  0.2897  0.4637
 8892SOL     OW38311   0.740   4.485   3.394 -0.0471 -0.2798 -0.1811
 8892SOL    HW138312   0.824   4.443   3.412  0.7189  0.2785 -2.5342
 8892SOL    HW238313   0.772   4.565   3.353 -0.9171  1.0871  1.7827
 8893SOL     OW38314   2.529   1.133   3.747 -0.7131  0.2544 -0.0364
 8893SOL    HW138315   2.549   1.061   3.688 -0.0532 -0.4569  1.0560
 8893SOL    HW238316   2.607   1.189   3.739  0.0069 -0.7844 -0.3000
 8894SOL     OW38317   4.083   0.355   6.423  0.5765  0.2202  0.0124
 8894SOL    HW138318   4.140   0.312   6.358  1.4556  0.3463  0.6974
 8894SOL    HW238319   4.001   0.311   6.401 -0.1551  0.0522  3.1691
 8895SOL     OW38320   4.042   1.019   6.512  0.0176 -0.3659 -0.4902
 8895SOL    HW138321   4.117   0.979   6.557  1.0805  1.4434 -0.6687
 8895SOL    HW238322   4.056   1.113   6.524  0.5908 -0.3307 -1.4546
 8896SOL     OW38323   3.371   2.997   6.143 -0.6807  0.4335  0.8796
 8896SOL    HW138324   3.374   2.913   6.188  2.4531 -1.0227 -2.0658
 8896SOL    HW238325   3.285   3.026   6.175 -0.1690  0.4848  2.2294
 8897SOL     OW38326   0.659   1.556  15.416 -0.9269 -0.2010 -0.4301
 8897SOL    HW138327   0.689   1.551  15.506  0.0762  0.4036 -0.7258
 8897SOL    HW238328   0.564   1.569  15.414 -1.0543 -1.3973 -2.9735
 8898SOL     OW38329   1.334   0.500   7.059 -0.4067  0.6456  0.4529
 8898SOL    HW138330   1.408   0.540   7.012 -0.2078  0.0351  0.2506
 8898SOL    HW238331   1.360   0.410   7.041  4.4401  2.1540 -0.2687
 8899SOL     OW38332   4.105   1.233   3.685  0.4614  0.3835  0.0224
 8899SOL    HW138333   4.139   1.152   3.723  0.2069 -0.3625 -1.3098
 8899SOL    HW238334   4.091   1.214   3.592 -0.7582  0.4389  0.2047
 8900SOL     OW38335   3.854   2.778  13.010  0.1831 -0.0917  0.4697
 8900SOL    HW138336   3.875   2.845  13.075 -0.8277 -0.5722  1.3107
 8900SOL    HW238337   3.805   2.719  13.068  0.3559 -1.6896 -1.0166
 8901SOL     OW38338   0.786   3.784  11.926 -0.2814  0.2684 -0.1544
 8901SOL    HW138339   0.862   3.780  11.985  1.1063  0.9668 -1.9050
 8901SOL    HW238340   0.718   3.753  11.986  1.2043  0.3597  1.6002
 8902SOL     OW38341   1.605   0.333   3.286 -0.5423  0.1162 -0.2726
 8902SOL    HW138342   1.576   0.386   3.361 -0.1369  0.6769 -0.5139
 8902SOL    HW238343   1.645   0.397   3.228  0.0666 -0.6776 -0.7220
 8903SOL     OW38344   3.934   2.649   5.343 -0.2282 -0.7133  0.4629
 8903SOL    HW138345   3.886   2.686   5.417 -3.1713  2.5414 -3.1226
 8903SOL    HW238346   3.989   2.589   5.394 -1.2701 -2.0603  0.0069
 8904SOL     OW38347   1.653   4.299   1.210  0.2401 -0.0187  0.0268
 8904SOL    HW138348   1.720   4.366   1.227 -0.1774  0.4450 -0.1505
 8904SOL    HW238349   1.649   4.302   1.115 -3.8116  1.4915  0.2616
 8905SOL     OW38350   1.486   0.788   8.541 -0.8194 -0.8907 -0.4373
 8905SOL    HW138351   1.562   0.829   8.500 -2.4140  0.5110 -2.0029
 8905SOL    HW238352   1.415   0.812   8.480 -2.5376  0.8235  2.2438
 8906SOL     OW38353   3.421   0.088   3.083 -0.6249 -0.1546 -0.7195
 8906SOL    HW138354   3.471   0.029   3.139 -1.9868  0.2278  0.8936
 8906SOL    HW238355   3.338   0.084   3.132 -1.2350 -1.4682 -1.8459
 8907SOL     OW38356   4.503   1.514   2.301 -0.3481 -0.3448  0.0265
 8907SOL    HW138357   4.421   1.465   2.315  0.0839 -1.0050  0.2568
 8907SOL    HW238358   4.481   1.588   2.357  1.3675 -0.4762  0.8636
 8908SOL     OW38359   0.338   1.466   2.941 -0.0385 -0.0973 -0.0802
 8908SOL    HW138360   0.350   1.477   2.846 -2.1887 -1.8059 -0.5421
 8908SOL    HW238361   0.379   1.547   2.973 -0.6038  0.4841 -0.8271
 8909SOL     OW38362   2.482   3.063   7.789  0.3485 -0.1236  0.5232
 8909SOL    HW138363   2.518   3.058   7.877  3.0240 -0.5737 -0.6169
 8909SOL    HW238364   2.514   2.981   7.750  0.1881 -1.0915  2.4308
 8910SOL     OW38365   0.567   3.566   3.930 -0.1851 -0.2299  0.2098
 8910SOL    HW138366   0.500   3.579   3.997 -0.3000 -1.4411  0.3322
 8910SOL    HW238367   0.516   3.580   3.850  0.1854 -2.1457 -0.3575
 8911SOL     OW38368   1.002   0.354   8.301 -0.4972 -0.0970  0.4713
 8911SOL    HW138369   0.995   0.298   8.223  0.3274 -1.2714  1.2257
 8911SOL    HW238370   0.912   0.383   8.315 -0.1052  1.3005  0.0580
 8912SOL     OW38371   2.959   0.118   8.720  0.0976  0.2441  0.1584
 8912SOL    HW138372   2.985   0.202   8.758 -0.9389  0.6908 -0.1259
 8912SOL    HW238373   2.934   0.146   8.632  1.4399 -0.7347 -0.5284
 8913SOL     OW38374   1.131   4.490   2.390 -0.0187 -0.1458  0.1543
 8913SOL    HW138375   1.132   4.512   2.296  0.4224  2.7899  0.8604
 8913SOL    HW238376   1.205   4.430   2.398  0.2721  0.4099  1.5355
 8914SOL     OW38377   0.375   2.240   8.086 -0.1089 -0.3232 -0.0818
 8914SOL    HW138378   0.307   2.234   8.020  0.5967  1.1767 -0.9415
 8914SOL    HW238379   0.336   2.205   8.166 -1.1181 -1.7143 -1.2001
 8915SOL     OW38380   3.288   2.828   3.481 -0.5255 -0.0625  0.9567
 8915SOL    HW138381   3.319   2.907   3.436 -1.6244 -0.3496 -0.3077
 8915SOL    HW238382   3.210   2.867   3.519  0.6063  2.7424  0.4389
 8916SOL     OW38383   4.292   0.648  13.203  0.0186  0.2190  0.0702
 8916SOL    HW138384   4.256   0.592  13.272 -1.7212 -0.7562 -1.6348
 8916SOL    HW238385   4.382   0.652  13.234  0.4346  1.3209 -1.2599
 8917SOL     OW38386   3.957   2.219   7.187  0.0160 -0.2729 -0.3830
 8917SOL    HW138387   3.951   2.124   7.178  0.9728 -0.5238  1.7829
 8917SOL    HW238388   4.032   2.236   7.131  0.3956 -1.0865 -0.1259
 8918SOL     OW38389   2.675   2.524   1.637  0.7577  0.4783 -0.0974
 8918SOL    HW138390   2.689   2.430   1.647 -0.1803  0.2915 -0.5463
 8918SOL    HW238391   2.654   2.526   1.544 -1.3404  0.0710  0.3631
 8919SOL     OW38392   1.091   3.201   5.808 -0.5840 -0.6367  0.1296
 8919SOL    HW138393   1.162   3.266   5.800  0.4308 -1.7326  0.2839
 8919SOL    HW238394   1.017   3.257   5.785  0.3331  0.4746 -0.1242
 8920SOL     OW38395   0.320   3.506   5.142  0.1911 -0.1126  0.0104
 8920SOL    HW138396   0.362   3.423   5.161 -1.3053 -0.2065  2.8998
 8920SOL    HW238397   0.344   3.507   5.049  2.0119 -0.1813  0.4916
 8921SOL     OW38398   2.883   2.632   3.900  0.4327 -0.3352 -0.7229
 8921SOL    HW138399   2.957   2.640   3.960 -2.0619  2.0184  2.0721
 8921SOL    HW238400   2.925   2.589   3.826  1.1082  3.9695 -2.8081
 8922SOL     OW38401   0.283   2.868  16.349  0.2943 -0.0229 -0.0271
 8922SOL    HW138402   0.308   2.869  16.257  1.6793 -0.4396  0.3539
 8922SOL    HW238403   0.344   2.799  16.372 -0.0433 -0.7847 -1.3895
 8923SOL     OW38404   0.197   1.889   8.923  0.2816  0.6115  0.0619
 8923SOL    HW138405   0.190   1.984   8.925 -0.2066  0.6088 -1.2832
 8923SOL    HW238406   0.286   1.879   8.890  1.0827  1.6802  1.8764
 8924SOL     OW38407   3.180   4.277   2.797  0.1231  0.1868 -0.0014
 8924SOL    HW138408   3.089   4.298   2.778 -1.1780 -4.4281  1.2824
 8924SOL    HW238409   3.184   4.182   2.794  1.3844  0.2019  0.7311
 8925SOL     OW38410   2.244   4.347   6.140  0.2950 -0.0961 -0.1361
 8925SOL    HW138411   2.228   4.438   6.167  1.7159  0.5228 -1.4458
 8925SOL    HW238412   2.167   4.329   6.086  0.5414 -1.3710 -0.0528
 8926SOL     OW38413   3.899   2.817   8.852 -0.2599 -0.2485  0.2106
 8926SOL    HW138414   3.894   2.731   8.895 -0.6878 -1.2445 -1.8094
 8926SOL    HW238415   3.897   2.880   8.923 -2.9481  1.4914 -1.3986
 8927SOL     OW38416   1.359   0.707  14.126  0.3702 -0.2549  0.5440
 8927SOL    HW138417   1.373   0.612  14.127  1.0585 -0.1426  1.8805
 8927SOL    HW238418   1.391   0.723  14.037 -0.0228 -0.9953  0.2625
 8928SOL     OW38419   3.927   1.075  12.589 -0.1936 -0.2003  0.3262
 8928SOL    HW138420   3.856   1.121  12.545  0.2713 -0.4903 -0.7361
 8928SOL    HW238421   3.877   1.027  12.655 -0.7832  0.0138  0.0309
 8929SOL     OW38422   3.773   3.247   5.521  0.1402 -0.2375 -0.0332
 8929SOL    HW138423   3.782   3.168   5.468  0.3964 -0.2059 -0.0361
 8929SOL    HW238424   3.702   3.288   5.472  1.0517  3.1589  1.4822
 8930SOL     OW38425   0.039   2.885   6.160 -0.1599 -0.0435  0.3273
 8930SOL    HW138426   0.116   2.927   6.199  1.7533 -1.0594 -2.3409
 8930SOL    HW238427   0.017   2.816   6.223  1.3677  0.4956  1.4600
 8931SOL     OW38428   2.374   0.600   6.685 -0.6616  0.7670 -0.3846
 8931SOL    HW138429   2.432   0.527   6.706 -1.0977 -0.2957 -2.9022
 8931SOL    HW238430   2.368   0.591   6.590  1.2034  1.7011 -0.6012
 8932SOL     OW38431   0.049   2.812   2.017  0.2540  0.0244  0.8808
 8932SOL    HW138432   0.102   2.746   1.974  0.0660 -1.9385  3.6388
 8932SOL    HW238433   4.699   2.798   1.975  0.4735 -0.7347  0.7003
 8933SOL     OW38434   0.984   2.887   3.620 -0.4348 -0.0792  0.5837
 8933SOL    HW138435   0.948   2.802   3.646 -0.1851 -0.3061  0.1880
 8933SOL    HW238436   0.952   2.884   3.530  0.4892 -3.2530  0.3672
 8934SOL     OW38437   1.527   0.266   2.192  0.2478  0.5735  0.2577
 8934SOL    HW138438   1.549   0.360   2.189  2.2375  0.1465  1.8414
 8934SOL    HW238439   1.497   0.256   2.102 -1.4958  0.1364  0.8856
 8935SOL     OW38440   4.520   1.866  10.010 -0.2412 -0.0863 -0.0998
 8935SOL    HW138441   4.429   1.886  10.034  0.4067  1.6692  0.9574
 8935SOL    HW238442   4.505   1.786   9.960 -2.2198  0.5431 -0.5203
 8936SOL     OW38443   1.296   1.295  12.458  0.2803 -0.1910  0.4256
 8936SOL    HW138444   1.256   1.378  12.433  0.4653 -0.1924  0.1247
 8936SOL    HW238445   1.303   1.246  12.376  0.5348  0.6721 -0.0611
 8937SOL     OW38446   0.927   2.259  15.306  0.3649 -0.5034  0.3881
 8937SOL    HW138447   0.981   2.337  15.320 -1.5574  0.8850  0.0665
 8937SOL    HW238448   0.978   2.209  15.241 -2.6147 -1.1390 -1.4619
 8938SOL     OW38449   0.557   3.145   8.262  0.2083 -0.1072  0.3594
 8938SOL    HW138450   0.520   3.080   8.201 -1.1359 -0.5569  1.6440
 8938SOL    HW238451   0.628   3.088   8.290  1.1909  0.6320 -0.6514
 8939SOL     OW38452   0.748   0.787   3.783 -0.0637  0.4557  0.0872
 8939SOL    HW138453   0.840   0.813   3.782  0.6493 -1.9801  3.5008
 8939SOL    HW238454   0.748   0.701   3.741  0.7996 -1.1769  3.4478
 8940SOL     OW38455   2.632   1.428   5.512 -0.2339  0.0045 -0.3826
 8940SOL    HW138456   2.582   1.414   5.431 -0.0972 -0.6168 -0.3654
 8940SOL    HW238457   2.723   1.422   5.483  0.1730 -0.4675  0.9792
 8941SOL     OW38458   1.451   3.520  14.287  0.0583 -0.2715  0.0417
 8941SOL    HW138459   1.374   3.490  14.336  0.0742  1.1638  0.9422
 8941SOL    HW238460   1.471   3.603  14.330  1.8932  0.2178 -1.7750
 8942SOL     OW38461   0.018   1.842   2.602 -0.5918 -1.2583  0.2516
 8942SOL    HW138462   0.006   1.755   2.640  1.2955 -0.9550  1.5229
 8942SOL    HW238463   4.691   1.890   2.656 -1.5275 -0.7250 -1.2885
 8943SOL     OW38464   3.016   4.345   6.491  0.1863 -0.7318 -0.2556
 8943SOL    HW138465   3.111   4.345   6.499  0.1217 -0.5813  0.5020
 8943SOL    HW238466   3.008   4.428   6.445  1.3120 -0.5434 -0.0915
 8944SOL     OW38467   3.470   1.718   2.498  0.1374  0.3844 -0.1689
 8944SOL    HW138468   3.524   1.779   2.548 -0.1210  0.6370 -0.2007
 8944SOL    HW238469   3.473   1.641   2.554  0.5814 -0.2576 -1.0760
 8945SOL     OW38470   3.282   3.989  17.626  0.8779 -0.3230  0.3631
 8945SOL    HW138471   3.200   3.952  17.592  1.1464 -1.6853  1.2071
 8945SOL    HW238472   3.343   3.986  17.553 -0.8614 -2.1427 -1.0124
 8946SOL     OW38473   4.485   2.521   6.719 -0.3468  0.3344  0.1873
 8946SOL    HW138474   4.500   2.615   6.732  0.9274  0.1900 -0.2576
 8946SOL    HW238475   4.484   2.530   6.623  0.5136 -0.0825  0.1415
 8947SOL     OW38476   2.865   2.520   6.046 -1.0501 -0.0955 -0.0530
 8947SOL    HW138477   2.827   2.436   6.019 -0.0483 -0.5595 -0.0352
 8947SOL    HW238478   2.848   2.517   6.141 -0.0102  1.6987  0.1928
 8948SOL     OW38479   0.176   1.229   6.568  0.0345 -0.6748  0.5372
 8948SOL    HW138480   0.135   1.235   6.655 -1.5041  0.9342 -0.3007
 8948SOL    HW238481   0.252   1.283   6.592 -0.2829 -0.8525  1.9372
 8949SOL     OW38482   2.121   2.877  16.286  0.2969  0.3176 -0.5977
 8949SOL    HW138483   2.146   2.788  16.312 -0.0897  0.6194  0.8011
 8949SOL    HW238484   2.160   2.932  16.354  0.5410  0.3904 -0.7936
 8950SOL     OW38485   0.874   0.221   4.503 -0.4629 -0.2088  0.4601
 8950SOL    HW138486   0.958   0.265   4.493 -0.5137  0.1552  1.6413
 8950SOL    HW238487   0.894   0.128   4.488  0.5182 -0.2945  2.2583
 8951SOL     OW38488   0.386   3.453  16.847  0.0362 -0.6584  0.0650
 8951SOL    HW138489   0.450   3.511  16.805  0.4377 -2.1415 -1.3658
 8951SOL    HW238490   0.363   3.515  16.916  2.8080  0.9883 -0.4597
 8952SOL     OW38491   3.890   3.143   4.954  0.4416 -0.5675 -0.3136
 8952SOL    HW138492   3.903   3.049   4.943 -1.1994 -0.9884  1.3894
 8952SOL    HW238493   3.961   3.179   4.900 -0.3096  0.5736 -0.5224
 8953SOL     OW38494   2.365   2.049   2.491  0.0104 -0.3744 -0.0039
 8953SOL    HW138495   2.400   1.965   2.521  1.2338  0.5458  1.1220
 8953SOL    HW238496   2.314   2.070   2.569  1.4852  1.9482  0.3235
 8954SOL     OW38497   0.144   2.948   5.629  0.2203 -0.4853 -0.5508
 8954SOL    HW138498   0.135   2.938   5.724  2.7166  2.0049 -0.0495
 8954SOL    HW238499   0.166   3.041   5.625 -1.4935 -0.1107 -1.4967
 8955SOL     OW38500   4.382   0.708  13.582 -0.1751  0.0160 -0.5428
 8955SOL    HW138501   4.414   0.784  13.630  0.7309  0.2338 -1.4772
 8955SOL    HW238502   4.351   0.657  13.656 -0.1922  0.3682 -0.3051
 8956SOL     OW38503   0.276   4.030   1.870  0.2069 -0.0857 -0.3791
 8956SOL    HW138504   0.239   4.118   1.876 -0.2364 -0.3866  1.2518
 8956SOL    HW238505   0.370   4.048   1.859  0.5513 -1.6534  0.0655
 8957SOL     OW38506   4.397   3.488   3.900 -0.1643 -0.0039 -0.0969
 8957SOL    HW138507   4.406   3.549   3.973 -0.0966 -0.7717  0.5317
 8957SOL    HW238508   4.302   3.486   3.888 -0.3596 -0.9661  1.6748
 8958SOL     OW38509   1.317   2.614   6.593  0.1469  0.1006  0.4063
 8958SOL    HW138510   1.279   2.533   6.626 -0.9710  1.5207  2.6170
 8958SOL    HW238511   1.306   2.603   6.499 -0.7968 -2.3384  0.8123
 8959SOL     OW38512   3.248   0.215   9.454  0.1569  0.4944 -0.0665
 8959SOL    HW138513   3.230   0.253   9.368 -0.5801  0.9731  0.3030
 8959SOL    HW238514   3.328   0.264   9.476 -0.6356  1.5764  0.4101
 8960SOL     OW38515   3.593   0.624  12.703  0.1583 -0.0098  0.1099
 8960SOL    HW138516   3.603   0.676  12.782  0.3375 -2.3154  1.5857
 8960SOL    HW238517   3.563   0.540  12.737  0.9220  0.7688  2.7118
 8961SOL     OW38518   3.376   4.431   0.622 -0.0183 -0.1690 -0.2876
 8961SOL    HW138519   3.423   4.487   0.684  1.5894 -1.4504 -0.3459
 8961SOL    HW238520   3.295   4.480   0.609 -0.3749 -0.8725 -0.7017
 8962SOL     OW38521   3.215   0.261   6.666  0.5464  0.0578 -0.2923
 8962SOL    HW138522   3.257   0.287   6.584  1.7109 -2.8715 -0.6449
 8962SOL    HW238523   3.171   0.343   6.686  1.8271  0.6034  0.3221
 8963SOL     OW38524   0.939   2.215   4.428 -0.4946  0.7140 -0.8933
 8963SOL    HW138525   0.898   2.297   4.455  0.7005  0.2059  2.5023
 8963SOL    HW238526   1.022   2.247   4.392  0.2652  0.8097  0.8920
 8964SOL     OW38527   1.566   3.145   3.896  0.1070 -0.0525 -0.1785
 8964SOL    HW138528   1.494   3.208   3.896  1.3999  1.4094 -2.2967
 8964SOL    HW238529   1.640   3.197   3.926 -1.1174  1.8790 -0.4923
 8965SOL     OW38530   3.346   3.959   9.650 -0.7864 -0.7766 -0.5263
 8965SOL    HW138531   3.311   4.008   9.724 -2.0669  1.7315 -2.7800
 8965SOL    HW238532   3.424   4.012   9.632 -2.7318  2.1952 -0.2659
 8966SOL     OW38533   3.758   1.849   6.269 -0.2469 -0.4328  0.4934
 8966SOL    HW138534   3.761   1.754   6.260 -2.2934 -0.4076 -0.5135
 8966SOL    HW238535   3.732   1.856   6.360  0.7959  1.1415  0.6716
 8967SOL     OW38536   0.281   1.801   3.756 -0.4446 -0.1247  0.1886
 8967SOL    HW138537   0.370   1.829   3.731  0.0948 -0.3097  1.9452
 8967SOL    HW238538   0.274   1.808   3.851  0.2262  1.3039  0.1407
 8968SOL     OW38539   4.102   2.338   6.999  0.0022 -0.2751  0.4907
 8968SOL    HW138540   4.032   2.351   6.936  0.5865 -0.2778 -0.1541
 8968SOL    HW238541   4.178   2.333   6.941 -1.3012 -1.3609 -1.0899
 8969SOL     OW38542   2.734   1.544   7.466 -0.1524 -0.2341 -0.0242
 8969SOL    HW138543   2.794   1.474   7.490  0.3341  0.6648  1.4055
 8969SOL    HW238544   2.655   1.501   7.496  0.4106 -0.8776  0.5513
 8970SOL     OW38545   2.898   2.821   9.737 -0.4143 -0.3848 -0.5297
 8970SOL    HW138546   2.964   2.798   9.672  0.4146 -1.0481  0.5534
 8970SOL    HW238547   2.839   2.746   9.731 -0.1041 -0.4224 -2.9222
 8971SOL     OW38548   4.139   0.915   1.655  0.8675  0.4537 -0.0677
 8971SOL    HW138549   4.080   0.972   1.704  1.5333  0.9641  0.1375
 8971SOL    HW238550   4.175   0.975   1.590 -0.4057 -0.5034 -1.6460
 8972SOL     OW38551   1.783   1.613   8.205 -0.1852 -0.0069  0.4216
 8972SOL    HW138552   1.874   1.625   8.232 -0.6994  1.2481  1.6197
 8972SOL    HW238553   1.796   1.577   8.117 -2.1868 -0.9312  0.4861
 8973SOL     OW38554   1.804   0.697  15.716 -0.1106 -0.6550  0.6551
 8973SOL    HW138555   1.752   0.699  15.636 -1.6220 -0.8626  1.6314
 8973SOL    HW238556   1.864   0.769  15.699  0.5849 -1.1366  1.0706
 8974SOL     OW38557   4.456   2.625   4.324 -0.1068  0.3596  0.1930
 8974SOL    HW138558   4.533   2.596   4.374  0.6232 -0.1107 -1.2027
 8974SOL    HW238559   4.495   2.686   4.262 -0.3140  0.7920  0.4867
 8975SOL     OW38560   1.957   0.900   5.341 -0.4282 -0.3231 -0.0320
 8975SOL    HW138561   2.028   0.957   5.311 -1.7444  1.9073  1.0719
 8975SOL    HW238562   1.962   0.828   5.278 -1.3009 -0.6510  0.2622
 8976SOL     OW38563   2.888   1.619   6.780 -0.3567  0.1187 -0.6004
 8976SOL    HW138564   2.905   1.636   6.687  0.6533  1.3064 -0.1918
 8976SOL    HW238565   2.821   1.551   6.772 -0.4892  0.1511  0.2799
 8977SOL     OW38566   0.469   4.461   3.131  0.3398  0.0590 -0.1562
 8977SOL    HW138567   0.487   4.378   3.175 -0.8490 -0.7417 -1.2115
 8977SOL    HW238568   0.456   4.516   3.208 -0.2089  0.3098 -0.4341
 8978SOL     OW38569   0.745   4.550  14.508 -0.1798  0.1177  0.2863
 8978SOL    HW138570   0.704   4.484  14.563 -2.2538  2.0024  1.0103
 8978SOL    HW238571   0.724   4.631  14.554 -0.7507  0.4998 -0.6470
 8979SOL     OW38572   0.940   3.403   9.085  0.0086  0.1883 -0.2097
 8979SOL    HW138573   1.036   3.405   9.091  0.0902 -0.6566 -1.2129
 8979SOL    HW238574   0.930   3.404   8.990  1.1988 -0.7726 -0.3497
 8980SOL     OW38575   0.117   0.036   6.619  0.6552 -0.0618 -0.0210
 8980SOL    HW138576   0.057   0.019   6.547  0.0058 -0.5302  0.6189
 8980SOL    HW238577   0.083   4.703   6.678 -2.1359 -0.3181 -1.9308
 8981SOL     OW38578   3.324   2.285   5.056 -0.4206 -0.4888 -0.3454
 8981SOL    HW138579   3.363   2.359   5.009 -0.6674  0.6442  1.2508
 8981SOL    HW238580   3.306   2.315   5.144  0.1438  1.1224 -0.7870
 8982SOL     OW38581   1.908   3.759  12.267 -0.0336 -0.2007  0.0541
 8982SOL    HW138582   1.884   3.697  12.337  0.0037  0.8814  1.0251
 8982SOL    HW238583   1.914   3.691  12.200 -0.4725  0.3892 -0.5881
 8983SOL     OW38584   2.164   3.199   0.504 -0.0383 -0.0547 -0.0335
 8983SOL    HW138585   2.250   3.237   0.488  1.4792 -2.4674  2.3891
 8983SOL    HW238586   2.123   3.236   0.426  0.4805  3.4432  1.3625
 8984SOL     OW38587   3.770   1.234   1.583 -0.2908 -0.8555 -0.3873
 8984SOL    HW138588   3.781   1.206   1.492 -3.0730  1.8942 -1.5625
 8984SOL    HW238589   3.675   1.221   1.588 -0.3359 -0.5849 -0.5047
 8985SOL     OW38590   3.134   4.124   6.867  0.1469 -0.5056 -0.0342
 8985SOL    HW138591   3.057   4.128   6.810  0.1384  0.2978  0.0440
 8985SOL    HW238592   3.101   4.125   6.957  0.6555 -1.5095  0.1663
 8986SOL     OW38593   0.621   3.167   4.968 -0.0553  0.2714  0.7309
 8986SOL    HW138594   0.604   3.102   4.901  0.6450 -1.3194  2.0951
 8986SOL    HW238595   0.678   3.110   5.019 -1.5566 -1.5846  0.3118
 8987SOL     OW38596   1.580   3.098   6.954  0.1882 -0.1044  0.0223
 8987SOL    HW138597   1.656   3.048   6.923 -0.3005 -0.7946 -0.0638
 8987SOL    HW238598   1.505   3.045   6.927  1.3711 -2.0222  0.4663
 8988SOL     OW38599   1.012   3.233  14.473  0.4075 -0.3919 -0.1483
 8988SOL    HW138600   0.968   3.150  14.458  0.4150 -0.1543 -1.4902
 8988SOL    HW238601   1.065   3.241  14.394 -0.7101 -2.1714 -1.0520
 8989SOL     OW38602   3.692   1.747   1.925  0.0382 -0.4108 -0.2141
 8989SOL    HW138603   3.755   1.685   1.889  0.2279 -1.3417  1.7305
 8989SOL    HW238604   3.704   1.726   2.018 -2.3100  1.3875  0.5100
 8990SOL     OW38605   4.060   0.587  10.533  0.0301  0.0479 -0.5979
 8990SOL    HW138606   3.972   0.624  10.519 -0.1638 -0.0843  0.2240
 8990SOL    HW238607   4.034   0.523  10.600  2.2970  0.3927  0.6181
 8991SOL     OW38608   0.003   2.150   7.020 -0.3513 -0.4052 -0.3143
 8991SOL    HW138609   0.069   2.163   7.088 -1.9624  2.2995  0.7466
 8991SOL    HW238610   4.724   2.235   6.979 -1.8130  0.2273  1.4516
 8992SOL     OW38611   4.671   2.212   4.559  0.5151  0.3233  0.0572
 8992SOL    HW138612   4.606   2.182   4.496  0.5126 -0.6733  0.5335
 8992SOL    HW238613   0.020   2.179   4.525  0.6546  0.4954  0.2387
 8993SOL     OW38614   3.902   1.217   3.191  0.0449  0.4702 -0.2522
 8993SOL    HW138615   3.996   1.234   3.186  0.7317 -2.9750  0.8084
 8993SOL    HW238616   3.876   1.197   3.281  1.6057 -1.4303 -0.2141
 8994SOL     OW38617   2.961   4.267  12.170  0.0100  0.5196 -0.1153
 8994SOL    HW138618   2.869   4.287  12.152 -0.8760 -1.8170  1.7294
 8994SOL    HW238619   2.994   4.231  12.088 -0.0999 -0.1832  0.1458
 8995SOL     OW38620   2.592   3.233   7.282  0.2253  0.1382 -0.1784
 8995SOL    HW138621   2.569   3.316   7.239  0.5246 -0.1971 -0.9812
 8995SOL    HW238622   2.508   3.188   7.291 -0.3430  1.6360  1.9401
 8996SOL     OW38623   2.135   3.867   8.947 -0.4470 -0.2906  0.3856
 8996SOL    HW138624   2.162   3.931   9.013 -1.7339 -0.7218  1.3434
 8996SOL    HW238625   2.146   3.911   8.863 -2.0785  0.1448  0.3813
 8997SOL     OW38626   2.508   1.770   0.589  0.1766  0.2756  0.4751
 8997SOL    HW138627   2.457   1.821   0.526 -0.1717  1.0427  1.3980
 8997SOL    HW238628   2.491   1.680   0.563 -0.6096  0.6526 -0.3283
 8998SOL     OW38629   2.968   1.958   9.399  0.0445 -0.0201 -0.1040
 8998SOL    HW138630   3.011   2.027   9.347  0.8890 -1.0069 -0.7147
 8998SOL    HW238631   2.881   1.996   9.399  0.1560  0.2377 -1.4962
 8999SOL     OW38632   3.140   1.034   3.743 -0.0731 -0.7067  0.5158
 8999SOL    HW138633   3.105   0.965   3.801  2.4669 -2.3640  0.0946
 8999SOL    HW238634   3.174   0.992   3.664 -0.6125 -0.3178  0.0783
 9000SOL     OW38635   4.374   4.560  11.297  0.4536 -0.2203 -0.4311
 9000SOL    HW138636   4.396   4.618  11.370  0.0191 -1.0696  0.3625
 9000SOL    HW238637   4.330   4.489  11.343 -0.3441  0.9223  0.5543
 9001SOL     OW38638   1.878   3.921   8.773  0.0927  0.5572  0.4720
 9001SOL    HW138639   1.944   3.990   8.767  0.0787  0.6527  1.4448
 9001SOL    HW238640   1.880   3.893   8.865 -0.0346  2.7199  1.1543
 9002SOL     OW38641   3.193   1.197   7.334 -0.9149  0.6826  0.4112
 9002SOL    HW138642   3.254   1.236   7.272 -0.1406 -2.1534 -0.5822
 9002SOL    HW238643   3.154   1.274   7.376 -0.6990  1.9513 -1.7554
 9003SOL     OW38644   3.558   4.397   8.952  0.1367  0.5776  0.2441
 9003SOL    HW138645   3.475   4.359   8.922  0.2544 -0.1896  0.8929
 9003SOL    HW238646   3.623   4.328   8.940 -1.4528 -1.0390  0.8647
 9004SOL     OW38647   3.001   2.712  11.863 -0.3235  0.0642  0.0662
 9004SOL    HW138648   2.911   2.680  11.856 -0.2600 -0.0724 -0.1355
 9004SOL    HW238649   3.046   2.671  11.789 -2.8092 -1.4022 -0.6401
 9005SOL     OW38650   2.546   3.051   1.920  0.2634  0.0276 -0.0954
 9005SOL    HW138651   2.509   2.994   1.987  1.4932 -1.2735 -0.5046
 9005SOL    HW238652   2.516   2.990   1.853  0.1748 -1.0985  0.9689
 9006SOL     OW38653   3.520   2.526   9.429 -0.2657  0.5338 -0.1427
 9006SOL    HW138654   3.534   2.612   9.469  0.8631 -0.8779  2.4955
 9006SOL    HW238655   3.600   2.484   9.459 -1.4860 -1.1131  0.8063
 9007SOL     OW38656   0.208   4.465   4.159  0.5730 -0.2301 -0.0304
 9007SOL    HW138657   0.191   4.386   4.108 -0.3413 -0.1855  0.2038
 9007SOL    HW238658   0.128   4.469   4.211 -1.2575  0.8923 -2.8823
 9008SOL     OW38659   0.327   1.337  17.541 -0.2400 -0.3255  0.1063
 9008SOL    HW138660   0.392   1.268  17.553 -0.3906 -0.2987  1.0914
 9008SOL    HW238661   0.283   1.324  17.625  1.4753  1.6547  1.3036
 9009SOL     OW38662   1.374   0.418   5.989 -0.3100 -0.1333  0.1468
 9009SOL    HW138663   1.350   0.510   5.989 -0.1966 -0.0990 -1.3523
 9009SOL    HW238664   1.302   0.382   5.937  0.4322  0.7259 -1.4794
 9010SOL     OW38665   0.455   4.515   6.912  0.5429 -0.0977  0.0769
 9010SOL    HW138666   0.515   4.480   6.847 -0.3683  0.9656 -1.3415
 9010SOL    HW238667   0.443   4.442   6.972 -1.4677  0.0768 -0.1066
 9011SOL     OW38668   3.631   0.220   2.744 -0.0585  0.2546  0.4040
 9011SOL    HW138669   3.665   0.195   2.830 -0.6565 -2.5714 -0.1764
 9011SOL    HW238670   3.537   0.232   2.757  0.1069 -0.4750  2.2876
 9012SOL     OW38671   0.931   3.018  16.827 -0.2503 -0.3525 -0.2537
 9012SOL    HW138672   1.019   2.983  16.831  0.0586  0.5815  1.0718
 9012SOL    HW238673   0.926   3.070  16.907 -1.2422 -1.4824  0.4072
 9013SOL     OW38674   3.605   3.306   8.270  0.0057 -0.4910  0.7873
 9013SOL    HW138675   3.657   3.270   8.341  0.6950 -3.3564 -1.1215
 9013SOL    HW238676   3.536   3.348   8.321  1.5068 -0.1563  2.5171
 9014SOL     OW38677   2.989   0.348   2.141  0.4150  0.1617 -0.5704
 9014SOL    HW138678   3.017   0.265   2.180  0.3385 -0.9216 -2.8496
 9014SOL    HW238679   3.058   0.358   2.076  0.0601 -2.3299 -1.3595
 9015SOL     OW38680   2.763   2.225   7.730 -0.3400  0.5297 -0.2699
 9015SOL    HW138681   2.710   2.156   7.770 -0.1821  0.3802 -0.3196
 9015SOL    HW238682   2.768   2.283   7.806  1.3500  3.8897 -2.9536
 9016SOL     OW38683   1.534   0.539   9.383  0.0369  0.0818 -0.0966
 9016SOL    HW138684   1.627   0.522   9.367  0.7154  3.0126  0.6451
 9016SOL    HW238685   1.505   0.530   9.292  0.9237  1.9076 -0.5617
 9017SOL     OW38686   2.890   1.570   2.105 -0.1798  0.4986 -0.2576
 9017SOL    HW138687   2.847   1.532   2.181 -0.2497 -0.4189 -0.7627
 9017SOL    HW238688   2.971   1.520   2.099  0.9043  2.1104  0.9418
 9018SOL     OW38689   3.282   3.489  12.624 -0.0298  0.2897  0.4021
 9018SOL    HW138690   3.269   3.432  12.700  1.3477  0.1564  0.5400
 9018SOL    HW238691   3.250   3.572  12.657 -1.2603 -0.4078  0.9562
 9019SOL     OW38692   0.641   3.799  13.969  0.1026 -0.4470  0.0993
 9019SOL    HW138693   0.652   3.872  13.907 -1.7593 -0.8516 -0.6731
 9019SOL    HW238694   0.602   3.849  14.041  1.8276 -1.9171  2.0305
 9020SOL     OW38695   4.517   0.360  15.364  0.3399 -0.5700 -0.2301
 9020SOL    HW138696   4.471   0.318  15.291  0.9704  0.8881 -1.4726
 9020SOL    HW238697   4.496   0.453  15.348  1.7454 -0.5797 -2.0183
 9021SOL     OW38698   3.663   1.044   4.684  0.4821 -0.1865 -0.3372
 9021SOL    HW138699   3.698   1.045   4.595  0.3676 -0.1730 -0.3813
 9021SOL    HW238700   3.677   0.957   4.720 -0.0111  0.2542  0.9222
 9022SOL     OW38701   0.651   2.339  13.321  0.5284 -0.1147 -0.0183
 9022SOL    HW138702   0.727   2.361  13.375  1.0191 -1.7445 -0.0515
 9022SOL    HW238703   0.658   2.245  13.304 -1.2504 -0.2260 -0.1794
 9023SOL     OW38704   4.412   3.879   6.144 -0.1835 -0.1032 -0.1454
 9023SOL    HW138705   4.437   3.876   6.051  1.9003 -0.0400  0.4167
 9023SOL    HW238706   4.498   3.846   6.171 -0.0602  1.2481  1.0853
 9024SOL     OW38707   2.620   3.504   5.856  0.4499 -0.0032 -0.0882
 9024SOL    HW138708   2.540   3.481   5.809 -0.1462  1.6144  0.1416
 9024SOL    HW238709   2.645   3.431   5.912  0.7402  0.8497  0.8825
 9025SOL     OW38710   2.588   2.011  14.852  0.2620 -0.0610 -0.6222
 9025SOL    HW138711   2.624   1.935  14.898  2.7544 -0.2265 -2.8460
 9025SOL    HW238712   2.643   2.078  14.892 -1.5231  0.4874  0.9034
 9026SOL     OW38713   3.259   4.601   5.714  0.3044  0.2404 -0.2196
 9026SOL    HW138714   3.242   4.508   5.729 -0.0519  0.7855  2.7761
 9026SOL    HW238715   3.294   4.619   5.801  0.6768  3.2465 -0.9896
 9027SOL     OW38716   4.375   0.684   5.159  0.4014 -0.4816  0.2659
 9027SOL    HW138717   4.395   0.777   5.151  0.4930 -0.5105  0.1527
 9027SOL    HW238718   4.406   0.649   5.075 -0.4658  0.0481 -0.2733
 9028SOL     OW38719   1.977   1.255  12.365  0.2834 -0.5580  0.0160
 9028SOL    HW138720   1.974   1.290  12.276  1.2664 -1.2462 -0.2876
 9028SOL    HW238721   2.007   1.165  12.349  0.3196 -0.2461 -1.6834
 9029SOL     OW38722   4.367   1.978   4.649  0.2190  0.8848  0.5383
 9029SOL    HW138723   4.457   1.964   4.676  0.2106  0.1414  0.1831
 9029SOL    HW238724   4.309   1.956   4.722  0.4572 -0.8734  0.2104
 9030SOL     OW38725   3.501   2.872   2.721 -0.4471  0.0472 -0.2330
 9030SOL    HW138726   3.559   2.909   2.655 -2.4227  1.0352 -1.4283
 9030SOL    HW238727   3.562   2.854   2.793 -1.4916 -3.3706 -0.1929
 9031SOL     OW38728   4.588   3.198   7.068 -0.3032 -0.0890 -0.2323
 9031SOL    HW138729   4.653   3.265   7.050 -1.4173  0.6581 -1.4380
 9031SOL    HW238730   4.513   3.252   7.092 -1.2868 -0.9753 -1.3246
 9032SOL     OW38731   4.172   2.061   4.345 -0.0214 -0.3267  0.0688
 9032SOL    HW138732   4.171   2.132   4.281 -0.8238 -0.8835 -0.5266
 9032SOL    HW238733   4.231   1.999   4.303  0.4947 -1.2925  2.2188
 9033SOL     OW38734   4.692   2.301   2.759 -0.1574  0.6713 -0.0512
 9033SOL    HW138735   4.733   2.316   2.673 -1.1144 -1.2349 -0.8447
 9033SOL    HW238736   0.032   2.292   2.818  0.7083 -0.3354 -1.2785
 9034SOL     OW38737   2.323   0.164   4.860  0.5393 -0.0115 -0.0552
 9034SOL    HW138738   2.256   0.169   4.791  1.9784 -0.6110 -1.5008
 9034SOL    HW238739   2.405   0.174   4.812 -0.0331  0.8107 -0.8649
 9035SOL     OW38740   1.263   2.169   3.313 -0.4356 -0.6382  0.0396
 9035SOL    HW138741   1.228   2.251   3.349 -1.5106 -1.0803  0.0126
 9035SOL    HW238742   1.341   2.196   3.265 -0.8643  1.4049  0.4963
 9036SOL     OW38743   4.641   0.920   1.485  0.4038  0.4493  0.3094
 9036SOL    HW138744   4.584   0.997   1.492 -0.5506 -0.4449  2.2346
 9036SOL    HW238745   4.601   0.877   1.409 -1.3441  0.2063  1.3676
 9037SOL     OW38746   1.572   0.492  14.985 -0.4410 -0.0982 -0.4285
 9037SOL    HW138747   1.550   0.585  14.982  0.7425  0.1882 -0.2101
 9037SOL    HW238748   1.495   0.447  14.951  0.2913 -0.8003 -1.1587
 9038SOL     OW38749   2.649   3.296  12.808 -0.0649 -0.1032 -0.8603
 9038SOL    HW138750   2.606   3.336  12.732 -0.7925 -0.5859 -0.6939
 9038SOL    HW238751   2.632   3.364  12.872 -0.3803  0.9253 -2.0264
 9039SOL     OW38752   2.030   1.085  17.511  0.3425 -0.6900 -0.2109
 9039SOL    HW138753   2.088   1.085  17.435  2.5395  0.6849  1.4527
 9039SOL    HW238754   1.960   1.139  17.475 -0.2983  0.0946  2.1882
 9040SOL     OW38755   3.984   0.680   9.519 -0.7216 -0.3925 -0.4845
 9040SOL    HW138756   4.038   0.613   9.562 -1.0324  0.5063  1.2783
 9040SOL    HW238757   3.945   0.621   9.454 -0.0022  1.5801 -2.7251
 9041SOL     OW38758   2.465   4.478   0.642  0.2721 -0.3383  0.2084
 9041SOL    HW138759   2.469   4.387   0.672  0.7082  0.7665  3.5046
 9041SOL    HW238760   2.457   4.453   0.550 -2.7974  1.8892 -0.1640
 9042SOL     OW38761   0.232   2.122  10.964 -0.1048 -0.2724  0.1954
 9042SOL    HW138762   0.254   2.039  10.920 -1.0267 -0.4802  0.1340
 9042SOL    HW238763   0.321   2.158  10.959 -0.7758  1.4497  0.8531
 9043SOL     OW38764   1.176   1.810   1.650  0.0866  0.8071  0.1937
 9043SOL    HW138765   1.091   1.800   1.693 -0.5483  1.8353 -0.8046
 9043SOL    HW238766   1.152   1.835   1.560 -0.3492 -1.5750 -0.3296
 9044SOL     OW38767   4.017   2.806   1.597  0.0413  0.0027 -0.2418
 9044SOL    HW138768   4.047   2.856   1.672 -1.7845 -0.4856  0.8252
 9044SOL    HW238769   4.085   2.741   1.583  0.7515  0.8000 -0.4889
 9045SOL     OW38770   2.982   1.420   4.785 -0.2275  0.2776 -0.0748
 9045SOL    HW138771   2.889   1.425   4.764 -0.2436 -0.1871 -0.1116
 9045SOL    HW238772   3.006   1.512   4.772 -1.2601  0.4281 -0.9143
 9046SOL     OW38773   1.704   4.325  15.063  0.3052  0.1253  0.4523
 9046SOL    HW138774   1.730   4.257  15.126  1.2813  0.4411  0.3811
 9046SOL    HW238775   1.763   4.302  14.991 -0.7213 -2.2331  0.3390
 9047SOL     OW38776   1.734   3.712  10.996  0.1754 -0.0102 -0.7803
 9047SOL    HW138777   1.692   3.628  10.975  0.5070 -0.2292 -0.5588
 9047SOL    HW238778   1.694   3.729  11.082 -0.8962 -0.8489 -1.0949
 9048SOL     OW38779   0.202   3.921   7.065  0.7817  0.1725  0.1051
 9048SOL    HW138780   0.141   3.884   7.129 -1.3458 -0.5716 -2.3761
 9048SOL    HW238781   0.150   3.997   7.040 -1.4278 -1.8731 -1.4964
 9049SOL     OW38782   3.596   4.483   0.131  0.6171 -0.0724  0.0700
 9049SOL    HW138783   3.679   4.435   0.132  1.4301  1.4049  2.4361
 9049SOL    HW238784   3.598   4.542   0.056 -0.6100  1.0338  0.9198
 9050SOL     OW38785   3.306   1.618   5.063  0.1398  0.5727 -0.2714
 9050SOL    HW138786   3.395   1.632   5.096  0.4011 -0.8421 -0.3746
 9050SOL    HW238787   3.307   1.630   4.968  0.5684  0.1476 -0.3198
 9051SOL     OW38788   2.585   1.814   1.668 -0.0963 -0.5443 -0.0898
 9051SOL    HW138789   2.636   1.787   1.592  0.6956  0.4082  0.0938
 9051SOL    HW238790   2.623   1.902   1.681 -0.7505  0.0620 -2.3609
 9052SOL     OW38791   2.668   2.054  11.292 -0.2292 -0.2304 -0.2861
 9052SOL    HW138792   2.702   2.004  11.366 -0.5895 -2.1040 -1.3706
 9052SOL    HW238793   2.652   2.139  11.332 -1.6974 -0.1380 -1.0518
 9053SOL     OW38794   0.549   2.818   4.599  0.0213  0.3521  0.0877
 9053SOL    HW138795   0.612   2.750   4.575 -0.2359 -0.4443  1.6751
 9053SOL    HW238796   0.470   2.791   4.553  0.3877  0.1461 -0.4171
 9054SOL     OW38797   1.687   0.552  15.209  0.0957  0.3265 -0.1806
 9054SOL    HW138798   1.770   0.554  15.160 -0.0035 -1.2518 -0.4111
 9054SOL    HW238799   1.638   0.503  15.142  2.5848 -0.0693 -1.7282
 9055SOL     OW38800   2.420   1.484   8.998  0.0203 -0.4642  0.1553
 9055SOL    HW138801   2.410   1.566   9.046 -1.5699 -1.6898  1.8992
 9055SOL    HW238802   2.334   1.469   8.961  0.4588 -1.0359 -0.6359
 9056SOL     OW38803   2.172   3.351   9.345  0.5878 -0.5268  0.2794
 9056SOL    HW138804   2.097   3.407   9.363 -0.0026 -0.8698 -1.1309
 9056SOL    HW238805   2.207   3.393   9.266 -1.0257 -0.0554 -0.1722
 9057SOL     OW38806   3.759   2.848   8.145  0.4869  0.1828 -0.4934
 9057SOL    HW138807   3.748   2.819   8.055  0.4245 -0.9829 -0.1113
 9057SOL    HW238808   3.671   2.884   8.159 -0.5714 -2.5097 -0.2185
 9058SOL     OW38809   0.800   3.924   6.702 -0.3937 -0.0054 -0.1592
 9058SOL    HW138810   0.776   3.868   6.775 -0.4010  1.4653  0.9635
 9058SOL    HW238811   0.714   3.936   6.662  0.0538  1.8904 -0.5810
 9059SOL     OW38812   1.389   0.590   2.794 -0.4564  0.0232 -0.0590
 9059SOL    HW138813   1.409   0.518   2.734 -0.4520  1.7723 -2.1633
 9059SOL    HW238814   1.336   0.545   2.860 -0.8989  0.1982 -0.2992
 9060SOL     OW38815   1.874   4.628   3.412 -0.5876  0.0925  0.2188
 9060SOL    HW138816   1.824   4.699   3.371  1.2847 -0.8928 -3.6953
 9060SOL    HW238817   1.869   4.648   3.506 -0.8527 -0.1858  0.2637
 9061SOL     OW38818   1.218   4.258   8.287 -0.2748  0.1406 -0.4858
 9061SOL    HW138819   1.306   4.256   8.324 -0.4717 -1.4272 -0.1322
 9061SOL    HW238820   1.236   4.242   8.195 -0.5373 -0.4926 -0.4285
 9062SOL     OW38821   0.173   3.729   3.514  0.0256  0.7759  0.2573
 9062SOL    HW138822   0.186   3.634   3.520  1.2764  1.0364  1.6079
 9062SOL    HW238823   0.152   3.752   3.604  0.0515 -1.2147  0.7655
 9063SOL     OW38824   3.630   3.214   7.230  0.2267  0.0854  0.1654
 9063SOL    HW138825   3.691   3.158   7.279  0.6119  2.3736  2.2729
 9063SOL    HW238826   3.555   3.223   7.289  0.3581 -0.5197  0.4295
 9064SOL     OW38827   2.059   2.337   2.280  0.6438 -0.4246 -0.4580
 9064SOL    HW138828   2.142   2.373   2.313 -0.0044  0.3568  0.3003
 9064SOL    HW238829   2.089   2.248   2.262  0.8039 -0.4426 -0.1032
 9065SOL     OW38830   1.574   4.283   6.881  0.1103  0.1843 -0.1281
 9065SOL    HW138831   1.492   4.235   6.896  0.5720  0.1809  2.3471
 9065SOL    HW238832   1.556   4.306   6.790  0.1828 -2.7909 -0.9109
 9066SOL     OW38833   3.122   2.704   3.254 -0.6009 -0.1275 -0.4469
 9066SOL    HW138834   3.131   2.792   3.289 -2.2732 -0.0420 -0.2328
 9066SOL    HW238835   3.119   2.650   3.333  2.1225 -0.0238 -0.2808
 9067SOL     OW38836   4.048   0.332   3.861  0.3708 -0.0958  0.3378
 9067SOL    HW138837   4.092   0.272   3.921  1.6728  1.2846  0.7881
 9067SOL    HW238838   4.047   0.414   3.911  1.0235 -0.3893  0.8409
 9068SOL     OW38839   3.085   0.922   0.542  0.4029 -0.5711 -0.1101
 9068SOL    HW138840   3.092   0.843   0.487  1.2975 -0.4818 -0.1287
 9068SOL    HW238841   3.153   0.974   0.499 -1.5839  3.0595  1.1465
 9069SOL     OW38842   3.853   4.386   7.201 -0.9476 -0.5955  0.1128
 9069SOL    HW138843   3.784   4.322   7.187 -0.9695  0.0345 -2.5234
 9069SOL    HW238844   3.924   4.325   7.220  0.1068 -0.0547 -2.1435
 9070SOL     OW38845   4.226   0.047   5.143 -0.1895 -0.3380  0.0694
 9070SOL    HW138846   4.140   0.078   5.173 -0.6752  1.2025 -2.8870
 9070SOL    HW238847   4.274   0.128   5.131 -3.2982  1.4423 -0.3920
 9071SOL     OW38848   2.188   1.536  11.023  0.6509  0.2253 -0.2062
 9071SOL    HW138849   2.162   1.571  11.108  1.8005  1.1612 -0.2287
 9071SOL    HW238850   2.124   1.587  10.973  1.6155 -0.6783 -2.3658
 9072SOL     OW38851   3.266   0.434   4.881 -0.1594 -0.0226  0.0288
 9072SOL    HW138852   3.232   0.431   4.792  0.1855  2.5724 -0.1692
 9072SOL    HW238853   3.270   0.343   4.911 -0.3433  0.5766  1.8691
 9073SOL     OW38854   2.769   1.352   4.629 -0.1823 -0.3465 -0.1283
 9073SOL    HW138855   2.823   1.364   4.552  0.0116  0.4569  0.1295
 9073SOL    HW238856   2.692   1.395   4.593 -0.1761 -2.0609 -2.1277
 9074SOL     OW38857   1.328   3.452   8.533 -0.0877  0.2403 -0.1247
 9074SOL    HW138858   1.362   3.427   8.619  1.6114  1.1714 -0.5318
 9074SOL    HW238859   1.359   3.540   8.515  2.1832 -0.9730 -2.1981
 9075SOL     OW38860   4.256   3.198   2.607  0.1920  0.6441 -0.1592
 9075SOL    HW138861   4.318   3.147   2.554 -1.0907 -0.2366 -0.7924
 9075SOL    HW238862   4.306   3.228   2.683 -0.1752 -0.9603  0.6923
 9076SOL     OW38863   3.442   2.385   5.527 -0.5268 -0.3314 -0.4745
 9076SOL    HW138864   3.362   2.385   5.474  0.3503  0.2485 -1.7824
 9076SOL    HW238865   3.489   2.333   5.462  0.5116  0.1849 -0.1361
 9077SOL     OW38866   3.885   0.900   3.454  0.1100 -0.2698  0.6207
 9077SOL    HW138867   3.850   0.838   3.390  2.1106 -0.6502 -0.0958
 9077SOL    HW238868   3.806   0.943   3.486  0.2294  0.1109  0.4008
 9078SOL     OW38869   1.604   4.648   3.026  0.1698 -0.2969 -0.0113
 9078SOL    HW138870   1.636   4.606   3.106  0.1787 -0.7162 -0.2325
 9078SOL    HW238871   1.538   4.709   3.059  0.6449  0.0289  0.3429
 9079SOL     OW38872   1.311   2.739  11.891 -0.1598  0.0640 -0.3706
 9079SOL    HW138873   1.218   2.762  11.884  0.2594  1.4128 -1.4762
 9079SOL    HW238874   1.320   2.697  11.806 -0.9437  0.8385 -0.8406
 9080SOL     OW38875   2.411   3.159   8.062 -0.0738 -0.2419 -0.0448
 9080SOL    HW138876   2.470   3.233   8.052 -0.7022 -0.2737 -3.8099
 9080SOL    HW238877   2.340   3.175   8.000  1.4647  2.2130 -1.1357
 9081SOL     OW38878   3.709   0.791   9.064  0.5711 -0.0349  0.3538
 9081SOL    HW138879   3.670   0.809   8.979  0.6817 -2.6492 -0.2243
 9081SOL    HW238880   3.803   0.807   9.061  0.9618 -2.0916  1.8085
 9082SOL     OW38881   2.148   1.916   1.137 -0.0815 -0.2544 -0.4702
 9082SOL    HW138882   2.161   2.000   1.094  2.3915  0.3058  1.3931
 9082SOL    HW238883   2.054   1.930   1.148 -0.5014 -1.2554 -2.8503
 9083SOL     OW38884   2.466   2.317   1.718  0.0035 -0.5987 -0.1285
 9083SOL    HW138885   2.386   2.267   1.739 -1.7344  1.9068 -0.8444
 9083SOL    HW238886   2.433   2.397   1.677 -1.5319  0.7347  3.7224
 9084SOL     OW38887   0.951   0.172   3.504 -0.3673  0.2470  0.0752
 9084SOL    HW138888   0.927   0.084   3.533  0.8479  0.4830  1.7547
 9084SOL    HW238889   0.934   0.177   3.410  0.3049  3.1225  0.0880
 9085SOL     OW38890   1.000   0.550  11.511  0.6937  0.3953  0.4432
 9085SOL    HW138891   1.082   0.595  11.531  1.3232 -0.4824 -0.1194
 9085SOL    HW238892   0.989   0.494  11.588 -0.1749  0.4391  0.3532
 9086SOL     OW38893   2.641   0.514   2.902  0.1797  0.1985  0.3015
 9086SOL    HW138894   2.546   0.523   2.900 -0.0203 -2.1376 -0.3238
 9086SOL    HW238895   2.655   0.597   2.948 -3.1479  2.1526 -2.2225
 9087SOL     OW38896   4.379   2.724  17.515  0.1580  0.0280 -0.4704
 9087SOL    HW138897   4.305   2.753  17.569  0.4626  0.2210 -0.1587
 9087SOL    HW238898   4.375   2.780  17.437 -2.5098  2.3261  1.3206
 9088SOL     OW38899   1.580   2.069   7.882 -0.4185 -0.0861  0.4586
 9088SOL    HW138900   1.620   2.057   7.967 -0.8019 -0.6041  0.5628
 9088SOL    HW238901   1.501   2.123   7.893 -0.6268 -0.3943  0.4746
 9089SOL     OW38902   4.054   3.646   5.000 -0.0617  0.3670  0.1214
 9089SOL    HW138903   4.058   3.588   5.075  0.8806  1.5126  0.9555
 9089SOL    HW238904   4.135   3.692   5.020 -0.5011 -0.1897  3.1879
 9090SOL     OW38905   3.642   1.606   1.586 -0.4026  1.2193  0.8148
 9090SOL    HW138906   3.729   1.568   1.599  0.2602  2.7762  0.9532
 9090SOL    HW238907   3.597   1.548   1.525  2.8171 -0.5689  0.1901
 9091SOL     OW38908   2.462   2.635   5.466  0.5415  0.4800  0.0665
 9091SOL    HW138909   2.529   2.649   5.533 -0.6847 -1.7453  1.7656
 9091SOL    HW238910   2.505   2.564   5.417 -2.1923 -1.2625  0.1905
 9092SOL     OW38911   0.748   0.325  16.757  0.2018  0.1861  0.1184
 9092SOL    HW138912   0.663   0.361  16.782  1.2504  2.5324  0.3322
 9092SOL    HW238913   0.772   0.351  16.668 -2.8229  0.2387 -0.6803
 9093SOL     OW38914   2.761   2.158   4.780 -0.7236  0.2943 -0.7141
 9093SOL    HW138915   2.744   2.232   4.837  0.7277  0.4397 -0.4713
 9093SOL    HW238916   2.673   2.122   4.767 -0.8606  0.3524  0.0589
 9094SOL     OW38917   0.111   1.657   5.609  0.1729  0.5743 -0.2564
 9094SOL    HW138918   0.128   1.706   5.689  4.0889 -1.7993  0.3596
 9094SOL    HW238919   0.027   1.613   5.626 -0.1998  1.2087 -0.4434
 9095SOL     OW38920   0.987   3.986   5.903  0.5019  0.3051 -0.0283
 9095SOL    HW138921   1.063   3.995   5.846  1.0943 -0.0840  0.6860
 9095SOL    HW238922   1.027   4.020   5.984 -1.8899  1.1175  0.8233
 9096SOL     OW38923   2.880   3.466  13.165 -0.0284 -0.4406  0.1607
 9096SOL    HW138924   2.867   3.475  13.260  0.4486  0.3204  0.1494
 9096SOL    HW238925   2.787   3.473  13.145  0.7338  1.5109 -2.5604
 9097SOL     OW38926   1.398   2.010   6.131 -0.0395 -0.4321 -0.0564
 9097SOL    HW138927   1.396   2.103   6.111  0.1319 -0.5118 -0.4653
 9097SOL    HW238928   1.493   2.005   6.136 -0.0218 -1.0016 -0.9517
 9098SOL     OW38929   1.616   3.731   9.149  0.2703 -0.2297 -0.1116
 9098SOL    HW138930   1.529   3.691   9.152  0.1772 -0.1872 -2.2280
 9098SOL    HW238931   1.640   3.687   9.067  2.4774 -0.2554  0.5578
 9099SOL     OW38932   0.376   1.069  16.331 -0.0978 -0.2343 -0.0425
 9099SOL    HW138933   0.372   1.030  16.244 -1.1064  0.2732 -0.2269
 9099SOL    HW238934   0.337   1.156  16.321 -0.1313 -0.2624 -0.1555
 9100SOL     OW38935   4.053   3.272   3.393  0.5899 -0.0340  0.3709
 9100SOL    HW138936   4.030   3.277   3.300  0.3403 -1.3261  0.3629
 9100SOL    HW238937   4.024   3.183   3.410 -0.0631 -0.1556 -1.3215
 9101SOL     OW38938   0.808   1.835   0.612 -0.4380 -0.0160 -0.8939
 9101SOL    HW138939   0.804   1.804   0.521  0.7097 -0.6134 -0.7389
 9101SOL    HW238940   0.754   1.772   0.659  0.5609 -0.9507 -0.9958
 9102SOL     OW38941   3.803   2.976   2.688 -0.0612  0.3049  0.0001
 9102SOL    HW138942   3.758   2.972   2.603  0.7804 -2.4746 -0.3031
 9102SOL    HW238943   3.799   2.882   2.703 -1.7609  0.3752  0.0101
 9103SOL     OW38944   4.174   0.079   7.425  0.5394 -0.5461  0.3306
 9103SOL    HW138945   4.140   0.129   7.351  0.6326 -0.8173  0.1055
 9103SOL    HW238946   4.150   4.730   7.386 -1.6095  0.7551 -1.1846
 9104SOL     OW38947   0.669   0.465   5.310  0.4996  0.3879  0.2274
 9104SOL    HW138948   0.658   0.383   5.358  1.4062  0.3718  0.4163
 9104SOL    HW238949   0.665   0.441   5.218  1.1222 -0.6985  0.4833
 9105SOL     OW38950   4.410   4.675   6.624  0.2437  0.8587  0.0171
 9105SOL    HW138951   4.475   4.605   6.611  0.2784  0.7094  0.9315
 9105SOL    HW238952   4.332   4.620   6.624  0.8151  0.0225  2.7131
 9106SOL     OW38953   3.528   0.888  17.536  0.2716  0.1999 -0.4346
 9106SOL    HW138954   3.566   0.976  17.541  0.0173  0.3404 -0.9974
 9106SOL    HW238955   3.591   0.840  17.482 -0.1500 -0.4373 -0.3584
 9107SOL     OW38956   3.822   0.123   6.294  0.0127  0.3076 -0.0710
 9107SOL    HW138957   3.808   0.075   6.212  1.8004 -0.2680 -0.0463
 9107SOL    HW238958   3.733   0.115   6.328 -0.3739  0.8819 -0.9599
 9108SOL     OW38959   0.798   1.432   6.352  0.1861 -0.4850  0.4377
 9108SOL    HW138960   0.845   1.421   6.270  3.0405  0.7488  1.9250
 9108SOL    HW238961   0.792   1.341   6.381  0.7187 -0.0186  1.9687
 9109SOL     OW38962   4.706   1.107   4.710  0.0370 -0.7047  0.2821
 9109SOL    HW138963   4.693   1.110   4.805 -1.8398  0.9737 -0.0511
 9109SOL    HW238964   4.715   1.202   4.703 -1.5239 -0.6401 -0.9021
 9110SOL     OW38965   2.578   1.742  11.411  0.1597 -0.7476 -0.2691
 9110SOL    HW138966   2.664   1.778  11.431 -1.4217  3.2949 -0.7249
 9110SOL    HW238967   2.518   1.794  11.464 -0.2490 -0.2311 -1.2351
 9111SOL     OW38968   2.602   4.431   1.550 -0.0822 -0.6271 -0.1113
 9111SOL    HW138969   2.584   4.525   1.554 -2.6833 -1.1630  1.0966
 9111SOL    HW238970   2.551   4.397   1.624 -0.5193  0.1431 -0.0592
 9112SOL     OW38971   3.002   0.610   4.722  0.0613 -0.2232  0.2429
 9112SOL    HW138972   2.965   0.697   4.706  2.0232  0.6344  0.4790
 9112SOL    HW238973   2.962   0.591   4.807  3.4311  0.4035  1.9354
 9113SOL     OW38974   0.360   3.338   0.829 -0.1487  0.7352 -0.7125
 9113SOL    HW138975   0.280   3.287   0.811  0.0268  0.1294  0.2183
 9113SOL    HW238976   0.424   3.271   0.852 -1.1265 -0.2324 -0.7748
 9114SOL     OW38977   3.761   0.788   3.242  0.1193 -0.5420 -0.7179
 9114SOL    HW138978   3.729   0.848   3.175  1.0752 -0.5594 -1.1895
 9114SOL    HW238979   3.841   0.752   3.204  0.4802 -0.2145 -0.2598
 9115SOL     OW38980   1.486   2.060   2.998 -0.0607 -0.1509  0.5435
 9115SOL    HW138981   1.393   2.039   2.993 -0.4735  1.8817 -0.4022
 9115SOL    HW238982   1.503   2.084   2.907  1.8035 -1.8375  0.4554
 9116SOL     OW38983   1.060   0.966  17.142 -0.4093 -0.2323 -0.1706
 9116SOL    HW138984   1.053   1.057  17.170  0.5838  0.3167 -1.7358
 9116SOL    HW238985   1.019   0.974  17.056  0.9752 -1.2248 -0.9313
 9117SOL     OW38986   3.840   0.350  15.773 -0.5156  0.6260  0.5704
 9117SOL    HW138987   3.780   0.286  15.734  0.3033  0.0119  0.3291
 9117SOL    HW238988   3.772   0.394  15.825  2.0368  0.0012  4.3985
 9118SOL     OW38989   3.825   3.304   7.566  0.1327  0.2742  0.3072
 9118SOL    HW138990   3.741   3.280   7.606  0.6163 -0.4913  0.8746
 9118SOL    HW238991   3.809   3.396   7.550  0.1533  0.3219  0.5561
 9119SOL     OW38992   2.812   1.955   1.164 -0.1224 -0.2765  0.2214
 9119SOL    HW138993   2.776   1.868   1.147 -1.6262  0.2780  0.5737
 9119SOL    HW238994   2.904   1.928   1.169 -0.9847 -3.0614  0.6763
 9120SOL     OW38995   4.235   4.024  13.217  0.2086  0.2131 -0.0036
 9120SOL    HW138996   4.227   3.936  13.181  1.8326  0.4049 -0.8590
 9120SOL    HW238997   4.267   4.072  13.140  1.0997  0.3937  0.4790
 9121SOL     OW38998   1.020   3.927  12.114 -0.2648  0.3558 -0.2914
 9121SOL    HW138999   0.942   3.943  12.166  0.1508 -1.0473  0.7662
 9121SOL    HW239000   1.035   4.002  12.056 -5.7592  1.3284 -0.4297
 9122SOL     OW39001   0.052   0.969   5.602 -0.1846  0.1130 -0.6932
 9122SOL    HW139002   4.708   0.916   5.610 -0.2081  0.3477  0.7843
 9122SOL    HW239003   0.012   1.056   5.602  0.2897  0.3315 -0.9394
 9123SOL     OW39004   3.527   3.246  14.359  0.1366  0.0596  1.0062
 9123SOL    HW139005   3.472   3.285  14.290  0.9937  0.3095  0.4663
 9123SOL    HW239006   3.544   3.325  14.411  1.0327  0.7154 -0.2868
 9124SOL     OW39007   0.511   1.055   3.568  0.6317 -0.1051  0.2736
 9124SOL    HW139008   0.548   0.999   3.500  1.1469  0.1476  0.3480
 9124SOL    HW239009   0.495   0.989   3.636 -4.0061  1.5304  0.7538
 9125SOL     OW39010   0.935   2.087   1.174 -1.3828 -0.0510 -0.4088
 9125SOL    HW139011   0.923   1.993   1.191 -0.2547 -0.3097 -1.0521
 9125SOL    HW239012   0.933   2.115   1.265 -1.2786 -0.5279 -0.2589
 9126SOL     OW39013   4.009   2.487  17.414 -0.6208 -0.6018  0.3418
 9126SOL    HW139014   4.102   2.470  17.430 -0.6600 -2.3565 -1.3263
 9126SOL    HW239015   3.989   2.410  17.360 -1.1344  0.6312 -1.2082
 9127SOL     OW39016   2.294   3.604  17.385 -0.2512 -0.5451  0.0055
 9127SOL    HW139017   2.249   3.667  17.441 -1.7422 -0.4298 -1.2950
 9127SOL    HW239018   2.287   3.521  17.432  1.9099  0.3665  1.9484
 9128SOL     OW39019   4.369   2.819   1.142  0.0837  0.2656 -0.6415
 9128SOL    HW139020   4.374   2.849   1.051 -0.7608  0.7691 -0.5235
 9128SOL    HW239021   4.327   2.893   1.185 -1.2761 -0.0265 -1.4931
 9129SOL     OW39022   1.413   3.952   6.104  0.0394  0.0056  0.0538
 9129SOL    HW139023   1.495   4.000   6.112 -0.8795  1.6611 -0.4220
 9129SOL    HW239024   1.446   3.882   6.160 -2.8159 -0.2167  1.4957
 9130SOL     OW39025   2.394   3.545   1.771 -0.1314  0.2238 -0.0791
 9130SOL    HW139026   2.347   3.487   1.710  0.0338  1.3240 -1.2371
 9130SOL    HW239027   2.343   3.551   1.852 -2.0642  0.0761 -1.2884
 9131SOL     OW39028   1.023   3.046   2.678 -0.1193  0.1201 -0.0837
 9131SOL    HW139029   0.950   2.995   2.713 -0.3674 -0.0904 -0.8998
 9131SOL    HW239030   1.023   3.114   2.745 -0.1719  1.3878 -1.3517
 9132SOL     OW39031   0.973   1.702   8.693 -0.4744  0.0313 -0.4900
 9132SOL    HW139032   0.932   1.717   8.607 -0.1270 -1.1727 -0.8644
 9132SOL    HW239033   1.049   1.648   8.670 -0.2263  0.8719 -1.6779
 9133SOL     OW39034   4.668   2.454   1.748 -0.1886 -0.6649 -0.3342
 9133SOL    HW139035   4.573   2.465   1.746 -0.2035 -0.5004  1.0901
 9133SOL    HW239036   4.672   2.449   1.844  1.3412  0.5621 -0.3426
 9134SOL     OW39037   2.196   1.281  16.736  0.0833  0.2568  0.6327
 9134SOL    HW139038   2.232   1.369  16.746 -3.0775  1.7255 -1.0551
 9134SOL    HW239039   2.134   1.288  16.809 -1.9645 -1.9914 -0.8945
 9135SOL     OW39040   1.814   4.240   5.181  0.8422  0.0050  0.2109
 9135SOL    HW139041   1.770   4.192   5.250  0.0072  3.1398  1.8431
 9135SOL    HW239042   1.768   4.324   5.174 -0.2727 -0.6700 -0.5180
 9136SOL     OW39043   3.279   2.566   3.579 -0.1493 -0.2216 -0.2753
 9136SOL    HW139044   3.372   2.547   3.594 -0.4778  0.0670  2.1606
 9136SOL    HW239045   3.295   2.648   3.534  0.2879 -0.8288 -1.2280
 9137SOL     OW39046   0.060   4.697  16.758 -0.0599  0.1694 -0.1460
 9137SOL    HW139047   4.732   0.031  16.780 -0.2157 -0.0159 -0.0077
 9137SOL    HW239048   0.053   4.710  16.664  0.9714 -3.3086 -0.7010
 9138SOL     OW39049   3.146   2.974   5.142 -0.4519  0.3104  0.6499
 9138SOL    HW139050   3.230   2.940   5.113 -0.5110  0.6012  0.1358
 9138SOL    HW239051   3.103   2.894   5.172 -0.6987  0.3655  0.4511
 9139SOL     OW39052   2.895   1.246  16.477 -0.0333  0.4867 -0.3161
 9139SOL    HW139053   2.915   1.215  16.388 -0.4322  2.4890 -1.1060
 9139SOL    HW239054   2.882   1.159  16.516 -2.1025  2.0916  2.5511
 9140SOL     OW39055   1.663   3.086  14.762 -0.1179  0.6603 -0.0288
 9140SOL    HW139056   1.731   3.028  14.729  0.1798 -0.2639  2.2103
 9140SOL    HW239057   1.725   3.126  14.823  0.6845  1.6814 -1.5381
 9141SOL     OW39058   1.632   2.593   9.384 -0.7518 -0.4931 -0.0107
 9141SOL    HW139059   1.699   2.531   9.413 -0.8932  0.5870  2.5574
 9141SOL    HW239060   1.571   2.528   9.349 -0.4518 -0.3891 -0.7284
 9142SOL     OW39061   0.078   0.753   6.685 -0.2140  0.4827  0.7019
 9142SOL    HW139062   0.097   0.821   6.748  1.5834  1.0445 -0.4601
 9142SOL    HW239063   0.142   0.685   6.705 -2.1856 -1.2267  1.2169
 9143SOL     OW39064   1.881   3.159  11.070 -0.5174 -0.5208  0.0748
 9143SOL    HW139065   1.930   3.176  11.151  0.1707  0.5704 -0.5659
 9143SOL    HW239066   1.915   3.223  11.007 -1.4355 -1.8715 -1.7555
 9144SOL     OW39067   3.171   1.703   5.284  0.3554  0.2443  0.3790
 9144SOL    HW139068   3.195   1.640   5.216  2.1006  0.9556  0.3416
 9144SOL    HW239069   3.256   1.704   5.328  0.6807 -2.2242 -0.1628
 9145SOL     OW39070   2.135   3.821   3.774 -0.0047  0.2167 -0.3313
 9145SOL    HW139071   2.097   3.747   3.727  0.1499 -0.0764  0.0004
 9145SOL    HW239072   2.059   3.878   3.785 -0.6575 -0.3039 -2.2675
 9146SOL     OW39073   3.847   3.239  14.918  0.1970  0.1526 -0.0239
 9146SOL    HW139074   3.846   3.167  14.855 -1.4350  0.1735 -0.0081
 9146SOL    HW239075   3.906   3.299  14.872  0.7020 -0.6305 -0.3933
 9147SOL     OW39076   3.102   2.200   3.758 -0.0672 -0.0431 -0.3429
 9147SOL    HW139077   3.154   2.272   3.723  2.1197 -2.0006 -1.0438
 9147SOL    HW239078   3.036   2.258   3.796 -0.5737 -0.4999 -0.5178
 9148SOL     OW39079   4.692   2.235   7.599  0.1038  0.1891  0.8338
 9148SOL    HW139080   4.661   2.160   7.649  2.3841 -1.6427 -0.5211
 9148SOL    HW239081   0.008   2.183   7.538  0.5476  1.0476  0.4685
 9149SOL     OW39082   3.775   4.523   9.486  0.3004 -0.7451 -0.1493
 9149SOL    HW139083   3.731   4.465   9.423  1.3141  0.0944 -1.6391
 9149SOL    HW239084   3.756   4.488   9.573 -0.2431  2.0522  0.8635
 9150SOL     OW39085   0.567   0.702   6.563  0.5646 -0.0700 -0.3506
 9150SOL    HW139086   0.554   0.676   6.471  1.7161  2.1813 -1.1414
 9150SOL    HW239087   0.475   0.698   6.589  0.8103  0.0369  0.5258
 9151SOL     OW39088   1.294   2.169  10.333  0.3067  0.2264 -0.1498
 9151SOL    HW139089   1.233   2.123  10.274 -2.1273  0.0619  2.4936
 9151SOL    HW239090   1.279   2.142  10.424  1.6231 -0.2848 -0.0891
 9152SOL     OW39091   4.689   0.249   3.727  0.9410  0.4298 -0.2534
 9152SOL    HW139092   4.628   0.175   3.726  0.2822  0.9511  2.1642
 9152SOL    HW239093   4.643   0.302   3.792 -2.5431 -1.4723 -1.1872
 9153SOL     OW39094   1.850   4.700  17.631  0.1338 -0.6263  0.0754
 9153SOL    HW139095   1.830   0.047  17.585  0.3616 -0.3588  0.4550
 9153SOL    HW239096   1.833   4.638  17.560 -1.9311 -0.5952  0.5138
 9154SOL     OW39097   2.834   1.054  10.291  0.1573 -0.4112  0.2392
 9154SOL    HW139098   2.834   1.054  10.196  0.2169 -0.6699  0.2394
 9154SOL    HW239099   2.740   1.048  10.309 -0.0411  0.7879 -0.3892
 9155SOL     OW39100   1.371   0.769  12.484 -0.0281 -0.0139  0.3044
 9155SOL    HW139101   1.308   0.769  12.556  0.9349  0.9501  1.1566
 9155SOL    HW239102   1.322   0.704  12.434 -1.6302  0.9611  0.5976
 9156SOL     OW39103   1.219   1.370  13.035 -0.1007  0.6548  0.6673
 9156SOL    HW139104   1.302   1.343  13.073  0.9976  0.9448 -1.5378
 9156SOL    HW239105   1.236   1.358  12.942 -1.0179  1.1682  0.4401
 9157SOL     OW39106   1.799   1.597  12.221  0.3648 -0.1700 -0.4333
 9157SOL    HW139107   1.725   1.647  12.254  0.9468  0.9901 -0.8945
 9157SOL    HW239108   1.865   1.619  12.287 -0.5600  0.2462  0.3413
 9158SOL     OW39109   3.636   2.057  12.573 -0.2710 -0.8667  0.4591
 9158SOL    HW139110   3.554   2.091  12.609 -0.3119 -0.2146 -0.2537
 9158SOL    HW239111   3.613   2.061  12.480  1.1848 -0.8322  0.1109
 9159SOL     OW39112   0.671   0.237   4.287 -0.1825 -0.5317  0.6376
 9159SOL    HW139113   0.763   0.265   4.293  0.2421 -1.5651 -1.3068
 9159SOL    HW239114   0.656   0.234   4.193 -1.0582 -0.8923  0.7890
 9160SOL     OW39115   1.692   4.518   8.816 -0.5457 -0.3450 -0.3273
 9160SOL    HW139116   1.678   4.459   8.741  0.6266 -0.3265 -0.5508
 9160SOL    HW239117   1.665   4.604   8.783  0.5020  0.1038  0.0152
 9161SOL     OW39118   2.027   2.667   6.113 -0.1772 -0.6675  0.0565
 9161SOL    HW139119   2.010   2.678   6.206 -1.1148 -1.6939  0.0047
 9161SOL    HW239120   2.111   2.708   6.095 -0.3647  0.7490  2.3720
 9162SOL     OW39121   0.238   1.696   8.206 -0.1264 -0.5058  0.3394
 9162SOL    HW139122   0.302   1.634   8.241 -0.0785 -0.4161  0.4096
 9162SOL    HW239123   0.184   1.717   8.282 -1.8815 -0.7125 -0.8502
 9163SOL     OW39124   2.262   3.104   2.510 -0.0408 -0.6189  0.4906
 9163SOL    HW139125   2.292   3.086   2.598  1.8430  0.4136  0.0461
 9163SOL    HW239126   2.184   3.048   2.500 -0.1977 -0.5424  1.3178
 9164SOL     OW39127   1.542   4.287   3.138  0.1016 -0.6056 -0.1108
 9164SOL    HW139128   1.616   4.343   3.163 -0.1063 -1.0136  1.4364
 9164SOL    HW239129   1.534   4.235   3.218  0.2627 -2.5938 -1.3981
 9165SOL     OW39130   4.733   0.171   7.576 -0.3710  0.0113 -0.4247
 9165SOL    HW139131   4.657   0.166   7.518 -0.9592  1.7283  0.1854
 9165SOL    HW239132   4.677   0.183   7.653 -0.8242  3.2866 -1.2660
 9166SOL     OW39133   3.127   1.646   4.656  0.4285  0.0413 -0.1062
 9166SOL    HW139134   3.137   1.740   4.638  0.0049  0.8964  4.1693
 9166SOL    HW239135   3.100   1.613   4.571  1.6102  1.3659 -1.0046
 9167SOL     OW39136   0.718   1.080   6.949 -0.2247 -0.1593 -1.0643
 9167SOL    HW139137   0.800   1.060   6.995 -0.9579  0.6289  0.6027
 9167SOL    HW239138   0.719   1.017   6.877  0.5320  0.0697 -1.2508
 9168SOL     OW39139   3.107   0.293   2.921 -0.5242 -0.4549  0.7002
 9168SOL    HW139140   3.042   0.253   2.864 -0.4952  0.7621 -0.1781
 9168SOL    HW239141   3.115   0.376   2.874  1.7683 -0.7018  0.6456
 9169SOL     OW39142   2.211   0.749   2.000 -0.2489  0.0938  0.4962
 9169SOL    HW139143   2.177   0.827   1.957 -3.2253 -0.1461  2.3661
 9169SOL    HW239144   2.229   0.772   2.091  2.0577  1.4677 -0.3052
 9170SOL     OW39145   0.140   1.845   3.347  0.0244  0.0503  0.2364
 9170SOL    HW139146   0.184   1.928   3.367  2.5926 -1.4300  0.7688
 9170SOL    HW239147   0.123   1.819   3.437 -1.1473  0.2351  0.0668
 9171SOL     OW39148   4.704   1.324   5.893 -0.1372  0.3094 -0.3662
 9171SOL    HW139149   0.041   1.278   5.849  0.2701  2.0756 -1.5045
 9171SOL    HW239150   4.658   1.251   5.936 -0.4073  0.0086 -1.1815
 9172SOL     OW39151   0.492   1.448  16.868 -0.0859 -0.1021 -0.3490
 9172SOL    HW139152   0.522   1.361  16.844 -2.0670 -0.4499 -1.5378
 9172SOL    HW239153   0.558   1.508  16.833 -0.0738 -0.5742 -1.1313
 9173SOL     OW39154   0.694   4.274   5.752  0.0488  0.6517 -0.1620
 9173SOL    HW139155   0.637   4.199   5.763 -0.8387  1.4992  0.9887
 9173SOL    HW239156   0.728   4.266   5.662 -0.6807  0.8690 -0.4520
 9174SOL     OW39157   4.244   4.481   1.852 -0.1755 -0.5105 -0.3354
 9174SOL    HW139158   4.149   4.490   1.860  0.0932  1.2403  0.8618
 9174SOL    HW239159   4.264   4.436   1.934  1.4373 -1.1621 -1.0749
 9175SOL     OW39160   3.438   3.591   1.774  0.6479 -0.1145 -0.7321
 9175SOL    HW139161   3.482   3.605   1.858  1.4520 -1.1486 -0.9828
 9175SOL    HW239162   3.373   3.529   1.804  1.4695 -1.1753 -1.1367
 9176SOL     OW39163   3.201   2.612   5.733  0.2540  0.0518  0.2046
 9176SOL    HW139164   3.186   2.541   5.671  3.6978 -1.0031  0.6161
 9176SOL    HW239165   3.111   2.635   5.756  0.3415  1.8325 -1.2716
 9177SOL     OW39166   0.657   1.061  11.973  0.5953 -0.2918 -0.1095
 9177SOL    HW139167   0.689   0.971  11.977  1.6112  0.1017  0.5350
 9177SOL    HW239168   0.585   1.078  11.913  0.7461  0.2323 -0.1420
 9178SOL     OW39169   0.538   3.573   6.581 -0.2986 -0.7442  0.8792
 9178SOL    HW139170   0.477   3.602   6.514  2.2536  0.1937 -1.0687
 9178SOL    HW239171   0.474   3.514   6.620 -1.4392  0.5392  0.9154
 9179SOL     OW39172   3.498   2.138  16.698  0.2644 -0.1379 -0.3608
 9179SOL    HW139173   3.482   2.124  16.791 -0.3302 -1.9869 -0.7399
 9179SOL    HW239174   3.592   2.154  16.708  0.6839 -1.4613 -2.1014
 9180SOL     OW39175   0.272   1.147   3.413 -0.0363  0.7528 -0.2035
 9180SOL    HW139176   0.227   1.207   3.472 -0.6616  2.7376 -2.7439
 9180SOL    HW239177   0.340   1.128   3.479 -0.4856  0.0031  0.0508
 9181SOL     OW39178   3.837   0.518   6.585  0.0360 -0.1461  0.1240
 9181SOL    HW139179   3.744   0.499   6.594 -0.4530  1.5995 -1.2471
 9181SOL    HW239180   3.848   0.477   6.499 -0.0799 -0.9107  0.4689
 9182SOL     OW39181   3.655   3.610  16.596 -0.1960  0.0062  0.1870
 9182SOL    HW139182   3.705   3.671  16.651  0.4610  0.2032 -0.6426
 9182SOL    HW239183   3.581   3.668  16.585 -0.2644 -0.1328 -0.0753
 9183SOL     OW39184   4.618   1.067   5.354 -0.0529 -0.5778  0.2274
 9183SOL    HW139185   4.543   1.060   5.413  0.1793 -1.7077  0.3919
 9183SOL    HW239186   4.588   1.038   5.267 -0.3086  2.1172 -0.5696
 9184SOL     OW39187   3.755   1.034   7.538 -0.0982 -0.1583  0.2678
 9184SOL    HW139188   3.754   1.095   7.612  0.8630  0.1210  0.0501
 9184SOL    HW239189   3.844   1.048   7.506  0.4359 -0.6993  1.5093
 9185SOL     OW39190   4.474   0.897   3.571  0.1550  0.2976 -0.0374
 9185SOL    HW139191   4.419   0.955   3.625 -2.5572 -1.2723 -1.1439
 9185SOL    HW239192   4.547   0.956   3.552  1.2946 -1.9480 -2.5684
 9186SOL     OW39193   2.662   2.968   1.579 -0.0658 -0.4395 -0.2616
 9186SOL    HW139194   2.647   2.910   1.504 -3.4884 -1.5169  1.2578
 9186SOL    HW239195   2.624   2.925   1.656  2.5954  0.5068  1.5902
 9187SOL     OW39196   2.571   4.676  15.116 -0.0242  0.3320 -0.0658
 9187SOL    HW139197   2.499   4.710  15.063  1.3000  2.3110 -0.5999
 9187SOL    HW239198   2.540   4.590  15.143 -0.7955  0.8005  0.5316
 9188SOL     OW39199   4.053   1.740   5.360  0.0533  0.4313 -0.1656
 9188SOL    HW139200   3.994   1.734   5.436  0.1194  2.2300  0.0183
 9188SOL    HW239201   4.084   1.828   5.381 -1.8086  1.2671 -0.9406
 9189SOL     OW39202   2.019   2.827  10.067 -0.5532  0.3750  0.2176
 9189SOL    HW139203   1.967   2.767  10.121 -2.2035 -1.3698 -3.2466
 9189SOL    HW239204   2.003   2.791   9.979  1.6751  3.0447 -1.2722
 9190SOL     OW39205   2.728   4.064  12.215 -0.0905 -0.3117  0.0250
 9190SOL    HW139206   2.819   4.085  12.196 -0.7159  0.2667 -2.4043
 9190SOL    HW239207   2.707   4.020  12.132  1.9468 -3.9474  1.4414
 9191SOL     OW39208   3.587   3.749   6.210  0.4742 -0.0946  0.4583
 9191SOL    HW139209   3.570   3.683   6.142  0.2334  0.6191 -0.1738
 9191SOL    HW239210   3.619   3.827   6.165  0.3291 -1.0193 -1.2902
 9192SOL     OW39211   0.267   1.403   5.173 -0.3394  0.1931 -0.2545
 9192SOL    HW139212   0.251   1.412   5.267  1.0799 -0.3237  0.0467
 9192SOL    HW239213   0.344   1.347   5.185  0.6285  1.1498 -2.0674
 9193SOL     OW39214   3.496   4.558   0.847  0.1228  0.1434 -0.9836
 9193SOL    HW139215   3.500   4.474   0.892 -0.8275 -0.1943 -1.5216
 9193SOL    HW239216   3.588   4.584   0.851  0.0944  0.1372 -0.4064
 9194SOL     OW39217   3.778   4.073   7.774 -0.4526 -0.3946  0.4206
 9194SOL    HW139218   3.841   4.003   7.759  1.5359  1.6837 -1.0206
 9194SOL    HW239219   3.706   4.019   7.807  0.8085 -1.7062  1.0158
 9195SOL     OW39220   2.310   1.913   0.455  0.5610  0.4107  0.5312
 9195SOL    HW139221   2.292   1.941   0.545 -0.5614  3.7526 -0.7423
 9195SOL    HW239222   2.244   1.844   0.450 -0.0134  0.9384  0.9145
 9196SOL     OW39223   2.165   2.451   3.900  0.5016 -0.2981 -0.3970
 9196SOL    HW139224   2.210   2.504   3.967 -0.7236  2.8583 -2.0518
 9196SOL    HW239225   2.202   2.365   3.918 -0.9471 -0.8096  0.1007
 9197SOL     OW39226   2.436   3.378   5.679 -0.1101  0.1635 -0.2595
 9197SOL    HW139227   2.492   3.356   5.604 -1.5240 -1.4516 -0.8336
 9197SOL    HW239228   2.359   3.322   5.671 -1.1091  0.9580  3.9803
 9198SOL     OW39229   1.499   0.487   5.400 -0.0098  0.3453  0.6977
 9198SOL    HW139230   1.535   0.428   5.335 -2.3086 -0.9283  0.5752
 9198SOL    HW239231   1.414   0.453   5.429 -1.1966  0.6266 -2.4756
 9199SOL     OW39232   3.392   3.174   6.499  0.2696 -0.2635 -0.1228
 9199SOL    HW139233   3.404   3.089   6.457 -2.8940 -0.3126 -0.8938
 9199SOL    HW239234   3.322   3.143   6.555  1.4378  1.4626  2.2970
 9200SOL     OW39235   1.448   4.493   8.309 -0.3253  0.0582  0.1158
 9200SOL    HW139236   1.453   4.399   8.322  1.2718 -0.1600 -2.0297
 9200SOL    HW239237   1.532   4.528   8.339  0.0819 -0.9428  0.1415
 9201SOL     OW39238   0.914   4.444  11.378  0.2335  0.1456 -0.0958
 9201SOL    HW139239   0.934   4.365  11.428  0.2106 -0.3697 -0.9007
 9201SOL    HW239240   1.005   4.458  11.354 -0.1403 -0.9517 -2.1208
 9202SOL     OW39241   0.563   1.489   3.354  0.3398  0.2321 -0.2624
 9202SOL    HW139242   0.488   1.547   3.343 -1.8587 -2.6244 -0.5274
 9202SOL    HW239243   0.540   1.421   3.291 -3.4024  1.2756  0.0002
 9203SOL     OW39244   0.382   3.546   4.377 -0.1585  0.3872  0.4160
 9203SOL    HW139245   0.394   3.460   4.337 -0.8220  0.1085  0.8117
 9203SOL    HW239246   0.296   3.574   4.346  0.4124  1.2351 -0.4107
 9204SOL     OW39247   0.223   1.423   4.910 -0.2726 -0.2238 -0.4569
 9204SOL    HW139248   0.226   1.413   5.005  0.5826  0.2703 -0.4318
 9204SOL    HW239249   0.313   1.445   4.887  0.5280  0.1581  2.9366
 9205SOL     OW39250   3.500   4.698   2.011  0.1781 -0.3954  0.1441
 9205SOL    HW139251   3.448   4.665   1.938  2.9667 -2.3795 -0.9378
 9205SOL    HW239252   3.527   0.049   1.980 -2.6018  1.5959  3.1293
 9206SOL     OW39253   2.917   2.761   1.215 -0.1304  0.3270 -0.0306
 9206SOL    HW139254   2.889   2.836   1.267  1.9510  1.2417 -0.2140
 9206SOL    HW239255   2.998   2.793   1.175 -0.7983  1.9209 -0.0854
 9207SOL     OW39256   2.516   0.933   7.462  0.3245 -0.6017  0.1116
 9207SOL    HW139257   2.608   0.909   7.471  0.0808 -1.8346 -0.6294
 9207SOL    HW239258   2.505   0.976   7.377  2.1411 -0.4017 -0.0025
 9208SOL     OW39259   1.147   2.145  11.745 -0.1278 -0.1694  0.0528
 9208SOL    HW139260   1.147   2.236  11.774  0.9266 -0.8107  2.1036
 9208SOL    HW239261   1.064   2.143  11.698  0.8543  0.9457 -1.7351
 9209SOL     OW39262   4.458   0.648   1.917 -0.5156 -0.0919 -0.0527
 9209SOL    HW139263   4.403   0.657   1.838 -0.1650 -0.2490 -0.3133
 9209SOL    HW239264   4.468   0.740   1.940 -0.9539 -0.4205  1.4099
 9210SOL     OW39265   4.048   1.292   4.769 -0.5144 -0.3093  0.4484
 9210SOL    HW139266   4.040   1.215   4.824  0.0047 -0.5289  0.2115
 9210SOL    HW239267   4.096   1.256   4.694 -2.0377  0.3678 -0.8657
 9211SOL     OW39268   0.740   3.126   3.904 -0.5396 -0.6323 -0.4675
 9211SOL    HW139269   0.653   3.086   3.894 -0.9506  0.3377 -0.7849
 9211SOL    HW239270   0.797   3.055   3.875 -0.0946 -0.0876 -0.9068
 9212SOL     OW39271   1.865   1.435   8.007  0.4837  0.2725 -0.2393
 9212SOL    HW139272   1.783   1.386   8.011 -0.9818  2.7881  0.3497
 9212SOL    HW239273   1.932   1.366   8.014 -0.6751 -0.9627 -1.2959
 9213SOL     OW39274   0.397   3.687   7.049 -0.1808 -0.0285 -0.1756
 9213SOL    HW139275   0.358   3.673   6.963  0.0657 -1.2866 -0.0797
 9213SOL    HW239276   0.465   3.619   7.044  0.8900  0.9848  0.4257
 9214SOL     OW39277   4.592   2.905   0.464 -0.0712 -0.8952 -0.2354
 9214SOL    HW139278   4.508   2.908   0.418 -0.2706 -0.5326  0.1597
 9214SOL    HW239279   4.568   2.855   0.542  0.2690  1.4874  1.3804
 9215SOL     OW39280   1.916   2.646   8.142 -0.2496 -0.1064 -0.0805
 9215SOL    HW139281   1.860   2.622   8.068  0.2820  0.8468 -0.7917
 9215SOL    HW239282   1.942   2.736   8.127 -0.1200 -0.0081  0.7409
 9216SOL     OW39283   1.024   4.342   7.413  0.2938 -0.2888  0.0544
 9216SOL    HW139284   0.964   4.300   7.475 -0.6313 -0.4006 -0.8948
 9216SOL    HW239285   0.992   4.307   7.330 -1.2102  1.6110 -0.1664
 9217SOL     OW39286   0.491   3.004   3.938 -0.5063  0.8608 -0.4200
 9217SOL    HW139287   0.400   2.997   3.965 -0.2683 -1.9119 -0.3115
 9217SOL    HW239288   0.491   2.960   3.853 -1.5950  1.9330 -0.9749
 9218SOL     OW39289   2.170   2.657   0.624  0.0100  0.0973  0.5533
 9218SOL    HW139290   2.197   2.594   0.691 -4.7432  0.2166  2.5853
 9218SOL    HW239291   2.128   2.712   0.690 -1.7382 -0.5658  0.0000
 9219SOL     OW39292   0.743   1.858   4.538 -0.2806  0.2892 -0.3652
 9219SOL    HW139293   0.770   1.789   4.598  0.7727  0.2786 -0.8412
 9219SOL    HW239294   0.761   1.813   4.455  0.3252  0.1451 -0.1572
 9220SOL     OW39295   2.228   1.303   5.780  0.2310 -0.4043  0.1108
 9220SOL    HW139296   2.274   1.385   5.799  0.4351 -0.6684  0.7286
 9220SOL    HW239297   2.259   1.254   5.856 -0.3517 -0.7254  0.1428
 9221SOL     OW39298   1.057   1.773   3.010 -0.2667 -0.0719 -0.0381
 9221SOL    HW139299   1.063   1.739   3.100  0.6092 -2.3818 -0.9640
 9221SOL    HW239300   1.080   1.864   3.025 -0.4903  0.1575 -1.1162
 9222SOL     OW39301   3.027   2.299   1.322 -0.1855  0.0091  0.3415
 9222SOL    HW139302   2.953   2.241   1.305  0.3898  0.2111 -2.9719
 9222SOL    HW239303   3.037   2.281   1.415 -0.2484 -0.6970  0.2112
 9223SOL     OW39304   1.241   4.138   7.260 -0.3658  0.0087 -0.0943
 9223SOL    HW139305   1.319   4.126   7.314  0.5364  0.2682 -1.3331
 9223SOL    HW239306   1.239   4.233   7.270  0.9282 -0.0362  0.6446
 9224SOL     OW39307   3.536   4.116   6.323  0.0407  0.1302 -0.2965
 9224SOL    HW139308   3.576   4.158   6.247 -1.4851  1.2036 -0.4960
 9224SOL    HW239309   3.448   4.146   6.301 -0.4963 -1.3358 -0.1364
 9225SOL     OW39310   4.196   0.361   4.473  0.5706  0.3351  0.0788
 9225SOL    HW139311   4.105   0.386   4.490  0.3927 -0.3965  0.2007
 9225SOL    HW239312   4.193   0.269   4.448 -0.4664  0.3405  0.1555
 9226SOL     OW39313   2.131   3.064   6.201  0.4124  0.2697  0.4965
 9226SOL    HW139314   2.049   3.060   6.151  0.5657 -0.5761  0.3228
 9226SOL    HW239315   2.196   3.036   6.137 -0.9279 -0.3856 -0.5791
 9227SOL     OW39316   3.853   0.807  15.055 -0.0088 -0.2238 -0.5023
 9227SOL    HW139317   3.929   0.801  14.997  1.1635 -0.8523  1.0935
 9227SOL    HW239318   3.879   0.866  15.125 -1.1330 -1.8975  1.3154
 9228SOL     OW39319   1.908   2.408  11.002 -0.3396  0.6484 -0.3012
 9228SOL    HW139320   2.002   2.421  11.008 -0.3764  1.0710 -0.6500
 9228SOL    HW239321   1.872   2.474  11.061 -0.8890  0.7891 -0.7891
 9229SOL     OW39322   1.192   3.607  16.548 -0.6753 -0.1755 -0.5775
 9229SOL    HW139323   1.147   3.636  16.627  1.5152 -0.7564  0.8936
 9229SOL    HW239324   1.130   3.542  16.516 -2.5045  1.2362  0.1077
 9230SOL     OW39325   4.681   1.760   3.185  0.2351 -0.1515  0.1341
 9230SOL    HW139326   0.018   1.797   3.237  1.9092 -0.2675 -2.1311
 9230SOL    HW239327   4.634   1.709   3.251 -2.0643  0.6118 -0.8984
 9231SOL     OW39328   3.726   2.657   3.963 -0.5879 -0.4977  0.1522
 9231SOL    HW139329   3.645   2.628   4.005 -0.0687  0.1233  1.5619
 9231SOL    HW239330   3.737   2.590   3.895  2.6469 -1.3149  1.4989
 9232SOL     OW39331   1.572   0.521   8.179 -0.0960  0.3300 -0.3101
 9232SOL    HW139332   1.605   0.443   8.224  0.0991  0.5971  0.0183
 9232SOL    HW239333   1.643   0.583   8.199 -0.4627  0.4230  0.7320
 9233SOL     OW39334   1.067   3.050   7.389 -0.7054  0.1572 -0.3710
 9233SOL    HW139335   0.976   3.053   7.361 -1.4275 -0.6363  1.9173
 9233SOL    HW239336   1.060   3.056   7.484  0.6946  0.0897 -0.2572
 9234SOL     OW39337   1.371   1.034   7.197  0.2295 -0.3051  0.3750
 9234SOL    HW139338   1.343   0.964   7.139 -1.5156  0.3714  0.4021
 9234SOL    HW239339   1.449   1.071   7.156 -0.0009 -1.1144 -0.8035
 9235SOL     OW39340   2.312   4.616   3.862  0.7078 -0.4651  0.3769
 9235SOL    HW139341   2.296   4.708   3.843  0.1961 -0.2262  1.9438
 9235SOL    HW239342   2.314   4.612   3.958  1.2470 -1.0889  0.3431
 9236SOL     OW39343   4.288   0.053   7.054 -0.0366 -0.4071 -0.4262
 9236SOL    HW139344   4.216   0.105   7.090 -0.2702  0.2472 -1.8457
 9236SOL    HW239345   4.248   0.035   6.969 -0.5661  0.2116 -0.3003
 9237SOL     OW39346   2.870   1.427   8.163 -0.0322  0.4080 -0.3335
 9237SOL    HW139347   2.874   1.357   8.229 -0.2298  2.2829  1.6682
 9237SOL    HW239348   2.906   1.396   8.080 -1.0874  3.2990 -1.8664
 9238SOL     OW39349   4.262   0.173   4.151 -0.0921  0.2799  0.0555
 9238SOL    HW139350   4.178   0.201   4.188  1.8998  1.8413  3.3893
 9238SOL    HW239351   4.217   0.117   4.087  0.1525  1.8763 -1.5282
 9239SOL     OW39352   0.440   3.734   7.327  0.2286  0.4044 -0.3189
 9239SOL    HW139353   0.412   3.822   7.353  4.4182  1.4762  0.4805
 9239SOL    HW239354   0.467   3.754   7.237  1.4614 -1.2548 -0.3062
 9240SOL     OW39355   0.248   1.455  16.080 -0.1918 -0.3883  0.3261
 9240SOL    HW139356   0.240   1.479  15.988  0.4859  1.0639  0.6454
 9240SOL    HW239357   0.208   1.368  16.083  0.2135 -0.5205  2.1827
 9241SOL     OW39358   1.183   2.078  12.219 -0.0106 -0.1466  0.2962
 9241SOL    HW139359   1.176   2.016  12.147 -0.5435  0.5332 -0.2448
 9241SOL    HW239360   1.132   2.152  12.185  0.4005 -0.0338 -0.0668
 9242SOL     OW39361   4.198   4.653   6.045 -0.2308  0.5865  0.4636
 9242SOL    HW139362   4.165   4.698   6.123 -1.9065 -1.1422  0.7662
 9242SOL    HW239363   4.190   4.725   5.984 -2.7701 -2.3477 -2.6549
 9243SOL     OW39364   4.175   0.625   0.091 -0.2316  0.3427  0.2989
 9243SOL    HW139365   4.216   0.677   0.161  2.3380 -0.6819 -0.4597
 9243SOL    HW239366   4.153   0.540   0.128 -0.5904 -0.3263 -1.4731
 9244SOL     OW39367   3.607   1.921  10.165 -0.5970  0.4971 -0.2271
 9244SOL    HW139368   3.603   2.010  10.200  3.1316  0.3684  0.5106
 9244SOL    HW239369   3.514   1.899  10.165 -0.9953  2.2328  1.1757
 9245SOL     OW39370   2.645   1.348   9.096  0.4184  0.1343 -0.4944
 9245SOL    HW139371   2.635   1.255   9.076  1.3883 -0.2324  0.7796
 9245SOL    HW239372   2.574   1.392   9.048 -0.8657 -1.7964 -0.3627
 9246SOL     OW39373   3.231   3.610   8.022  0.7001 -0.3028 -0.6832
 9246SOL    HW139374   3.246   3.646   8.109  1.0715 -4.6789  1.0560
 9246SOL    HW239375   3.212   3.517   8.034 -0.8455  0.2174  0.9804
 9247SOL     OW39376   1.343   0.847   2.892 -0.3988  0.2630  0.6164
 9247SOL    HW139377   1.354   0.755   2.866 -3.1481  0.6731 -1.9421
 9247SOL    HW239378   1.416   0.890   2.847 -2.3998  2.1376 -0.8253
 9248SOL     OW39379   0.737   2.142   6.001 -0.0539 -0.0728  0.2398
 9248SOL    HW139380   0.662   2.089   5.975  0.6075 -0.6145 -0.5613
 9248SOL    HW239381   0.799   2.131   5.929  0.3464  0.7867  0.4498
 9249SOL     OW39382   1.360   4.421   8.570  0.0019  0.5009 -0.4047
 9249SOL    HW139383   1.341   4.448   8.481 -0.3763 -0.3618 -0.5822
 9249SOL    HW239384   1.313   4.492   8.613 -1.1110 -0.0938 -0.6628
 9250SOL     OW39385   3.668   3.014   7.856 -0.5989 -0.5163 -0.4826
 9250SOL    HW139386   3.700   2.924   7.853 -0.3282 -0.5206  2.6515
 9250SOL    HW239387   3.754   3.055   7.842 -0.4870 -0.1625  1.2458
 9251SOL     OW39388   3.969   0.180  16.578  0.0237 -0.3144  0.0043
 9251SOL    HW139389   4.060   0.174  16.550  0.7863 -0.7664  2.5886
 9251SOL    HW239390   3.955   0.104  16.634  1.2754 -0.9779 -0.5931
 9252SOL     OW39391   2.820   1.672  15.174 -0.2530  0.1508 -0.2251
 9252SOL    HW139392   2.905   1.633  15.195  0.2235  0.8632 -0.8594
 9252SOL    HW239393   2.831   1.766  15.191  0.9867  0.1401 -0.9941
 9253SOL     OW39394   2.684   2.316   6.499 -0.3737  0.0766 -0.0844
 9253SOL    HW139395   2.639   2.320   6.583 -0.2753  0.1113 -0.0343
 9253SOL    HW239396   2.714   2.226   6.487  2.4959  0.9359  0.7624
 9254SOL     OW39397   3.855   0.777  17.567 -0.8462  0.4043 -0.5695
 9254SOL    HW139398   3.886   0.771  17.477 -1.4158  0.3792 -0.7646
 9254SOL    HW239399   3.769   0.734  17.568 -0.1306 -1.0115  0.0020
 9255SOL     OW39400   1.028   3.292   1.964 -0.5134  0.1869 -0.1546
 9255SOL    HW139401   1.058   3.220   1.909 -2.1175  0.9562 -2.0177
 9255SOL    HW239402   1.049   3.358   1.898  0.8011  0.7708  0.8430
 9256SOL     OW39403   1.886   4.696   5.977 -0.8917  0.5248 -0.1663
 9256SOL    HW139404   1.796   4.689   6.008 -0.6972 -2.2959 -0.2622
 9256SOL    HW239405   1.941   4.652   6.043 -0.0481  0.0128 -1.2118
 9257SOL     OW39406   4.440   3.928   0.741 -0.0967 -0.0940 -0.1839
 9257SOL    HW139407   4.394   3.967   0.667 -0.1194 -1.8500 -1.0782
 9257SOL    HW239408   4.482   4.002   0.785 -1.9369  0.2437  0.9991
 9258SOL     OW39409   2.389   0.127   2.620 -0.2470 -0.1753  0.2729
 9258SOL    HW139410   2.425   0.077   2.547  1.9813  0.8575  0.6448
 9258SOL    HW239411   2.325   0.184   2.577 -1.3752 -1.0403  0.8093
 9259SOL     OW39412   3.097   4.153   7.148 -0.3934  0.5441  0.2573
 9259SOL    HW139413   3.011   4.193   7.153 -0.4854  0.6351 -1.8579
 9259SOL    HW239414   3.100   4.117   7.236  0.7326  0.3402  0.1426
 9260SOL     OW39415   3.366   3.390   6.342  0.0906  0.4938  0.4883
 9260SOL    HW139416   3.454   3.428   6.336  0.6972 -0.9704  0.1436
 9260SOL    HW239417   3.372   3.312   6.396  0.5782 -0.3108 -0.7299
 9261SOL     OW39418   0.728   0.464   4.567 -0.0474 -0.0579 -0.1331
 9261SOL    HW139419   0.687   0.432   4.647 -0.9453 -0.5063 -0.7756
 9261SOL    HW239420   0.767   0.383   4.533 -1.9789 -0.0401 -2.3881
 9262SOL     OW39421   2.260   2.680   6.983 -0.0019  0.9826 -0.0163
 9262SOL    HW139422   2.354   2.693   6.972 -0.1690  1.3227 -1.0298
 9262SOL    HW239423   2.227   2.748   6.925 -0.3033  0.6484 -0.2362
 9263SOL     OW39424   3.799   0.770  15.434  0.0216  0.5470  0.3784
 9263SOL    HW139425   3.712   0.806  15.416  0.0419  0.3941 -0.0294
 9263SOL    HW239426   3.862   0.827  15.390 -1.1510  1.9169  0.4748
 9264SOL     OW39427   0.533   3.503   7.434 -0.4813 -0.2787 -0.2832
 9264SOL    HW139428   0.560   3.451   7.358 -1.4806  0.6172 -1.2638
 9264SOL    HW239429   0.505   3.587   7.395  0.1255  0.7027  1.3895
 9265SOL     OW39430   2.510   1.230   4.693  0.6508 -0.4227 -0.1427
 9265SOL    HW139431   2.576   1.238   4.763 -0.4767 -1.3796  1.0263
 9265SOL    HW239432   2.534   1.308   4.642  1.3535  0.0532  0.9066
 9266SOL     OW39433   3.343   1.097   2.059 -0.0581 -0.5691 -0.3183
 9266SOL    HW139434   3.429   1.100   2.016 -1.2482  1.8869 -2.5764
 9266SOL    HW239435   3.368   1.149   2.135 -1.3158  1.1300 -1.0624
 9267SOL     OW39436   3.725   1.110   7.829  0.2975 -0.1977 -0.6587
 9267SOL    HW139437   3.748   1.174   7.762 -1.1619  0.7846 -0.2230
 9267SOL    HW239438   3.740   1.169   7.903 -0.7033  1.4993 -1.8154
 9268SOL     OW39439   1.996   2.749   9.796 -0.1875 -0.3143  0.0364
 9268SOL    HW139440   1.946   2.748   9.715  0.0810 -1.0092 -0.1213
 9268SOL    HW239441   2.083   2.713   9.778 -0.0005  0.4251 -0.4983
 9269SOL     OW39442   2.385   3.693   7.676 -0.2449 -0.0691 -0.5622
 9269SOL    HW139443   2.327   3.618   7.666  0.3101 -0.6446  0.6111
 9269SOL    HW239444   2.408   3.702   7.583  2.7053  1.2347  0.2924
 9270SOL     OW39445   1.843   0.810   7.924 -0.0417 -0.1116  0.2193
 9270SOL    HW139446   1.808   0.793   7.837 -0.7706 -1.5598  0.8049
 9270SOL    HW239447   1.828   0.904   7.938 -0.6950  0.3336 -3.4672
 9271SOL     OW39448   3.550   3.776   5.273  0.3623 -0.2126 -0.1215
 9271SOL    HW139449   3.640   3.796   5.298  0.8730 -2.9276  0.2503
 9271SOL    HW239450   3.508   3.725   5.342  0.9933  2.2295  2.0719
 9272SOL     OW39451   1.346   2.696   7.264  0.1649  0.6473 -0.3907
 9272SOL    HW139452   1.306   2.631   7.206  0.9326  1.1954 -1.5278
 9272SOL    HW239453   1.439   2.680   7.250 -0.0352 -2.0383  1.4070
 9273SOL     OW39454   3.850   3.602   7.486 -0.4863  0.2815 -0.3071
 9273SOL    HW139455   3.769   3.604   7.434 -0.9900  2.4221  0.5818
 9273SOL    HW239456   3.826   3.662   7.556  1.9223  2.2759 -1.1765
 9274SOL     OW39457   0.886   1.651  11.644  0.9437 -0.0922 -0.3747
 9274SOL    HW139458   0.818   1.638  11.710 -1.6047  0.8542 -2.8166
 9274SOL    HW239459   0.964   1.641  11.699  0.2752  2.3077  1.0178
 9275SOL     OW39460   3.079   3.942   8.297 -0.1741 -0.1490 -0.2253
 9275SOL    HW139461   3.141   3.914   8.364 -1.2584 -0.6841  0.5636
 9275SOL    HW239462   3.124   4.019   8.263  1.5420 -2.3769 -3.0029
 9276SOL     OW39463   1.670   3.593   6.808 -0.1793  0.2609 -0.4569
 9276SOL    HW139464   1.623   3.662   6.855  1.1354  0.9748 -0.2241
 9276SOL    HW239465   1.657   3.523   6.872  1.1371 -0.0956 -0.5974
 9277SOL     OW39466   1.788   3.931   6.866 -0.0159 -0.0332  0.4831
 9277SOL    HW139467   1.702   3.972   6.879 -1.5675 -2.4405 -2.1324
 9277SOL    HW239468   1.810   3.899   6.953 -0.4729 -2.0107 -0.1224
 9278SOL     OW39469   2.679   2.453   4.168 -0.3021 -0.2873 -0.5715
 9278SOL    HW139470   2.773   2.469   4.181 -0.5151 -0.4866  1.1386
 9278SOL    HW239471   2.672   2.363   4.198  0.9974 -0.1971  0.0114
 9279SOL     OW39472   1.466   1.581   9.059 -0.3778 -0.9825  0.1951
 9279SOL    HW139473   1.546   1.533   9.083  1.5634  2.4000  0.4230
 9279SOL    HW239474   1.433   1.606   9.145  1.4017 -1.8631  1.1472
 9280SOL     OW39475   3.398   3.893   6.694 -0.2481 -0.0703  0.0275
 9280SOL    HW139476   3.336   3.820   6.682 -0.1583 -0.2408  0.5776
 9280SOL    HW239477   3.423   3.901   6.603  0.5612 -2.5812  0.0364
 9281SOL     OW39478   2.513   4.069   4.340 -0.2015  0.2844  0.0445
 9281SOL    HW139479   2.465   4.149   4.318  1.1254  1.4123  1.2351
 9281SOL    HW239480   2.529   4.083   4.433  0.1730 -0.0908  0.0371
 9282SOL     OW39481   0.183   3.957   8.179 -0.3599  0.0974 -0.5677
 9282SOL    HW139482   0.121   3.911   8.236 -0.8374 -0.2524 -1.3674
 9282SOL    HW239483   0.146   4.045   8.183  0.8379  0.6031 -0.5889
 9283SOL     OW39484   1.621   2.836   5.197  0.0051  0.1494  0.2700
 9283SOL    HW139485   1.590   2.891   5.269  0.0825 -1.9423  1.9194
 9283SOL    HW239486   1.655   2.756   5.238 -1.3267 -1.3967 -1.6334
 9284SOL     OW39487   2.806   2.507   8.362 -0.7552  0.5746 -0.4193
 9284SOL    HW139488   2.885   2.526   8.311 -1.1343  0.0016 -1.2217
 9284SOL    HW239489   2.763   2.591   8.372 -1.7699 -0.0034  0.0264
 9285SOL     OW39490   3.946   0.917   5.490  0.6153  0.5901  0.3913
 9285SOL    HW139491   3.907   0.849   5.437  1.2250  0.7234 -0.2305
 9285SOL    HW239492   3.963   0.982   5.422  1.0842 -0.5654 -0.6032
 9286SOL     OW39493   3.614   1.942   1.161  0.9763  0.3430 -0.1492
 9286SOL    HW139494   3.604   2.032   1.191  0.3296  0.9886 -2.2754
 9286SOL    HW239495   3.611   1.888   1.240  1.6726  0.1266 -0.2718
 9287SOL     OW39496   2.622   0.058   5.479 -0.1219  0.3712  0.1077
 9287SOL    HW139497   2.639   4.702   5.455 -0.8263  0.2510  0.0547
 9287SOL    HW239498   2.572   0.093   5.405  0.4620 -0.7404 -0.8140
 9288SOL     OW39499   2.801   0.203  12.257  0.4363 -0.3738 -0.0186
 9288SOL    HW139500   2.808   0.197  12.162  0.6999  0.1560 -0.0291
 9288SOL    HW239501   2.838   0.291  12.267  2.1578 -0.9609 -1.2649
 9289SOL     OW39502   4.222   3.134   4.403 -0.7197 -0.2928 -0.0551
 9289SOL    HW139503   4.236   3.045   4.371  0.0176 -0.2607  0.1657
 9289SOL    HW239504   4.216   3.186   4.323 -0.5128 -0.3032 -0.0783
 9290SOL     OW39505   3.661   4.323   5.859  0.2107 -0.1656 -0.5543
 9290SOL    HW139506   3.711   4.392   5.815  1.1420 -1.7170 -1.9091
 9290SOL    HW239507   3.610   4.284   5.788 -0.0984  0.1304 -0.4929
 9291SOL     OW39508   1.982   2.002   6.047  0.7595 -0.0785 -0.2705
 9291SOL    HW139509   1.947   1.966   6.128 -0.1496  0.3080 -0.4936
 9291SOL    HW239510   1.908   2.028   5.992 -0.7565 -1.8865  0.9269
 9292SOL     OW39511   4.371   1.233   6.444 -0.4393  0.5656 -0.6517
 9292SOL    HW139512   4.394   1.237   6.352 -1.1363 -0.6392 -0.8834
 9292SOL    HW239513   4.443   1.190   6.489 -1.8105  1.1809  2.1344
 9293SOL     OW39514   4.197   2.194  11.376  0.4470 -0.6057 -0.4677
 9293SOL    HW139515   4.248   2.140  11.437 -2.2713 -2.6973 -0.0175
 9293SOL    HW239516   4.183   2.138  11.300  1.1932  1.4387 -2.0974
 9294SOL     OW39517   4.698   4.148   8.209 -0.6843 -0.5554 -0.1005
 9294SOL    HW139518   4.643   4.117   8.281  2.4299  1.2164  3.0809
 9294SOL    HW239519   4.632   4.126   8.144 -0.4885  1.2019 -0.8795
 9295SOL     OW39520   2.162   1.966   4.392 -0.0920 -0.5593 -0.2755
 9295SOL    HW139521   2.190   1.926   4.310  2.6824  0.3667  0.2222
 9295SOL    HW239522   2.068   1.981   4.381  0.2906 -0.7429 -3.6271
 9296SOL     OW39523   3.523   1.696   0.546  0.5641 -0.4193 -0.0925
 9296SOL    HW139524   3.511   1.772   0.602 -2.4986 -0.0157 -1.3325
 9296SOL    HW239525   3.520   1.738   0.460 -0.2961 -1.5530 -0.6104
 9297SOL     OW39526   2.658   1.916  12.281  0.4318 -0.0072  0.1558
 9297SOL    HW139527   2.645   1.894  12.373 -0.4725  1.0269  0.2861
 9297SOL    HW239528   2.580   1.971  12.268  1.3801  1.1785 -0.5755
 9298SOL     OW39529   4.351   0.505  11.929 -0.7460 -0.3518 -0.3040
 9298SOL    HW139530   4.361   0.477  12.020  1.7719  0.4753 -0.3295
 9298SOL    HW239531   4.264   0.545  11.929  0.1688  1.6117 -1.1961
 9299SOL     OW39532   0.420   1.928  17.118 -0.2013  0.0158  0.0144
 9299SOL    HW139533   0.464   1.908  17.200 -2.9267 -1.5240  1.1161
 9299SOL    HW239534   0.414   1.838  17.084  1.5707 -0.4993  1.0342
 9300SOL     OW39535   2.837   3.417   9.045  0.0377  0.0479  0.3724
 9300SOL    HW139536   2.836   3.380   8.957 -0.9293  1.7795 -0.3484
 9300SOL    HW239537   2.780   3.354   9.090  1.0714 -1.1801 -0.0280
 9301SOL     OW39538   0.280   2.045   8.553 -0.1311  0.1618 -0.4932
 9301SOL    HW139539   0.328   2.078   8.629  1.8232 -1.9556 -0.8102
 9301SOL    HW239540   0.330   1.963   8.549  0.4295  0.5128 -0.6714
 9302SOL     OW39541   2.532   3.797   9.421 -0.7753  0.3814  0.3112
 9302SOL    HW139542   2.451   3.765   9.460 -0.0247 -2.3873 -0.3547
 9302SOL    HW239543   2.558   3.862   9.486 -1.1831  2.5311 -1.6595
 9303SOL     OW39544   4.196   0.108   0.297  0.3170 -0.6398  0.3571
 9303SOL    HW139545   4.113   0.076   0.332  0.8757 -1.0901  1.2499
 9303SOL    HW239546   4.177   0.098   0.203  2.7069  0.8004 -0.2987
 9304SOL     OW39547   4.290   1.813   4.138  0.0512 -0.0046  0.1676
 9304SOL    HW139548   4.324   1.887   4.089 -1.6821 -1.4233 -3.1977
 9304SOL    HW239549   4.201   1.816   4.101  0.7837  0.4053 -1.5809
 9305SOL     OW39550   1.404   0.527   7.742  0.5125 -0.1030  0.5532
 9305SOL    HW139551   1.357   0.497   7.820 -1.0198  1.0784  0.0723
 9305SOL    HW239552   1.363   0.611   7.723 -2.3316 -1.6881 -0.2807
 9306SOL     OW39553   0.206   0.567   7.517 -0.1844  0.4392  0.8638
 9306SOL    HW139554   0.289   0.592   7.557  1.3766 -1.9277 -0.9505
 9306SOL    HW239555   0.228   0.568   7.424  2.0485  1.2360  1.4045
 9307SOL     OW39556   2.352   0.705  14.452  0.4861 -0.1283 -0.0891
 9307SOL    HW139557   2.293   0.721  14.525 -1.2072 -0.7468 -1.3409
 9307SOL    HW239558   2.304   0.744  14.379 -2.0730  2.3912  2.9817
 9308SOL     OW39559   1.134   4.062   9.019  0.2547 -0.3962  0.1464
 9308SOL    HW139560   1.226   4.051   8.995  0.3456  1.6064 -0.5013
 9308SOL    HW239561   1.104   4.129   8.957 -2.9990 -2.3550 -0.4068
 9309SOL     OW39562   4.146   0.872   3.917  0.3351 -0.6791 -0.0833
 9309SOL    HW139563   4.126   0.943   3.978 -2.8370 -1.2792 -0.4297
 9309SOL    HW239564   4.225   0.900   3.870 -0.2045  0.4683 -0.3062
 9310SOL     OW39565   4.127   0.406   7.477 -0.2528 -0.4153  0.6016
 9310SOL    HW139566   4.041   0.371   7.502  0.3828 -1.1711  1.7305
 9310SOL    HW239567   4.172   0.409   7.561  0.6738 -0.6242  0.1059
 9311SOL     OW39568   3.810   3.326   6.730  0.0067 -0.4770 -0.3416
 9311SOL    HW139569   3.715   3.315   6.719 -0.0179 -0.9272  0.3315
 9311SOL    HW239570   3.849   3.239   6.736  0.9791  0.0031  0.2837
 9312SOL     OW39571   0.329   2.129  16.952 -0.1111  0.5100  0.1051
 9312SOL    HW139572   0.361   2.066  17.016  0.2404  0.5130 -0.0697
 9312SOL    HW239573   0.284   2.070  16.891 -1.4443  2.3282 -0.6772
 9313SOL     OW39574   2.893   0.663   2.811  0.1045 -0.0534 -0.8743
 9313SOL    HW139575   2.970   0.606   2.811  0.3810  0.3224 -0.3545
 9313SOL    HW239576   2.813   0.612   2.824 -0.1404  0.2364 -1.2324
 9314SOL     OW39577   3.953   1.924   0.169 -0.1684 -0.5346  0.0169
 9314SOL    HW139578   3.970   2.016   0.192 -0.5090 -0.3927 -0.2926
 9314SOL    HW239579   3.991   1.910   0.082  0.7677  0.7815  0.2196
 9315SOL     OW39580   2.865   3.584   7.994 -0.1068  0.2511  0.2316
 9315SOL    HW139581   2.902   3.670   8.016  2.0189 -0.2847 -1.1960
 9315SOL    HW239582   2.803   3.616   7.928 -0.7607  0.0622  0.7655
 9316SOL     OW39583   4.535   4.589  11.085 -0.0220 -0.3668 -0.4450
 9316SOL    HW139584   4.487   4.586  11.167  0.5248 -2.4713 -0.1838
 9316SOL    HW239585   4.467   4.580  11.018 -0.2735  3.4574 -0.6628
 9317SOL     OW39586   3.101   4.164   3.652 -0.5835 -0.1306 -0.6197
 9317SOL    HW139587   3.110   4.240   3.710 -0.2876 -1.1298  0.6522
 9317SOL    HW239588   3.023   4.195   3.606 -1.0377  2.9225  2.1511
 9318SOL     OW39589   0.695   1.673   5.493 -0.5215 -0.2818  0.1393
 9318SOL    HW139590   0.617   1.726   5.474  0.6355  0.8942 -1.3922
 9318SOL    HW239591   0.766   1.722   5.450 -2.2834  1.2168 -1.1035
 9319SOL     OW39592   2.646   3.330   7.705  0.8027 -0.2416  0.0186
 9319SOL    HW139593   2.683   3.259   7.757 -1.4007  0.1189  2.0618
 9319SOL    HW239594   2.687   3.335   7.618 -0.8157  0.7306 -0.6777
 9320SOL     OW39595   4.506   2.777   0.123  0.0629  0.4784  0.3589
 9320SOL    HW139596   4.461   2.760   0.040 -1.9051  3.1519  0.8663
 9320SOL    HW239597   4.558   2.856   0.109 -1.3305  1.2501 -0.5650
 9321SOL     OW39598   2.653   3.558   6.662  0.4582 -0.3693 -0.4597
 9321SOL    HW139599   2.710   3.504   6.607  0.4971 -0.9964  0.1947
 9321SOL    HW239600   2.698   3.541   6.744 -1.9438 -0.8803  0.7563
 9322SOL     OW39601   4.365   4.695   0.633  0.0475 -0.2955  0.0206
 9322SOL    HW139602   4.437   4.634   0.648 -0.1176 -0.2790  0.8754
 9322SOL    HW239603   4.377   4.707   0.539  0.4080  1.8293  0.3382
 9323SOL     OW39604   2.133   3.461   9.835 -0.0597  0.0615  0.1328
 9323SOL    HW139605   2.137   3.519   9.759 -0.6084 -0.5116 -0.3319
 9323SOL    HW239606   2.138   3.373   9.796  1.2207  0.0933  0.2052
 9324SOL     OW39607   2.397   3.535  12.894 -0.3435 -0.1413 -0.2715
 9324SOL    HW139608   2.467   3.559  12.955 -0.8117  1.7750 -0.4768
 9324SOL    HW239609   2.404   3.602  12.826 -0.6732  1.0360  0.8619
 9325SOL     OW39610   4.426   0.936  17.649  0.4103 -0.1566 -0.1207
 9325SOL    HW139611   4.459   1.021  17.678  0.6949 -0.0295 -0.8192
 9325SOL    HW239612   4.333   0.952  17.662  0.2627 -0.9669 -0.2021
 9326SOL     OW39613   3.120   1.933   4.635  0.1503 -0.0858 -0.2820
 9326SOL    HW139614   3.030   1.966   4.643 -0.0819 -0.4127 -1.4908
 9326SOL    HW239615   3.133   1.935   4.540 -0.0474 -0.7417 -0.3260
 9327SOL     OW39616   2.427   3.834   8.208 -0.1080 -0.0418 -0.1088
 9327SOL    HW139617   2.501   3.851   8.150  0.1253 -0.8535 -0.0560
 9327SOL    HW239618   2.473   3.763   8.254  0.1390 -0.7627 -1.4667
 9328SOL     OW39619   4.002   2.763   7.078 -0.1933  0.3192 -0.2833
 9328SOL    HW139620   4.096   2.748   7.070 -0.1731  0.7473 -0.8747
 9328SOL    HW239621   4.005   2.792   7.169  0.8250 -1.5102  0.2717
 9329SOL     OW39622   0.518   3.088   8.973 -1.4279  0.3340 -0.0190
 9329SOL    HW139623   0.558   3.166   8.933  0.5048 -0.4629  0.3605
 9329SOL    HW239624   0.523   3.021   8.904 -0.3166  1.6760 -1.2456
 9330SOL     OW39625   3.628   2.200   9.277  0.3938  0.2310 -0.3484
 9330SOL    HW139626   3.653   2.109   9.266 -1.6424 -0.3935  0.0777
 9330SOL    HW239627   3.707   2.233   9.320 -0.1721  3.1563 -1.5028
 9331SOL     OW39628   0.545   4.246   3.804  0.2402 -0.0881  0.2088
 9331SOL    HW139629   0.554   4.155   3.832 -2.1064 -0.1923  0.5930
 9331SOL    HW239630   0.638   4.268   3.811  0.4744 -1.9763  2.8207
 9332SOL     OW39631   3.509   0.038   4.475  0.8349 -0.3883 -0.5187
 9332SOL    HW139632   3.477   0.110   4.529  0.0141 -0.0025 -1.5267
 9332SOL    HW239633   3.489   4.692   4.521 -2.8157 -0.8216 -2.8492
 9333SOL     OW39634   3.056   2.112   5.812 -0.4170 -0.5363  1.0467
 9333SOL    HW139635   3.089   2.118   5.902  0.5473 -1.2100  0.7370
 9333SOL    HW239636   3.053   2.017   5.820 -1.2057 -0.4514  1.8090
 9334SOL     OW39637   2.117   1.132   6.860 -0.0184 -0.5569  0.1944
 9334SOL    HW139638   2.130   1.211   6.807 -0.4442 -0.0525  0.8416
 9334SOL    HW239639   2.024   1.129   6.838  1.3332 -0.2326 -5.5213
 9335SOL     OW39640   3.562   0.703   0.267  0.0025  0.1522 -0.3774
 9335SOL    HW139641   3.618   0.769   0.310 -0.0794  0.4255 -0.6949
 9335SOL    HW239642   3.531   0.755   0.193  0.7307  0.7726 -0.2515
 9336SOL     OW39643   0.853   1.878   0.905  0.0764 -0.3369  0.0511
 9336SOL    HW139644   0.876   1.902   0.815 -1.1283  0.8827  0.0675
 9336SOL    HW239645   0.929   1.834   0.942  1.4140  0.4754 -1.7805
 9337SOL     OW39646   2.226   3.621   4.652  0.1694 -0.1497 -0.3976
 9337SOL    HW139647   2.147   3.592   4.698  0.5851 -1.9499 -0.7922
 9337SOL    HW239648   2.265   3.535   4.638 -1.0613 -0.4186 -2.1707
 9338SOL     OW39649   2.470   0.958  15.412 -0.1206 -0.0610  0.2531
 9338SOL    HW139650   2.560   0.958  15.446 -0.8200  0.1973  2.1133
 9338SOL    HW239651   2.485   0.935  15.320 -0.3158  0.5334  0.0702
 9339SOL     OW39652   2.572   3.840   3.304  0.3443  0.1379 -0.0197
 9339SOL    HW139653   2.621   3.912   3.342  0.6043  0.7010 -1.4219
 9339SOL    HW239654   2.636   3.818   3.235  1.6665  2.2210  0.5522
 9340SOL     OW39655   3.154   1.337  10.722 -0.2668 -0.8182 -0.1025
 9340SOL    HW139656   3.077   1.378  10.684  0.9710  1.5388 -0.0606
 9340SOL    HW239657   3.211   1.343  10.645 -0.2853  1.0476  0.0307
 9341SOL     OW39658   4.233   3.323  16.773 -0.1891 -0.3296  0.1782
 9341SOL    HW139659   4.222   3.247  16.716 -1.0097  0.8944 -1.3127
 9341SOL    HW239660   4.306   3.373  16.737 -0.3694  0.2537  0.6177
 9342SOL     OW39661   0.151   1.935  16.889  0.1821  0.1185 -0.4360
 9342SOL    HW139662   0.061   1.905  16.905 -0.1732  1.3661 -0.0780
 9342SOL    HW239663   0.134   1.977  16.804 -0.6589  0.5178 -0.0699
 9343SOL     OW39664   0.271   3.758  11.271 -0.0425 -0.0179 -0.8071
 9343SOL    HW139665   0.278   3.853  11.263  1.6170  0.0750  1.8282
 9343SOL    HW239666   0.185   3.762  11.314 -0.3065 -3.1826 -0.9866
 9344SOL     OW39667   2.807   3.247   2.877 -0.0405  0.5559  0.8392
 9344SOL    HW139668   2.728   3.280   2.920 -0.9536  0.2096 -0.5620
 9344SOL    HW239669   2.820   3.323   2.820 -0.1733 -2.2399 -2.9372
 9345SOL     OW39670   0.340   2.576   5.487  0.4647  0.4550 -0.1865
 9345SOL    HW139671   0.330   2.487   5.455  0.1785  0.4167  0.0027
 9345SOL    HW239672   0.382   2.612   5.409  0.6733 -2.2062 -1.3048
 9346SOL     OW39673   0.132   3.091   6.975  0.5908  0.4739 -0.1323
 9346SOL    HW139674   0.066   3.029   7.007 -1.7860  2.9863 -0.1249
 9346SOL    HW239675   0.108   3.176   7.012 -0.4153 -0.4365  1.3454
 9347SOL     OW39676   4.630   3.866   6.861 -0.0158 -0.1286  0.2610
 9347SOL    HW139677   4.639   3.931   6.931 -0.4593 -2.6819  2.7346
 9347SOL    HW239678   4.555   3.907   6.818  0.2116 -0.7217 -0.6950
 9348SOL     OW39679   4.478   4.083   8.387  0.3227  0.7547  0.3051
 9348SOL    HW139680   4.423   4.126   8.321  1.5307  3.1942  0.8939
 9348SOL    HW239681   4.445   3.993   8.383  1.5244  0.4066 -1.7021
 9349SOL     OW39682   2.406   0.468   3.574 -0.8173 -0.7074  0.1096
 9349SOL    HW139683   2.437   0.559   3.583 -0.0948 -0.7905 -1.6480
 9349SOL    HW239684   2.359   0.464   3.491  1.7622 -0.6707 -1.3514
 9350SOL     OW39685   4.455   0.518   7.767  0.4915 -0.6259  0.0613
 9350SOL    HW139686   4.526   0.565   7.811 -0.5707  1.1461 -0.1153
 9350SOL    HW239687   4.495   0.496   7.683  0.4003 -1.9386  0.3661
 9351SOL     OW39688   4.334   0.295   5.199 -0.5716  0.1217  0.0219
 9351SOL    HW139689   4.351   0.370   5.142 -0.8854  0.7988  0.8195
 9351SOL    HW239690   4.279   0.340   5.263 -3.8365 -0.1934 -2.5649
 9352SOL     OW39691   1.624   1.674   6.434 -0.3318  0.4181 -0.3208
 9352SOL    HW139692   1.650   1.588   6.401 -0.3059  0.9286 -1.6307
 9352SOL    HW239693   1.541   1.673   6.387 -1.1485 -0.4850  1.1473
 9353SOL     OW39694   1.832   0.356   5.181  0.2966 -0.2429 -0.5018
 9353SOL    HW139695   1.900   0.348   5.114  1.0630 -1.9318  0.4553
 9353SOL    HW239696   1.853   0.278   5.233  1.0082  0.2764 -0.0029
 9354SOL     OW39697   3.102   3.352  17.686 -0.8803  0.2252 -0.1324
 9354SOL    HW139698   3.083   3.286  17.619  0.1564 -0.7011  0.4789
 9354SOL    HW239699   3.193   3.374  17.670 -0.4279 -0.0644  2.0183
 9355SOL     OW39700   2.235   1.622  14.052  0.2491  0.1359 -0.0297
 9355SOL    HW139701   2.154   1.669  14.034  0.4067 -0.3894 -2.2156
 9355SOL    HW239702   2.246   1.634  14.146  2.0300 -2.0322  0.0685
 9356SOL     OW39703   0.881   1.808   3.926  0.7014 -0.3231 -0.4210
 9356SOL    HW139704   0.826   1.873   3.882 -1.4003  0.3225  3.2042
 9356SOL    HW239705   0.810   1.757   3.965  0.6040  2.7679  3.4855
 9357SOL     OW39706   1.583   3.198  14.527 -0.0829  0.2050 -0.2334
 9357SOL    HW139707   1.508   3.244  14.565 -0.2339 -0.8861  0.7774
 9357SOL    HW239708   1.606   3.130  14.590  1.7946 -1.2366 -2.4779
 9358SOL     OW39709   3.993   2.812   2.365  0.3986 -0.1135 -0.3984
 9358SOL    HW139710   3.950   2.891   2.331 -1.4057 -0.9478 -0.0345
 9358SOL    HW239711   3.954   2.730   2.335 -1.8020  0.5081  0.7458
 9359SOL     OW39712   2.938   0.174   6.077 -0.2943  0.5987  0.2348
 9359SOL    HW139713   2.967   0.228   6.150 -0.6845 -1.2227  1.7190
 9359SOL    HW239714   2.905   0.242   6.017  2.8646 -0.3364 -2.5701
 9360SOL     OW39715   4.249   2.893  11.434 -0.0761  0.8212 -0.3856
 9360SOL    HW139716   4.218   2.983  11.423  0.9481  1.3405  0.9280
 9360SOL    HW239717   4.177   2.848  11.478 -0.4862 -0.6026 -2.5051
 9361SOL     OW39718   1.056   0.836   1.828 -0.0353 -0.5948  0.3321
 9361SOL    HW139719   1.046   0.911   1.887  0.9593 -0.1933  0.0053
 9361SOL    HW239720   1.034   0.877   1.744 -0.3228 -1.7358 -0.1417
 9362SOL     OW39721   0.408   2.543   9.343  0.2746  0.1751 -0.3405
 9362SOL    HW139722   0.350   2.494   9.285 -0.5413  0.6149  0.0997
 9362SOL    HW239723   0.404   2.632   9.308 -0.7520 -0.5046 -1.9675
 9363SOL     OW39724   0.279   3.211  16.853  0.1075 -0.5638  0.4141
 9363SOL    HW139725   0.329   3.158  16.792  1.2723  1.0465 -0.0154
 9363SOL    HW239726   0.312   3.300  16.849  0.6662 -0.8255 -0.7527
 9364SOL     OW39727   2.828   1.827   6.926  0.5159 -0.6056  0.2059
 9364SOL    HW139728   2.867   1.768   6.861  0.4226 -0.1680 -0.2461
 9364SOL    HW239729   2.870   1.909   6.900  0.3092 -0.9600 -1.2575
 9365SOL     OW39730   0.815   0.662   7.114  0.5978  0.5895  0.3367
 9365SOL    HW139731   0.889   0.721   7.129  0.5955  0.8210 -0.5350
 9365SOL    HW239732   0.821   0.645   7.020 -0.3425  1.0980  0.1848
 9366SOL     OW39733   0.856   0.664   5.349  0.0430  0.0021 -0.1737
 9366SOL    HW139734   0.900   0.628   5.426 -0.3393  0.6717  0.3544
 9366SOL    HW239735   0.785   0.602   5.333 -0.7917  1.1727 -0.9342
 9367SOL     OW39736   2.520   3.635   4.317  0.3334  0.3898 -0.4104
 9367SOL    HW139737   2.548   3.549   4.346  0.0902 -0.6093 -3.1812
 9367SOL    HW239738   2.484   3.615   4.231  1.4288 -0.3197 -0.7036
 9368SOL     OW39739   3.054   3.657   8.587  0.5745  0.0586  0.9985
 9368SOL    HW139740   3.000   3.729   8.621  0.9635  1.2540 -0.9067
 9368SOL    HW239741   3.122   3.710   8.545 -0.8003 -0.6771 -2.2117
 9369SOL     OW39742   1.772   3.821  12.704 -0.4279  0.0532 -0.3086
 9369SOL    HW139743   1.845   3.883  12.703 -1.3211  1.1024 -0.5183
 9369SOL    HW239744   1.806   3.754  12.763  0.5063  1.2325  0.5073
 9370SOL     OW39745   4.521   0.770  16.561  0.3258  0.2515  0.2075
 9370SOL    HW139746   4.559   0.833  16.623 -1.1739  2.2547 -0.9245
 9370SOL    HW239747   4.484   0.701  16.615 -0.9819  1.7416  1.2013
 9371SOL     OW39748   2.149   1.438   3.878 -0.2367 -0.0613 -0.0090
 9371SOL    HW139749   2.055   1.436   3.857 -0.7151 -1.0748  2.2067
 9371SOL    HW239750   2.163   1.344   3.887  0.0483  0.1709  1.8105
 9372SOL     OW39751   0.321   3.131   9.885  0.2645 -0.1104 -0.2457
 9372SOL    HW139752   0.401   3.145   9.936 -0.6605 -2.2942  1.7975
 9372SOL    HW239753   0.330   3.045   9.844 -0.5274  0.2938 -1.2549
 9373SOL     OW39754   1.794   1.162   5.146  0.4414  0.1200  0.2142
 9373SOL    HW139755   1.873   1.156   5.201  0.8807 -0.3770 -0.4635
 9373SOL    HW239756   1.737   1.093   5.179 -2.3353  2.5094  0.3945
 9374SOL     OW39757   1.707   1.631   4.257  0.2465  0.4708 -0.2294
 9374SOL    HW139758   1.700   1.602   4.166  2.7153  1.1464 -0.6450
 9374SOL    HW239759   1.752   1.552   4.289  0.0944 -0.5013 -2.3920
 9375SOL     OW39760   0.659   3.360   6.268 -0.0093  0.2017  0.1421
 9375SOL    HW139761   0.748   3.329   6.255 -0.2026 -1.5315  2.8005
 9375SOL    HW239762   0.658   3.439   6.215 -0.2412  0.8448  1.1041
 9376SOL     OW39763   3.499   2.867   7.527 -0.4952  0.1241  0.2779
 9376SOL    HW139764   3.447   2.924   7.469 -1.0349  0.7609  1.4006
 9376SOL    HW239765   3.443   2.860   7.604 -0.0260 -1.9518  0.4283
 9377SOL     OW39766   1.154   2.870   8.903 -0.2858  0.1899 -0.5815
 9377SOL    HW139767   1.225   2.821   8.945  0.4935  1.3479 -0.5240
 9377SOL    HW239768   1.134   2.805   8.836  0.7118 -2.4537  1.7099
 9378SOL     OW39769   0.579   3.298   1.219 -0.0214 -0.4007 -0.3099
 9378SOL    HW139770   0.595   3.390   1.200 -1.2317  0.0693  0.9876
 9378SOL    HW239771   0.487   3.306   1.243 -0.2185  0.2286 -1.2533
 9379SOL     OW39772   2.531   4.646   8.926  0.3195 -0.2055  0.0634
 9379SOL    HW139773   2.537   4.641   9.021 -2.4965 -1.3802  0.1822
 9379SOL    HW239774   2.446   4.608   8.907 -0.2978  0.9167  0.6268
 9380SOL     OW39775   3.290   4.165   0.887 -0.7543  0.1208  0.1332
 9380SOL    HW139776   3.270   4.122   0.971 -0.8108  0.2338  0.1770
 9380SOL    HW239777   3.259   4.254   0.905  0.7045  1.1368 -2.4878
 9381SOL     OW39778   0.931   2.846  10.120  0.2013 -0.2110 -0.3222
 9381SOL    HW139779   0.985   2.768  10.136  0.3249 -0.2992 -1.1649
 9381SOL    HW239780   1.003   2.907  10.138 -0.2688  0.6316 -1.3027
 9382SOL     OW39781   3.455   0.493  10.403  0.0290  0.2200  0.2366
 9382SOL    HW139782   3.507   0.480  10.324  0.0306  1.1258  0.0895
 9382SOL    HW239783   3.464   0.588  10.412 -2.8403  0.4159  1.0753
 9383SOL     OW39784   0.832   1.672  14.026 -0.7351 -0.4871 -0.6325
 9383SOL    HW139785   0.806   1.764  14.026 -1.5599 -0.7184 -1.1160
 9383SOL    HW239786   0.814   1.652  13.934 -1.5034  1.0476 -0.8123
 9384SOL     OW39787   0.530   1.219   1.312  0.1071 -0.3101  0.2644
 9384SOL    HW139788   0.504   1.146   1.369  0.1716 -1.0202 -0.6189
 9384SOL    HW239789   0.588   1.174   1.250  0.2598  0.3388 -0.0593
 9385SOL     OW39790   4.270   2.705  10.939 -0.5352 -0.5955 -0.1425
 9385SOL    HW139791   4.365   2.714  10.928 -0.6052 -1.4669 -1.4145
 9385SOL    HW239792   4.241   2.665  10.857 -1.8601 -1.0250  0.5311
 9386SOL     OW39793   0.574   4.568   7.301  0.3506 -0.5145 -0.4409
 9386SOL    HW139794   0.625   4.615   7.235  0.6520 -0.2977 -0.0557
 9386SOL    HW239795   0.600   4.599   7.387  0.7814 -2.7327  0.2386
 9387SOL     OW39796   4.629   3.380   4.031  0.7476 -0.5205 -0.4441
 9387SOL    HW139797   4.707   3.385   3.976  0.9938 -1.8104 -0.2121
 9387SOL    HW239798   4.560   3.371   3.965  0.5860 -0.8615 -0.2318
 9388SOL     OW39799   2.970   2.782   4.909 -0.1878 -0.0167 -0.0171
 9388SOL    HW139800   2.891   2.834   4.894 -0.8339 -1.0260 -0.1110
 9388SOL    HW239801   3.036   2.830   4.858 -1.7928  2.5075  0.3190
 9389SOL     OW39802   4.209   2.640   9.495 -0.1124  0.0907 -0.5983
 9389SOL    HW139803   4.271   2.581   9.538 -0.5330 -0.1666 -0.3395
 9389SOL    HW239804   4.169   2.700   9.559  2.2691  4.1024 -2.8444
 9390SOL     OW39805   1.904   1.240  12.635  0.3440  0.2285  0.2818
 9390SOL    HW139806   1.927   1.147  12.642  0.6841  0.3118  0.2521
 9390SOL    HW239807   1.949   1.264  12.555 -0.7385 -0.1054 -0.4245
 9391SOL     OW39808   4.540   3.074   6.828 -0.4816 -0.0729  0.1153
 9391SOL    HW139809   4.568   3.144   6.887  1.1764 -0.7428  0.1105
 9391SOL    HW239810   4.519   3.119   6.746 -1.7119 -0.5201  0.1848
 9392SOL     OW39811   1.353   3.592   9.096  0.0613  0.2787 -0.1588
 9392SOL    HW139812   1.332   3.594   9.002  0.2222  0.8322 -0.1858
 9392SOL    HW239813   1.318   3.508   9.123 -1.1791  1.1263  0.8507
 9393SOL     OW39814   3.318   2.088  12.506 -0.3356 -0.1189 -0.2655
 9393SOL    HW139815   3.349   2.035  12.433 -0.7682 -0.6619 -0.0584
 9393SOL    HW239816   3.338   2.030  12.579  1.5232 -0.4468 -1.0510
 9394SOL     OW39817   1.743   2.849   6.669  0.1586 -0.0218  0.2359
 9394SOL    HW139818   1.747   2.921   6.606 -2.7226 -1.1426 -1.2340
 9394SOL    HW239819   1.756   2.885   6.757 -0.6473  1.3225 -0.2077
 9395SOL     OW39820   0.908   2.937   2.925  0.2374 -0.3985 -0.2518
 9395SOL    HW139821   0.999   2.938   2.956 -0.1752  4.5257  0.8031
 9395SOL    HW239822   0.875   3.001   2.988  2.9730  1.0828 -0.3229
 9396SOL     OW39823   1.999   3.096   9.979 -0.1271  0.2003  0.3675
 9396SOL    HW139824   1.997   3.010  10.021 -1.3487  0.7411  1.4088
 9396SOL    HW239825   1.905   3.111   9.970 -0.0456 -0.3605 -1.5547
 9397SOL     OW39826   4.449   0.326   0.037 -0.1041 -0.4601  0.3044
 9397SOL    HW139827   4.534   0.339   0.079 -0.1157 -0.3487  0.2936
 9397SOL    HW239828   4.402   0.409   0.046  0.9083  0.3048 -1.3763
 9398SOL     OW39829   3.373   2.838   5.819 -0.0165  0.5459  0.2458
 9398SOL    HW139830   3.364   2.767   5.883  1.8297 -1.6213 -1.9286
 9398SOL    HW239831   3.294   2.810   5.774 -0.7992 -0.2065  2.0844
 9399SOL     OW39832   1.413   3.213  14.743 -0.4062  0.0127 -0.0960
 9399SOL    HW139833   1.337   3.167  14.778 -0.0166  0.2600  1.0628
 9399SOL    HW239834   1.487   3.156  14.763 -0.4862 -0.0568 -0.0056
 9400SOL     OW39835   3.721   1.445   5.321  0.5916 -0.2775 -0.5792
 9400SOL    HW139836   3.643   1.451   5.266 -1.0338  0.2038  1.7705
 9400SOL    HW239837   3.730   1.534   5.355  1.4258 -0.3203 -0.6909
 9401SOL     OW39838   2.184   2.849   7.430  0.3360  0.0574 -0.5199
 9401SOL    HW139839   2.103   2.887   7.463 -0.4866 -0.7494 -1.5744
 9401SOL    HW239840   2.144   2.778   7.379 -0.8326 -1.7123  2.8978
 9402SOL     OW39841   0.801   4.553   7.827  0.1667 -0.3347 -0.3640
 9402SOL    HW139842   0.890   4.542   7.793  1.0009 -1.8439  2.3532
 9402SOL    HW239843   0.782   4.461   7.847 -0.8115 -0.3974 -1.5176
 9403SOL     OW39844   3.395   4.657   8.222 -0.1483 -0.4474  0.4410
 9403SOL    HW139845   3.357   4.599   8.288 -2.6661  0.9910  0.2186
 9403SOL    HW239846   3.319   4.683   8.170  1.3708  0.6217 -1.2722
 9404SOL     OW39847   2.428   0.727  15.796 -0.2569 -0.1926  0.2441
 9404SOL    HW139848   2.391   0.711  15.883 -1.7291  1.2283 -0.0971
 9404SOL    HW239849   2.516   0.748  15.826 -0.4970 -0.8558  1.4072
 9405SOL     OW39850   4.173   1.890   6.351 -0.4195  0.1428  0.1812
 9405SOL    HW139851   4.156   1.855   6.264  1.4391 -2.9311  1.0514
 9405SOL    HW239852   4.260   1.854   6.367 -0.5168  0.0038  0.4035
 9406SOL     OW39853   1.627   0.699   8.962  0.0610  0.4625 -0.0838
 9406SOL    HW139854   1.693   0.742   9.017  1.7092 -0.7249 -1.1324
 9406SOL    HW239855   1.612   0.768   8.897  0.2574 -1.2622 -1.9640
 9407SOL     OW39856   3.452   0.391   9.520  0.0008 -0.5521 -0.0685
 9407SOL    HW139857   3.534   0.369   9.476 -0.1244 -1.8414  0.3576
 9407SOL    HW239858   3.477   0.478   9.553 -0.1057 -1.3660  2.1258
 9408SOL     OW39859   3.212   1.519   1.866 -0.3095  0.0367 -0.5722
 9408SOL    HW139860   3.238   1.515   1.958 -0.8334 -2.4297 -0.5372
 9408SOL    HW239861   3.287   1.567   1.830 -0.0006 -0.3825 -0.4952
 9409SOL     OW39862   4.360   4.180   9.394 -0.0501 -0.1634 -0.4591
 9409SOL    HW139863   4.307   4.227   9.459 -0.1976 -0.1744 -0.5705
 9409SOL    HW239864   4.427   4.151   9.456 -0.7019  0.2216  0.4250
 9410SOL     OW39865   3.251   2.786   1.239  0.2585 -0.4154  0.0882
 9410SOL    HW139866   3.307   2.726   1.288 -0.7000 -1.3318  0.0733
 9410SOL    HW239867   3.245   2.742   1.154 -1.3674 -2.3385  1.1789
 9411SOL     OW39868   3.254   0.545   8.091 -0.1588  0.2406  0.2215
 9411SOL    HW139869   3.205   0.479   8.042  2.1051 -1.9980  0.9400
 9411SOL    HW239870   3.323   0.488   8.125 -1.7849 -1.4000  0.7494
 9412SOL     OW39871   0.066   1.580  10.188 -0.0191  0.1566 -0.1324
 9412SOL    HW139872   0.077   1.663  10.235 -1.0696  0.5534 -0.5914
 9412SOL    HW239873   0.153   1.549  10.164  0.9331  1.2046  1.8720
 9413SOL     OW39874   3.480   3.054   9.520 -0.0951  0.2024 -0.0301
 9413SOL    HW139875   3.419   3.049   9.594 -1.1915 -0.1326 -0.9663
 9413SOL    HW239876   3.469   3.148   9.509  1.3972  0.2566 -0.9683
 9414SOL     OW39877   0.260   0.588   4.414  0.3728  0.0684  0.3395
 9414SOL    HW139878   0.189   0.647   4.390 -0.0488 -1.2022 -1.5601
 9414SOL    HW239879   0.289   0.573   4.324  0.6990  1.0761  0.2703
 9415SOL     OW39880   4.241   0.810  11.988 -0.0160 -0.1631  0.2427
 9415SOL    HW139881   4.190   0.883  11.953  0.4367  0.9750  1.9916
 9415SOL    HW239882   4.207   0.747  11.924  0.8338 -2.9589  2.5530
 9416SOL     OW39883   2.827   3.180   7.834 -0.3210 -0.7419  0.3237
 9416SOL    HW139884   2.793   3.161   7.921 -1.3799 -2.5036 -0.4757
 9416SOL    HW239885   2.892   3.244   7.865  0.6646 -1.4120 -0.3285
 9417SOL     OW39886   3.809   4.722  12.329 -0.0759 -0.5363 -0.1452
 9417SOL    HW139887   3.722   4.734  12.292  1.3172  1.3889 -2.7445
 9417SOL    HW239888   3.871   0.023  12.266 -0.1760  0.9501  0.6087
 9418SOL     OW39889   2.565   1.365  12.039 -0.0027  0.0385  0.1792
 9418SOL    HW139890   2.621   1.395  12.111  0.7861  0.8860 -0.7938
 9418SOL    HW239891   2.573   1.440  11.980 -0.2052  1.6141  2.1613
 9419SOL     OW39892   1.600   2.918   9.671  0.6904 -0.0201  0.5648
 9419SOL    HW139893   1.634   2.919   9.761  0.9067 -2.5987  0.5217
 9419SOL    HW239894   1.666   2.976   9.633  1.8434 -2.6010 -1.4108
 9420SOL     OW39895   0.984   3.893   2.375 -0.3173 -0.5496  0.3110
 9420SOL    HW139896   0.895   3.900   2.341  0.4655  1.4037 -1.3147
 9420SOL    HW239897   1.000   3.979   2.414 -0.7325 -1.2716  2.1056
 9421SOL     OW39898   2.635   1.502   8.022 -0.4337 -0.6796  0.1133
 9421SOL    HW139899   2.595   1.418   8.040 -1.4189  0.3384  2.6491
 9421SOL    HW239900   2.698   1.510   8.094  0.2431 -1.3325 -0.3960
 9422SOL     OW39901   3.890   2.570   2.294  0.1479  0.0067  0.5916
 9422SOL    HW139902   3.895   2.508   2.367 -2.2454 -0.8658  0.0034
 9422SOL    HW239903   3.944   2.536   2.223  0.6792 -0.5311  1.2518
 9423SOL     OW39904   2.597   2.830   8.071 -0.0974  0.2584 -0.1830
 9423SOL    HW139905   2.594   2.749   8.020 -0.6001  0.1547  0.0188
 9423SOL    HW239906   2.504   2.847   8.083  0.3394  2.0717  0.6385
 9424SOL     OW39907   3.417   4.383   3.349  0.2487 -0.6074 -0.2812
 9424SOL    HW139908   3.341   4.436   3.372  1.3749 -0.1388  2.4042
 9424SOL    HW239909   3.367   4.317   3.300 -0.4498  1.0014 -1.7411
 9425SOL     OW39910   4.479   3.901  10.541 -0.5264 -0.2375  0.1612
 9425SOL    HW139911   4.451   3.915  10.632 -1.1380 -1.1058  0.1074
 9425SOL    HW239912   4.476   3.995  10.521  1.6943 -0.6221 -1.9306
 9426SOL     OW39913   1.008   0.787   4.107 -0.6371  0.7079 -0.0481
 9426SOL    HW139914   0.915   0.800   4.088 -0.6096  0.8167 -0.1135
 9426SOL    HW239915   1.031   0.863   4.161 -1.7114  0.1319  1.2253
 9427SOL     OW39916   0.623   0.819   1.540  0.6489 -0.8639  0.3457
 9427SOL    HW139917   0.612   0.871   1.620  0.3323  1.9603 -1.5377
 9427SOL    HW239918   0.558   0.857   1.481  1.9848  1.8675  0.6639
 9428SOL     OW39919   1.971   1.049   0.813  0.3311 -0.1911 -0.2952
 9428SOL    HW139920   2.012   1.084   0.734  0.2122 -0.2412 -0.3784
 9428SOL    HW239921   1.906   0.987   0.780 -0.7789  0.3773  0.8006
 9429SOL     OW39922   3.752   1.452   3.117 -0.0084  0.6555 -0.2499
 9429SOL    HW139923   3.794   1.409   3.191 -0.6377 -2.1454 -1.5202
 9429SOL    HW239924   3.775   1.382   3.056  0.0008 -0.0983  0.6185
 9430SOL     OW39925   3.508   1.774   3.323  0.0921 -0.0826  0.0266
 9430SOL    HW139926   3.557   1.771   3.405 -0.2335 -1.1912  0.1691
 9430SOL    HW239927   3.579   1.750   3.263  1.1158 -0.7152  1.4881
 9431SOL     OW39928   3.499   2.139   8.134 -0.4348 -0.2821 -0.2930
 9431SOL    HW139929   3.569   2.192   8.095 -2.5667  2.1264 -0.8379
 9431SOL    HW239930   3.553   2.077   8.184  2.5978  2.1503 -0.5230
 9432SOL     OW39931   0.889   4.054   9.372  0.4536 -0.4286  0.4323
 9432SOL    HW139932   0.793   4.051   9.377  0.4947  0.1350  1.6772
 9432SOL    HW239933   0.908   4.146   9.392 -1.2997  0.2168 -0.8766
 9433SOL     OW39934   2.335   3.872  14.795 -0.3306  0.4807  0.3602
 9433SOL    HW139935   2.265   3.867  14.860 -1.2420  0.3825 -0.6517
 9433SOL    HW239936   2.288   3.874  14.712 -2.7925 -0.2422  1.7234
 9434SOL     OW39937   4.730   1.775  11.907 -0.0126  0.0882 -0.4284
 9434SOL    HW139938   4.711   1.770  12.001  0.5521 -2.3034 -0.4365
 9434SOL    HW239939   0.060   1.705  11.899 -1.2150 -0.8638 -1.9711
 9435SOL     OW39940   0.769   4.397  13.572 -0.8265 -0.2697 -0.1502
 9435SOL    HW139941   0.757   4.444  13.489  0.1709  0.9066  0.3723
 9435SOL    HW239942   0.746   4.307  13.550 -2.1784  0.1528 -0.4962
 9436SOL     OW39943   1.394   2.849   8.311 -0.0501 -0.4737  0.4218
 9436SOL    HW139944   1.308   2.882   8.284 -0.0989  0.2621  1.4838
 9436SOL    HW239945   1.383   2.766   8.264 -0.0194 -0.1795 -0.1098
 9437SOL     OW39946   4.663   2.617   7.069 -0.2075 -0.1491 -0.4237
 9437SOL    HW139947   0.023   2.615   7.082 -0.6168 -2.7464  2.1787
 9437SOL    HW239948   4.637   2.622   7.161 -0.8697  0.8907 -0.6671
 9438SOL     OW39949   3.584   3.555   7.704  0.2117  0.0903 -0.6809
 9438SOL    HW139950   3.579   3.543   7.798 -0.4184 -0.1796 -0.7443
 9438SOL    HW239951   3.565   3.469   7.665  0.3930  0.3574 -1.3626
 9439SOL     OW39952   3.133   3.523   0.429 -0.7866  0.2134 -0.9542
 9439SOL    HW139953   3.167   3.467   0.499 -2.2953 -0.1429 -0.5025
 9439SOL    HW239954   3.216   3.555   0.394 -0.0941 -0.3345  0.1937
 9440SOL     OW39955   0.406   0.675   7.225  0.1138 -0.3650 -0.6228
 9440SOL    HW139956   0.461   0.748   7.195 -0.3042  0.9645  1.7863
 9440SOL    HW239957   0.460   0.596   7.224  0.7815  0.1112 -2.1656
 9441SOL     OW39958   3.477   0.391  12.783  0.3708 -0.2534  0.1367
 9441SOL    HW139959   3.419   0.452  12.827 -2.9856 -2.6257 -0.9974
 9441SOL    HW239960   3.418   0.317  12.771  0.1700  0.2470 -2.0651
 9442SOL     OW39961   2.053   0.097  12.711  0.4047  0.0413  0.2192
 9442SOL    HW139962   2.136   0.064  12.745 -0.7310 -0.5524  2.3894
 9442SOL    HW239963   2.062   0.193  12.715 -0.7611  0.1848 -0.6187
 9443SOL     OW39964   3.484   3.336  12.173 -0.0797 -0.2998 -0.2608
 9443SOL    HW139965   3.518   3.415  12.131 -0.7757 -0.3866 -0.9824
 9443SOL    HW239966   3.511   3.350  12.264 -1.5345  2.1499 -0.1897
 9444SOL     OW39967   3.543   3.731   8.540  0.3709  1.0021 -0.2892
 9444SOL    HW139968   3.503   3.709   8.624 -0.6912  1.4443 -0.6822
 9444SOL    HW239969   3.619   3.674   8.547 -0.8484 -0.5008  0.6385
 9445SOL     OW39970   0.903   1.302   5.388  0.1830  0.8056 -0.0045
 9445SOL    HW139971   0.907   1.236   5.457 -0.6250  0.5190 -0.2294
 9445SOL    HW239972   0.818   1.333   5.421 -0.5314 -0.4145 -0.6677
 9446SOL     OW39973   3.318   0.162   5.617  0.2125 -0.2818 -0.1712
 9446SOL    HW139974   3.287   0.072   5.606  1.1045 -0.4894 -1.0279
 9446SOL    HW239975   3.248   0.204   5.666  2.3186  0.3195  2.3018
 9447SOL     OW39976   3.613   2.599   3.358 -0.0371 -0.7028 -0.4094
 9447SOL    HW139977   3.702   2.579   3.329  0.4998  1.5783 -0.3327
 9447SOL    HW239978   3.622   2.694   3.365 -3.1677 -0.3498 -1.2449
 9448SOL     OW39979   4.694   0.082   2.079  0.3656 -0.0159 -0.0421
 9448SOL    HW139980   0.030   0.061   2.018 -0.9188  0.8514 -1.8412
 9448SOL    HW239981   4.720   0.170   2.105  1.0947 -0.0763 -0.5734
 9449SOL     OW39982   3.640   1.634  10.541 -0.1714 -0.6143  0.2818
 9449SOL    HW139983   3.620   1.659  10.451  2.1880  0.6359  0.1058
 9449SOL    HW239984   3.578   1.561  10.550  1.4699 -1.5413  3.9619
 9450SOL     OW39985   1.313   4.703   0.828 -0.2081 -1.2138 -0.4467
 9450SOL    HW139986   1.353   4.621   0.859  0.5562 -0.7012 -0.0735
 9450SOL    HW239987   1.309   4.688   0.734 -0.4578  1.1970 -0.8175
 9451SOL     OW39988   4.327   0.571   4.030  0.2392 -0.1425 -0.1795
 9451SOL    HW139989   4.237   0.582   4.062  0.8652 -1.3447  1.9788
 9451SOL    HW239990   4.306   0.534   3.944 -0.2952  0.6006 -0.3767
 9452SOL     OW39991   2.228   3.007   7.773  0.2355 -0.3321 -0.7913
 9452SOL    HW139992   2.240   2.922   7.814 -0.4685 -0.5069 -0.9414
 9452SOL    HW239993   2.321   3.015   7.749  0.9099 -2.0119  1.3166
 9453SOL     OW39994   0.179   4.231   4.049 -0.0686  0.4665 -0.3517
 9453SOL    HW139995   0.236   4.166   4.090  1.2609  2.4752  0.9795
 9453SOL    HW239996   0.122   4.164   4.010  2.1667 -1.2658 -0.6596
 9454SOL     OW39997   2.832   1.118  15.038  0.2636  0.3048 -0.0492
 9454SOL    HW139998   2.773   1.186  15.004  2.5697  0.9985 -2.6837
 9454SOL    HW239999   2.856   1.164  15.119 -0.5154 -1.2418  1.0517
 9455SOL     OW40000   0.974   0.060   3.898 -0.8494 -0.0730 -0.0685
 9455SOL    HW140001   0.896   0.086   3.947 -1.5178  0.4817 -1.4189
 9455SOL    HW240002   0.933   0.013   3.825  0.4015 -1.5307  0.1530
 9456SOL     OW40003   2.707   2.612   7.352  0.5999  0.6579  0.3279
 9456SOL    HW140004   2.803   2.612   7.351  0.6113  0.8041  1.7898
 9456SOL    HW240005   2.687   2.549   7.420  1.9940 -0.7074 -0.5120
 9457SOL     OW40006   1.626   4.553  15.178  0.4949  0.0323 -0.4677
 9457SOL    HW140007   1.551   4.536  15.236  1.2423  1.5160  0.9343
 9457SOL    HW240008   1.644   4.470  15.134  0.6212  0.1303 -0.5966
 9458SOL     OW40009   0.459   1.048   5.732  0.6581  0.3803 -0.1845
 9458SOL    HW140010   0.435   0.994   5.657 -2.2751  0.3360  0.7779
 9458SOL    HW240011   0.408   1.001   5.798 -0.1054  0.2576 -0.8735
 9459SOL     OW40012   1.368   2.437  17.423  0.0955 -0.4760 -0.2456
 9459SOL    HW140013   1.401   2.527  17.415  0.4946 -0.4533  1.4980
 9459SOL    HW240014   1.441   2.397  17.470  0.5641 -1.4339 -1.8285
 9460SOL     OW40015   0.482   3.309   2.277 -0.3220 -0.2841 -0.2033
 9460SOL    HW140016   0.445   3.256   2.206 -0.0277 -0.3318 -0.3223
 9460SOL    HW240017   0.419   3.380   2.281  1.4609  1.3294 -1.0301
 9461SOL     OW40018   1.822   4.062  16.868  0.1135 -0.5470  0.3308
 9461SOL    HW140019   1.791   4.117  16.796  0.0974  0.5948  1.2161
 9461SOL    HW240020   1.751   4.077  16.929  1.2260 -0.8283  1.6874
 9462SOL     OW40021   0.724   0.428   1.699  0.1975  0.2557 -0.2042
 9462SOL    HW140022   0.785   0.501   1.717 -0.8849  0.6858  1.6925
 9462SOL    HW240023   0.766   0.350   1.734 -1.6122 -0.3199  0.6487
 9463SOL     OW40024   2.057   3.568   0.526 -0.0922  0.0447  0.6410
 9463SOL    HW140025   2.053   3.662   0.512  0.2579  0.3589  2.7163
 9463SOL    HW240026   2.148   3.540   0.535 -0.6961 -2.1037  0.2439
 9464SOL     OW40027   4.079   4.708  15.729  0.7701 -0.3805  0.1239
 9464SOL    HW140028   4.166   4.714  15.766  1.7832  0.1464 -2.3203
 9464SOL    HW240029   4.073   0.062  15.693  1.2108 -0.1197  0.7154
 9465SOL     OW40030   3.257   0.780   4.483 -0.4453 -0.3594 -0.1031
 9465SOL    HW140031   3.267   0.842   4.555  2.0105 -4.0126  2.6554
 9465SOL    HW240032   3.314   0.714   4.522 -0.0026  1.2623  1.9794
 9466SOL     OW40033   4.657   4.507   2.011  0.5408 -0.0005  0.5562
 9466SOL    HW140034   4.619   4.595   2.007 -0.9011 -0.6519 -0.1895
 9466SOL    HW240035   4.688   4.516   2.101 -1.7281  4.4287  0.9070
 9467SOL     OW40036   2.334   3.646   5.593  0.2913 -0.2092  0.1766
 9467SOL    HW140037   2.373   3.715   5.539  0.2117  0.2261  0.6749
 9467SOL    HW240038   2.381   3.570   5.560  2.9407  1.1715  0.7751
 9468SOL     OW40039   2.881   1.309   4.033  0.5137  0.2876 -0.4851
 9468SOL    HW140040   2.847   1.220   4.034  0.2009  0.4070 -0.6676
 9468SOL    HW240041   2.926   1.309   3.949  0.5951  0.3448 -0.4422
 9469SOL     OW40042   3.145   3.352   3.778  0.2480 -0.2556 -0.0226
 9469SOL    HW140043   3.202   3.276   3.793  1.0975  0.2354 -0.8093
 9469SOL    HW240044   3.196   3.399   3.712  2.6364 -1.0761  1.2390
 9470SOL     OW40045   1.894   0.138   2.217 -0.4940  0.1636 -0.3122
 9470SOL    HW140046   1.821   0.153   2.277  0.7129  0.0357  1.1843
 9470SOL    HW240047   1.940   0.072   2.269 -0.4470  1.2409  1.0102
 9471SOL     OW40048   0.675   4.662   9.087  0.1558  0.2893  0.2120
 9471SOL    HW140049   0.633   4.621   9.163 -3.6387 -1.0456 -2.6396
 9471SOL    HW240050   0.622   0.007   9.085 -0.7595 -0.3342 -0.3121
 9472SOL     OW40051   4.267   3.767   3.723 -0.1623 -0.7797  0.4613
 9472SOL    HW140052   4.203   3.702   3.754  0.7172 -0.9537  1.9300
 9472SOL    HW240053   4.347   3.743   3.770 -0.0648 -1.2490  0.0476
 9473SOL     OW40054   3.917   0.771   4.723  0.2074  0.8007  0.2219
 9473SOL    HW140055   3.842   0.752   4.666 -0.5262 -0.4601  1.6264
 9473SOL    HW240056   3.980   0.775   4.651 -0.3128 -0.3882 -0.3064
 9474SOL     OW40057   0.473   2.090   4.905 -0.0751 -0.3070 -0.3561
 9474SOL    HW140058   0.461   2.183   4.888 -2.1275 -0.0463  2.4484
 9474SOL    HW240059   0.486   2.059   4.815  1.3489  3.4524 -1.4324
 9475SOL     OW40060   3.844   0.765   4.977 -0.1269  0.2914 -0.7451
 9475SOL    HW140061   3.899   0.701   5.022  0.3733  1.2879  0.0497
 9475SOL    HW240062   3.882   0.769   4.889 -1.0304 -1.1348 -1.1883
 9476SOL     OW40063   4.165   0.624   3.317 -0.4941  0.2751  0.5244
 9476SOL    HW140064   4.201   0.633   3.405  1.2600  0.3144 -0.2124
 9476SOL    HW240065   4.079   0.592   3.346 -0.8333  1.0293  0.3502
 9477SOL     OW40066   3.726   1.778   4.082  0.3585 -0.6124 -0.4120
 9477SOL    HW140067   3.711   1.781   4.177 -1.9050 -0.7809 -0.7709
 9477SOL    HW240068   3.652   1.826   4.044 -0.0539 -0.8611  0.0795
 9478SOL     OW40069   0.606   1.686  17.624 -0.1070 -0.2901  0.2217
 9478SOL    HW140070   0.643   1.661  17.540  0.6157  0.8204  0.2089
 9478SOL    HW240071   0.514   1.689  17.598  0.3905 -1.0301 -1.6239
 9479SOL     OW40072   0.957   3.241   4.253 -0.4083  0.4708  0.8605
 9479SOL    HW140073   0.899   3.193   4.312 -0.1097 -2.4317 -1.1720
 9479SOL    HW240074   1.025   3.175   4.239  1.3400  1.6979  3.6700
 9480SOL     OW40075   0.151   2.264   2.932 -0.3312 -0.1989 -0.5119
 9480SOL    HW140076   0.246   2.265   2.921 -0.2111  0.0559  0.6081
 9480SOL    HW240077   0.140   2.177   2.972  1.5552 -0.2426 -0.0673
 9481SOL     OW40078   4.726   0.525   8.008  0.3966  0.1239 -0.3127
 9481SOL    HW140079   0.040   0.602   8.038 -0.7771  1.0682 -0.7777
 9481SOL    HW240080   4.726   0.523   7.912 -0.1092  0.9658 -0.3341
 9482SOL     OW40081   0.760   0.989   2.965  0.3652 -0.5759 -0.5245
 9482SOL    HW140082   0.743   1.083   2.969 -0.0982 -0.6485 -0.7923
 9482SOL    HW240083   0.681   0.953   3.005 -0.6034  0.5501 -1.4235
 9483SOL     OW40084   4.645   0.152   1.669  0.4955  0.6615  0.0624
 9483SOL    HW140085   4.682   0.097   1.600 -0.6888 -1.2263  0.9282
 9483SOL    HW240086   4.572   0.201   1.633  0.3500  0.8001  0.5474
 9484SOL     OW40087   2.953   2.993  11.853 -0.1565  0.1765 -0.3407
 9484SOL    HW140088   2.960   2.899  11.837 -1.1650 -0.3408  2.1822
 9484SOL    HW240089   2.968   3.019  11.762 -0.3545  0.7024 -0.2213
 9485SOL     OW40090   2.232   0.653   8.582 -0.0826 -0.4671  0.3258
 9485SOL    HW140091   2.236   0.715   8.509  1.4847 -0.0205  0.7999
 9485SOL    HW240092   2.137   0.649   8.591 -0.2663 -1.6297 -2.0566
 9486SOL     OW40093   2.589   2.151   2.394  0.2379  0.1528 -0.0085
 9486SOL    HW140094   2.573   2.219   2.460  0.4334  1.9460 -1.8262
 9486SOL    HW240095   2.505   2.106   2.387  0.8475 -0.6864 -1.8078
 9487SOL     OW40096   1.228   3.558   4.979  0.1917 -0.1036  0.3107
 9487SOL    HW140097   1.237   3.653   4.989 -0.9676  0.1184 -0.7905
 9487SOL    HW240098   1.235   3.528   5.070 -0.7240  2.7791  1.3185
 9488SOL     OW40099   0.951   0.352   5.530 -0.0136 -0.2262  0.1520
 9488SOL    HW140100   0.942   0.444   5.554 -0.1110 -0.1197 -0.2989
 9488SOL    HW240101   0.887   0.312   5.590 -0.0439  0.7217  0.7446
 9489SOL     OW40102   0.317   4.686   8.997 -0.3165 -0.0059  0.2001
 9489SOL    HW140103   0.336   4.599   8.962  0.8679  0.4045 -0.1866
 9489SOL    HW240104   0.385   4.696   9.064 -0.0966 -0.5444  0.0532
 9490SOL     OW40105   0.416   0.943   1.367  0.0678  0.2521 -0.1262
 9490SOL    HW140106   0.334   0.958   1.320 -0.5756  0.0282  0.9181
 9490SOL    HW240107   0.475   0.905   1.302  1.0306  1.1510  0.2137
 9491SOL     OW40108   4.102   1.164   5.913  0.0089 -0.2443  0.3678
 9491SOL    HW140109   4.047   1.109   5.857 -1.5392  1.8177 -0.1259
 9491SOL    HW240110   4.117   1.110   5.991  1.6139  1.7611  1.4418
 9492SOL     OW40111   1.169   3.482   3.694  0.2702  0.2385 -0.2483
 9492SOL    HW140112   1.216   3.462   3.775 -1.2360 -0.0281  0.5455
 9492SOL    HW240113   1.105   3.411   3.695  0.1721  0.3380  0.6158
 9493SOL     OW40114   1.918   4.225   9.911 -0.1518 -0.4357 -0.1995
 9493SOL    HW140115   1.941   4.132   9.916  2.3353  0.2208  0.6023
 9493SOL    HW240116   1.875   4.222   9.826  1.3016 -2.5255 -0.8694
 9494SOL     OW40117   1.317   0.521   4.559  0.2578  0.0851 -0.4310
 9494SOL    HW140118   1.280   0.610   4.563 -1.5505 -0.7244  0.6769
 9494SOL    HW240119   1.393   0.537   4.614 -0.3928 -0.6794  0.6700
 9495SOL     OW40120   0.630   3.104   6.110  0.1002  0.4189 -0.1789
 9495SOL    HW140121   0.665   3.015   6.109  0.0415  0.3719  1.4416
 9495SOL    HW240122   0.610   3.107   6.204 -1.0786 -0.3629 -0.4141
 9496SOL     OW40123   4.354   1.764   7.519 -0.5109 -0.3557  0.2614
 9496SOL    HW140124   4.304   1.783   7.440  2.6393 -0.5613 -1.8212
 9496SOL    HW240125   4.424   1.830   7.515 -0.5503 -0.2737  0.8339
 9497SOL     OW40126   0.910   2.224   3.379  0.0554 -0.0064 -0.1371
 9497SOL    HW140127   0.953   2.206   3.462  0.5509 -1.7652 -0.7987
 9497SOL    HW240128   0.831   2.271   3.409  0.9491  0.8912  0.7930
 9498SOL     OW40129   3.549   3.924   1.726  0.1997 -0.2328 -0.4597
 9498SOL    HW140130   3.473   3.883   1.768 -0.1144  1.4561  0.6138
 9498SOL    HW240131   3.511   4.010   1.706  1.1032  0.6548  1.6297
 9499SOL     OW40132   4.434   0.650   7.243  0.2492 -0.5266 -0.5172
 9499SOL    HW140133   4.421   0.726   7.186  2.1231 -0.6198 -1.0660
 9499SOL    HW240134   4.373   0.677   7.313  2.0560  2.0327  0.0908
 9500SOL     OW40135   4.533   4.551   4.901  0.1087  0.5030  0.1640
 9500SOL    HW140136   4.552   4.625   4.843  0.3409  0.1109 -0.2643
 9500SOL    HW240137   4.600   4.569   4.967  1.7693  1.5389 -1.7924
 9501SOL     OW40138   2.339   0.736   4.640  0.2937  0.1364  0.0344
 9501SOL    HW140139   2.376   0.820   4.616  0.7112  0.1093  0.5715
 9501SOL    HW240140   2.359   0.726   4.733 -1.0277  2.5615  0.5648
 9502SOL     OW40141   1.653   4.497   9.894 -0.2670 -0.3900 -0.0420
 9502SOL    HW140142   1.613   4.427   9.843  0.6713 -1.6710  0.9899
 9502SOL    HW240143   1.720   4.527   9.833 -0.6153 -1.7325 -1.0803
 9503SOL     OW40144   0.693   4.654  13.663  0.6487 -0.4720  0.1691
 9503SOL    HW140145   0.704   4.565  13.630 -1.6594 -0.6857 -0.0278
 9503SOL    HW240146   0.600   4.667  13.645  0.6611 -0.7464 -0.0897
 9504SOL     OW40147   2.810   4.272   6.710  0.1691 -0.3238  0.2132
 9504SOL    HW140148   2.838   4.335   6.777  1.4032 -0.1340 -0.4815
 9504SOL    HW240149   2.884   4.295   6.653  1.4321 -0.8794  1.6458
 9505SOL     OW40150   2.954   1.613  11.146  0.4693 -0.4602 -0.2060
 9505SOL    HW140151   3.005   1.681  11.190  0.5218  0.8481 -2.2382
 9505SOL    HW240152   2.978   1.634  11.055  1.6782 -0.5345  0.0985
 9506SOL     OW40153   0.907   4.457  14.808 -0.5369 -0.6997 -0.4308
 9506SOL    HW140154   0.854   4.404  14.749 -2.9859  0.0071  1.1293
 9506SOL    HW240155   0.983   4.460  14.750  0.5487 -0.0345  1.0196
 9507SOL     OW40156   4.191   2.111  17.623  0.3677 -0.5591 -0.1804
 9507SOL    HW140157   4.183   2.192  17.672 -0.1643  0.2294 -1.5712
 9507SOL    HW240158   4.142   2.138  17.545 -1.2876 -1.7257  0.4573
 9508SOL     OW40159   2.038   1.429   1.629 -0.4959 -0.3984 -0.0513
 9508SOL    HW140160   1.947   1.434   1.602  0.1176  2.6259 -1.6348
 9508SOL    HW240161   2.065   1.462   1.544  2.3552 -1.2554  0.5195
 9509SOL     OW40162   0.425   2.105   3.892 -0.4341  0.0544  0.2196
 9509SOL    HW140163   0.516   2.103   3.921  0.1595  1.5660 -1.5450
 9509SOL    HW240164   0.380   2.032   3.935 -0.1362 -1.1472 -1.5075
 9510SOL     OW40165   1.991   3.255   0.960  0.0788 -0.1203  0.8046
 9510SOL    HW140166   1.935   3.327   0.929 -0.9216 -1.0191  0.5120
 9510SOL    HW240167   1.944   3.180   0.925  0.6653 -1.4581  2.9283
 9511SOL     OW40168   1.485   1.078   3.442 -0.0492 -0.2353 -0.1552
 9511SOL    HW140169   1.547   1.055   3.511 -0.8085 -0.9164  0.3027
 9511SOL    HW240170   1.542   1.063   3.367 -0.4956 -1.7175 -0.1944
 9512SOL     OW40171   0.381   0.379  13.736  0.1692  0.2651 -0.6987
 9512SOL    HW140172   0.357   0.309  13.797 -0.9985 -0.0652 -1.5485
 9512SOL    HW240173   0.428   0.329  13.669 -0.4060 -1.5223  0.2184
 9513SOL     OW40174   2.398   0.525   9.200 -0.1989 -0.1662  0.6054
 9513SOL    HW140175   2.401   0.463   9.272  0.6626  0.4825  1.1188
 9513SOL    HW240176   2.303   0.519   9.190  0.0375 -2.3965 -0.3623
 9514SOL     OW40177   2.763   0.789   6.202  0.9098 -0.5316  0.6799
 9514SOL    HW140178   2.824   0.719   6.226  2.4683  0.6911  0.2945
 9514SOL    HW240179   2.694   0.781   6.267 -0.6808 -0.4947 -1.0077
 9515SOL     OW40180   1.414   3.798   3.451 -0.8729  0.5756 -0.4588
 9515SOL    HW140181   1.506   3.774   3.457 -0.4476  1.7673 -2.1005
 9515SOL    HW240182   1.415   3.873   3.510 -1.2392  0.2961 -0.1010
 9516SOL     OW40183   1.184   1.522   2.099  0.0085  0.5740 -0.0946
 9516SOL    HW140184   1.193   1.498   2.191  0.0624  3.2036  0.5681
 9516SOL    HW240185   1.217   1.611   2.094  0.0871  0.5489 -0.0154
 9517SOL     OW40186   1.569   2.374  17.609 -0.6339 -0.2654 -0.3199
 9517SOL    HW140187   1.607   2.391  17.695  1.5033 -1.3685 -1.0715
 9517SOL    HW240188   1.627   2.312  17.565 -0.3716 -0.0510 -0.2756
 9518SOL     OW40189   2.031   4.164  13.192 -0.0398  0.3584  0.2651
 9518SOL    HW140190   1.969   4.108  13.145  0.4434 -1.1661  1.4365
 9518SOL    HW240191   2.111   4.129  13.153 -0.3291 -1.0135  0.9054
 9519SOL     OW40192   0.174   4.269   0.017  0.2269 -0.0129  0.1616
 9519SOL    HW140193   0.264   4.286   0.046  0.3248  1.5805 -1.0918
 9519SOL    HW240194   0.150   4.361   0.009  1.1107  0.2228  0.1533
 9520SOL     OW40195   4.365   3.408   6.960 -0.2950 -0.1838 -0.5902
 9520SOL    HW140196   4.379   3.491   7.005  2.1115 -1.2698  0.7131
 9520SOL    HW240197   4.290   3.372   7.008  1.1856 -1.0885  1.0944
 9521SOL     OW40198   0.618   4.069  10.299 -0.4490 -0.1642  0.4000
 9521SOL    HW140199   0.652   4.146  10.344 -0.6190  0.0669  0.1281
 9521SOL    HW240200   0.658   3.996  10.348  0.0248 -0.0469  0.1901
 9522SOL     OW40201   4.722   3.849  10.417  0.3362  0.1204 -0.0507
 9522SOL    HW140202   4.705   3.760  10.389 -0.4120  0.8691 -1.9810
 9522SOL    HW240203   4.647   3.878  10.469  0.7809 -0.9970  1.2010
 9523SOL     OW40204   3.625   4.332   6.577  0.0016 -0.2614 -0.3515
 9523SOL    HW140205   3.650   4.400   6.513  0.3097 -0.9734 -0.9850
 9523SOL    HW240206   3.615   4.255   6.521 -0.0201 -0.4751 -0.0503
 9524SOL     OW40207   3.694   0.513   3.847  0.1086 -0.1703  0.0240
 9524SOL    HW140208   3.789   0.524   3.859  0.4403 -1.3616 -1.5324
 9524SOL    HW240209   3.686   0.554   3.760  1.9741 -0.8822 -0.4771
 9525SOL     OW40210   4.217   0.465   7.206 -0.2166 -0.8071 -0.0449
 9525SOL    HW140211   4.288   0.515   7.167 -1.0689 -0.1576 -0.7586
 9525SOL    HW240212   4.260   0.428   7.283  1.2739  0.5206 -0.2341
 9526SOL     OW40213   2.076   4.347   9.173  0.0269  0.2652 -0.8093
 9526SOL    HW140214   1.996   4.372   9.219  0.1651 -2.1213  0.7140
 9526SOL    HW240215   2.039   4.278   9.118 -0.7544 -1.0404  1.3845
 9527SOL     OW40216   4.733   0.439   1.467 -0.0049  0.0541 -0.3832
 9527SOL    HW140217   4.654   0.386   1.475  1.3213 -1.8046  0.4339
 9527SOL    HW240218   0.028   0.434   1.558  0.1048  0.3890 -0.4001
 9528SOL     OW40219   0.397   1.525   8.377 -0.4477 -0.5563 -0.1884
 9528SOL    HW140220   0.360   1.508   8.463  0.4324 -1.3644  0.0265
 9528SOL    HW240221   0.431   1.438   8.355  0.5892 -0.0970 -0.4095
 9529SOL     OW40222   2.625   0.420   6.693 -0.0667  0.0255  0.1298
 9529SOL    HW140223   2.683   0.359   6.738  0.6859  0.0331 -0.8166
 9529SOL    HW240224   2.556   0.360   6.665  2.2741 -2.1154 -1.0624
 9530SOL     OW40225   1.871   0.428  17.010 -0.3275  0.0901  0.3847
 9530SOL    HW140226   1.894   0.424  16.918  0.5069 -0.3859  0.6121
 9530SOL    HW240227   1.928   0.365  17.054 -0.2293 -0.0897  0.0002
 9531SOL     OW40228   0.392   0.050   8.362  0.6421  0.0961 -0.1310
 9531SOL    HW140229   0.357   0.015   8.280  0.8706  0.0800 -0.2190
 9531SOL    HW240230   0.318   0.022   8.417  0.3183  0.8384 -0.1861
 9532SOL     OW40231   2.014   0.836   7.043 -0.0356  0.0766  0.9834
 9532SOL    HW140232   1.987   0.857   7.133  0.5210  1.0673  0.9182
 9532SOL    HW240233   1.932   0.856   6.998  0.5399  1.9386  0.7766
 9533SOL     OW40234   4.356   1.458   4.583 -0.6597  0.3222 -0.3397
 9533SOL    HW140235   4.440   1.453   4.537 -0.5269  1.8485 -0.2700
 9533SOL    HW240236   4.353   1.386   4.646  0.8438  0.0016 -0.6260
 9534SOL     OW40237   2.206   3.909   5.673 -0.3022 -0.0180  0.2368
 9534SOL    HW140238   2.222   3.827   5.627 -0.4585  1.1559 -1.9075
 9534SOL    HW240239   2.110   3.915   5.678 -0.3328 -0.3840  0.0595
 9535SOL     OW40240   1.834   3.389   6.637 -0.3402  0.3468 -0.2053
 9535SOL    HW140241   1.858   3.464   6.691  0.0887  0.2954 -0.3177
 9535SOL    HW240242   1.924   3.356   6.635  0.4642  2.3413  3.0221
 9536SOL     OW40243   3.292   0.384   6.407  0.0130 -0.0737 -0.3612
 9536SOL    HW140244   3.252   0.468   6.383  1.7303  1.0186  0.5819
 9536SOL    HW240245   3.371   0.387   6.353 -0.6913 -1.5570 -1.4545
 9537SOL     OW40246   1.337   3.838  13.949 -0.7345  0.4099  0.1873
 9537SOL    HW140247   1.286   3.758  13.938  0.0279  0.3733 -3.0802
 9537SOL    HW240248   1.407   3.803  14.003 -1.3853 -0.3277  0.5570
 9538SOL     OW40249   2.853   4.130   9.075 -0.7289  0.3688  0.5370
 9538SOL    HW140250   2.791   4.165   9.139  0.8183  0.1803  2.1200
 9538SOL    HW240251   2.890   4.213   9.044 -1.2182  0.3488 -0.1181
 9539SOL     OW40252   0.550   0.361  16.966 -0.1443 -0.5730  0.4178
 9539SOL    HW140253   0.528   0.315  17.047 -0.5715 -1.1799 -0.0445
 9539SOL    HW240254   0.616   0.422  17.000  0.3365 -0.4444 -0.7465
 9540SOL     OW40255   3.425   1.038   5.340  0.3234  0.1146 -0.0215
 9540SOL    HW140256   3.504   0.986   5.352  0.6650  0.5909 -0.1910
 9540SOL    HW240257   3.435   1.061   5.248  0.2706  2.3758  0.5441
 9541SOL     OW40258   4.127   2.123  16.896  0.0016 -0.3025  0.0536
 9541SOL    HW140259   4.223   2.122  16.901  0.0476  1.1186 -0.5412
 9541SOL    HW240260   4.118   2.162  16.809  0.0768 -1.0817 -0.3113
 9542SOL     OW40261   2.834   1.721   3.109 -0.0064  0.3418 -0.0219
 9542SOL    HW140262   2.902   1.700   3.046 -0.3343 -0.3684 -0.1385
 9542SOL    HW240263   2.888   1.749   3.183  1.4661 -1.0003 -0.5963
 9543SOL     OW40264   2.840   0.458   3.735  0.4489 -0.4019  0.0493
 9543SOL    HW140265   2.807   0.508   3.810 -0.7594 -0.5473 -0.3805
 9543SOL    HW240266   2.889   0.387   3.776 -0.0007 -0.4970  0.4305
 9544SOL     OW40267   1.127   0.284  11.398  0.1899 -0.2426 -0.1309
 9544SOL    HW140268   1.189   0.220  11.432  1.3967  1.1338  0.2706
 9544SOL    HW240269   1.055   0.223  11.381  0.9865 -0.1225 -3.9630
 9545SOL     OW40270   4.211   0.249   0.530 -0.0768 -0.3217  0.3630
 9545SOL    HW140271   4.188   0.203   0.449  1.6570  0.2434 -0.4540
 9545SOL    HW240272   4.304   0.269   0.516 -0.1625 -1.1614 -1.4099
 9546SOL     OW40273   3.683   0.951   9.318 -0.0711 -0.2838  0.5143
 9546SOL    HW140274   3.667   0.903   9.400 -1.3645 -0.8404 -0.0578
 9546SOL    HW240275   3.671   0.880   9.255 -0.7696  0.0131  0.3150
 9547SOL     OW40276   0.049   4.041   6.166 -0.3249  0.3260  0.3386
 9547SOL    HW140277   0.018   3.958   6.204  1.7137 -0.9523 -0.7976
 9547SOL    HW240278   0.113   4.062   6.234  0.5306 -1.4429  0.0693
 9548SOL     OW40279   2.158   2.307   1.372 -0.1810  0.5521  0.4728
 9548SOL    HW140280   2.220   2.253   1.323  0.4335 -1.5031  3.4652
 9548SOL    HW240281   2.210   2.386   1.387  0.1293  0.6816 -1.2811
 9549SOL     OW40282   2.754   2.988  12.437  0.3217 -0.5563  0.1277
 9549SOL    HW140283   2.695   3.045  12.388 -0.5816 -1.7380 -0.1435
 9549SOL    HW240284   2.822   2.974  12.371  0.5387  0.2396  0.1752
 9550SOL     OW40285   2.856   4.481   6.867 -0.0846 -0.0125 -0.5239
 9550SOL    HW140286   2.903   4.564   6.867 -0.3257  0.1216  0.6657
 9550SOL    HW240287   2.784   4.504   6.927  0.3716  4.0350 -1.5234
 9551SOL     OW40288   4.015   2.594   8.984 -0.2057  0.6146 -0.4210
 9551SOL    HW140289   3.945   2.560   9.040 -0.3045  2.5763  0.6499
 9551SOL    HW240290   4.023   2.669   9.043  0.2965  0.4242 -0.2473
 9552SOL     OW40291   3.004   2.914  11.079 -0.2388  0.4844 -0.2571
 9552SOL    HW140292   2.962   2.831  11.058  0.1921  0.8184 -2.5146
 9552SOL    HW240293   2.934   2.975  11.056 -0.7411 -0.9884 -2.6184
 9553SOL     OW40294   4.608   4.720   8.484  0.1015  0.5998 -0.1671
 9553SOL    HW140295   4.584   4.697   8.394 -0.2673 -3.2123  0.9045
 9553SOL    HW240296   4.622   0.078   8.470 -1.0791  0.5846 -1.4332
 9554SOL     OW40297   2.274   0.406  10.838  0.1106 -0.6745  0.4612
 9554SOL    HW140298   2.280   0.499  10.860 -1.6380 -0.4236 -0.0871
 9554SOL    HW240299   2.181   0.395  10.855  0.1956 -0.6983  0.8976
 9555SOL     OW40300   1.402   1.915   4.514 -0.0401  0.1013  0.2512
 9555SOL    HW140301   1.344   1.969   4.460  0.3994  0.7571  0.4321
 9555SOL    HW240302   1.334   1.862   4.554  1.1491 -2.0004 -0.5125
 9556SOL     OW40303   3.412   4.008  13.143 -0.0863  0.7108 -0.6082
 9556SOL    HW140304   3.434   4.100  13.159  0.0028  0.9612 -2.1358
 9556SOL    HW240305   3.321   4.008  13.170  0.2003 -1.5307  0.3118
 9557SOL     OW40306   3.987   2.903   4.897 -0.2688 -0.0778 -0.1249
 9557SOL    HW140307   4.078   2.876   4.886 -0.4055 -0.5387 -0.1035
 9557SOL    HW240308   3.971   2.851   4.976 -0.4049 -1.3676 -1.0171
 9558SOL     OW40309   2.718   4.329  12.819  0.5676 -0.2116  0.4248
 9558SOL    HW140310   2.740   4.379  12.898  0.9451 -0.2132  0.3191
 9558SOL    HW240311   2.723   4.395  12.750  0.5143  0.4056  1.0149
 9559SOL     OW40312   2.920   4.377   2.792 -0.1812  0.1059 -0.0730
 9559SOL    HW140313   2.869   4.369   2.711  1.1640 -1.0761 -0.7886
 9559SOL    HW240314   2.855   4.337   2.849 -0.7959  1.0962 -0.0665
 9560SOL     OW40315   3.149   0.591  11.232  0.1605 -0.4909 -0.1593
 9560SOL    HW140316   3.104   0.562  11.311  2.5486  0.6102  1.6012
 9560SOL    HW240317   3.220   0.645  11.267 -0.4555  1.7880 -2.4272
 9561SOL     OW40318   3.177   1.763   8.563  0.2699 -0.0503  0.3208
 9561SOL    HW140319   3.210   1.728   8.646  1.0022  1.4672  0.6649
 9561SOL    HW240320   3.255   1.799   8.521 -0.4067 -0.4740 -1.2722
 9562SOL     OW40321   3.310   3.278  12.800 -0.0037  0.3496  0.2386
 9562SOL    HW140322   3.369   3.239  12.735 -1.5613 -1.1229 -0.3013
 9562SOL    HW240323   3.372   3.306  12.867  0.2523 -0.6910  0.4315
 9563SOL     OW40324   4.154   1.222   1.843 -0.0470 -0.2943  0.4448
 9563SOL    HW140325   4.093   1.276   1.893  0.5702 -1.5404  2.5391
 9563SOL    HW240326   4.091   1.165   1.800 -1.0132 -1.0944  2.8850
 9564SOL     OW40327   0.803   0.875   5.177  0.1394 -0.0344  0.2041
 9564SOL    HW140328   0.836   0.801   5.228 -2.4898 -0.1120  1.8347
 9564SOL    HW240329   0.881   0.909   5.134  1.4206  0.1020  2.6474
 9565SOL     OW40330   3.918   4.716   4.190 -0.0753  0.3693 -0.8744
 9565SOL    HW140331   3.920   4.690   4.098  0.5925  0.7531 -0.9669
 9565SOL    HW240332   3.824   4.704   4.206  1.0415 -4.9003  1.4364
 9566SOL     OW40333   3.610   3.316  15.390  0.3142  0.1575 -0.1420
 9566SOL    HW140334   3.678   3.366  15.436 -1.3091  0.9045  1.4073
 9566SOL    HW240335   3.649   3.311  15.302  0.2524 -2.9768  0.0061
 9567SOL     OW40336   1.693   0.427   6.505  0.2445  0.0155  0.1689
 9567SOL    HW140337   1.727   0.342   6.531 -0.8707 -0.4542  0.0822
 9567SOL    HW240338   1.638   0.410   6.429 -1.5422 -1.8087  1.8667
 9568SOL     OW40339   1.971   4.381   3.486  0.0164 -0.0488 -0.1602
 9568SOL    HW140340   1.945   4.460   3.439  0.2039  0.9903  1.5115
 9568SOL    HW240341   2.044   4.356   3.429  0.0657  0.3572 -0.2725
 9569SOL     OW40342   4.208   2.310   2.526  0.2831  0.1752 -0.1751
 9569SOL    HW140343   4.252   2.226   2.513 -0.2697 -0.5926  2.8562
 9569SOL    HW240344   4.151   2.311   2.449  2.5527 -1.9531 -1.8722
   4.73472   4.73472  17.73785
