Membrane in water
40344
    1TMC1    C1    1   2.414   3.525  11.096 -0.5492 -0.5735 -0.4472
    1TMC1    C2    2   2.540   3.502  11.046 -0.3995 -0.0642  0.3434
    1TMC1    C3    3   2.615   3.613  11.030  0.0191  0.3003 -0.0839
    1TMC1    C4    4   2.361   3.647  11.121 -0.0979  0.0776  0.4592
    1TMC1    C5    5   2.444   3.757  11.088  0.0893 -0.0362 -0.4619
    1TMC1    C6    6   2.576   3.746  11.053 -0.0978  0.0793 -0.4459
    1TMC1     C    7   2.333   3.408  11.130 -0.0249  0.2169 -0.2459
    1TMC1     O    8   2.226   3.430  11.191 -0.1647 -0.0371 -0.1005
    1TMC1     H    9   2.589   3.406  11.034 -1.7097 -0.9922  2.5655
    1TMC1    H1   10   2.257   3.666  11.144 -0.4786 -0.7053 -0.5958
    1TMC1    H2   11   2.636   3.836  11.064 -0.9425  0.4647  1.0439
    1TMC1    C7   12   2.420   3.889  11.154 -0.0821  0.7630 -0.2593
    1TMC1    C8   13   2.758   3.583  11.015 -0.3603 -0.5441 -0.9917
    1TMC1    O1   14   2.440   3.993  11.091 -0.5840  0.1264  0.1174
    1TMC1    O2   15   2.808   3.483  11.058  0.3143 -0.7011 -0.1689
    1TMC1    O3   16   2.489   3.879  11.271  0.2749 -0.7735  0.5215
    1TMC1    H3   17   2.485   3.794  11.318 -0.4363 -1.3653 -0.6106
    1TMC1    O5   18   2.822   3.698  10.992 -0.2673  0.0115  0.2895
    1TMC1    H5   19   2.773   3.767  10.942 -0.4559  0.1598  0.6785
    2MPD2     C   20   2.219   2.924  11.067  0.1130 -0.3951  0.1572
    2MPD2    C1   21   2.221   3.002  11.182 -0.1316  0.6951  0.3008
    2MPD2    C2   22   2.267   3.132  11.182  0.4496 -0.1885  0.1443
    2MPD2    C3   23   2.309   3.179  11.061  0.7324  0.4523  0.2535
    2MPD2    C4   24   2.318   3.100  10.948  0.0348 -0.6435 -0.1428
    2MPD2    C5   25   2.272   2.976  10.957  0.0388 -0.3884  0.0286
    2MPD2     H   26   2.277   3.192  11.272  1.1675  0.1842 -0.1862
    2MPD2    H1   27   2.352   3.143  10.855  0.0003  1.6670  0.9320
    2MPD2    H2   28   2.171   2.828  11.053  1.0894 -1.0273  1.1651
    2MPD2    H3   29   2.254   2.916  10.869 -0.0373  0.9448 -0.8568
    2MPD2     N   30   2.360   3.312  11.047  0.2688 -0.1889  0.5853
    2MPD2    H5   31   2.418   3.326  10.965 -0.8606 -2.1095 -0.5391
    2MPD2    N1   32   2.172   2.950  11.307 -0.0108  0.0710 -0.3683
    2MPD2    H7   33   2.183   3.010  11.388 -1.2819 -0.8122  0.4618
    3TMC1    C1   34   1.922   3.172  10.635 -0.3383 -0.8756  0.0308
    3TMC1    C2   35   1.911   3.281  10.556  0.2316  0.2929 -0.4291
    3TMC1    C3   36   2.021   3.298  10.474 -0.3267 -0.1582  0.3638
    3TMC1    C4   37   2.031   3.081  10.628  0.5580  0.8649  0.2716
    3TMC1    C5   38   2.131   3.113  10.541  0.1137 -0.3899  0.6581
    3TMC1    C6   39   2.128   3.218  10.458  0.0149 -0.5142  0.0299
    3TMC1     C   40   1.799   3.138  10.717 -0.5467 -0.1339  0.0293
    3TMC1     O   41   1.812   3.033  10.777  0.3021 -0.2286 -0.6786
    3TMC1     H   42   1.839   3.361  10.566 -0.6618 -0.6279  0.4879
    3TMC1    H1   43   2.041   3.002  10.701 -1.2025 -0.1977 -0.6457
    3TMC1    H2   44   2.199   3.234  10.377  1.5939 -1.8786  1.1613
    3TMC1    C7   45   2.261   3.050  10.561 -0.1132 -0.0341 -1.3318
    3TMC1    C8   46   2.009   3.415  10.389 -0.0696 -1.2145 -0.2773
    3TMC1    O1   47   2.265   2.941  10.614 -0.1166  0.5811 -0.7908
    3TMC1    O2   48   1.907   3.466  10.355 -0.0141  0.2741 -0.0881
    3TMC1    O3   49   2.345   3.152  10.592  0.6043  0.4831 -0.1121
    3TMC1    H3   50   2.322   3.242  10.562 -1.0612  0.6344  1.6292
    3TMC1    O5   51   2.133   3.459  10.363 -0.0953  0.5608 -0.3142
    3TMC1    H5   52   2.202   3.406  10.410 -2.0304  0.5785  2.5664
    4MPD2     C   53   1.325   3.219  10.859 -0.0675  0.1919 -0.2492
    4MPD2    C1   54   1.361   3.323  10.779  1.0710 -0.2493  0.5473
    4MPD2    C2   55   1.493   3.318  10.742 -0.6203 -0.3275 -0.3535
    4MPD2    C3   56   1.579   3.224  10.772 -0.2069 -0.6323 -0.7878
    4MPD2    C4   57   1.543   3.111  10.845 -1.1542 -0.4643 -0.2003
    4MPD2    C5   58   1.410   3.113  10.886 -0.0211  1.2312  0.2236
    4MPD2     H   59   1.521   3.404  10.681  0.7890 -0.9163 -0.5525
    4MPD2    H1   60   1.611   3.034  10.879 -1.2499 -1.0679 -1.3957
    4MPD2    H2   61   1.229   3.210  10.908 -0.4336  1.3699 -0.7574
    4MPD2    H3   62   1.379   3.034  10.953  2.3864  1.8463  2.0487
    4MPD2     N   63   1.706   3.233  10.713  0.0888  0.3962  1.1249
    4MPD2    H5   64   1.728   3.321  10.668  0.2923 -0.9723 -1.4629
    4MPD2    N1   65   1.279   3.423  10.729  0.2387  0.2369 -0.7948
    4MPD2    H7   66   1.323   3.496  10.673 -0.4831  2.2298  1.2218
    5TCq1    O1   67   2.226   0.829  12.085  0.2183 -0.1418  0.5908
    5TCq1    C1   68   2.260   0.845  11.956  0.2313  0.3537  0.1419
    5TCq1    O2   69   2.377   0.855  11.919 -0.2810 -0.1924  0.1211
    5TCq1    C2   70   2.142   0.857  11.872  0.6427  0.0776 -0.7892
    5TCq1    C3   71   2.025   0.908  11.925 -0.2716  0.1667 -0.3979
    5TCq1    C4   72   1.911   0.896  11.852 -0.2401 -0.1413  0.5680
    5TCq1    C5   73   1.916   0.849  11.724 -0.8368  0.1125  0.5928
    5TCq1    C6   74   2.035   0.802  11.674 -0.5585  0.7484 -0.0622
    5TCq1    C7   75   2.153   0.808  11.748  0.4887  0.3149 -0.0727
    5TCq1    C8   76   2.030   0.712  11.555  0.8313 -0.3080  0.4876
    5TCq1    O4   77   2.137   0.681  11.502  0.8170  0.5069 -0.3049
    5TCq1    C9   78   1.792   0.947  11.911 -0.5873 -0.4669 -0.1012
    5TCq1    O5   79   1.795   0.986  12.030  0.0164 -0.0573  0.6855
    5TCq1    O6   80   1.695   0.939  11.828  0.3695 -0.3493  0.3032
    5TCq1    H1   81   2.129   0.813  12.088  0.3518 -1.0604  0.1221
    5TCq1    H2   82   2.018   0.955  12.022 -0.5996 -1.5201  0.3950
    5TCq1    H3   83   1.826   0.865  11.666 -0.0700  1.5279 -0.2294
    5TCq1    H4   84   2.249   0.773  11.710  0.1924  1.3603 -1.8159
    6MPD2     C   85   1.737   0.507  11.444 -0.3661  0.3766  0.2483
    6MPD2    C1   86   1.866   0.556  11.441  0.1134  0.0099 -0.8887
    6MPD2    C2   87   1.962   0.482  11.373  0.4946 -0.3954 -0.1047
    6MPD2    C3   88   1.924   0.379  11.287 -0.3561  0.6421 -0.0448
    6MPD2    C4   89   1.795   0.342  11.288 -0.3557 -0.5101  0.2395
    6MPD2    C5   90   1.704   0.400  11.374  0.0106  0.5027  0.7374
    6MPD2     H   91   2.067   0.507  11.376  0.3845  0.3454 -2.1072
    6MPD2    H1   92   1.764   0.242  11.260  1.1647 -1.2321  1.1333
    6MPD2    H2   93   1.655   0.550  11.501 -2.1997 -0.7389 -1.5712
    6MPD2    H3   94   1.606   0.357  11.390  0.6803 -1.0432  0.7232
    6MPD2     N   95   2.027   0.302  11.214 -0.1725  0.2457 -0.2362
    6MPD2    H5   96   2.121   0.337  11.228 -0.5202  1.2540 -0.4327
    6MPD2    N1   97   1.899   0.660  11.529 -0.0358  0.7961  0.0169
    6MPD2    H7   98   1.824   0.691  11.589  0.5641  1.6099  0.3539
    7TCq1    O1   99   4.552   0.674  13.630  0.1784 -0.3195  0.0594
    7TCq1    C1  100   4.515   0.736  13.529 -0.3766  0.3471 -0.3134
    7TCq1    O2  101   4.437   0.826  13.538  0.0093 -0.5616  0.3701
    7TCq1    C2  102   4.535   0.643  13.422  0.7740 -0.1340 -0.3304
    7TCq1    C3  103   4.523   0.697  13.290 -0.1640  0.0582  0.1454
    7TCq1    C4  104   4.530   0.611  13.181  0.5915  0.3220 -0.1482
    7TCq1    C5  105   4.566   0.476  13.197 -0.7030 -0.2457 -0.1685
    7TCq1    C6  106   4.558   0.426  13.324 -0.0490  0.5491 -0.1209
    7TCq1    C7  107   4.537   0.504  13.440  0.3458 -0.4385 -0.3581
    7TCq1    C8  108   4.503   0.291  13.327  0.3472  0.1446 -0.1566
    7TCq1    O4  109   4.488   0.231  13.432  0.0256  0.0233  0.3741
    7TCq1    C9  110   4.529   0.678  13.056 -0.4382 -0.4942 -0.0829
    7TCq1    O5  111   4.467   0.787  13.050  0.2107 -0.2780 -0.1133
    7TCq1    O6  112   4.579   0.610  12.958  0.2714 -0.5006  0.2809
    7TCq1    H1  113   4.623   0.608  13.612  0.2415 -0.3805  0.5446
    7TCq1    H2  114   4.515   0.805  13.282 -0.8652 -0.2462 -3.1603
    7TCq1    H3  115   4.593   0.427  13.104 -2.2158  3.5912 -2.6302
    7TCq1    H4  116   4.540   0.460  13.539  2.0087  0.0441 -0.2039
    8MPD2     C  117   4.325   4.593  13.139 -0.5951 -0.5922 -0.5623
    8MPD2    C1  118   4.390   4.623  13.260 -0.3750 -0.6301  0.8086
    8MPD2    C2  119   4.458   0.005  13.279 -1.0809  0.2497  0.7806
    8MPD2    C3  120   4.440   0.104  13.180  0.0682  0.5914 -0.0774
    8MPD2    C4  121   4.377   0.076  13.058 -0.1954  0.1754  0.0172
    8MPD2    C5  122   4.327   4.687  13.035  0.1311 -0.2948  0.6600
    8MPD2     H  123   4.516   0.033  13.366 -0.6419  2.6057 -0.2725
    8MPD2    H1  124   4.365   0.152  12.981 -1.8521 -0.2648 -0.1531
    8MPD2    H2  125   4.278   4.498  13.115  1.1959 -1.8893  1.0043
    8MPD2    H3  126   4.280   4.676  12.938 -0.2372  1.8315  0.5868
    8MPD2     N  127   4.474   0.243  13.210 -0.1444 -0.0365 -0.4555
    8MPD2    H5  128   4.464   0.309  13.133  1.5662  1.0601  0.2633
    8MPD2    N1  129   4.424   4.514  13.345 -0.1513 -0.5051 -0.2416
    8MPD2    H7  130   4.390   4.426  13.306  0.1044 -1.9263  2.6826
    9TMC1    C1  131   1.956   3.959  11.077 -0.7079  0.6388 -0.3385
    9TMC1    C2  132   1.845   3.887  11.124 -0.0504 -0.7545 -0.7897
    9TMC1    C3  133   1.746   3.861  11.034  0.4773 -0.4936 -0.5629
    9TMC1    C4  134   1.967   4.016  10.952 -0.0332 -0.0602  0.0400
    9TMC1    C5  135   1.856   3.998  10.875 -0.3263 -0.4296  0.1764
    9TMC1    C6  136   1.752   3.916  10.904 -0.5455 -0.6676  0.2448
    9TMC1     C  137   2.065   3.999  11.171 -0.7247  0.0159  0.2014
    9TMC1     O  138   2.148   4.063  11.113  0.0625  0.4868 -0.3380
    9TMC1     H  139   1.843   3.845  11.224  0.0946 -1.2287 -0.9831
    9TMC1    H1  140   2.055   4.073  10.927  0.6224 -0.3012  1.7454
    9TMC1    H2  141   1.681   3.906  10.822 -0.8092 -0.2662  0.4259
    9TMC1    C7  142   1.885   4.012  10.732 -0.3999 -0.3371 -0.6119
    9TMC1    C8  143   1.626   3.787  11.072  0.4530  0.3806  0.3582
    9TMC1    O1  144   1.999   3.984  10.701 -0.3776 -0.1666 -0.5145
    9TMC1    O2  145   1.569   3.705  10.997 -0.2360 -0.3776 -0.0311
    9TMC1    O3  146   1.824   4.129  10.701 -0.2310 -0.0468 -0.0925
    9TMC1    H3  147   1.738   4.142  10.745  0.4316  2.2599  0.5202
    9TMC1    O5  148   1.572   3.840  11.186  0.1058  0.5018  0.9362
    9TMC1    H5  149   1.622   3.914  11.224 -1.3485  1.1999  1.4869
   10MPD2     C  150   2.249   4.075  11.378 -0.0746 -0.0731 -0.2170
   10MPD2    C1  151   2.143   3.992  11.407  0.8116  0.2625  0.7743
   10MPD2    C2  152   2.119   3.956  11.535 -0.3028 -0.0371 -0.3458
   10MPD2    C3  153   2.197   4.003  11.638 -0.4289  0.5241 -0.3831
   10MPD2    C4  154   2.310   4.069  11.607 -0.0747 -0.5475 -1.1267
   10MPD2    C5  155   2.335   4.108  11.479  0.0511  0.6560 -0.6827
   10MPD2     H  156   2.042   3.883  11.558  1.3043 -2.0045 -1.2215
   10MPD2    H1  157   2.390   4.087  11.678 -1.2879  1.0611 -0.1588
   10MPD2    H2  158   2.280   4.114  11.282 -0.4651 -2.5641 -1.3518
   10MPD2    H3  159   2.420   4.171  11.456  0.3997  0.5051  0.2341
   10MPD2     N  160   2.173   3.968  11.772  0.1973 -0.4382 -0.3207
   10MPD2    H5  161   2.254   3.971  11.833 -0.0357  1.0415 -0.0759
   10MPD2    N1  162   2.046   3.965  11.307  0.3490  0.2954 -0.4646
   10MPD2    H7  163   1.965   3.913  11.338  1.1970 -1.3017 -0.9465
   11TCq1    O1  164   2.555   4.186  13.714 -0.5315 -0.3555  0.0239
   11TCq1    C1  165   2.492   4.235  13.820 -0.0664 -0.5106 -0.4199
   11TCq1    O2  166   2.413   4.330  13.807  0.1906  0.0265 -0.8198
   11TCq1    C2  167   2.469   4.124  13.909 -0.8711  0.2836  0.4888
   11TCq1    C3  168   2.572   4.045  13.954  0.8835  0.0602 -0.4938
   11TCq1    C4  169   2.543   3.945  14.048 -0.4119  0.6930 -0.2623
   11TCq1    C5  170   2.419   3.927  14.081  0.5377  0.0483  0.4574
   11TCq1    C6  171   2.318   3.994  14.022  0.0723  0.2883 -0.3906
   11TCq1    C7  172   2.336   4.093  13.930  0.7260  1.0267 -0.0020
   11TCq1    C8  173   2.187   3.959  14.045 -0.2161  0.0904  0.0995
   11TCq1    O4  174   2.098   4.041  14.017  0.9613  0.1272  0.2706
   11TCq1    C9  175   2.653   3.861  14.103  0.5614 -0.2743  0.8103
   11TCq1    O5  176   2.613   3.786  14.198  0.4483 -0.1131 -0.5710
   11TCq1    O6  177   2.772   3.885  14.066  0.1588  0.2511  0.2952
   11TCq1    H1  178   2.571   4.090  13.721  2.3959  0.1656  0.5572
   11TCq1    H2  179   2.676   4.068  13.933  1.1474  0.4858  1.2268
   11TCq1    H3  180   2.400   3.848  14.153  0.6231 -1.4615 -1.1859
   11TCq1    H4  181   2.263   4.157  13.882  0.3684  0.7612  0.1919
   12MPD2     C  182   1.936   3.815  14.101  0.2326  0.0916  0.1224
   12MPD2    C1  183   2.055   3.756  14.070 -0.5376 -0.5857  0.6239
   12MPD2    C2  184   2.049   3.622  14.039  0.2756 -0.0876  0.4038
   12MPD2    C3  185   1.930   3.551  14.040 -1.0480  0.2057  0.4591
   12MPD2    C4  186   1.810   3.607  14.074  0.3452  0.0988 -0.5808
   12MPD2    C5  187   1.818   3.743  14.099 -0.0465 -0.0092  0.2412
   12MPD2     H  188   2.148   3.580  14.023  0.1398 -0.2520 -0.0066
   12MPD2    H1  189   1.715   3.554  14.080  0.7365 -0.4532  0.8461
   12MPD2    H2  190   1.923   3.921  14.123 -1.3690 -0.4493  1.7776
   12MPD2    H3  191   1.730   3.784  14.146 -1.0632  0.5548 -2.1574
   12MPD2     N  192   1.928   3.419  13.993 -0.1502 -0.0271 -0.0239
   12MPD2    H5  193   1.841   3.368  13.989 -0.2187 -0.1110  2.6433
   12MPD2    N1  194   2.178   3.826  14.064  0.4108 -0.4897  0.3905
   12MPD2    H7  195   2.265   3.774  14.070 -0.5141 -2.0922 -0.0270
   13TCq1    O1  196   2.269   4.017  10.729  0.4399 -0.4670 -0.0542
   13TCq1    C1  197   2.374   3.925  10.739  0.4462  0.7823  0.1698
   13TCq1    O2  198   2.493   3.950  10.738 -0.3297 -0.1118  0.1553
   13TCq1    C2  199   2.309   3.793  10.724  0.0310 -0.2161 -0.3021
   13TCq1    C3  200   2.384   3.695  10.663  0.0259  0.2751  0.7412
   13TCq1    C4  201   2.333   3.570  10.645  0.5754 -0.1720  0.0404
   13TCq1    C5  202   2.210   3.534  10.694 -0.0712 -0.4438 -1.3305
   13TCq1    C6  203   2.147   3.627  10.767  0.0969  0.2541  0.3594
   13TCq1    C7  204   2.192   3.755  10.792  0.2528 -0.0696  0.2637
   13TCq1    C8  205   2.022   3.591  10.846  0.0232  0.3645  0.1768
   13TCq1    O4  206   1.945   3.685  10.862  0.2086 -0.1581  0.3899
   13TCq1    C9  207   2.406   3.487  10.550 -0.6133 -0.2515  0.2832
   13TCq1    O5  208   2.526   3.525  10.528 -0.2042  0.2524 -0.6219
   13TCq1    O6  209   2.350   3.387  10.503 -0.4092 -0.0810  0.0339
   13TCq1    H1  210   2.181   3.973  10.724  0.7724 -1.3965  2.3526
   13TCq1    H2  211   2.474   3.728  10.612  0.7067 -0.0503  1.7111
   13TCq1    H3  212   2.170   3.438  10.665  0.5528 -0.6877 -1.3894
   13TCq1    H4  213   2.122   3.826  10.834  0.5291  0.3681 -0.0132
   14MPD2     C  214   1.953   3.262  10.988 -0.4038  0.3223 -0.2119
   14MPD2    C1  215   1.921   3.385  10.937 -0.1846  0.2161  0.4060
   14MPD2    C2  216   1.796   3.446  10.964  0.2474  0.5926  0.5072
   14MPD2    C3  217   1.705   3.371  11.042 -0.7785  0.4525 -0.4107
   14MPD2    C4  218   1.744   3.255  11.095  0.3229 -0.2173 -0.1787
   14MPD2    C5  219   1.863   3.196  11.072  1.5735 -0.3495 -0.2781
   14MPD2     H  220   1.763   3.539  10.919 -0.1403  0.2832  0.1525
   14MPD2    H1  221   1.683   3.198  11.164  0.0862  0.6317  0.3168
   14MPD2    H2  222   2.049   3.217  10.963 -0.1435  0.1124  1.1466
   14MPD2    H3  223   1.884   3.100  11.117 -2.5131 -1.8878 -1.6235
   14MPD2     N  224   1.583   3.429  11.061  0.2736 -0.2228 -0.9119
   14MPD2    H5  225   1.567   3.513  11.007  0.7637 -0.5928 -1.6394
   14MPD2    N1  226   2.026   3.453  10.875  0.4765 -0.5823 -0.1576
   14MPD2    H7  227   2.115   3.405  10.870  0.9941  0.4827 -1.3046
   15TCq1    O1  228   0.236   2.608   2.411  0.4536  0.4746  0.1423
   15TCq1    C1  229   0.329   2.711   2.414  0.1649 -0.8729  0.4728
   15TCq1    O2  230   0.366   2.769   2.514 -0.2185 -0.4048 -0.0304
   15TCq1    C2  231   0.360   2.762   2.285 -0.3080  0.2332 -0.0533
   15TCq1    C3  232   0.486   2.817   2.270 -0.5022  0.1384  0.7352
   15TCq1    C4  233   0.549   2.820   2.149  0.6855 -0.1568  0.2379
   15TCq1    C5  234   0.475   2.785   2.033 -0.4056  0.9479 -0.4158
   15TCq1    C6  235   0.343   2.736   2.048  0.6834 -0.2649  0.0618
   15TCq1    C7  236   0.283   2.724   2.173 -0.7142 -0.2593  0.0410
   15TCq1    C8  237   0.280   2.654   1.936  0.6446 -0.6108 -0.3076
   15TCq1    O4  238   0.349   2.645   1.836  0.4854 -0.2553  0.5571
   15TCq1    C9  239   0.692   2.834   2.138 -0.6959 -0.5491  0.2517
   15TCq1    O5  240   0.732   2.853   2.019 -0.6946  0.3484  0.6151
   15TCq1    O6  241   0.768   2.814   2.237 -0.6914 -0.1269  0.1518
   15TCq1    H1  242   0.248   2.544   2.338 -1.2028  0.4717 -0.1164
   15TCq1    H2  243   0.547   2.835   2.358 -0.0706  0.7749  0.3034
   15TCq1    H3  244   0.518   2.786   1.933 -1.2106  0.9662 -0.7603
   15TCq1    H4  245   0.185   2.682   2.193 -0.3635 -1.1666 -0.1846
   16MPD2     C  246   4.700   2.469   1.957  0.4464  0.1039  0.1926
   16MPD2    C1  247   0.089   2.501   1.911  0.0409 -0.5220  1.1961
   16MPD2    C2  248   0.129   2.453   1.792 -0.6441  0.2872 -0.0607
   16MPD2    C3  249   0.052   2.367   1.718 -0.2744  0.0848  0.2983
   16MPD2    C4  250   4.664   2.325   1.771  0.1845 -1.0383 -0.1647
   16MPD2    C5  251   4.620   2.383   1.890 -0.4068  0.8816 -0.2102
   16MPD2     H  252   0.233   2.473   1.766 -0.4838  0.2968  0.5813
   16MPD2    H1  253   4.596   2.262   1.714  2.3985 -4.7003  1.2453
   16MPD2    H2  254   4.665   2.508   2.053  0.0060 -2.2728  0.9823
   16MPD2    H3  255   4.519   2.367   1.924 -0.0607 -3.3476 -1.1995
   16MPD2     N  256   0.106   2.303   1.604 -0.7972  0.2350  0.5218
   16MPD2    H5  257   0.203   2.330   1.595 -1.2116  1.8331  0.8661
   16MPD2    N1  258   0.162   2.601   1.980 -0.1843 -0.5573 -0.7849
   16MPD2    H7  259   0.117   2.642   2.061  0.6351 -1.0375 -0.0726
   17TMC1    C1  260   1.490   1.649  10.590 -0.1620  0.1911  0.5749
   17TMC1    C2  261   1.538   1.608  10.716 -0.1006 -0.0131 -0.1889
   17TMC1    C3  262   1.496   1.487  10.770 -0.3612  0.0057 -0.3059
   17TMC1    C4  263   1.390   1.579  10.530 -0.5583 -0.3806 -0.5543
   17TMC1    C5  264   1.325   1.479  10.606 -0.5221  0.4149  0.4743
   17TMC1    C6  265   1.382   1.427  10.725  0.5602 -0.8063  0.1992
   17TMC1     C  266   1.547   1.758  10.509  0.7904 -0.0836  0.1910
   17TMC1     O  267   1.486   1.779  10.404 -0.5056 -0.5870  0.1088
   17TMC1     H  268   1.636   1.643  10.749 -0.7514  1.5881  0.0129
   17TMC1    H1  269   1.352   1.599  10.431 -1.5686 -0.8680 -0.2651
   17TMC1    H2  270   1.340   1.348  10.786 -1.0132 -1.2483 -1.4798
   17TMC1    C7  271   1.220   1.402  10.541 -0.0418 -0.2265  0.4141
   17TMC1    C8  272   1.539   1.461  10.899 -0.2047  0.2221  0.2476
   17TMC1    O1  273   1.244   1.356  10.431  0.1069  0.1240 -0.0560
   17TMC1    O2  274   1.467   1.407  10.985 -0.1775 -0.5950  0.3440
   17TMC1    O3  275   1.106   1.454  10.586 -0.1041 -0.7956  0.3093
   17TMC1    H3  276   1.112   1.482  10.680  0.5118  2.9064 -0.8510
   17TMC1    O5  277   1.658   1.410  10.853 -0.1557  0.7691 -0.0387
   17TMC1    H5  278   1.691   1.437  10.764 -0.4573  0.3501 -0.2760
   18MPD2     C  279   1.685   1.981  10.391  0.4283 -0.3923  0.0894
   18MPD2    C1  280   1.731   1.921  10.508  0.9654  0.4503 -0.0933
   18MPD2    C2  281   1.846   1.969  10.574 -0.0772  0.4741 -0.1866
   18MPD2    C3  282   1.920   2.064  10.512 -0.1229 -0.0890 -0.7183
   18MPD2    C4  283   1.877   2.121  10.391 -0.0515 -0.6090 -0.6997
   18MPD2    C5  284   1.763   2.074  10.335  0.1662  0.9850 -0.1509
   18MPD2     H  285   1.873   1.946  10.677 -1.8323 -3.4533 -0.5811
   18MPD2    H1  286   1.933   2.188  10.327 -1.1130  0.6448 -0.3297
   18MPD2    H2  287   1.587   1.962  10.349 -0.0021  0.0920  0.8862
   18MPD2    H3  288   1.729   2.124  10.245  1.4467 -2.0648 -2.3374
   18MPD2     N  289   2.043   2.110  10.558 -0.0026 -0.3731 -0.0288
   18MPD2    H5  290   2.094   2.174  10.498 -0.1716  0.3683  0.6123
   18MPD2    N1  291   1.663   1.808  10.561  0.5149 -0.1213 -0.4495
   18MPD2    H7  292   1.693   1.778  10.653  0.4310  2.6828  0.4986
   19TMC2    C1  293   3.526   3.722  14.090 -0.1157 -0.2188  0.0316
   19TMC2    C2  294   3.508   3.800  14.203 -0.2535 -0.6325 -0.0001
   19TMC2    C3  295   3.385   3.815  14.252 -0.6321 -0.3111 -0.3266
   19TMC2    C4  296   3.424   3.680  14.013  0.1521 -0.2142  0.3990
   19TMC2    C5  297   3.304   3.684  14.072 -0.6538  0.0644 -0.2757
   19TMC2    C6  298   3.280   3.748  14.191  0.6325 -0.4406  0.3312
   19TMC2     C  299   3.661   3.678  14.068 -0.2475  0.1645 -0.0603
   19TMC2     O  300   3.753   3.725  14.134  0.7828  0.0211  0.0753
   19TMC2     H  301   3.595   3.822  14.263  1.3017  0.2074 -2.5743
   19TMC2    H1  302   3.432   3.625  13.920  2.2554  0.5078  0.1602
   19TMC2    H2  303   3.180   3.745  14.233  0.8364 -0.5555  0.8113
   19TMC2    C7  304   3.203   3.594  14.020 -0.2963 -0.5379 -0.0351
   19TMC2    C8  305   3.378   3.863  14.390  0.4227  0.0709  0.8113
   19TMC2    O1  306   3.232   3.553  13.910  0.1036 -0.3772  0.0542
   19TMC2    O2  307   3.476   3.873  14.462 -0.5433 -0.6924 -0.3353
   19TMC2    O5  308   3.289   3.966  14.378  0.0118  0.1199  0.0773
   19TMC2    H5  309   3.239   3.978  14.295  0.4572 -0.7769 -0.3184
   20MPD2     C  310   3.740   3.391  13.857 -0.6170 -0.6937 -0.6579
   20MPD2    C1  311   3.764   3.482  13.957  0.1958 -0.4608  0.3216
   20MPD2    C2  312   3.851   3.456  14.054 -0.0172  0.5382  0.7877
   20MPD2    C3  313   3.918   3.337  14.056 -0.0064  0.0529 -0.9606
   20MPD2    C4  314   3.892   3.246  13.957  0.1219  0.0965 -0.2559
   20MPD2    C5  315   3.804   3.275  13.859  0.4973 -0.4631 -0.5800
   20MPD2     H  316   3.869   3.526  14.135 -0.4307  0.5051  0.9075
   20MPD2    H1  317   3.961   3.165  13.935  1.2865  1.0738 -0.1629
   20MPD2    H2  318   3.653   3.405  13.794 -0.6919 -3.0567 -1.0808
   20MPD2    H3  319   3.788   3.203  13.780 -0.5568  0.2902 -1.0400
   20MPD2     N  320   4.017   3.315  14.156 -0.0119  0.6058 -0.0768
   20MPD2    H5  321   4.031   3.398  14.213 -1.0899  0.9758 -0.3578
   20MPD2    N1  322   3.672   3.588  13.962  0.1094  0.2352 -0.2986
   20MPD2    H7  323   3.599   3.592  13.892 -1.5476  0.7753  1.4617
   21TMC2    C1  324   1.457   4.237  14.261  0.7959 -0.7811  0.2671
   21TMC2    C2  325   1.541   4.314  14.185  0.3450 -0.4645 -0.4745
   21TMC2    C3  326   1.510   4.324  14.050 -0.7027 -0.5023  0.0602
   21TMC2    C4  327   1.348   4.175  14.204  0.0722 -0.0347 -0.0372
   21TMC2    C5  328   1.327   4.183  14.069 -0.2278  0.9289 -0.0042
   21TMC2    C6  329   1.411   4.258  13.986 -0.1451 -0.3278  0.6981
   21TMC2     C  330   1.536   4.159  14.356 -0.4192  0.1549 -0.9216
   21TMC2     O  331   1.652   4.138  14.325  0.1081 -0.2538  0.2186
   21TMC2     H  332   1.634   4.344  14.232 -0.4815  1.7150 -0.2284
   21TMC2    H1  333   1.278   4.112  14.257 -1.6367  1.7274 -0.1963
   21TMC2    H2  334   1.389   4.245  13.880  0.7273  1.4478  0.3072
   21TMC2    C7  335   1.263   4.074  14.002 -0.0884 -0.0285  0.1908
   21TMC2    C8  336   1.597   4.398  13.962 -0.1837  0.4842 -0.4373
   21TMC2    O1  337   1.300   4.035  13.892  0.6393 -0.4621 -0.4951
   21TMC2    O2  338   1.663   4.489  14.013  0.0829  0.5435 -1.2918
   21TMC2    O5  339   1.643   4.309  13.879  0.1997  0.0853  0.1095
   21TMC2    H5  340   1.615   4.216  13.890  0.0048 -0.1369 -2.1718
   22MPD2     C  341   1.474   3.721  14.613 -0.0512 -0.3016  0.5669
   22MPD2    C1  342   1.590   3.764  14.553 -0.2048  0.2235 -0.1992
   22MPD2    C2  343   1.584   3.893  14.509 -0.1598  0.0507  0.2954
   22MPD2    C3  344   1.469   3.973  14.511  0.7715  0.9001 -0.1314
   22MPD2    C4  345   1.358   3.919  14.579 -0.0925  0.2072 -0.2655
   22MPD2    C5  346   1.361   3.795  14.635  0.5851 -0.7183 -0.2321
   22MPD2     H  347   1.674   3.927  14.458 -1.3197  1.6708 -0.6795
   22MPD2    H1  348   1.265   3.974  14.581  0.5729  1.4573 -3.8603
   22MPD2    H2  349   1.448   3.617  14.632 -0.7195 -0.0902  0.8057
   22MPD2    H3  350   1.269   3.752  14.673  0.1467 -0.3388 -0.8865
   22MPD2     N  351   1.444   4.092  14.434 -0.7291 -0.4718  0.0561
   22MPD2    H5  352   1.351   4.134  14.440  0.1745  1.9518 -2.9040
   22MPD2    N1  353   1.706   3.682  14.537 -0.3320  0.1913 -0.6627
   22MPD2    H7  354   1.791   3.736  14.523 -0.3308  0.3009 -0.2574
   23TMC2    C1  355   2.203   4.508  14.544  0.3865 -0.3479  0.2624
   23TMC2    C2  356   2.223   4.588  14.436 -0.4166 -0.1893 -0.3980
   23TMC2    C3  357   2.112   4.646  14.384 -0.1602  0.2598  0.2940
   23TMC2    C4  358   2.080   4.501  14.603 -0.4268  0.2057  0.6684
   23TMC2    C5  359   1.966   4.570  14.555  0.5311 -0.0964 -0.1972
   23TMC2    C6  360   1.984   4.643  14.444 -0.0280  0.0579  0.1824
   23TMC2     C  361   2.310   4.432  14.602 -0.0978 -0.3720 -0.4064
   23TMC2     O  362   2.291   4.335  14.678  0.1962 -0.5254 -0.0817
   23TMC2     H  363   2.319   4.594  14.386 -1.1987  0.2943 -1.8240
   23TMC2    H1  364   2.062   4.428  14.682  0.7296 -1.0317 -0.2098
   23TMC2    H2  365   1.896   4.666  14.386  0.0375  1.1530  0.5351
   23TMC2    C7  366   1.833   4.527  14.603  0.4351  0.3819  1.0244
   23TMC2    C8  367   2.149   0.024  14.309  0.3019 -0.5298 -0.0173
   23TMC2    O1  368   1.839   4.456  14.701  0.2045  0.3098 -0.4641
   23TMC2    O2  369   2.258   0.072  14.306 -0.3989  0.2206 -0.2642
   23TMC2    O5  370   2.042   0.084  14.250 -0.0241 -0.2952 -0.2485
   23TMC2    H5  371   1.969   0.025  14.224 -0.2939  0.4524 -1.1656
   24MPD2     C  372   2.812   4.345  14.684  0.6758 -0.8951 -0.2144
   24MPD2    C1  373   2.704   4.326  14.771 -0.1138 -0.5303 -0.5272
   24MPD2    C2  374   2.581   4.375  14.730 -0.4604  0.2858 -0.4244
   24MPD2    C3  375   2.560   4.428  14.606 -0.6094  0.4596  0.0523
   24MPD2    C4  376   2.667   4.457  14.529  0.2158 -0.2186 -0.3645
   24MPD2    C5  377   2.788   4.406  14.564  0.0583  0.1485 -0.1353
   24MPD2     H  378   2.495   4.365  14.794  1.4142 -3.2105  1.5555
   24MPD2    H1  379   2.674   4.517  14.439  2.3410  0.5872  0.3184
   24MPD2    H2  380   2.916   4.319  14.701  0.5019 -1.8654 -0.6119
   24MPD2    H3  381   2.874   4.439  14.506  1.9929 -1.9852  1.5302
   24MPD2     N  382   2.434   4.478  14.552 -0.1856  0.9243  0.0017
   24MPD2    H5  383   2.438   4.536  14.469 -0.6081 -0.2717 -0.8576
   24MPD2    N1  384   2.719   4.253  14.891 -0.1244  0.6202 -1.4095
   24MPD2    H7  385   2.630   4.237  14.939 -0.5537  2.1941 -1.7023
   25TMC2    C1  386   1.827   1.204  11.078  0.1042 -0.5163 -0.1477
   25TMC2    C2  387   1.933   1.229  10.991  0.1817  0.1286  0.4870
   25TMC2    C3  388   1.989   1.354  10.987  0.4179  0.5051  0.3888
   25TMC2    C4  389   1.784   1.298  11.171  0.7297  0.0552  0.3953
   25TMC2    C5  390   1.859   1.416  11.173  0.2750 -0.4067  1.0713
   25TMC2    C6  391   1.960   1.450  11.079 -0.1610 -0.1747  0.3646
   25TMC2     C  392   1.760   1.068  11.060 -0.2945 -0.8093 -0.7345
   25TMC2     O  393   1.829   0.985  11.009 -0.0626  0.1003  0.4113
   25TMC2     H  394   1.947   1.164  10.905  2.2086  2.1040 -0.6910
   25TMC2    H1  395   1.711   1.277  11.249 -0.4851  1.1780 -0.4478
   25TMC2    H2  396   2.021   1.538  11.090  0.5099 -0.4639 -1.0243
   25TMC2    C7  397   1.818   1.511  11.276  0.1886 -1.0461  0.2086
   25TMC2    C8  398   2.063   1.400  10.877  0.1748  0.2437 -0.6767
   25TMC2    O1  399   1.766   1.467  11.374  0.4681 -0.1609  0.3100
   25TMC2    O2  400   2.077   1.522  10.857  0.1324 -0.3692 -0.1616
   25TMC2    O5  401   2.152   1.306  10.842  0.7197  0.5186  0.3300
   25TMC2    H5  402   2.133   1.228  10.898  0.9944  0.8622  0.8952
   26MPD2     C  403   1.394   0.716  11.093 -0.5033 -0.3358  0.3201
   26MPD2    C1  404   1.335   0.832  11.126  0.1556 -0.1831 -0.1009
   26MPD2    C2  405   1.416   0.944  11.139 -0.4350 -0.9770  0.1708
   26MPD2    C3  406   1.556   0.938  11.111  0.1022 -0.0279 -0.6401
   26MPD2    C4  407   1.615   0.814  11.089  0.2034 -0.6819  0.2735
   26MPD2    C5  408   1.528   0.709  11.089 -0.3288 -0.1585  0.2317
   26MPD2     H  409   1.366   1.038  11.159  0.6423 -0.3410 -0.1430
   26MPD2    H1  410   1.722   0.795  11.099  0.5508  2.1649  1.9407
   26MPD2    H2  411   1.340   0.624  11.074 -0.7821 -0.1427  0.1819
   26MPD2    H3  412   1.574   0.611  11.099  1.7058  0.8876  1.2366
   26MPD2     N  413   1.627   1.056  11.104 -0.2734 -0.4712  0.1131
   26MPD2    H5  414   1.570   1.138  11.123 -1.3622 -0.9053 -1.2929
   26MPD2    N1  415   1.197   0.833  11.140  0.4722 -0.1028  0.4480
   26MPD2    H7  416   1.139   0.751  11.127 -1.1167  0.9131  1.0598
   27TMC2    C1  417   0.481   4.179  11.827 -0.2243  0.1291  0.6579
   27TMC2    C2  418   0.562   4.263  11.756 -0.1122  0.5735 -0.4278
   27TMC2    C3  419   0.597   4.386  11.809 -0.1634 -0.3973  0.9981
   27TMC2    C4  420   0.446   4.200  11.960  0.5418  0.3724 -0.1128
   27TMC2    C5  421   0.492   4.316  12.014 -0.0063 -0.1274  0.7529
   27TMC2    C6  422   0.567   4.413  11.940 -0.1809  0.4856  0.4430
   27TMC2     C  423   0.417   4.079  11.755  0.1725  0.2148  0.8093
   27TMC2     O  424   0.484   4.022  11.676 -0.0228 -0.5132 -0.1845
   27TMC2     H  425   0.582   4.242  11.652  0.2124  0.9070 -0.4327
   27TMC2    H1  426   0.405   4.116  12.014  1.0046  0.3842  0.2611
   27TMC2    H2  427   0.604   4.504  11.984  3.1443 -1.1969  1.1781
   27TMC2    C7  428   0.488   4.316  12.157 -0.1371  0.0381 -0.4377
   27TMC2    C8  429   0.671   4.487  11.743  0.1861 -0.6043 -0.3159
   27TMC2    O1  430   0.453   4.209  12.202 -0.2070 -0.3562 -0.2824
   27TMC2    O2  431   0.673   4.609  11.775 -0.0670  0.1064 -0.6850
   27TMC2    O5  432   0.750   4.430  11.645  0.1156  0.2828 -0.0363
   27TMC2    H5  433   0.741   4.332  11.648  2.0017  0.0664 -0.7823
   28MPD2     C  434   0.103   3.687  11.854  0.4524  0.1617 -0.4631
   28MPD2    C1  435   0.073   3.791  11.935 -0.1054  0.1061 -0.1067
   28MPD2    C2  436   0.116   3.917  11.895 -0.2809 -0.5465 -0.0572
   28MPD2    C3  437   0.222   3.932  11.804  0.0364 -0.4408  0.1525
   28MPD2    C4  438   0.258   3.822  11.733 -0.1804  0.0208  0.3740
   28MPD2    C5  439   0.193   3.705  11.757  0.6274 -0.6357 -0.3610
   28MPD2     H  440   0.094   4.005  11.955  1.8081  2.0786 -3.1218
   28MPD2    H1  441   0.328   3.835  11.652  0.4708  2.0252  1.2697
   28MPD2    H2  442   0.073   3.585  11.878 -0.2935  0.4633 -0.1309
   28MPD2    H3  443   0.204   3.620  11.692 -1.6113  0.3200 -1.9958
   28MPD2     N  444   0.296   4.058  11.809  0.1436 -0.4545 -0.5109
   28MPD2    H5  445   0.268   4.127  11.878 -0.8963 -1.4525  0.0735
   28MPD2    N1  446   4.734   3.774  12.059 -0.1108 -0.0157  0.0052
   28MPD2    H7  447   4.734   3.681  12.101  0.1966  0.2489  0.5858
   29TMC2    C1  448   0.493   2.194  14.403  0.4394 -0.6829  0.2542
   29TMC2    C2  449   0.478   2.196  14.539 -0.2123  0.3255 -0.0448
   29TMC2    C3  450   0.517   2.309  14.607  0.4328 -0.8042  0.1938
   29TMC2    C4  451   0.549   2.292  14.333  0.1719  0.1387 -0.1878
   29TMC2    C5  452   0.578   2.403  14.403  0.2517  0.5271  0.6855
   29TMC2    C6  453   0.568   2.415  14.543 -0.4137  0.6562 -0.2894
   29TMC2     C  454   0.450   2.065  14.346  0.6073  0.0820  0.2633
   29TMC2     O  455   0.414   1.970  14.419 -0.0116 -0.0360 -0.0582
   29TMC2     H  456   0.455   2.103  14.591  0.2740 -0.1572 -0.6905
   29TMC2    H1  457   0.579   2.288  14.229 -0.9542 -1.5927 -0.4563
   29TMC2    H2  458   0.583   2.511  14.592  0.8480  0.5699 -0.4867
   29TMC2    C7  459   0.620   2.521  14.324  0.0303 -0.3114  0.2718
   29TMC2    C8  460   0.507   2.324  14.754  0.7492 -0.3214  0.2025
   29TMC2    O1  461   0.594   2.514  14.203 -0.0699 -0.1290 -0.3308
   29TMC2    O2  462   0.581   2.401  14.812  0.6538  0.2695 -0.5520
   29TMC2    O5  463   0.408   2.259  14.810  0.0373  0.1332 -0.2985
   29TMC2    H5  464   0.365   2.203  14.742 -0.8511 -2.5654  2.4871
   30MPD2     C  465   0.366   1.771  13.931 -0.3005  0.2270 -0.8341
   30MPD2    C1  466   0.389   1.738  14.066 -0.2599  0.1761 -0.2337
   30MPD2    C2  467   0.410   1.837  14.161  0.6650  0.0117 -0.5124
   30MPD2    C3  468   0.414   1.970  14.122  0.0157 -0.3526 -0.5642
   30MPD2    C4  469   0.397   2.001  13.985  0.3389 -0.3236 -0.1919
   30MPD2    C5  470   0.375   1.903  13.895 -0.0513  0.7463  0.0421
   30MPD2     H  471   0.418   1.809  14.265 -0.5278  0.1325 -0.3866
   30MPD2    H1  472   0.401   2.104  13.953  2.1576  0.2300  1.7632
   30MPD2    H2  473   0.342   1.698  13.855 -2.8753  0.6676 -0.4494
   30MPD2    H3  474   0.378   1.933  13.791  0.4636 -1.5782 -0.6085
   30MPD2     N  475   0.444   2.076  14.213 -0.9422  0.0949 -0.1870
   30MPD2    H5  476   0.453   2.174  14.187 -0.1729  0.0134 -0.2436
   30MPD2    N1  477   0.378   1.606  14.114  0.1314 -0.0388 -0.8231
   30MPD2    H7  478   0.414   1.590  14.208 -2.1852 -1.6069 -0.2188
   31TMC2    C1  479   2.385   0.976  14.951  0.1244  0.0559  0.0719
   31TMC2    C2  480   2.254   1.007  14.925  0.0757 -0.7221  0.5287
   31TMC2    C3  481   2.166   1.004  15.028  0.1727 -0.4739  0.0788
   31TMC2    C4  482   2.418   0.915  15.073  0.0503  0.0070  0.4366
   31TMC2    C5  483   2.322   0.915  15.175 -0.1802 -0.1469 -0.5533
   31TMC2    C6  484   2.197   0.959  15.154  0.4605  0.3655  0.5800
   31TMC2     C  485   2.486   1.009  14.853  0.0231 -0.0569 -0.3675
   31TMC2     O  486   2.438   1.002  14.739 -1.1055  0.0236 -0.6505
   31TMC2     H  487   2.216   1.039  14.829  0.0482 -0.6025  0.5793
   31TMC2    H1  488   2.511   0.862  15.091  0.8772  0.8867 -1.2971
   31TMC2    H2  489   2.118   0.960  15.228 -1.7662  2.3244 -1.7764
   31TMC2    C7  490   2.362   0.880  15.312 -0.3970  0.7497 -0.2214
   31TMC2    C8  491   2.024   1.044  14.995 -0.1212 -0.3957 -0.1891
   31TMC2    O1  492   2.265   0.848  15.380 -0.0871  0.3553  0.3508
   31TMC2    O2  493   1.947   1.081  15.079  0.5358  0.0022  0.3473
   31TMC2    O5  494   1.980   0.954  14.909 -0.1294 -0.2396  0.0991
   31TMC2    H5  495   2.037   0.916  14.840 -1.3075  0.2554 -1.1435
   32MPD2     C  496   2.948   0.961  14.648  1.0333 -0.0380 -0.0719
   32MPD2    C1  497   2.830   0.995  14.595 -0.3046  1.1701 -0.6873
   32MPD2    C2  498   2.710   1.013  14.666  0.0068  0.6004  0.3020
   32MPD2    C3  499   2.723   0.992  14.805  0.1020  0.1743  0.1437
   32MPD2    C4  500   2.846   0.976  14.863 -0.1435 -1.0298  0.0973
   32MPD2    C5  501   2.952   0.949  14.783  0.1441 -0.2690 -0.6540
   32MPD2     H  502   2.613   1.040  14.627 -1.0386 -1.9427  1.1747
   32MPD2    H1  503   2.864   0.969  14.970  1.2634  1.7337  0.0371
   32MPD2    H2  504   3.040   0.940  14.594  0.7466 -0.4641 -0.4006
   32MPD2    H3  505   3.048   0.934  14.831  1.0370  0.3443 -2.2475
   32MPD2     N  506   2.618   0.997  14.894  0.4533 -0.0145 -0.2968
   32MPD2    H5  507   2.635   0.984  14.994 -0.7099 -0.4104 -0.1462
   32MPD2    N1  508   2.834   1.006  14.454 -0.6310  0.0980 -0.1099
   32MPD2    H7  509   2.923   0.988  14.409 -1.2960 -0.0855 -1.3590
   33TMC2    C1  510   2.182   2.645  10.435 -0.5689  0.3265  0.5274
   33TMC2    C2  511   2.066   2.591  10.403 -0.2275  0.2704 -0.1974
   33TMC2    C3  512   1.992   2.665  10.314  0.9653  0.4915 -0.3368
   33TMC2    C4  513   2.238   2.750  10.373 -0.5428 -0.2438  0.0342
   33TMC2    C5  514   2.176   2.808  10.267 -0.4862  0.2881 -0.1541
   33TMC2    C6  515   2.051   2.771  10.245  0.3037 -0.5508  0.4332
   33TMC2     C  516   2.255   2.576  10.544  0.2738  0.4153  0.4103
   33TMC2     O  517   2.222   2.461  10.563 -0.2836 -0.2177 -0.7242
   33TMC2     H  518   2.031   2.498  10.446 -1.7861  0.3403 -1.3358
   33TMC2    H1  519   2.338   2.784  10.397  0.5163 -1.8910 -2.0804
   33TMC2    H2  520   1.992   2.818  10.168  2.5044  1.3652 -0.0558
   33TMC2    C7  521   2.216   2.945  10.228 -0.0049  0.3616 -0.6627
   33TMC2    C8  522   1.882   2.608  10.247  0.2033 -0.2996  0.1627
   33TMC2    O1  523   2.320   2.986  10.274 -0.1458  0.0668 -0.1566
   33TMC2    O2  524   1.849   2.624  10.126  0.3529  0.1874  0.1612
   33TMC2    O5  525   1.847   2.502  10.320 -0.4255  0.4339  0.3336
   33TMC2    H5  526   1.877   2.492  10.413  0.0927  2.4625  0.3779
   34MPD2     C  527   2.608   2.598  10.928  0.1446 -0.6793 -0.0791
   34MPD2    C1  528   2.519   2.494  10.884  0.5726  0.6488 -0.1819
   34MPD2    C2  529   2.432   2.515  10.776  0.8650 -0.5623  0.0349
   34MPD2    C3  530   2.431   2.637  10.708 -0.3583  0.1154 -0.2781
   34MPD2    C4  531   2.516   2.734  10.757  0.0609 -0.0538 -0.1537
   34MPD2    C5  532   2.605   2.721  10.858 -0.0551 -0.2318  0.0976
   34MPD2     H  533   2.348   2.448  10.763 -1.1691  1.7159  1.1367
   34MPD2    H1  534   2.508   2.829  10.705  2.9468  0.7009  0.7940
   34MPD2    H2  535   2.675   2.583  11.011 -0.2297  2.4087  0.7891
   34MPD2    H3  536   2.682   2.794  10.879  1.4277 -1.8917  0.3819
   34MPD2     N  537   2.337   2.668  10.607  0.4903  0.0726  0.1136
   34MPD2    H5  538   2.328   2.767  10.589 -2.2564  0.2334  2.3761
   34MPD2    N1  539   2.526   2.379  10.973 -0.2441  0.4133 -0.1806
   34MPD2    H7  540   2.568   2.398  11.064 -1.0235 -0.4528  0.3618
   35TMC2    C1  541   4.217   4.425  11.074 -0.3820  0.0170  1.0320
   35TMC2    C2  542   4.259   4.436  10.944  0.6362  0.5791  0.4355
   35TMC2    C3  543   4.182   4.382  10.847  0.2971 -0.3592 -0.2772
   35TMC2    C4  544   4.096   4.370  11.107  0.0519  0.4786  0.6831
   35TMC2    C5  545   4.021   4.319  11.004 -0.2809 -0.6594  0.3271
   35TMC2    C6  546   4.062   4.319  10.874  0.2928 -0.2949 -0.4958
   35TMC2     C  547   4.281   4.503  11.176  0.4826  0.8507 -0.1232
   35TMC2     O  548   4.341   4.601  11.136 -0.2979  0.2055 -0.0839
   35TMC2     H  549   4.360   4.469  10.926  0.4806  1.0292  0.3791
   35TMC2    H1  550   4.045   4.387  11.201 -1.9269 -0.1052 -0.2598
   35TMC2    H2  551   3.997   4.264  10.806 -1.1019  0.0777  0.5298
   35TMC2    C7  552   3.913   4.235  11.046  0.3183  0.0175 -0.0847
   35TMC2    C8  553   4.260   4.346  10.726  0.1465  0.2494  0.5526
   35TMC2    O1  554   3.896   4.184  11.158  0.4640  0.0564 -0.0848
   35TMC2    O2  555   4.380   4.316  10.724 -0.3524 -0.4278 -0.9330
   35TMC2    O5  556   4.176   4.282  10.639  0.3634 -0.4089 -0.4012
   35TMC2    H5  557   4.099   4.339  10.619  0.8667  0.2170 -0.5792
   36MPD2     C  558   4.412   4.562  11.661  0.4152  0.3191  0.5591
   36MPD2    C1  559   4.358   4.439  11.649  0.5466 -1.1293  0.8313
   36MPD2    C2  560   4.314   4.392  11.523 -0.2137  0.1630 -0.2056
   36MPD2    C3  561   4.327   4.475  11.411 -0.1422 -0.0884  0.5624
   36MPD2    C4  562   4.378   4.602  11.430  0.7901 -0.2237  0.0998
   36MPD2    C5  563   4.420   4.640  11.551 -0.5149  0.2207 -0.2896
   36MPD2     H  564   4.264   4.296  11.526 -1.5603  0.8971  1.0087
   36MPD2    H1  565   4.382   4.678  11.352 -1.3427 -0.1902  0.0300
   36MPD2    H2  566   4.454   4.598  11.754  0.2369  1.7757  0.0695
   36MPD2    H3  567   4.472   4.735  11.553 -2.5616  1.3752 -1.7528
   36MPD2     N  568   4.283   4.426  11.291  0.4347 -0.0222 -0.1686
   36MPD2    H5  569   4.244   4.333  11.288  2.3380 -0.8210 -0.1866
   36MPD2    N1  570   4.358   4.366  11.772 -0.5820  0.4028 -0.5022
   36MPD2    H7  571   4.401   4.413  11.851  1.7428 -0.5255 -1.2071
   37TMC2    C1  572   1.164   4.087  11.992 -0.4924 -0.1843  0.2655
   37TMC2    C2  573   1.038   4.081  11.936  0.2217  0.5102  0.1630
   37TMC2    C3  574   1.035   4.064  11.802  0.3206 -0.2116 -0.7550
   37TMC2    C4  575   1.280   4.094  11.917  0.4682 -0.6905 -0.2811
   37TMC2    C5  576   1.265   4.103  11.780  1.0304  0.6670  0.4543
   37TMC2    C6  577   1.144   4.087  11.725 -0.4309  0.9487 -0.4843
   37TMC2     C  578   1.157   4.177  12.104  0.5305  0.0074  0.2733
   37TMC2     O  579   1.056   4.179  12.169 -0.5491  0.0338 -0.1232
   37TMC2     H  580   0.948   4.084  11.998 -0.0199  1.2966 -0.2226
   37TMC2    H1  581   1.376   4.100  11.967 -0.3614  0.5669  1.1376
   37TMC2    H2  582   1.131   4.078  11.618  1.0480 -1.1667 -0.4838
   37TMC2    C7  583   1.342   4.213  11.726 -0.4244 -0.0602  0.2569
   37TMC2    C8  584   0.912   4.053  11.739 -0.3999  0.0945  0.0496
   37TMC2    O1  585   1.399   4.272  11.815  0.0331 -0.3788  0.1124
   37TMC2    O2  586   0.909   3.994  11.633 -0.0581  0.0191  0.0466
   37TMC2    O5  587   0.847   4.168  11.762 -0.1520 -0.4210  0.2891
   37TMC2    H5  588   0.865   4.218  11.845  0.5380  1.4715 -1.0092
   38MPD2     C  589   1.338   4.599  12.363  0.0091 -0.0101  0.2984
   38MPD2    C1  590   1.435   4.559  12.272  0.4362 -0.0853  0.1043
   38MPD2    C2  591   1.408   4.449  12.184  0.6750  0.1944 -0.6254
   38MPD2    C3  592   1.288   4.380  12.193  0.1873 -0.3644 -0.3598
   38MPD2    C4  593   1.199   4.418  12.293  0.9603 -0.5211 -0.3913
   38MPD2    C5  594   1.221   4.525  12.377  0.1189  0.3245 -0.3251
   38MPD2     H  595   1.475   4.445  12.098  0.2004 -1.2813 -0.9305
   38MPD2    H1  596   1.109   4.360  12.310  0.5967 -0.1275 -0.9988
   38MPD2    H2  597   1.362   4.692  12.414 -0.8543  0.5979 -0.3949
   38MPD2    H3  598   1.151   4.557  12.454  0.5093  0.8336 -0.1798
   38MPD2     N  599   1.265   4.267  12.104 -0.1609  0.7980  0.4153
   38MPD2    H5  600   1.336   4.266  12.031 -1.0906  0.6458 -0.4823
   38MPD2    N1  601   1.560   4.625  12.261  0.5496 -0.6788  0.6668
   38MPD2    H7  602   1.627   4.577  12.202 -0.5542 -0.5236 -0.7249
   39TMC2    C1  603   0.134   1.499   1.982  0.6309  0.3960 -0.0075
   39TMC2    C2  604   0.133   1.370   2.029 -0.0454  0.2167  0.0086
   39TMC2    C3  605   0.143   1.363   2.170  0.1814 -0.0108  0.4948
   39TMC2    C4  606   0.149   1.607   2.061 -0.1834 -0.1763  0.0495
   39TMC2    C5  607   0.166   1.595   2.189 -0.4801 -0.0005  0.1603
   39TMC2    C6  608   0.159   1.473   2.251  0.5542 -0.4780 -0.6685
   39TMC2     C  609   0.085   1.525   1.847 -0.8101 -0.5287 -0.1478
   39TMC2     O  610   0.002   1.617   1.842  0.1754 -0.0738  0.5988
   39TMC2     H  611   0.131   1.279   1.971  0.5714 -0.2159  0.6722
   39TMC2    H1  612   0.136   1.704   2.014 -0.1309 -0.0318  0.3383
   39TMC2    H2  613   0.168   1.459   2.358 -2.9140 -0.9973 -0.4443
   39TMC2    C7  614   0.199   1.710   2.281 -0.8009 -0.3563 -0.5746
   39TMC2    C8  615   0.115   1.235   2.233  0.1439  0.5385  0.3606
   39TMC2    O1  616   0.149   1.700   2.393 -0.0630  0.0881 -0.4894
   39TMC2    O2  617   0.125   1.130   2.167 -0.4472  0.0413  0.4261
   39TMC2    O5  618   0.022   1.262   2.325  0.1524  0.0143  0.1081
   39TMC2    H5  619   4.731   1.355   2.338  1.4281  0.2805  0.8679
   40MPD2     C  620   0.123   1.333   1.537  0.0529 -0.4852  0.5589
   40MPD2    C1  621   0.084   1.436   1.624  0.7275 -0.1609 -0.7506
   40MPD2    C2  622   0.007   1.535   1.559  0.0916  0.1527  0.7330
   40MPD2    C3  623   4.708   1.524   1.425  0.6245 -0.4052  0.0176
   40MPD2    C4  624   0.010   1.415   1.349 -0.0048 -0.0909 -0.1719
   40MPD2    C5  625   0.093   1.323   1.406  0.2222  0.1803  0.3394
   40MPD2     H  626   4.696   1.612   1.619  2.8935  3.2399 -1.0189
   40MPD2    H1  627   4.720   1.407   1.244 -0.0086 -2.1905 -0.0004
   40MPD2    H2  628   0.191   1.258   1.574  1.7712  1.7123  1.7941
   40MPD2    H3  629   0.134   1.233   1.362 -2.7360 -0.5797 -0.8132
   40MPD2     N  630   4.624   1.617   1.363  0.1223 -0.2287  0.3000
   40MPD2    H5  631   4.595   1.588   1.270  0.4936 -3.0988  1.0878
   40MPD2    N1  632   0.128   1.436   1.760 -0.3904  0.0456 -0.1565
   40MPD2    H7  633   0.192   1.366   1.795  0.9895  0.5816 -1.5984
   41TMC2    C1  634   3.769   4.266  13.325  0.2947  0.0250 -0.0952
   41TMC2    C2  635   3.638   4.212  13.318  0.5490  0.0598  0.0630
   41TMC2    C3  636   3.615   4.155  13.197 -0.3395 -0.4090  0.5585
   41TMC2    C4  637   3.871   4.239  13.243 -0.0945 -0.0319  0.0347
   41TMC2    C5  638   3.844   4.166  13.129  0.1528  0.1142 -0.3042
   41TMC2    C6  639   3.716   4.117  13.104 -0.0675 -0.2845 -0.2935
   41TMC2     C  640   3.802   4.360  13.431 -0.3363 -0.5379 -0.1394
   41TMC2     O  641   3.915   4.360  13.479  0.1700  0.5105 -0.1383
   41TMC2     H  642   3.563   4.237  13.393 -0.0861  0.3736 -0.6824
   41TMC2    H1  643   3.966   4.289  13.255 -1.6331  3.1447 -1.2033
   41TMC2    H2  644   3.686   4.059  13.017 -3.5602  1.8263 -0.4846
   41TMC2    C7  645   3.945   4.159  13.030  0.1553 -0.1269 -0.6025
   41TMC2    C8  646   3.485   4.101  13.172 -0.5228  0.3527  0.2208
   41TMC2    O1  647   4.062   4.188  13.054 -0.0518  0.1231 -0.2304
   41TMC2    O2  648   3.466   4.027  13.079 -0.7631 -0.0416  0.4696
   41TMC2    O5  649   3.395   4.173  13.250 -0.3042 -0.0561  0.8510
   41TMC2    H5  650   3.444   4.253  13.277 -1.2808 -0.0263  2.5196
   42MPD2     C  651   3.612   4.662  13.540 -0.6757  0.3312  0.1631
   42MPD2    C1  652   3.708   4.560  13.553 -0.1237  0.1266  0.0783
   42MPD2    C2  653   3.802   4.566  13.657 -0.8481 -0.1223 -0.3515
   42MPD2    C3  654   3.782   4.656  13.758 -0.1265  0.1633  0.4905
   42MPD2    C4  655   3.682   0.017  13.750  0.1511  0.5024  0.0506
   42MPD2    C5  656   3.603   0.020  13.636 -0.0314 -0.2218 -0.1200
   42MPD2     H  657   3.875   4.487  13.671 -1.2947 -0.4676  0.0724
   42MPD2    H1  658   3.669   0.087  13.832  0.4333  0.8860 -0.2301
   42MPD2    H2  659   3.557   4.658  13.447  2.0685  0.3152 -1.4761
   42MPD2    H3  660   3.525   0.094  13.629 -1.1019 -1.2248  1.0875
   42MPD2     N  661   3.865   4.664  13.871  0.7060 -0.1966 -0.5405
   42MPD2    H5  662   3.867   0.017  13.919 -1.4314 -0.8048  0.7050
   42MPD2    N1  663   3.708   4.460  13.450 -0.3883 -0.0309 -0.7298
   42MPD2    H7  664   3.626   4.459  13.391 -0.3756 -0.1520 -0.7465
   43TMC2    C1  665   0.338   2.986   1.177  0.1062 -0.2850 -0.0882
   43TMC2    C2  666   0.243   3.009   1.270  0.3679 -0.2571 -0.0070
   43TMC2    C3  667   0.267   3.073   1.382  0.8766  0.0338 -1.2099
   43TMC2    C4  668   0.467   3.025   1.198 -0.0041 -0.1592  1.0101
   43TMC2    C5  669   0.491   3.078   1.322 -0.5894 -0.1249  0.3170
   43TMC2    C6  670   0.395   3.107   1.417 -0.2515 -0.5209 -0.5829
   43TMC2     C  671   0.317   2.893   1.063 -0.0515  0.2934 -0.0224
   43TMC2     O  672   0.414   2.860   0.996  0.0670 -0.2125  0.2396
   43TMC2     H  673   0.142   2.970   1.255  0.9094 -1.1717 -1.2496
   43TMC2    H1  674   0.547   2.993   1.132 -1.1413  1.6467 -1.2400
   43TMC2    H2  675   0.409   3.165   1.507  2.2454 -2.0261  0.0182
   43TMC2    C7  676   0.624   3.129   1.334  0.0320  1.0152  0.2267
   43TMC2    C8  677   0.162   3.134   1.461 -0.3356  0.3223  0.2733
   43TMC2    O1  678   0.679   3.161   1.228  0.0983  0.1483  0.3647
   43TMC2    O2  679   0.046   3.150   1.425 -0.0680 -0.8850 -0.2970
   43TMC2    O5  680   0.202   3.118   1.587  0.1665 -0.0856 -0.3090
   43TMC2    H5  681   0.128   3.142   1.647 -0.1579 -0.7698 -0.4347
   44MPD2     C  682   0.011   2.541   0.841 -0.5067  0.4055 -0.0412
   44MPD2    C1  683   0.146   2.539   0.856 -0.0311  0.7027  0.1756
   44MPD2    C2  684   0.208   2.642   0.926 -0.8803 -0.7588 -0.5573
   44MPD2    C3  685   0.134   2.752   0.970  0.6345  0.6126  0.3550
   44MPD2    C4  686   0.004   2.752   0.942  0.0578 -0.2466  0.5360
   44MPD2    C5  687   4.679   2.641   0.896  0.7420  0.2959 -0.1125
   44MPD2     H  688   0.315   2.628   0.940 -0.9748 -1.5820 -0.6268
   44MPD2    H1  689   4.675   2.832   0.973 -1.2884 -0.9944 -0.4237
   44MPD2    H2  690   4.687   2.473   0.782 -0.9360  0.5736  0.2081
   44MPD2    H3  691   4.571   2.637   0.888  0.8263  0.4310 -1.2569
   44MPD2     N  692   0.183   2.866   1.043 -0.0396  0.0422 -0.1612
   44MPD2    H5  693   0.119   2.934   1.081 -0.5758 -0.9597  0.7515
   44MPD2    N1  694   0.230   2.443   0.791  0.7127 -0.0116 -0.6185
   44MPD2    H7  695   0.329   2.465   0.796  1.0807 -1.8022 -0.1192
   45TMC2    C1  696   0.711   4.298   9.347 -0.4578 -0.3930 -0.6703
   45TMC2    C2  697   0.783   4.294   9.230  0.1241  0.4912 -0.0221
   45TMC2    C3  698   0.850   4.408   9.193  0.4753 -0.5703  0.6386
   45TMC2    C4  699   0.708   4.407   9.427 -0.4568 -0.2338 -0.6576
   45TMC2    C5  700   0.776   4.514   9.384  0.2514  0.5658 -0.0415
   45TMC2    C6  701   0.853   4.520   9.271  0.4311 -0.2987  0.1023
   45TMC2     C  702   0.633   4.183   9.378  0.0944 -0.4082 -0.3477
   45TMC2     O  703   0.666   4.076   9.329 -0.7180  0.1671 -0.4579
   45TMC2     H  704   0.802   4.199   9.183 -0.4889 -0.6913  2.0845
   45TMC2    H1  705   0.649   4.405   9.518  1.3005  0.6681  0.5057
   45TMC2    H2  706   0.919   4.601   9.243  0.6183 -0.7970 -0.9135
   45TMC2    C7  707   0.759   4.633   9.460 -0.0997 -0.3968  0.8252
   45TMC2    C8  708   0.937   4.414   9.077  0.5824 -0.2657 -0.4749
   45TMC2    O1  709   0.696   4.619   9.565 -0.1484  0.2677  0.1595
   45TMC2    O2  710   1.006   4.514   9.053 -0.9233 -0.0019 -0.0033
   45TMC2    O5  711   0.883   4.335   8.983 -0.4063 -0.0612 -0.3821
   45TMC2    H5  712   0.808   4.279   9.011 -0.0516  0.5430  1.7709
   46MPD2     C  713   0.424   3.994   9.472 -0.4059  0.2927  0.0086
   46MPD2    C1  714   0.405   4.126   9.445  0.6275 -0.2887 -0.1536
   46MPD2    C2  715   0.275   4.174   9.442  0.5756  0.6289 -1.1163
   46MPD2    C3  716   0.159   4.094   9.461 -0.1008 -0.0335  0.0022
   46MPD2    C4  717   0.180   3.961   9.494 -0.4174  0.4203  0.5681
   46MPD2    C5  718   0.308   3.911   9.482  0.2543 -0.0780  0.6118
   46MPD2     H  719   0.261   4.280   9.426  1.0079  0.9223  0.4331
   46MPD2    H1  720   0.103   3.900   9.540 -1.1413  0.8324 -0.0934
   46MPD2    H2  721   0.521   3.952   9.496 -1.0342 -1.7616 -1.0659
   46MPD2    H3  722   0.333   3.810   9.512 -3.7911 -1.4218 -0.5359
   46MPD2     N  723   0.025   4.149   9.436 -0.8551  0.2996 -0.3163
   46MPD2    H5  724   0.031   4.249   9.424 -1.9198 -0.0423 -3.5766
   46MPD2    N1  725   0.512   4.219   9.440  0.2633 -0.1772 -0.6307
   46MPD2    H7  726   0.498   4.316   9.469 -2.2016 -1.0159  1.0004
   47TMC2    C1  727   2.669   3.952   9.334  0.3948  1.0082  0.4971
   47TMC2    C2  728   2.570   4.049   9.367  0.0498  0.0575 -0.1148
   47TMC2    C3  729   2.439   4.013   9.359 -0.1680 -0.5103  0.6130
   47TMC2    C4  730   2.633   3.825   9.296 -0.6189 -0.0604 -1.0199
   47TMC2    C5  731   2.492   3.803   9.283 -0.1016 -0.2936  0.1830
   47TMC2    C6  732   2.399   3.887   9.331 -0.5514  0.0307  0.4552
   47TMC2     C  733   2.804   3.995   9.325  0.2518 -0.4683 -0.1108
   47TMC2     O  734   2.871   3.935   9.242 -0.0513  0.3359  0.4496
   47TMC2     H  735   2.590   4.155   9.360  2.1000 -0.1160  2.8948
   47TMC2    H1  736   2.709   3.753   9.269  0.4404 -0.0663  1.9227
   47TMC2    H2  737   2.292   3.866   9.339 -0.3188 -1.9923 -1.6408
   47TMC2    C7  738   2.454   3.669   9.257  0.0963 -0.4995 -1.1951
   47TMC2    C8  739   2.348   4.116   9.403 -0.6668  0.0946 -0.0203
   47TMC2    O1  740   2.539   3.576   9.258  0.2112 -0.0209  0.0931
   47TMC2    O2  741   2.394   4.208   9.466 -0.2508  1.0714 -0.6203
   47TMC2    O5  742   2.256   4.118   9.304 -0.3390 -0.3046  1.1331
   47TMC2    H5  743   2.222   4.029   9.280 -0.6040 -0.1920  1.0919
   48MPD2     C  744   3.053   4.162   9.332 -0.5215  0.7990  0.3333
   48MPD2    C1  745   2.953   4.176   9.421  0.0677  0.1128  0.1500
   48MPD2    C2  746   2.958   4.267   9.519  0.0006  0.2598  0.3563
   48MPD2    C3  747   3.069   4.346   9.540 -0.7943  0.3360 -0.5496
   48MPD2    C4  748   3.180   4.312   9.470  0.2097  0.1932  0.5202
   48MPD2    C5  749   3.171   4.230   9.353  0.1064  0.7466 -0.4081
   48MPD2     H  750   2.863   4.290   9.566  0.3739  1.5778  0.4516
   48MPD2    H1  751   3.276   4.362   9.486 -0.4946  1.7630 -0.2073
   48MPD2    H2  752   3.032   4.107   9.241  0.2592 -0.1317  0.7079
   48MPD2    H3  753   3.260   4.219   9.293 -0.0432 -0.7605 -0.3745
   48MPD2     N  754   3.070   4.430   9.650  1.0597 -0.3609 -0.4274
   48MPD2    H5  755   2.991   4.438   9.712 -0.9891  0.8514 -3.1632
   48MPD2    N1  756   2.834   4.104   9.412 -0.3158 -0.0807  0.0639
   48MPD2    H7  757   2.763   4.130   9.480  0.9389 -0.0221  1.3484
   49TMC2    C1  758   1.675   2.291  10.634  0.2060 -0.4434 -0.3018
   49TMC2    C2  759   1.608   2.339  10.523 -0.3522 -0.4560  0.5600
   49TMC2    C3  760   1.487   2.279  10.493 -0.1151  0.0008  0.3783
   49TMC2    C4  761   1.629   2.191  10.718  0.1544  0.2385  0.4876
   49TMC2    C5  762   1.505   2.134  10.685 -0.3360 -0.1870  0.0879
   49TMC2    C6  763   1.443   2.171  10.564 -0.4435  0.5292 -0.0688
   49TMC2     C  764   1.799   2.363  10.661  0.3639 -0.1371 -0.0441
   49TMC2     O  765   1.827   2.456  10.585 -0.3757 -0.3236 -0.5125
   49TMC2     H  766   1.651   2.418  10.462 -0.2694 -0.9807 -0.0615
   49TMC2    H1  767   1.697   2.145  10.790  1.3580 -1.0678 -1.4805
   49TMC2    H2  768   1.341   2.136  10.554  0.0926 -1.1688  0.3374
   49TMC2    C7  769   1.444   2.025  10.752  0.0763  0.3558  0.0040
   49TMC2    C8  770   1.405   2.346  10.390 -0.1211 -0.5940  0.4191
   49TMC2    O1  771   1.365   1.945  10.696  0.7927 -0.0411  0.4310
   49TMC2    O2  772   1.451   2.452  10.349 -0.4414  0.0743  0.4771
   49TMC2    O5  773   1.335   2.251  10.314 -0.3130 -0.2438 -0.0658
   49TMC2    H5  774   1.332   2.162  10.355 -1.0889  0.1073  0.6477
   50MPD2     C  775   2.014   2.522  10.796  0.9246  0.0055  1.0713
   50MPD2    C1  776   1.955   2.410  10.848  0.3317  0.0900 -0.2409
   50MPD2    C2  777   1.993   2.369  10.970 -0.2837  0.3181  0.6180
   50MPD2    C3  778   2.097   2.423  11.040  0.5218  0.0182  0.6167
   50MPD2    C4  779   2.146   2.543  10.991  0.0475  0.8190  0.0983
   50MPD2    C5  780   2.110   2.590  10.865 -0.3650 -0.1232 -0.8431
   50MPD2     H  781   1.929   2.299  11.022  0.8940  0.0551  1.7130
   50MPD2    H1  782   2.221   2.610  11.033  1.8153  0.7108 -2.9264
   50MPD2    H2  783   1.994   2.561  10.697  0.3071 -2.1123  0.3699
   50MPD2    H3  784   2.142   2.690  10.837 -2.9676  1.0009  0.0837
   50MPD2     N  785   2.154   2.364  11.155  0.2597 -0.6310 -0.1080
   50MPD2    H5  786   2.228   2.411  11.207  0.5649 -0.7543 -0.4317
   50MPD2    N1  787   1.852   2.341  10.790 -0.1994 -0.5032 -0.5839
   50MPD2    H7  788   1.808   2.264  10.841 -0.5966  1.4225  1.9792
   51TMC2    C1  789   2.063   1.960   0.614 -0.3825 -0.0165 -0.0607
   51TMC2    C2  790   1.947   2.025   0.596 -0.5068  0.5899  0.4309
   51TMC2    C3  791   1.915   2.125   0.687 -0.1115  0.2828  0.0549
   51TMC2    C4  792   2.155   1.993   0.720 -0.1478 -0.4028 -0.2912
   51TMC2    C5  793   2.121   2.098   0.797  0.3495 -0.3529 -0.1685
   51TMC2    C6  794   1.999   2.163   0.789 -0.4536 -0.4723 -0.0134
   51TMC2     C  795   2.078   1.828   0.569 -0.3481  0.0835 -0.2283
   51TMC2     O  796   2.191   1.780   0.572  0.2479  0.4391  0.5908
   51TMC2     H  797   1.886   2.011   0.508  1.8987 -0.1904 -1.1348
   51TMC2    H1  798   2.241   1.929   0.739 -0.8758 -1.6140 -1.1063
   51TMC2    H2  799   1.963   2.246   0.847  1.0862  1.0129 -1.1903
   51TMC2    C7  800   2.220   2.133   0.895 -0.3995 -0.1680 -0.1473
   51TMC2    C8  801   1.801   2.201   0.664 -0.2392  0.0399 -0.0514
   51TMC2    O1  802   2.313   2.051   0.910 -0.4837  0.3600 -0.0738
   51TMC2    O2  803   1.781   2.262   0.558 -0.4233 -0.1052  0.0589
   51TMC2    O5  804   1.723   2.199   0.772 -0.5051 -0.0410  0.4860
   51TMC2    H5  805   1.762   2.142   0.842 -1.9207 -1.0182  0.4847
   52MPD2     C  806   1.914   1.345   0.589 -0.1166 -0.2519  0.2568
   52MPD2    C1  807   2.033   1.397   0.537 -0.0253 -0.1921  0.1746
   52MPD2    C2  808   2.045   1.531   0.526 -0.3607 -0.5801 -0.6404
   52MPD2    C3  809   1.947   1.611   0.580  0.4848 -0.2922  0.3527
   52MPD2    C4  810   1.832   1.560   0.634 -0.0287  0.1716 -0.2498
   52MPD2    C5  811   1.816   1.426   0.646  0.6098 -0.6112  0.0787
   52MPD2     H  812   2.131   1.583   0.485 -0.2983  1.1680  1.6672
   52MPD2    H1  813   1.754   1.629   0.663 -0.3113 -0.0910 -0.3789
   52MPD2    H2  814   1.897   1.239   0.608 -0.0697 -0.0035  1.6893
   52MPD2    H3  815   1.721   1.383   0.678  0.2585  2.0849  2.7310
   52MPD2     N  816   1.962   1.755   0.590 -0.2522  0.4552  0.1048
   52MPD2    H5  817   1.883   1.809   0.623  1.0088  3.0475 -1.1128
   52MPD2    N1  818   2.142   1.309   0.496  0.0473 -0.2939 -0.0842
   52MPD2    H7  819   2.232   1.354   0.480  0.8109 -1.6360  0.4507
   53TMC2    C1  820   1.896   4.682  11.517 -0.4863 -0.2678  0.3468
   53TMC2    C2  821   2.021   4.700  11.462  0.6381  0.3704 -0.0185
   53TMC2    C3  822   2.111   0.035  11.534  0.1429 -0.1428  0.1754
   53TMC2    C4  823   1.869   4.732  11.640 -0.4369 -0.1421 -0.7231
   53TMC2    C5  824   1.959   0.075  11.706 -0.0477  0.4639 -0.2307
   53TMC2    C6  825   2.085   0.091  11.649 -0.0135  0.2917  0.4466
   53TMC2     C  826   1.795   4.614  11.442  0.1653 -0.4067  0.1530
   53TMC2     O  827   1.815   4.602  11.325 -0.6773  0.3027 -0.0212
   53TMC2     H  828   2.040   4.658  11.363  0.1069 -1.7983  0.8038
   53TMC2    H1  829   1.771   4.709  11.681 -0.1809 -1.6525 -0.9528
   53TMC2    H2  830   2.166   0.156  11.681  1.7756 -0.7696 -1.9520
   53TMC2    C7  831   1.923   0.130  11.832  0.2859  0.0615 -0.6645
   53TMC2    C8  832   2.228   0.088  11.464 -0.1060 -0.4651  0.4997
   53TMC2    O1  833   1.808   0.110  11.863 -0.2620 -0.0414  0.3122
   53TMC2    O2  834   2.285   0.197  11.489 -0.4492 -0.1258  0.4928
   53TMC2    O5  835   2.281   4.728  11.394 -0.5120  0.7837 -0.5007
   53TMC2    H5  836   2.228   4.646  11.402  1.8573 -0.7903 -0.9033
   54MPD2     C  837   1.529   4.520  11.359 -0.0210  0.0069  0.7494
   54MPD2    C1  838   1.587   4.482  11.482  0.4298  0.3579 -0.5792
   54MPD2    C2  839   1.521   4.395  11.561  0.5137 -0.5380  0.0794
   54MPD2    C3  840   1.413   4.327  11.511 -0.3054  0.6050  0.2804
   54MPD2    C4  841   1.364   4.350  11.377 -0.0269 -0.1415  0.1493
   54MPD2    C5  842   1.420   4.457  11.313 -0.1776 -0.2049 -0.3420
   54MPD2     H  843   1.554   4.368  11.661 -3.3864 -3.1606  0.6519
   54MPD2    H1  844   1.283   4.295  11.331 -1.0025  1.5649 -0.1935
   54MPD2    H2  845   1.570   4.601  11.301  0.8499 -1.4815 -0.7023
   54MPD2    H3  846   1.386   4.473  11.211 -0.2686 -3.4667 -0.8379
   54MPD2     N  847   1.336   4.234  11.588  0.0857  0.7207 -0.0868
   54MPD2    H5  848   1.271   4.177  11.535 -0.7923  0.3488  1.3876
   54MPD2    N1  849   1.702   4.553  11.519 -0.7782  0.1914 -0.0210
   54MPD2    H7  850   1.716   4.556  11.620  1.4231 -1.1394 -0.2726
   55TMC2    C1  851   3.282   3.527   0.777  0.0936 -0.1183 -0.7730
   55TMC2    C2  852   3.375   3.622   0.811  0.4597 -0.4212  0.1871
   55TMC2    C3  853   3.502   3.580   0.805 -0.0078  0.1713 -0.3570
   55TMC2    C4  854   3.315   3.392   0.760  0.2318 -0.7760  0.5435
   55TMC2    C5  855   3.442   3.357   0.794  0.4672  0.4806 -0.6105
   55TMC2    C6  856   3.541   3.450   0.784 -0.0851  0.3757 -0.0613
   55TMC2     C  857   3.138   3.556   0.794 -0.0331 -0.1724  0.0548
   55TMC2     O  858   3.056   3.462   0.800 -0.3650  0.1194 -0.3423
   55TMC2     H  859   3.353   3.727   0.826  1.5420 -0.2840  0.7894
   55TMC2    H1  860   3.240   3.315   0.741  0.5923 -0.1980 -3.1101
   55TMC2    H2  861   3.646   3.426   0.795 -0.0933 -0.4020 -1.6736
   55TMC2    C7  862   3.475   3.225   0.750  0.0878  0.6436  0.3263
   55TMC2    C8  863   3.602   3.677   0.855  0.1303 -0.2305  0.1905
   55TMC2    O1  864   3.576   3.212   0.677 -0.0702 -0.0656  0.0955
   55TMC2    O2  865   3.612   3.677   0.974 -0.7137 -0.4432  0.1530
   55TMC2    O5  866   3.712   3.654   0.780  0.4803  0.3118 -0.1492
   55TMC2    H5  867   3.685   3.631   0.689  0.8201  2.4139 -0.7769
   56MPD2     C  868   2.981   3.891   0.766  0.3537  0.4448 -0.2520
   56MPD2    C1  869   2.984   3.757   0.775 -1.0865  0.5012  0.2809
   56MPD2    C2  870   2.868   3.683   0.797  0.3578  0.0717  0.1101
   56MPD2    C3  871   2.744   3.748   0.804 -0.2705 -0.5145 -0.7302
   56MPD2    C4  872   2.747   3.885   0.782  0.5617  0.1011 -0.2680
   56MPD2    C5  873   2.861   3.952   0.764  0.4730  0.5182  0.2132
   56MPD2     H  874   2.874   3.576   0.812  1.9545  0.3953  1.8337
   56MPD2    H1  875   2.655   3.942   0.778  1.0509  0.9538  0.6505
   56MPD2    H2  876   3.072   3.948   0.751  0.6973 -0.1667 -0.5154
   56MPD2    H3  877   2.851   4.057   0.740  1.4983  0.0993 -2.0653
   56MPD2     N  878   2.627   3.673   0.817 -0.3371  0.4048 -0.0329
   56MPD2    H5  879   2.643   3.575   0.835 -0.6275  0.4229  0.3316
   56MPD2    N1  880   3.113   3.692   0.780  0.0966  0.3874  0.2753
   56MPD2    H7  881   3.187   3.758   0.758  1.0374 -1.0543 -0.7992
   57TMC2    C1  882   2.052   3.401  13.442 -0.2240 -0.7235  0.6070
   57TMC2    C2  883   2.083   3.270  13.473 -0.5372  0.9442 -0.1254
   57TMC2    C3  884   2.213   3.227  13.456  0.1433  0.5102 -0.2482
   57TMC2    C4  885   2.156   3.489  13.399  0.4117  0.5561  0.4080
   57TMC2    C5  886   2.285   3.440  13.387 -0.1280 -0.1289 -0.2649
   57TMC2    C6  887   2.315   3.308  13.412  0.2555  0.0106  0.0981
   57TMC2     C  888   1.913   3.448  13.443  0.4334  0.6739 -0.2205
   57TMC2     O  889   1.883   3.565  13.424 -0.2164 -0.1684 -1.1821
   57TMC2     H  890   2.012   3.207  13.525  0.0472  2.3678  2.4139
   57TMC2    H1  891   2.139   3.594  13.379  0.0397  0.3207 -0.5160
   57TMC2    H2  892   2.422   3.288  13.419  0.2717 -0.1936 -0.7666
   57TMC2    C7  893   2.386   3.530  13.345 -0.2151 -0.3733  0.2656
   57TMC2    C8  894   2.230   3.086  13.449  0.2866  0.5576  0.3932
   57TMC2    O1  895   2.368   3.648  13.369 -0.3177  0.5388 -0.0576
   57TMC2    O2  896   2.169   3.018  13.525 -0.3085  0.0715 -0.4754
   57TMC2    O5  897   2.359   3.059  13.412  1.2300 -0.1774 -0.7949
   57TMC2    H5  898   2.376   3.120  13.338 -0.1696 -0.6697 -1.5213
   58MPD2     C  899   1.412   3.340  13.402  0.2316 -0.1631  1.0681
   58MPD2    C1  900   1.472   3.454  13.459 -0.4915  0.6046  0.1346
   58MPD2    C2  901   1.608   3.455  13.473  0.0211 -0.0269 -0.4135
   58MPD2    C3  902   1.687   3.345  13.427  0.4603  0.3174 -0.5474
   58MPD2    C4  903   1.621   3.231  13.389  0.6421  0.0004 -0.6666
   58MPD2    C5  904   1.489   3.230  13.368 -0.3753 -0.0585  0.1305
   58MPD2     H  905   1.652   3.538  13.528  3.3758 -0.6690 -2.0834
   58MPD2    H1  906   1.674   3.144  13.351  1.9029  0.8572 -0.8561
   58MPD2    H2  907   1.304   3.331  13.399  0.1577  1.3765 -1.6308
   58MPD2    H3  908   1.437   3.141  13.333 -0.0237  0.3535 -1.4296
   58MPD2     N  909   1.828   3.341  13.439 -0.1281 -0.6091 -0.3554
   58MPD2    H5  910   1.883   3.262  13.408 -1.5502 -1.7385  0.0224
   58MPD2    N1  911   1.392   3.558  13.496  0.1594 -0.1728 -0.1956
   58MPD2    H7  912   1.295   3.537  13.475  0.6033 -1.1572 -1.2549
   59TMC2    C1  913   4.333   3.111  12.470  0.0521  0.6845 -0.1661
   59TMC2    C2  914   4.315   2.981  12.463  0.4590 -0.2892 -0.1620
   59TMC2    C3  915   4.328   2.921  12.336 -0.0466 -0.1962  0.5627
   59TMC2    C4  916   4.340   3.188  12.359 -0.1870 -0.0279 -0.6095
   59TMC2    C5  917   4.334   3.129  12.238  0.1586  0.2427  0.2868
   59TMC2    C6  918   4.330   2.993  12.219 -0.2863  0.2748 -0.0855
   59TMC2     C  919   4.301   3.165  12.598 -0.1924  0.1588  0.0475
   59TMC2     O  920   4.211   3.104  12.653  0.0866 -0.2804  0.6707
   59TMC2     H  921   4.304   2.918  12.551 -0.5052  0.0869 -0.0074
   59TMC2    H1  922   4.336   3.296  12.372  0.1202 -0.2100  0.9566
   59TMC2    H2  923   4.314   2.935  12.129 -0.0890  1.1062 -0.6526
   59TMC2    C7  924   4.356   3.202  12.111 -0.4348 -0.0214 -0.0177
   59TMC2    C8  925   4.337   2.780  12.333 -0.1654 -0.3984  0.0898
   59TMC2    O1  926   4.373   3.133  12.014 -0.3586 -0.6356  0.2466
   59TMC2    O2  927   4.298   2.723  12.430  0.3687 -0.0939  0.6439
   59TMC2    O5  928   4.409   2.745  12.226 -0.9240  0.0891  0.0564
   59TMC2    H5  929   4.468   2.815  12.193  0.4172 -1.1926 -0.2793
   60MPD2     C  930   4.261   3.314  12.844 -0.0086  0.4583 -0.6507
   60MPD2    C1  931   4.376   3.323  12.771 -0.2582  0.7092 -0.5639
   60MPD2    C2  932   4.485   3.386  12.825 -0.4963  0.3294 -0.2017
   60MPD2    C3  933   4.490   3.428  12.956  0.1282  0.3492 -0.9211
   60MPD2    C4  934   4.370   3.429  13.026  0.2297  0.0861 -0.2708
   60MPD2    C5  935   4.258   3.374  12.967  0.4691 -0.0219  0.2828
   60MPD2     H  936   4.570   3.386  12.758 -1.2411 -0.0240 -1.1499
   60MPD2    H1  937   4.360   3.482  13.120  0.7294 -1.1521  0.4779
   60MPD2    H2  938   4.163   3.280  12.812 -0.2316  0.1357  0.3824
   60MPD2    H3  939   4.169   3.377  13.029  0.7620  1.1702  0.6460
   60MPD2     N  940   4.605   3.482  13.026 -0.1456  0.5597 -0.1040
   60MPD2    H5  941   4.586   3.531  13.112  1.1422  0.3767  0.2850
   60MPD2    N1  942   4.394   3.258  12.644  0.3146 -0.0992 -0.3679
   60MPD2    H7  943   4.481   3.261  12.591  0.9691  0.0070  0.7156
   61TMC2    C1  944   4.033   0.844  15.821 -0.4478  0.1097  0.2242
   61TMC2    C2  945   3.930   0.831  15.914 -0.0251 -0.4316  0.2345
   61TMC2    C3  946   3.850   0.941  15.934  0.0132  0.1266 -0.7636
   61TMC2    C4  947   4.056   0.967  15.755  0.7144 -0.8353  0.3340
   61TMC2    C5  948   3.982   1.074  15.795  0.0285 -0.3402 -0.3171
   61TMC2    C6  949   3.876   1.063  15.882 -1.2001  0.1791 -0.7293
   61TMC2     C  950   4.075   0.725  15.757  0.4439 -0.0384  0.0395
   61TMC2     O  951   4.063   0.628  15.829  0.1713  0.0409 -0.5902
   61TMC2     H  952   3.920   0.739  15.971  2.8095  0.2655  1.8666
   61TMC2    H1  953   4.137   0.981  15.684  2.8317 -0.9065  2.7654
   61TMC2    H2  954   3.811   1.146  15.908 -0.2421  0.7184 -0.0298
   61TMC2    C7  955   3.991   1.179  15.693 -0.8835  0.0829  0.2517
   61TMC2    C8  956   3.743   0.940  16.027 -0.1185 -0.0191  0.1612
   61TMC2    O1  957   4.101   1.202  15.648 -0.4086 -0.3185  0.0047
   61TMC2    O2  958   3.691   1.041  16.072 -0.1995 -0.3725  0.1630
   61TMC2    O5  959   3.680   0.827  16.006 -0.0410  0.1097  0.3797
   61TMC2    H5  960   3.702   0.782  15.922 -1.2068  0.9926 -0.3857
   62MPD2     C  961   4.197   0.506  15.588 -0.2157 -0.1785 -0.4401
   62MPD2    C1  962   4.177   0.635  15.549  0.4097 -0.1974 -0.0390
   62MPD2    C2  963   4.233   0.682  15.431 -0.5302 -0.6651 -0.3345
   62MPD2    C3  964   4.311   0.606  15.351 -0.2946  0.0861  0.2080
   62MPD2    C4  965   4.341   0.468  15.392 -0.3402  0.0585 -0.1429
   62MPD2    C5  966   4.288   0.428  15.515  0.6346 -0.1212 -0.4647
   62MPD2     H  967   4.210   0.785  15.406 -1.1653 -1.0713 -1.4142
   62MPD2    H1  968   4.411   0.407  15.337 -0.1744  0.8067 -0.7574
   62MPD2    H2  969   4.178   0.471  15.688  2.0492 -1.0363 -0.3111
   62MPD2    H3  970   4.312   0.331  15.556  0.1062 -0.8930 -2.0059
   62MPD2     N  971   4.364   0.656  15.227  0.0668  0.3024  0.0010
   62MPD2    H5  972   4.340   0.750  15.196 -2.3031  0.2595  1.6745
   62MPD2    N1  973   4.108   0.733  15.626 -0.9019 -0.4714  0.1425
   62MPD2    H7  974   4.092   0.820  15.577  0.9931  0.6526  1.5241
   63TMC2    C1  975   2.775   0.441  10.162 -0.3353 -0.1727  0.1235
   63TMC2    C2  976   2.787   0.580  10.183 -0.0687  0.0268 -0.0982
   63TMC2    C3  977   2.817   0.656  10.076 -0.2609  0.3183  0.7443
   63TMC2    C4  978   2.791   0.390  10.038 -0.2176  0.4696  0.3813
   63TMC2    C5  979   2.831   0.469   9.935  0.1250  0.2817 -0.2093
   63TMC2    C6  980   2.840   0.608   9.950  0.5263 -0.0463  0.5799
   63TMC2     C  981   2.704   0.374  10.270 -0.4905 -0.0771  0.4613
   63TMC2     O  982   2.667   0.440  10.362 -0.4790  0.1881  0.4009
   63TMC2     H  983   2.777   0.631  10.278  0.4336  2.0409 -1.1038
   63TMC2    H1  984   2.782   0.282  10.028 -2.8258  0.7553 -0.5684
   63TMC2    H2  985   2.860   0.673   9.866  0.6236  0.0625  0.6879
   63TMC2    C7  986   2.820   0.420   9.796  0.4391  0.5922 -0.7305
   63TMC2    C8  987   2.811   0.802  10.097 -0.2389 -0.2140  0.5261
   63TMC2    O1  988   2.742   0.327   9.775  0.3693  0.2270  0.0503
   63TMC2    O2  989   2.864   0.859  10.194  0.3385 -0.2209 -0.2880
   63TMC2    O5  990   2.758   0.859   9.987  0.0658 -0.3076 -0.2124
   63TMC2    H5  991   2.702   0.796   9.937  1.1899 -1.5774  0.1239
   64MPD2     C  992   2.570   4.719  10.547  0.1329 -0.3060 -0.5862
   64MPD2    C1  993   2.675   4.683  10.468 -0.3486 -0.5501  0.4063
   64MPD2    C2  994   2.720   0.028  10.371  0.9333 -0.0464  0.0563
   64MPD2    C3  995   2.671   0.159  10.363 -0.0933 -0.5300  0.3758
   64MPD2    C4  996   2.556   0.188  10.436 -0.0464 -0.4438  0.0061
   64MPD2    C5  997   2.504   0.102  10.520  0.1807  1.3106 -1.0559
   64MPD2     H  998   2.798   4.725  10.307 -0.5694 -1.8034 -0.7161
   64MPD2    H1  999   2.509   0.283  10.416 -0.0264 -0.5138 -0.3885
   64MPD2    H2 1000   2.529   4.650  10.620 -0.9300  0.0679 -0.8226
   64MPD2    H3 1001   2.412   0.126  10.572 -0.3245 -0.8529 -0.9445
   64MPD2     N 1002   2.742   0.244  10.276 -0.0043  0.2339  0.1266
   64MPD2    H5 1003   2.813   0.204  10.216  1.5056  1.4205  1.1126
   64MPD2    N1 1004   2.733   4.556  10.469  0.3531  0.5577  0.6897
   64MPD2    H7 1005   2.813   4.540  10.408 -1.2164 -0.7073 -1.0225
   65TMC2    C1 1006   0.023   0.567  15.344 -0.6320 -0.3021  0.5445
   65TMC2    C2 1007   0.043   0.510  15.218 -0.2152  0.7510  0.3506
   65TMC2    C3 1008   0.112   0.593  15.126  0.1531 -0.1705  0.2318
   65TMC2    C4 1009   0.062   0.703  15.373 -0.0315  0.6420 -0.1027
   65TMC2    C5 1010   0.121   0.777  15.270  0.1838 -0.0912  0.8134
   65TMC2    C6 1011   0.156   0.718  15.150  0.3835  0.0683  0.2741
   65TMC2     C 1012   4.707   0.495  15.456 -0.6082 -0.5226  0.2743
   65TMC2     O 1013   0.014   0.548  15.561  0.2441  0.5556  0.0986
   65TMC2     H 1014   0.001   0.414  15.191  0.7138  0.7778 -1.2107
   65TMC2    H1 1015   0.038   0.746  15.470 -0.4166 -1.5100  0.7618
   65TMC2    H2 1016   0.220   0.771  15.081  0.2469  0.1632  0.2185
   65TMC2    C7 1017   0.151   0.917  15.294  0.3983 -0.0214 -0.6622
   65TMC2    C8 1018   0.154   0.539  14.997  0.8734 -0.1863  0.1410
   65TMC2    O1 1019   0.249   0.974  15.241 -0.1397  0.1308 -0.6383
   65TMC2    O2 1020   0.115   0.590  14.889  0.0112 -0.2217 -0.1119
   65TMC2    O5 1021   0.163   0.405  15.021  0.3832  0.1718 -0.9380
   65TMC2    H5 1022   0.219   0.399  15.101 -3.7339 -0.3721  1.9105
   66MPD2     C 1023   4.582   0.312  15.667 -0.0185 -0.0503 -0.2448
   66MPD2    C1 1024   4.587   0.282  15.533  0.1850 -0.0938 -0.1667
   66MPD2    C2 1025   4.524   0.169  15.496  0.1431 -0.1742  0.0940
   66MPD2    C3 1026   4.465   0.082  15.588  0.1606 -0.0171  0.7687
   66MPD2    C4 1027   4.476   0.113  15.725  0.0107 -0.2518 -0.5971
   66MPD2    C5 1028   4.548   0.226  15.763 -0.0811 -0.2927  0.4551
   66MPD2     H 1029   4.503   0.154  15.390 -1.9771 -0.7009  0.5830
   66MPD2    H1 1030   4.447   0.040  15.799  1.2977  1.5889  1.7252
   66MPD2    H2 1031   4.634   0.401  15.700  0.5308 -1.0295  1.5234
   66MPD2    H3 1032   4.556   0.252  15.868  0.1688 -1.9911  0.8528
   66MPD2     N 1033   4.402   4.705  15.544 -0.5272  0.1597  0.3795
   66MPD2    H5 1034   4.361   4.650  15.619 -0.3010  0.3800  0.6594
   66MPD2    N1 1035   4.639   0.375  15.440 -0.1829  0.3091  0.1093
   66MPD2    H7 1036   4.615   0.358  15.343  2.5449 -1.6981 -0.2053
   67TMC2    C1 1037   4.347   4.317  14.629 -0.0780  0.1492  0.1749
   67TMC2    C2 1038   4.238   4.360  14.700 -0.1813  0.2495  0.1331
   67TMC2    C3 1039   4.254   4.455  14.788 -0.4387 -0.2404 -0.2989
   67TMC2    C4 1040   4.472   4.366  14.650 -0.0452  0.9539 -1.1269
   67TMC2    C5 1041   4.485   4.445  14.759 -0.1499 -0.5010  0.2766
   67TMC2    C6 1042   4.380   4.491  14.835 -0.2507 -0.0375  0.4023
   67TMC2     C 1043   4.328   4.205  14.536 -0.0997  0.5478  0.2417
   67TMC2     O 1044   4.429   4.139  14.503 -0.6064 -0.5869 -0.0333
   67TMC2     H 1045   4.141   4.313  14.697  0.7568 -1.5559 -2.1892
   67TMC2    H1 1046   4.551   4.335  14.583 -0.4185  1.9390 -2.0196
   67TMC2    H2 1047   4.380   4.582  14.894 -2.0926  1.0175 -1.2246
   67TMC2    C7 1048   4.612   4.501  14.787 -0.2150 -0.3260  0.0384
   67TMC2    C8 1049   4.138   4.493  14.867  0.6927  0.0166  0.5488
   67TMC2    O1 1050   4.687   4.531  14.694  0.1807 -0.3537 -0.0472
   67TMC2    O2 1051   4.124   4.520  14.986 -0.6322 -0.4682  0.5851
   67TMC2    O5 1052   4.054   4.542  14.776  0.0479 -0.0633 -0.1461
   67TMC2    H5 1053   4.095   4.539  14.687  2.3129 -0.2972  0.9045
   68MPD2     C 1054   4.228   3.950  14.421 -0.1323  0.2601  0.2755
   68MPD2    C1 1055   4.153   4.068  14.422  0.4003  0.3189  0.6975
   68MPD2    C2 1056   4.023   4.075  14.366 -0.5743 -0.2138 -0.7784
   68MPD2    C3 1057   3.975   3.969  14.291 -0.4149  0.4889  0.1772
   68MPD2    C4 1058   4.042   3.849  14.292 -0.7126 -0.5973  0.1517
   68MPD2    C5 1059   4.167   3.839  14.354 -0.2228  0.0583 -0.1666
   68MPD2     H 1060   3.979   4.173  14.382  0.7696  0.6736 -2.5051
   68MPD2    H1 1061   3.999   3.760  14.248 -0.0066 -0.0239 -1.7026
   68MPD2    H2 1062   4.323   3.945  14.474 -1.2640 -0.3393  2.2297
   68MPD2    H3 1063   4.197   3.736  14.368  0.7696  0.2455 -0.9189
   68MPD2     N 1064   3.850   3.976  14.229 -0.2486 -0.2755  0.4752
   68MPD2    H5 1065   3.823   3.897  14.172 -0.5261 -0.7260  1.2251
   68MPD2    N1 1066   4.193   4.189  14.488  0.1301  0.3756 -0.7838
   68MPD2    H7 1067   4.128   4.267  14.491 -0.5778 -0.2615  0.3752
   69TMC2    C1 1068   1.753   0.691  12.469  0.2078  0.0272  0.6801
   69TMC2    C2 1069   1.636   0.744  12.421 -0.7473  0.5498 -0.4587
   69TMC2    C3 1070   1.626   0.781  12.290 -0.4942 -0.5855 -0.4182
   69TMC2    C4 1071   1.847   0.648  12.387 -0.6461 -0.0517 -0.6199
   69TMC2    C5 1072   1.826   0.669  12.259 -0.5523  0.0839  0.5716
   69TMC2    C6 1073   1.724   0.741  12.213 -0.3192  0.6359  0.7103
   69TMC2     C 1074   1.755   0.661  12.608 -0.1333  0.0977  0.2729
   69TMC2     O 1075   1.644   0.638  12.650 -0.3420  0.1283 -0.4937
   69TMC2     H 1076   1.553   0.775  12.483 -0.2250 -1.0895  1.0547
   69TMC2    H1 1077   1.937   0.602  12.426 -0.6544  0.9947  0.6303
   69TMC2    H2 1078   1.722   0.766  12.107  2.1984  1.4185  0.8367
   69TMC2    C7 1079   1.937   0.635  12.172  0.8007  0.3622 -0.7883
   69TMC2    C8 1080   1.529   0.874  12.246  0.0405 -0.1343  0.9560
   69TMC2    O1 1081   2.049   0.637  12.222  0.8195  0.1370 -0.8631
   69TMC2    O2 1082   1.434   0.893  12.318 -0.3970 -0.1655  0.4800
   69TMC2    O5 1083   1.571   0.959  12.148  0.3568 -0.1184  0.6594
   69TMC2    H5 1084   1.666   0.953  12.122  0.7855  3.3382  1.4437
   70MPD2     C 1085   2.027   0.574  12.841  1.0301 -0.2428 -0.1109
   70MPD2    C1 1086   1.904   0.558  12.776 -1.0615  0.2020 -0.6756
   70MPD2    C2 1087   1.809   0.484  12.838 -0.0217  0.1309 -0.1511
   70MPD2    C3 1088   1.827   0.424  12.972  0.3651 -0.1585  0.3747
   70MPD2    C4 1089   1.951   0.445  13.030 -0.2866  0.7742 -0.1516
   70MPD2    C5 1090   2.049   0.517  12.967  0.7290  0.0544  0.2208
   70MPD2     H 1091   1.716   0.472  12.785  0.0405  0.2295 -0.2825
   70MPD2    H1 1092   1.983   0.398  13.122 -1.8135 -1.0062 -0.5307
   70MPD2    H2 1093   2.099   0.637  12.789  0.7189 -0.9044 -1.3343
   70MPD2    H3 1094   2.147   0.537  13.009  0.5570  1.8705 -0.2385
   70MPD2     N 1095   1.741   0.331  13.037  0.6487  0.0737  0.1729
   70MPD2    H5 1096   1.759   0.297  13.131  1.3392  0.1705  0.0741
   70MPD2    N1 1097   1.878   0.635  12.659  0.0947  0.0128  0.5328
   70MPD2    H7 1098   1.952   0.695  12.623  0.8305 -1.5626 -0.5770
   71TMC2    C1 1099   0.006   0.980   1.262  0.2893  0.3088  0.2989
   71TMC2    C2 1100   0.136   0.929   1.233 -0.6244 -0.7137  0.1247
   71TMC2    C3 1101   0.226   0.913   1.339  0.1610  0.3704 -0.4198
   71TMC2    C4 1102   4.706   1.008   1.391 -0.4078 -0.7381 -0.2853
   71TMC2    C5 1103   0.062   0.992   1.484  0.3965 -0.2903 -1.4230
   71TMC2    C6 1104   0.192   0.943   1.465 -0.8273 -0.5736  0.4463
   71TMC2     C 1105   4.645   1.017   1.155 -0.7211  0.7437  0.2586
   71TMC2     O 1106   4.591   1.128   1.160  0.3379  0.1530 -0.1750
   71TMC2     H 1107   0.162   0.897   1.133  0.8372 -0.4757  0.4271
   71TMC2    H1 1108   4.605   1.043   1.405 -0.5344 -1.9190  1.8091
   71TMC2    H2 1109   0.268   0.927   1.541  0.1011  0.9439 -0.1664
   71TMC2    C7 1110   0.022   1.014   1.619  0.4991  0.7280 -0.3544
   71TMC2    C8 1111   0.361   0.883   1.315  0.3609  0.7529 -0.7576
   71TMC2    O1 1112   0.110   1.050   1.694  0.0316 -0.6906  0.5443
   71TMC2    O2 1113   0.439   0.847   1.400  0.7433  0.1029  0.0918
   71TMC2    O5 1114   0.398   0.943   1.204 -0.5024  0.4747 -0.3094
   71TMC2    H5 1115   0.330   1.001   1.164 -1.9345 -1.1818 -0.2684
   72MPD2     C 1116   4.552   0.958   0.656 -0.5189 -0.1138 -0.2781
   72MPD2    C1 1117   4.535   1.076   0.734 -0.0470 -0.1817 -0.2991
   72MPD2    C2 1118   4.572   1.064   0.867 -0.1520 -0.1153  0.6733
   72MPD2    C3 1119   4.611   0.942   0.919 -0.6824 -0.4682 -0.2192
   72MPD2    C4 1120   4.617   0.829   0.842  0.0009  0.2347  0.0544
   72MPD2    C5 1121   4.589   0.836   0.708  0.7565 -0.0732 -0.4752
   72MPD2     H 1122   4.566   1.151   0.930  0.1281  1.0631 -0.9424
   72MPD2    H1 1123   4.652   0.737   0.887  0.7175  1.1096  1.2879
   72MPD2    H2 1124   4.522   0.966   0.552 -0.5550  0.0793 -0.2529
   72MPD2    H3 1125   4.596   0.755   0.636 -0.8030  2.1458 -3.1337
   72MPD2     N 1126   4.649   0.925   1.053 -0.0754  0.5673  0.2148
   72MPD2    H5 1127   4.684   0.832   1.074 -1.6860 -0.5958 -2.3425
   72MPD2    N1 1128   4.497   1.209   0.690  0.2981  0.2148  0.8771
   72MPD2    H7 1129   4.481   1.273   0.767  2.7299 -0.3119  1.8144
   73TMC2    C1 1130   4.732   2.823  14.534 -0.2309 -0.2324  0.1602
   73TMC2    C2 1131   4.673   2.815  14.653  0.0326  0.1082  0.1157
   73TMC2    C3 1132   4.718   2.891  14.755 -0.4670  0.3110  0.2099
   73TMC2    C4 1133   0.098   2.909  14.513  0.0499 -0.3397 -0.1632
   73TMC2    C5 1134   0.129   3.001  14.611  0.2654 -0.5248 -0.1280
   73TMC2    C6 1135   0.072   2.992  14.735 -0.4510  0.1882 -0.2122
   73TMC2     C 1136   4.645   2.825  14.419  0.2694 -0.2751 -0.9446
   73TMC2     O 1137   4.686   2.899  14.332 -0.6916 -0.3327  0.4050
   73TMC2     H 1138   4.583   2.757  14.673 -0.6720  0.7352 -1.2648
   73TMC2    H1 1139   0.156   2.913  14.421  0.8874  0.0717  0.3772
   73TMC2    H2 1140   0.096   3.065  14.811 -0.9025 -0.7820  0.8477
   73TMC2    C7 1141   0.128   3.128  14.557  0.1882  0.1539 -0.4177
   73TMC2    C8 1142   4.628   2.887  14.869 -0.0689  0.2219 -0.4541
   73TMC2    O1 1143   0.195   3.217  14.608  0.4842 -0.1264 -0.0250
   73TMC2    O2 1144   4.582   2.785  14.911 -0.2001 -0.5636  0.1009
   73TMC2    O5 1145   4.655   2.999  14.942 -0.8621 -0.5202  0.1462
   73TMC2    H5 1146   4.665   3.082  14.890  0.2139 -0.2305  0.8064
   74MPD2     C 1147   4.253   2.725  14.104  0.7836  0.1755  0.2963
   74MPD2    C1 1148   4.360   2.810  14.089 -0.0515 -0.1944  0.1333
   74MPD2    C2 1149   4.463   2.805  14.190  0.0606 -0.8161  0.3725
   74MPD2    C3 1150   4.432   2.747  14.314  0.1821  0.1110 -0.3003
   74MPD2    C4 1151   4.318   2.666  14.327 -0.4535  1.1130  0.8337
   74MPD2    C5 1152   4.228   2.657  14.223 -0.1740  0.2034 -0.4776
   74MPD2     H 1153   4.546   2.873  14.180 -1.3626  1.0660  1.2817
   74MPD2    H1 1154   4.294   2.611  14.417 -0.0972 -0.5888 -0.1099
   74MPD2    H2 1155   4.183   2.725  14.021  2.2929  0.1443 -0.9706
   74MPD2    H3 1156   4.142   2.591  14.227 -0.1906  0.0563 -3.2800
   74MPD2     N 1157   4.521   2.755  14.426  0.0833 -0.5411  0.5628
   74MPD2    H5 1158   4.488   2.731  14.519  2.0714 -0.2144  1.3545
   74MPD2    N1 1159   4.365   2.892  13.974  0.1321  0.0864 -0.6505
   74MPD2    H7 1160   4.288   2.881  13.908 -1.4734 -1.5140  1.5133
   75TMC2    C1 1161   3.660   4.104  14.147  0.1221 -0.7362  0.1613
   75TMC2    C2 1162   3.534   4.153  14.175 -0.1195  0.8382  0.4636
   75TMC2    C3 1163   3.440   4.132  14.083  0.3498 -0.5797  0.1062
   75TMC2    C4 1164   3.698   4.047  14.026 -0.0262 -0.8366  0.3693
   75TMC2    C5 1165   3.596   4.041  13.928 -0.2927 -0.5278 -0.4707
   75TMC2    C6 1166   3.465   4.082  13.956 -0.6788  0.6154  0.4752
   75TMC2     C 1167   3.756   4.082  14.248 -0.6543 -0.0738 -0.4965
   75TMC2     O 1168   3.741   4.145  14.353  0.0273 -0.2394  0.1463
   75TMC2     H 1169   3.522   4.198  14.274  0.0607  0.0591  0.8372
   75TMC2    H1 1170   3.801   4.023  14.000  0.2279  0.7040  0.0015
   75TMC2    H2 1171   3.399   4.064  13.872  0.9119  0.0489 -0.6596
   75TMC2    C7 1172   3.621   3.977  13.796  0.7442 -0.1179 -0.9609
   75TMC2    C8 1173   3.342   4.235  14.103 -0.9909 -0.0500  0.0814
   75TMC2    O1 1174   3.538   3.900  13.750 -0.1500  0.2963 -0.2300
   75TMC2    O2 1175   3.299   4.274  14.211 -0.4875  0.7795 -0.0495
   75TMC2    O5 1176   3.370   4.320  14.008  0.5688  0.2038  0.5614
   75TMC2    H5 1177   3.444   4.297  13.947  1.3055 -0.9899  1.8997
   76TMC2    C1 1178   2.514   4.308  12.313 -0.1228  0.0854 -0.4195
   76TMC2    C2 1179   2.447   4.323  12.429 -0.0610 -0.0569 -1.0584
   76TMC2    C3 1180   2.411   4.207  12.489 -1.0559  0.4887  0.9663
   76TMC2    C4 1181   2.568   4.188  12.272  0.0960 -0.7597 -0.6160
   76TMC2    C5 1182   2.551   4.076  12.354  1.2759 -0.3191  0.3766
   76TMC2    C6 1183   2.469   4.085  12.465  0.1116 -0.4939 -0.6083
   76TMC2     C 1184   2.539   4.431  12.243 -0.4124  0.5526  0.3044
   76TMC2     O 1185   2.488   4.532  12.279  0.1703  0.7409  0.0395
   76TMC2     H 1186   2.410   4.418  12.466  1.4296  0.4566 -0.8947
   76TMC2    H1 1187   2.639   4.181  12.190 -0.6180  0.7306 -1.3568
   76TMC2    H2 1188   2.452   3.999  12.529  0.0405 -0.1987 -0.2231
   76TMC2    C7 1189   2.631   3.955  12.331 -0.3181  0.3110  0.2227
   76TMC2    C8 1190   2.368   4.219  12.621 -0.0428 -0.0872  0.6088
   76TMC2    O1 1191   2.586   3.846  12.378  0.7190  0.2958  0.2097
   76TMC2    O2 1192   2.438   4.178  12.712 -0.3339 -0.1916  0.2343
   76TMC2    O5 1193   2.269   4.301  12.629  0.1404 -0.3403 -0.1541
   76TMC2    H5 1194   2.228   4.328  12.544  0.5536  0.5438 -0.0766
   77MPD2     C 1195   2.906   4.715  11.988 -0.8005  0.1403 -0.1346
   77MPD2    C1 1196   2.788   0.023  12.046 -0.2605  0.0584  0.1217
   77MPD2    C2 1197   2.700   4.662  12.101 -0.0504 -0.5752 -0.0639
   77MPD2    C3 1198   2.727   4.525  12.107 -0.1052 -0.4294 -0.6069
   77MPD2    C4 1199   2.849   4.493  12.060 -0.6071 -0.5006 -0.2859
   77MPD2    C5 1200   2.936   4.579  11.997  0.0359  0.1775 -0.5847
   77MPD2     H 1201   2.611   4.697  12.152  1.4435  0.5387  1.7695
   77MPD2    H1 1202   2.881   4.389  12.057  0.4376 -0.1629 -0.8629
   77MPD2    H2 1203   2.975   0.040  11.931 -1.3541  0.3481 -0.5781
   77MPD2    H3 1204   3.028   4.539  11.958 -1.0441 -1.4772 -1.4328
   77MPD2     N 1205   2.656   4.423  12.170 -0.0198  0.1267 -0.2352
   77MPD2    H5 1206   2.695   4.331  12.153  1.8699  0.9892 -0.4822
   77MPD2    N1 1207   2.754   0.163  12.051 -0.0991 -0.4663 -0.7415
   77MPD2    H7 1208   2.658   0.173  12.082  0.2195  0.2610  0.0117
   78TMC2    C1 1209   4.182   1.096   1.114  0.4022  0.5280  0.3864
   78TMC2    C2 1210   4.090   1.166   1.192 -0.1338 -0.1699 -0.4091
   78TMC2    C3 1211   4.083   1.121   1.323  0.3338 -0.2286 -0.1190
   78TMC2    C4 1212   4.259   0.996   1.161 -0.6422 -0.1844 -0.8193
   78TMC2    C5 1213   4.251   0.965   1.293 -0.3840  0.2031  0.2501
   78TMC2    C6 1214   4.165   1.025   1.379  0.5943 -0.1279  0.4326
   78TMC2     C 1215   4.181   1.127   0.974  1.1001 -0.2900 -0.1797
   78TMC2     O 1216   4.127   1.232   0.950  0.0690  0.0708  0.1672
   78TMC2     H 1217   4.017   1.234   1.151  1.4192 -0.3652 -3.4806
   78TMC2    H1 1218   4.344   0.982   1.094  1.4700 -0.4096  1.8858
   78TMC2    H2 1219   4.178   1.011   1.485 -1.3131  0.4895  0.7435
   78TMC2    C7 1220   4.345   0.863   1.335  0.4804  0.0692 -0.2464
   78TMC2    C8 1221   4.005   1.203   1.407 -0.5327 -0.5793  0.4907
   78TMC2    O1 1222   4.422   0.823   1.254 -0.1976 -0.6418 -0.0520
   78TMC2    O2 1223   4.038   1.227   1.520  0.4612 -0.8833 -0.2354
   78TMC2    O5 1224   3.879   1.200   1.358 -0.2130 -0.3203 -0.1247
   78TMC2    H5 1225   3.870   1.157   1.271  1.7271  1.0324 -1.0130
   79MPD1     C 1226   4.089   0.938   0.505 -0.8889 -0.4589 -0.1561
   79MPD1    C1 1227   4.090   1.070   0.547 -0.5720 -0.6002  0.5331
   79MPD1    C2 1228   4.115   1.088   0.678  0.3533  0.0510 -0.5982
   79MPD1    C3 1229   4.168   0.991   0.764 -0.3200  0.1533  0.2614
   79MPD1    C4 1230   4.184   0.866   0.711 -0.3881  0.0815  0.1574
   79MPD1    C5 1231   4.143   0.836   0.586  0.2979  0.4779  0.3186
   79MPD1     H 1232   4.110   1.189   0.716 -0.5855 -0.0842 -0.3446
   79MPD1    H1 1233   4.236   0.788   0.765 -1.8484 -1.2467 -0.3544
   79MPD1    H2 1234   4.050   0.911   0.408 -1.8319  2.0577 -0.4698
   79MPD1    H3 1235   4.156   0.744   0.530 -3.2152  0.4352 -0.4524
   79MPD1     N 1236   4.196   1.008   0.903  0.7187 -0.3910  0.3909
   79MPD1    H5 1237   4.235   0.931   0.955  0.1789 -1.2101 -0.4251
   79MPD1    N1 1238   4.033   1.174   0.471  0.1345 -0.1439 -0.6757
   79MPD1    H6 1239   4.055   1.154   0.374 -3.1541 -0.5732 -1.3284
   79MPD1    H7 1240   4.046   1.271   0.501  1.1503 -0.4707 -0.0298
   80TMC2    C1 1241   2.033   4.315  11.414 -0.1634 -1.0196  0.0646
   80TMC2    C2 1242   2.023   4.350  11.286 -0.8016  0.1326  0.3405
   80TMC2    C3 1243   1.907   4.315  11.224  0.2680 -0.6353 -0.3194
   80TMC2    C4 1244   1.940   4.242  11.482 -0.1812 -0.1270  0.5024
   80TMC2    C5 1245   1.823   4.223  11.413  1.2818  0.1736  0.0154
   80TMC2    C6 1246   1.806   4.256  11.287 -0.1402 -0.1891 -0.8792
   80TMC2     C 1247   2.135   4.387  11.491 -0.5509 -0.2097  0.0216
   80TMC2     O 1248   2.221   4.450  11.428  0.2827  0.2505  0.0847
   80TMC2     H 1249   2.083   4.427  11.240  1.0810 -1.3552  0.2628
   80TMC2    H1 1250   1.956   4.195  11.578 -1.1092 -1.8314 -0.1849
   80TMC2    H2 1251   1.710   4.251  11.237  0.7593 -0.4451 -2.5510
   80TMC2    C7 1252   1.741   4.112  11.448 -0.6356 -0.7179  0.2553
   80TMC2    C8 1253   1.880   4.348  11.085  0.1386 -0.7122  0.7920
   80TMC2    O1 1254   1.693   4.058  11.354  0.3237 -0.2316  0.7149
   80TMC2    O2 1255   1.771   4.330  11.033 -0.0151 -0.8196  0.0363
   80TMC2    O5 1256   1.997   4.391  11.025 -0.4536 -0.0887 -0.2644
   80TMC2    H5 1257   2.072   4.389  11.087 -1.1626  3.6856  0.6892
   81MPD2     C 1258   2.319   4.490  11.695  0.7131  0.6719  0.3392
   81MPD2    C1 1259   2.192   4.442  11.726 -0.2739 -0.0499  0.6507
   81MPD2    C2 1260   2.123   4.474  11.839 -0.0471 -0.0430  0.2035
   81MPD2    C3 1261   2.188   4.546  11.940 -0.1516  0.0052  0.9166
   81MPD2    C4 1262   2.322   4.565  11.921 -1.0124  0.0861 -0.2111
   81MPD2    C5 1263   2.387   4.547  11.799 -0.5426 -0.1373 -0.1238
   81MPD2     H 1264   2.017   4.451  11.834 -0.3151  1.3732 -0.7138
   81MPD2    H1 1265   2.380   4.612  12.000 -0.1939 -0.4247 -0.5055
   81MPD2    H2 1266   2.377   4.470  11.606 -1.6012  2.5927 -1.5914
   81MPD2    H3 1267   2.489   4.579  11.785 -1.0369  1.7917  0.5292
   81MPD2     N 1268   2.125   4.594  12.057 -0.0204  0.5756 -0.2978
   81MPD2    H5 1269   2.176   4.636  12.135  0.5973  3.0305 -2.0324
   81MPD2    N1 1270   2.111   4.378  11.624  0.2384 -0.2891  0.6884
   81MPD2    H7 1271   2.021   4.349  11.659  0.7134 -0.7877  1.4946
   82TMC2    C1 1272   4.643   3.560  10.777  0.2420 -1.0513 -1.0054
   82TMC2    C2 1273   4.630   3.601  10.645 -0.0299  0.1473 -0.4410
   82TMC2    C3 1274   4.719   3.554  10.547  0.5957 -0.5906 -0.6829
   82TMC2    C4 1275   0.009   3.472  10.812 -0.7018 -0.2661 -0.4048
   82TMC2    C5 1276   0.079   3.412  10.710 -0.3889  0.7447  0.4837
   82TMC2    C6 1277   0.073   3.456  10.581 -0.9162  0.1764  0.0471
   82TMC2     C 1278   4.516   3.530  10.844  0.0303 -0.4280 -0.2407
   82TMC2     O 1279   4.416   3.540  10.782 -0.3871 -0.3622  0.0296
   82TMC2     H 1280   4.551   3.670  10.619 -0.1887  0.0624 -0.1855
   82TMC2    H1 1281   0.037   3.440  10.912  0.5386  1.7789 -0.1009
   82TMC2    H2 1282   0.143   3.422  10.505 -0.0477 -1.4425  1.5656
   82TMC2    C7 1283   0.133   3.279  10.739  0.6468 -0.1121  0.2898
   82TMC2    C8 1284   4.735   3.634  10.420  0.2431  0.0353 -0.1426
   82TMC2    O1 1285   0.171   3.259  10.851  0.1022  0.1468  0.7609
   82TMC2    O2 1286   0.102   3.653  10.362 -0.1286  0.6922 -0.4997
   82TMC2    O5 1287   4.618   3.692  10.373  0.5654  0.6217 -0.4430
   82TMC2    H5 1288   4.539   3.652  10.416  1.2704 -0.2185  0.0762
   83MPD2     C 1289   4.235   3.266  11.189 -0.2991  0.1040 -0.0136
   83MPD2    C1 1290   4.228   3.279  11.050  0.8723  0.2314 -0.0096
   83MPD2    C2 1291   4.321   3.351  10.982  0.1670 -0.4024  0.0466
   83MPD2    C3 1292   4.430   3.403  11.044  0.6467  0.8875 -0.1431
   83MPD2    C4 1293   4.444   3.393  11.175 -0.0888 -0.0840 -0.1731
   83MPD2    C5 1294   4.346   3.329  11.244 -0.9916  0.0235 -0.1898
   83MPD2     H 1295   4.310   3.363  10.875 -0.8033 -1.4567  0.0232
   83MPD2    H1 1296   4.528   3.436  11.228  0.6454 -0.7783 -0.7500
   83MPD2    H2 1297   4.169   3.205  11.249 -1.3577  1.3931  0.1381
   83MPD2    H3 1298   4.357   3.313  11.351  2.2320 -1.2467 -0.7019
   83MPD2     N 1299   4.534   3.478  10.971  0.1814 -0.0920  0.1682
   83MPD2    H5 1300   4.620   3.502  11.019 -0.0064  0.2900  0.3097
   83MPD2    N1 1301   4.115   3.219  10.984 -0.2962  0.1323  0.5874
   83MPD2    H7 1302   4.029   3.199  11.034  0.6851 -1.4966  1.6112
   84TMC2    C1 1303   2.152   2.302  11.550 -0.3513 -0.1085 -0.3027
   84TMC2    C2 1304   2.162   2.173  11.606 -0.2803  0.1520 -0.1702
   84TMC2    C3 1305   2.176   2.075  11.517 -0.9967  0.0343 -0.0030
   84TMC2    C4 1306   2.143   2.318  11.416  0.3991 -0.1941  0.1664
   84TMC2    C5 1307   2.166   2.210  11.334 -0.1037  0.2127  0.5435
   84TMC2    C6 1308   2.172   2.086  11.383 -0.0721 -0.3961 -0.6447
   84TMC2     C 1309   2.078   2.399  11.620  0.2027 -0.2047  0.1554
   84TMC2     O 1310   1.989   2.462  11.562  0.5500 -0.0779 -0.1667
   84TMC2     H 1311   2.138   2.161  11.711  0.2811  2.2439  0.1896
   84TMC2    H1 1312   2.123   2.417  11.378 -1.6943 -1.3048 -1.5994
   84TMC2    H2 1313   2.154   1.993  11.330 -1.0621  0.4609 -1.8340
   84TMC2    C7 1314   2.123   2.236  11.196 -0.5797 -0.1089 -0.3137
   84TMC2    C8 1315   2.178   1.938  11.572  0.1329  0.0831 -0.0652
   84TMC2    O1 1316   2.061   2.149  11.137 -0.5397  0.2576 -0.5364
   84TMC2    O2 1317   2.165   1.841  11.501 -0.1150  0.0837 -0.2527
   84TMC2    O5 1318   2.247   1.933  11.689 -0.2738  0.0797 -0.1029
   84TMC2    H5 1319   2.276   2.024  11.712 -0.8356 -0.0779  1.2062
   85TMC2    C1 1320   1.939   0.284  15.945 -0.9040 -0.2768  0.3554
   85TMC2    C2 1321   1.919   0.206  15.831 -0.1254  0.1102  0.0813
   85TMC2    C3 1322   1.888   0.267  15.713  0.6289  0.1496 -0.8839
   85TMC2    C4 1323   1.931   0.419  15.933  0.6205 -0.2816  0.4269
   85TMC2    C5 1324   1.898   0.477  15.815  0.2794 -0.5847 -0.0022
   85TMC2    C6 1325   1.891   0.403  15.696  0.5793  0.7931  0.8786
   85TMC2     C 1326   1.924   0.215  16.080 -0.4739 -0.6300 -0.0071
   85TMC2     O 1327   1.876   0.102  16.075 -0.3045  0.3024 -0.1935
   85TMC2     H 1328   1.913   0.098  15.839  1.7874  0.0045  0.1756
   85TMC2    H1 1329   1.930   0.483  16.021  3.1752 -1.5703  1.3864
   85TMC2    H2 1330   1.855   0.438  15.600 -0.8439 -1.5243  0.5525
   85TMC2    C7 1331   1.894   0.621  15.807 -0.5298 -0.3589  0.0803
   85TMC2    C8 1332   1.887   0.191  15.588  0.9067  0.6482 -0.4174
   85TMC2    O1 1333   1.983   0.675  15.876 -0.5408  0.2377  0.5152
   85TMC2    O2 1334   1.989   0.134  15.560  0.2004 -0.1344  0.0504
   85TMC2    O5 1335   1.777   0.123  15.591  0.4479  0.2497  0.5830
   85TMC2    H5 1336   1.702   0.178  15.621  2.3557  1.9723  2.1448
   86MPD2     C 1337   1.992   0.196  16.585 -0.4420 -0.2309 -0.0571
   86MPD2    C1 1338   1.914   0.123  16.500  0.1622 -0.3120 -0.5185
   86MPD2    C2 1339   1.911   0.156  16.369  0.2829  0.0732 -0.0679
   86MPD2    C3 1340   1.972   0.264  16.318  0.2310 -0.5233 -0.5620
   86MPD2    C4 1341   2.048   0.334  16.403 -0.4714 -0.3484  0.2069
   86MPD2    C5 1342   2.055   0.302  16.535  0.1936 -0.5551  0.1735
   86MPD2     H 1343   1.848   0.094  16.305  0.1925 -1.6258  1.6727
   86MPD2    H1 1344   2.114   0.412  16.366 -1.2518 -0.2105 -0.8831
   86MPD2    H2 1345   2.003   0.171  16.690  0.2665  1.2332  0.2211
   86MPD2    H3 1346   2.106   0.370  16.603 -2.1449  1.3356  0.0366
   86MPD2     N 1347   1.970   0.298  16.183 -0.0581  0.1759  0.2411
   86MPD2    H5 1348   2.020   0.384  16.160  1.9727 -0.2391  3.1139
   86MPD2    N1 1349   1.857   0.004  16.533  0.3388  0.1353 -0.1433
   86MPD2    H7 1350   1.791   4.705  16.464  0.7022  2.0072 -1.4550
   87TMC2    C1 1351   0.254   3.584   1.230  0.5528  0.0364  0.1088
   87TMC2    C2 1352   0.191   3.543   1.351  0.1467 -0.5836  0.3731
   87TMC2    C3 1353   0.178   3.636   1.450 -0.3300 -0.3364 -0.7965
   87TMC2    C4 1354   0.310   3.710   1.224  0.5651  0.1800 -0.2313
   87TMC2    C5 1355   0.274   3.793   1.324 -0.0290 -0.0290  0.0232
   87TMC2    C6 1356   0.218   3.762   1.441  0.1005 -0.2032 -0.2369
   87TMC2     C 1357   0.224   3.517   1.108 -0.5123 -0.1971 -0.6624
   87TMC2     O 1358   0.292   3.552   1.014  0.4410  0.4722 -0.4381
   87TMC2     H 1359   0.143   3.447   1.364 -1.2863  0.3000  1.6902
   87TMC2    H1 1360   0.351   3.746   1.131 -0.1053  0.5593 -0.3767
   87TMC2    H2 1361   0.217   3.840   1.516  1.0755 -0.7245  0.3187
   87TMC2    C7 1362   0.337   3.926   1.329  0.0142  0.1854 -0.2182
   87TMC2    C8 1363   0.086   3.609   1.555 -0.2083 -0.6022  0.9196
   87TMC2    O1 1364   0.274   4.016   1.383 -0.4750 -0.3059  0.2546
   87TMC2    O2 1365   0.061   3.494   1.603  0.2752  0.0048  0.3553
   87TMC2    O5 1366   4.731   3.706   1.528 -0.2107  0.3274  0.0327
   87TMC2    H5 1367   0.025   3.760   1.452  0.4038 -1.1710 -0.7915
   88MPD2     C 1368   0.640   4.042   1.150  0.3611  0.4031 -0.2237
   88MPD2    C1 1369   0.514   4.051   1.205  0.0823 -0.3365  0.3158
   88MPD2    C2 1370   0.462   4.183   1.230 -0.4068  0.1608  0.2120
   88MPD2    C3 1371   0.534   4.299   1.195  0.2673 -0.0597 -0.3016
   88MPD2    C4 1372   0.658   4.281   1.138 -0.2039  0.2597 -0.5368
   88MPD2    C5 1373   0.711   4.155   1.123  0.1276  0.1380 -0.2926
   88MPD2     H 1374   0.361   4.188   1.269  0.5167  1.6119  2.4058
   88MPD2    H1 1375   0.724   4.364   1.115  0.4077 -0.7893 -2.5636
   88MPD2    H2 1376   0.690   3.947   1.136  0.1586  0.2068  0.4307
   88MPD2    H3 1377   0.810   4.141   1.082 -0.5092 -1.3420 -1.3395
   88MPD2     N 1378   0.471   4.427   1.210 -0.4046  0.1241 -0.1317
   88MPD2    H5 1379   0.522   4.506   1.171 -1.7725 -0.0969 -2.3557
   88MPD2    N1 1380   0.450   3.932   1.251  0.0493  0.0769 -0.1801
   88MPD2    H7 1381   0.488   3.842   1.224 -2.3891 -1.7571  2.5254
   89TMC2    C1 1382   0.639   2.413   2.116 -0.0228  0.2355  0.1248
   89TMC2    C2 1383   0.758   2.478   2.154  0.7493 -1.1218 -0.6227
   89TMC2    C3 1384   0.829   2.555   2.060  0.3891  0.2627 -0.4244
   89TMC2    C4 1385   0.592   2.421   1.985  0.2420 -0.6537  0.2936
   89TMC2    C5 1386   0.680   2.488   1.898  0.4784 -0.1995  0.3565
   89TMC2    C6 1387   0.788   2.567   1.933  0.0712  0.3031 -0.1441
   89TMC2     C 1388   0.577   2.335   2.222  0.1088 -0.3184  0.6076
   89TMC2     O 1389   0.604   2.374   2.337 -0.3476 -0.1795  0.2158
   89TMC2     H 1390   0.802   2.461   2.252  1.2734  1.6292 -0.3815
   89TMC2    H1 1391   0.498   2.378   1.954  0.4477 -1.3533  0.6276
   89TMC2    H2 1392   0.847   2.617   1.857  1.6752 -1.0729  0.1890
   89TMC2    C7 1393   0.641   2.459   1.754  0.2288 -0.3675 -0.3826
   89TMC2    C8 1394   0.963   2.601   2.097 -1.0022 -0.2418  0.0357
   89TMC2    O1 1395   0.567   2.363   1.736 -0.1177 -0.6359  0.1812
   89TMC2    O2 1396   1.053   2.543   2.035 -0.1130  0.6584  0.6572
   89TMC2    O5 1397   0.958   2.643   2.230  0.3934  0.2428  0.6937
   89TMC2    H5 1398   0.884   2.705   2.248 -0.2341 -0.3460  0.1313
   90MPD2     C 1399   0.311   1.951   2.433 -0.0205  0.3446 -0.2614
   90MPD2    C1 1400   0.317   1.928   2.294 -0.6556 -0.4401  0.3172
   90MPD2    C2 1401   0.388   2.023   2.224 -0.2523 -0.4396 -0.4748
   90MPD2    C3 1402   0.430   2.143   2.271 -0.8818  0.4015 -0.5617
   90MPD2    C4 1403   0.421   2.165   2.407 -0.1333 -0.2472 -0.6882
   90MPD2    C5 1404   0.359   2.066   2.485 -0.2200 -0.0050  0.1422
   90MPD2     H 1405   0.408   2.005   2.119  0.0939 -0.2551 -0.4366
   90MPD2    H1 1406   0.451   2.255   2.460  2.4005 -0.7853 -1.1894
   90MPD2    H2 1407   0.262   1.883   2.503 -1.2641  3.0410  1.4636
   90MPD2    H3 1408   0.347   2.092   2.589  1.6597  0.1307  0.3250
   90MPD2     N 1409   0.504   2.226   2.184 -0.7358  0.2007  0.8702
   90MPD2    H5 1410   0.523   2.201   2.087  1.6413  1.3539  1.0581
   90MPD2    N1 1411   0.267   1.810   2.228  0.7210 -0.3462 -0.6373
   90MPD2    H7 1412   0.283   1.802   2.128  3.3581  0.7947 -0.3223
   91TMC2    C1 1413   2.044   1.729  16.163  0.1862  0.2696 -0.4264
   91TMC2    C2 1414   2.061   1.809  16.277  0.0576  0.3421  0.1367
   91TMC2    C3 1415   1.960   1.804  16.366 -1.0850  0.2104  0.2241
   91TMC2    C4 1416   1.930   1.660  16.135  0.5235  0.2300 -0.3814
   91TMC2    C5 1417   1.838   1.656  16.237  0.1590  0.2281 -0.3086
   91TMC2    C6 1418   1.848   1.722  16.356  0.0750 -0.4448 -0.3434
   91TMC2     C 1419   2.128   1.743  16.049 -0.4489 -0.2903  0.4620
   91TMC2     O 1420   2.079   1.716  15.941 -0.0776 -0.1934  0.0319
   91TMC2     H 1421   2.133   1.890  16.272 -0.9941  1.1726 -2.1101
   91TMC2    H1 1422   1.923   1.588  16.054 -0.1691 -1.9906  1.6154
   91TMC2    H2 1423   1.773   1.703  16.432  1.9606 -3.3003  0.7923
   91TMC2    C7 1424   1.732   1.561  16.224 -0.6253  0.8598  0.6439
   91TMC2    C8 1425   1.974   1.878  16.491 -0.2653 -0.0284  0.3556
   91TMC2    O1 1426   1.725   1.483  16.318 -0.3802  0.0734 -0.0220
   91TMC2    O2 1427   1.889   1.893  16.577 -0.4993 -0.4205 -0.4172
   91TMC2    O5 1428   2.106   1.877  16.524  0.0862  0.4708 -0.0173
   91TMC2    H5 1429   2.169   1.850  16.454  1.1850 -1.4676  1.6871
   92MPD2     C 1430   2.330   1.850  15.856 -0.4988 -0.6482  0.0849
   92MPD2    C1 1431   2.351   1.832  15.990 -0.3496  0.9871 -0.4050
   92MPD2    C2 1432   2.481   1.852  16.045  0.8913 -0.1238 -0.3249
   92MPD2    C3 1433   2.581   1.897  15.960  0.3277  0.6058 -0.5361
   92MPD2    C4 1434   2.554   1.911  15.827 -0.1134  0.3054  0.6745
   92MPD2    C5 1435   2.429   1.894  15.779 -0.1655  0.2701  0.6423
   92MPD2     H 1436   2.484   1.848  16.153 -0.6124  0.4079 -0.2591
   92MPD2    H1 1437   2.633   1.931  15.757 -0.1141  0.7689  0.8087
   92MPD2    H2 1438   2.234   1.832  15.810 -0.7236  0.5373  0.0820
   92MPD2    H3 1439   2.415   1.901  15.672  0.3438  2.6736  0.7338
   92MPD2     N 1440   2.706   1.940  16.010 -0.5411 -0.4392  0.0650
   92MPD2    H5 1441   2.721   1.924  16.109 -1.1945 -2.1109 -0.1139
   92MPD2    N1 1442   2.256   1.784  16.075 -1.0306  0.7634  0.2238
   92MPD2    H7 1443   2.277   1.786  16.174 -1.6717  0.0081  0.3808
   93TMC2    C1 1444   3.459   1.269  13.276 -0.7368  0.5228 -0.6399
   93TMC2    C2 1445   3.479   1.262  13.143  0.2055  0.1290  0.1534
   93TMC2    C3 1446   3.600   1.261  13.095  0.2906  0.1252 -0.0480
   93TMC2    C4 1447   3.566   1.277  13.364  0.5252  0.2313 -0.0182
   93TMC2    C5 1448   3.687   1.272  13.307 -0.3054  0.1422  0.3255
   93TMC2    C6 1449   3.709   1.260  13.178 -0.4114 -0.5667  0.3463
   93TMC2     C 1450   3.334   1.288  13.326  0.2263  0.0033 -0.2234
   93TMC2     O 1451   3.296   1.196  13.400  0.4491  0.3872 -0.2246
   93TMC2     H 1452   3.391   1.246  13.082  1.0914 -0.6470 -0.9201
   93TMC2    H1 1453   3.550   1.270  13.471  0.0263  1.2553 -0.0195
   93TMC2    H2 1454   3.811   1.268  13.145 -0.0147 -0.8127  1.5107
   93TMC2    C7 1455   3.801   1.314  13.386  0.0799  0.2417 -0.5501
   93TMC2    C8 1456   3.624   1.246  12.948  0.1124  0.0364  0.4016
   93TMC2    O1 1457   3.905   1.251  13.368 -0.8374  0.2328  0.2046
   93TMC2    O2 1458   3.558   1.172  12.875  0.2773  0.0976 -0.3491
   93TMC2    O5 1459   3.751   1.292  12.928  0.0247 -0.2317  0.5606
   93TMC2    H5 1460   3.764   1.378  12.974  0.3468  0.7500 -1.3621
   94MPD2     C 1461   3.053   1.360  13.370 -0.0330  0.1426 -0.2838
   94MPD2    C1 1462   3.141   1.428  13.285  0.7294  0.8033 -0.3363
   94MPD2    C2 1463   3.088   1.530  13.206 -0.2029  0.4699  0.1409
   94MPD2    C3 1464   2.959   1.567  13.208  0.6589  0.1846  0.7603
   94MPD2    C4 1465   2.872   1.502  13.295  0.5106  0.0770 -0.4314
   94MPD2    C5 1466   2.923   1.396  13.374  0.3334  0.0134  0.1950
   94MPD2     H 1467   3.160   1.588  13.149 -0.8318 -0.3462 -1.4929
   94MPD2    H1 1468   2.767   1.530  13.294  0.8467  1.4180  3.2223
   94MPD2    H2 1469   3.079   1.290  13.448 -0.5570  0.1909 -0.0670
   94MPD2    H3 1470   2.857   1.351  13.447 -0.9361  1.4503 -0.0587
   94MPD2     N 1471   2.912   1.681  13.149 -0.6610  0.1485  0.5080
   94MPD2    H5 1472   2.817   1.703  13.174 -0.1195  2.6712  0.3594
   94MPD2    N1 1473   3.270   1.398  13.269 -0.5147 -0.1225 -0.4111
   94MPD2    H7 1474   3.330   1.458  13.214  0.0107 -1.1591 -0.9667
   95TMC2    C1 1475   4.252   3.850  16.118  0.1240 -0.0748 -0.4113
   95TMC2    C2 1476   4.386   3.866  16.134 -0.3424 -0.6555 -0.0872
   95TMC2    C3 1477   4.453   3.783  16.217  0.8058 -0.6803 -0.0206
   95TMC2    C4 1478   4.183   3.738  16.171  0.6321 -0.1270  0.2813
   95TMC2    C5 1479   4.260   3.661  16.263  0.9894 -0.1777 -0.0316
   95TMC2    C6 1480   4.390   3.691  16.291 -0.3466 -0.1178  0.2382
   95TMC2     C 1481   4.175   3.954  16.044  0.3904 -0.5895  0.6205
   95TMC2     O 1482   4.240   4.053  16.029  0.3156  0.0939 -0.1900
   95TMC2     H 1483   4.429   3.950  16.082 -2.5663 -0.0084 -0.9028
   95TMC2    H1 1484   4.076   3.723  16.159  0.8955 -0.8404 -1.1829
   95TMC2    H2 1485   4.433   3.637  16.374  0.7553  1.6020  0.7860
   95TMC2    C7 1486   4.200   3.541  16.319 -0.4901  0.5599  0.2369
   95TMC2    C8 1487   4.566   3.839  16.277 -0.0000  1.4547 -0.2704
   95TMC2    O1 1488   4.079   3.524  16.302 -0.1531 -0.0132 -0.0333
   95TMC2    O2 1489   4.594   3.822  16.392  0.2453 -0.0933 -0.2828
   95TMC2    O5 1490   4.630   3.911  16.181 -0.2176  0.1012  0.1333
   95TMC2    H5 1491   4.613   3.867  16.095 -0.1298  2.3755 -1.0380
   96MPD2     C 1492   3.889   4.033  15.623  0.8815  0.4179 -0.0087
   96MPD2    C1 1493   4.002   4.099  15.664  0.1231 -0.4953  0.2995
   96MPD2    C2 1494   4.061   4.064  15.781 -0.4389 -0.7702  0.4989
   96MPD2    C3 1495   4.008   3.958  15.862 -0.2647 -0.1822  0.1486
   96MPD2    C4 1496   3.904   3.880  15.804 -0.0980  0.4292  0.2316
   96MPD2    C5 1497   3.844   3.920  15.688  0.5991 -0.2072 -0.3071
   96MPD2     H 1498   4.131   4.134  15.825 -0.8895  0.6831 -1.1026
   96MPD2    H1 1499   3.868   3.790  15.852 -1.4812  1.5717  1.3605
   96MPD2    H2 1500   3.845   4.060  15.528  0.1468 -1.3545 -0.1732
   96MPD2    H3 1501   3.755   3.866  15.658  0.8191  0.6078 -2.4530
   96MPD2     N 1502   4.069   3.904  15.976 -0.3134 -0.5925 -0.2498
   96MPD2    H5 1503   4.027   3.815  16.003  0.2634 -0.5808  0.6738
   96MPD2    N1 1504   4.054   4.194  15.569  0.2250  0.2259  0.4326
   96MPD2    H7 1505   4.018   4.190  15.474  1.7897  0.5898 -0.1753
   97TMC2    C1 1506   2.382   1.459  17.633  1.5035  0.3139  0.6299
   97TMC2    C2 1507   2.506   1.438  17.579  0.3213 -0.0663  0.6803
   97TMC2    C3 1508   2.585   1.547  17.561  0.4651  0.1373  0.1186
   97TMC2    C4 1509   2.342   1.579  17.681  0.1476 -1.1009 -0.0366
   97TMC2    C5 1510   2.432   1.690  17.662 -0.2581  0.2580 -0.8684
   97TMC2    C6 1511   2.552   1.682  17.601 -0.5797 -0.8907  0.1018
   97TMC2     C 1512   2.284   1.350  17.644 -0.2545 -0.7421 -0.0077
   97TMC2     O 1513   2.164   1.377  17.643 -0.2519 -0.2764  0.0661
   97TMC2     H 1514   2.550   1.344  17.546  2.0744  0.9562  0.1407
   97TMC2    H1 1515   2.236   1.586  17.700  0.0071 -2.7282 -0.2020
   97TMC2    H2 1516   2.612   1.769  17.580 -1.4735 -0.5306 -0.9612
   97TMC2    C7 1517   2.399   1.817  17.725 -0.0099  0.5218 -0.3696
   97TMC2    C8 1518   2.720   1.528  17.519  0.0983  1.2808 -0.1698
   97TMC2    O1 1519   2.489   1.901  17.728  0.2822  0.6294 -0.2832
   97TMC2    O2 1520   2.774   1.417  17.514  0.2484 -0.0112  0.1539
   97TMC2    O5 1521   2.794   1.641  17.508  0.4303 -0.5041 -0.6713
   97TMC2    H5 1522   2.738   1.717  17.483  0.0029 -0.6081 -0.0258
   98MPD2     C 1523   2.146   0.962   0.193  0.4411  0.1714  0.1996
   98MPD2    C1 1524   2.096   1.084   0.166 -0.0378 -0.3573 -0.4211
   98MPD2    C2 1525   2.164   1.172   0.089  0.0865 -0.2745 -0.4220
   98MPD2    C3 1526   2.275   1.137   0.012 -0.0586  0.0400  0.4524
   98MPD2    C4 1527   2.321   1.014   0.037  0.1648  0.2619 -0.3299
   98MPD2    C5 1528   2.259   0.927   0.126  0.5254  0.2131 -0.6570
   98MPD2     H 1529   2.127   1.273   0.080 -0.7298 -0.4917  0.5485
   98MPD2    H1 1530   2.416   0.988  17.735  0.3209  0.8989 -0.3698
   98MPD2    H2 1531   2.102   0.890   0.260 -0.0263 -0.2211 -0.5283
   98MPD2    H3 1532   2.299   0.828   0.148  0.8170  1.0216  2.4649
   98MPD2     N 1533   2.348   1.233  17.679  0.1152 -0.3186 -0.2789
   98MPD2    H5 1534   2.443   1.205  17.659  0.3497 -0.1928  0.6500
   98MPD2    N1 1535   1.971   1.118   0.224  0.2002 -0.2606 -0.1787
   98MPD2    H7 1536   1.944   1.051   0.294  0.8999 -0.2103  0.1452
   99TMC2    C1 1537   1.040   3.271   2.040  0.3833 -0.3401 -0.0401
   99TMC2    C2 1538   1.156   3.262   2.108 -0.4939  0.4532 -0.5349
   99TMC2    C3 1539   1.151   3.250   2.242  0.4992  0.2397  0.0252
   99TMC2    C4 1540   0.917   3.273   2.099  0.0020  0.6394  0.2150
   99TMC2    C5 1541   0.919   3.248   2.231 -1.4385 -0.2471  0.4175
   99TMC2    C6 1542   1.036   3.236   2.305  0.4769 -0.5204 -0.3512
   99TMC2     C 1543   1.053   3.296   1.898  0.7000  0.2039  0.3049
   99TMC2     O 1544   1.156   3.352   1.857 -0.2631 -0.7994  0.1238
   99TMC2     H 1545   1.251   3.261   2.056 -0.9764 -1.2345 -1.3737
   99TMC2    H1 1546   0.824   3.288   2.046 -1.3758 -1.8465  1.9046
   99TMC2    H2 1547   1.033   3.221   2.413 -0.4004 -3.7770 -0.8424
   99TMC2    C7 1548   0.799   3.223   2.304  0.0381  0.1570 -0.6481
   99TMC2    C8 1549   1.276   3.260   2.314 -0.7017 -0.1407  0.4128
   99TMC2    O1 1550   0.810   3.216   2.423  0.0733 -0.5167 -0.2369
   99TMC2    O2 1551   1.376   3.318   2.278 -0.4688  0.1246  0.3935
   99TMC2    O5 1552   1.274   3.142   2.375  0.1426 -0.0608 -0.0657
   99TMC2    H5 1553   1.190   3.091   2.364 -0.4725  1.0846 -0.6939
  100MPD2     C 1554   1.035   3.295   1.596 -0.1719 -0.0424  0.6678
  100MPD2    C1 1555   0.937   3.239   1.684 -0.3835 -0.4180  0.3078
  100MPD2    C2 1556   0.824   3.193   1.631 -0.2739 -0.2107 -0.3937
  100MPD2    C3 1557   0.797   3.197   1.497  0.0219  0.1266 -0.5842
  100MPD2    C4 1558   0.897   3.234   1.408  0.3560  0.1348  0.1652
  100MPD2    C5 1559   1.014   3.288   1.461 -0.0292 -0.0206  0.2847
  100MPD2     H 1560   0.742   3.165   1.696  1.2629 -2.0952  0.7350
  100MPD2    H1 1561   0.891   3.229   1.300  0.5020 -1.6085  0.2470
  100MPD2    H2 1562   1.127   3.337   1.634  0.1087  0.3778 -0.4881
  100MPD2    H3 1563   1.089   3.335   1.398  0.2656 -0.1676  0.5254
  100MPD2     N 1564   0.670   3.141   1.460 -0.1962  0.0061 -0.3004
  100MPD2    H5 1565   0.599   3.119   1.529 -0.3059 -1.4335 -0.8778
  100MPD2    N1 1566   0.949   3.238   1.824 -0.1389 -0.3650 -0.2502
  100MPD2    H7 1567   0.879   3.185   1.876  0.0101  1.2779  1.6200
  101TMC2    C1 1568   0.651   4.458  12.920 -0.1524  0.2346 -0.3328
  101TMC2    C2 1569   0.556   4.563  12.941  0.4498  0.1413  0.1946
  101TMC2    C3 1570   0.572   4.679  12.883 -0.5725  0.0787 -0.1926
  101TMC2    C4 1571   0.767   4.482  12.848 -0.5450  0.1742 -1.1138
  101TMC2    C5 1572   0.782   4.604  12.784  0.2277  0.5030  0.3326
  101TMC2    C6 1573   0.676   4.699  12.795 -0.6635 -0.3684 -0.5606
  101TMC2     C 1574   0.597   4.328  12.925  0.3497 -0.5017 -0.0198
  101TMC2     O 1575   0.484   4.313  12.989 -0.1452  0.5195 -0.2566
  101TMC2     H 1576   0.469   4.542  13.003  0.9295  1.3459  1.2572
  101TMC2    H1 1577   0.853   4.419  12.868 -0.8874 -0.0139 -0.2138
  101TMC2    H2 1578   0.700   0.060  12.755 -2.4939 -0.1793 -1.1911
  101TMC2    C7 1579   0.911   4.654  12.732 -0.3086  0.2114 -0.3245
  101TMC2    C8 1580   0.472   0.050  12.899  0.1824  0.0209 -0.4651
  101TMC2    O1 1581   0.908   0.033  12.687  0.0988 -0.0456 -0.9551
  101TMC2    O2 1582   0.511   0.162  12.938  0.2367  0.3555 -0.6349
  101TMC2    O5 1583   0.344   4.732  12.921  0.0480  0.0841  0.1849
  101TMC2    H5 1584   0.326   4.640  12.893  1.4050 -0.2038  0.2757
  102MPD2     C 1585   0.695   4.050  12.718 -0.6347  0.1234  0.7833
  102MPD2    C1 1586   0.631   4.111  12.821  0.3781 -0.7164 -0.0834
  102MPD2    C2 1587   0.549   4.034  12.894  0.1460 -0.3316 -0.1986
  102MPD2    C3 1588   0.523   3.898  12.868 -0.1232 -0.2407 -0.1928
  102MPD2    C4 1589   0.587   3.837  12.762  0.0601 -0.3027 -0.4955
  102MPD2    C5 1590   0.669   3.916  12.687  0.1156 -0.9938 -0.7082
  102MPD2     H 1591   0.496   4.085  12.974 -3.6630 -0.2075 -2.8331
  102MPD2    H1 1592   0.582   3.735  12.725 -0.4103 -0.2780 -0.5037
  102MPD2    H2 1593   0.765   4.108  12.659  1.4207 -1.3169  1.7843
  102MPD2    H3 1594   0.725   3.879  12.601  0.6322  1.2638 -1.3326
  102MPD2     N 1595   0.436   3.827  12.948  0.4820  0.0494  0.0072
  102MPD2    H5 1596   0.368   3.881  13.001  0.7531  2.4801 -2.1422
  102MPD2    N1 1597   0.665   4.247  12.850 -0.2890 -0.4243  0.1094
  102MPD2    H7 1598   0.733   4.294  12.791 -0.6456 -1.3900 -1.0885
  103TMC2    C1 1599   3.420   3.993  12.218  0.9857 -0.4599 -0.0299
  103TMC2    C2 1600   3.497   3.909  12.143 -0.4109  1.3204  0.4135
  103TMC2    C3 1601   3.632   3.919  12.152 -0.1939 -0.6481  0.6981
  103TMC2    C4 1602   3.483   4.093  12.293 -0.3016 -0.4822  1.0049
  103TMC2    C5 1603   3.620   4.098  12.301  0.0526  0.0894 -0.2056
  103TMC2    C6 1604   3.697   4.015  12.227  0.3075 -0.2280 -0.0338
  103TMC2     C 1605   3.280   3.976  12.239 -0.8176  0.3161 -0.2475
  103TMC2     O 1606   3.221   4.077  12.277 -0.5262 -0.2358 -0.7106
  103TMC2     H 1607   3.443   3.850  12.070 -1.2865 -1.0168  2.9765
  103TMC2    H1 1608   3.427   4.134  12.377 -3.2417 -1.7825 -0.3223
  103TMC2    H2 1609   3.805   4.021  12.233  0.2305  2.8184 -1.9166
  103TMC2    C7 1610   3.672   4.110  12.432 -0.2703 -0.0993 -0.2007
  103TMC2    C8 1611   3.717   3.830  12.079 -0.0555  0.0630  0.1098
  103TMC2    O1 1612   3.600   4.087  12.523 -0.3939  0.4241  0.1967
  103TMC2    O2 1613   3.840   3.837  12.076 -0.5718 -0.4184 -0.1720
  103TMC2    O5 1614   3.650   3.722  12.038  0.2155 -0.0888  0.4633
  103TMC2    H5 1615   3.561   3.706  12.076 -1.0581  0.5579 -2.2237
  104MPD2     C 1616   3.040   3.706  12.156  0.6645  0.1584 -0.1820
  104MPD2    C1 1617   3.078   3.829  12.199  0.6038  1.0338  0.3695
  104MPD2    C2 1618   2.978   3.923  12.231  0.8602 -0.3656  0.3333
  104MPD2    C3 1619   2.842   3.880  12.235  0.3789  0.1027 -0.2348
  104MPD2    C4 1620   2.812   3.744  12.211 -0.8656 -0.2101 -0.7186
  104MPD2    C5 1621   2.913   3.659  12.174  0.1412  0.3551  0.1594
  104MPD2     H 1622   3.002   4.026  12.257 -0.0563 -0.5434  1.8705
  104MPD2    H1 1623   2.712   3.701  12.206 -2.0658  2.3518  1.1051
  104MPD2    H2 1624   3.109   3.632  12.115  2.5565  1.5729  0.4772
  104MPD2    H3 1625   2.883   3.555  12.167  2.1629 -0.1840 -0.2651
  104MPD2     N 1626   2.751   3.979  12.275  0.0188 -0.1395  0.2241
  104MPD2    H5 1627   2.770   4.079  12.278  3.2575 -0.8026  0.9695
  104MPD2    N1 1628   3.220   3.858  12.198 -0.2070  0.0365  0.3032
  104MPD2    H7 1629   3.289   3.786  12.178 -0.4348  0.1314 -0.7951
  105TMC2    C1 1630   0.462   3.305   0.271  0.5734  0.0759  0.6055
  105TMC2    C2 1631   0.480   3.439   0.273  0.6595 -0.6005 -0.7769
  105TMC2    C3 1632   0.406   3.507   0.364 -0.4661  0.2403 -0.1285
  105TMC2    C4 1633   0.359   3.241   0.340  0.2383  0.1678  0.1441
  105TMC2    C5 1634   0.288   3.309   0.431 -0.1140  0.2612 -0.7451
  105TMC2    C6 1635   0.311   3.447   0.439 -0.9831  0.5151  0.1141
  105TMC2     C 1636   0.532   3.232   0.176 -0.0553  0.1538 -0.0833
  105TMC2     O 1637   0.512   3.110   0.179 -0.2448 -0.2254 -0.1493
  105TMC2     H 1638   0.576   3.481   0.246 -0.1932  1.0494 -1.2639
  105TMC2    H1 1639   0.316   3.144   0.317  1.7103 -0.3434 -0.4632
  105TMC2    H2 1640   0.252   3.509   0.505 -2.5939  0.9686 -1.7224
  105TMC2    C7 1641   0.215   3.229   0.533  0.2969  0.0175 -0.4957
  105TMC2    C8 1642   0.406   3.650   0.366 -0.0487 -0.1743 -0.6218
  105TMC2    O1 1643   0.200   3.103   0.521  0.3985  0.2803 -0.2697
  105TMC2    O2 1644   0.366   3.721   0.457  0.2932 -0.1702 -0.1102
  105TMC2    O5 1645   0.413   3.693   0.238 -0.0373 -0.0775 -0.0732
  105TMC2    H5 1646   0.432   3.621   0.174 -0.2309 -0.6598  0.5252
  106MPD2     C 1647   0.863   3.206  17.530  0.5332  0.6449 -0.1115
  106MPD2    C1 1648   0.793   3.329  17.517 -0.6909  0.5649  0.1971
  106MPD2    C2 1649   0.696   3.360  17.607 -0.7879  0.0304 -0.2296
  106MPD2    C3 1650   0.662   3.266  17.712 -0.6657  0.1183 -0.0984
  106MPD2    C4 1651   0.738   3.148  17.720 -1.0127  0.5220 -0.0612
  106MPD2    C5 1652   0.819   3.111  17.621  0.7372 -0.0537  0.7648
  106MPD2     H 1653   0.639   3.452  17.602 -0.0021  0.5725  0.9453
  106MPD2    H1 1654   0.715   3.082   0.059 -1.4554 -0.1024 -0.6799
  106MPD2    H2 1655   0.942   3.175  17.463  0.1095  2.2411 -1.3232
  106MPD2    H3 1656   0.877   3.021  17.638  1.6150  0.7472  2.0790
  106MPD2     N 1657   0.564   3.306   0.066 -0.1694 -1.1415  0.9063
  106MPD2    H5 1658   0.532   3.402   0.063 -0.1212 -1.0667  3.0478
  106MPD2    N1 1659   0.810   3.419  17.417  0.8844 -0.2461  0.6968
  106MPD2    H7 1660   0.754   3.504  17.415 -1.6904 -1.9922 -1.9184
  107TMC2    C1 1661   1.439   2.848  11.869 -0.1666 -0.8978 -0.1629
  107TMC2    C2 1662   1.380   2.937  11.958 -0.7045 -0.1597  0.5352
  107TMC2    C3 1663   1.463   3.006  12.038 -0.0767  0.4086  0.0067
  107TMC2    C4 1664   1.576   2.824  11.871  0.0222 -0.3659 -0.0770
  107TMC2    C5 1665   1.648   2.888  11.971  0.1418  0.2848  0.2120
  107TMC2    C6 1666   1.596   2.986  12.046  0.0773 -0.1195  0.3370
  107TMC2     C 1667   1.352   2.754  11.809 -0.6734  0.5149  0.4220
  107TMC2     O 1668   1.407   2.682  11.723  0.2053 -0.3941  0.0367
  107TMC2     H 1669   1.274   2.959  11.964 -0.4766  1.0143  0.3643
  107TMC2    H1 1670   1.617   2.745  11.810 -2.6504 -0.6455 -1.5357
  107TMC2    H2 1671   1.658   3.045  12.111 -0.9455  1.0846  0.2206
  107TMC2    C7 1672   1.780   2.839  12.010 -0.1260  0.1694  0.0044
  107TMC2    C8 1673   1.412   3.134  12.087 -0.3835  0.1371  0.3787
  107TMC2    O1 1674   1.809   2.858  12.127 -0.5113 -0.3616  0.2129
  107TMC2    O2 1675   1.467   3.205  12.170 -0.6926  0.3425 -0.3590
  107TMC2    O5 1676   1.327   3.182  11.997  0.5428  1.0434  0.0413
  107TMC2    H5 1677   1.319   3.134  11.912  0.2419 -1.6995  1.6337
  108MPD2     C 1678   1.091   2.648  11.709  0.1004 -0.4615 -0.7235
  108MPD2    C1 1679   1.120   2.682  11.836  0.0103  0.5646 -0.3066
  108MPD2    C2 1680   1.029   2.667  11.934 -0.0624 -0.4034  0.0245
  108MPD2    C3 1681   0.897   2.632  11.905 -0.2824  0.3421  0.4365
  108MPD2    C4 1682   0.858   2.625  11.777  0.1532 -0.4918 -1.2895
  108MPD2    C5 1683   0.959   2.618  11.683 -0.2456  0.3990  0.6153
  108MPD2     H 1684   1.056   2.683  12.038 -0.3777  0.3462 -0.0075
  108MPD2    H1 1685   0.755   2.608  11.750 -0.2849  1.5352 -0.9384
  108MPD2    H2 1686   1.163   2.655  11.629  1.3013 -2.5081  0.2076
  108MPD2    H3 1687   0.924   2.596  11.583 -0.1752 -1.2654  0.9510
  108MPD2     N 1688   0.804   2.622  12.000 -0.1010 -0.0330  0.0425
  108MPD2    H5 1689   0.712   2.621  11.957 -0.3782  0.8278  0.6002
  108MPD2    N1 1690   1.246   2.722  11.890 -0.2514 -0.7025 -0.2961
  108MPD2    H7 1691   1.250   2.739  11.990 -1.1983 -0.0001 -0.3796
  109TMC2    C1 1692   0.610   1.172   0.762  0.6194 -0.1286 -0.6182
  109TMC2    C2 1693   0.581   1.305   0.778 -0.6931  0.0008 -0.0381
  109TMC2    C3 1694   0.688   1.390   0.800  0.1275 -0.4313 -0.1514
  109TMC2    C4 1695   0.730   1.110   0.759 -0.5008 -0.5529 -0.0392
  109TMC2    C5 1696   0.832   1.205   0.786 -0.8854  0.1918  0.6952
  109TMC2    C6 1697   0.810   1.339   0.794  0.3366 -0.1366  0.2701
  109TMC2     C 1698   0.501   1.089   0.717  0.2070 -0.6392  0.0432
  109TMC2     O 1699   0.407   1.160   0.677  0.2419 -0.2130 -0.0064
  109TMC2     H 1700   0.484   1.350   0.762 -2.5878 -3.7669  1.0112
  109TMC2    H1 1701   0.742   1.006   0.732 -2.0937 -1.1122  1.3952
  109TMC2    H2 1702   0.894   1.406   0.807 -1.7407  2.4497  0.2389
  109TMC2    C7 1703   0.968   1.177   0.736 -0.3537 -0.5945 -0.0450
  109TMC2    C8 1704   0.660   1.529   0.816  0.0302  0.0590 -0.3690
  109TMC2    O1 1705   1.043   1.273   0.737  0.0327 -0.2145 -0.4996
  109TMC2    O2 1706   0.556   1.582   0.787 -0.0739 -0.0602  0.2168
  109TMC2    O5 1707   0.759   1.569   0.900 -0.3245  0.0241 -0.4837
  109TMC2    H5 1708   0.823   1.503   0.934  0.8838 -0.1967 -3.2129
  110MPD2     C 1709   0.207   0.667   0.748 -0.2986 -1.0483  0.8679
  110MPD2    C1 1710   0.318   0.648   0.828 -0.2017 -1.1430  0.4258
  110MPD2    C2 1711   0.421   0.736   0.810 -0.6994 -0.6115  0.1653
  110MPD2    C3 1712   0.405   0.855   0.744  0.0401  0.8473  0.3114
  110MPD2    C4 1713   0.295   0.876   0.663  0.2940  0.3281  0.5033
  110MPD2    C5 1714   0.201   0.776   0.658 -0.8063  0.2215 -0.4183
  110MPD2     H 1715   0.512   0.729   0.869 -0.9066 -0.8366  0.4579
  110MPD2    H1 1716   0.285   0.965   0.602 -0.7174 -0.4433 -0.4860
  110MPD2    H2 1717   0.122   0.600   0.752  0.4380 -1.8389  2.8584
  110MPD2    H3 1718   0.122   0.784   0.585  0.1124  0.2758 -1.4085
  110MPD2     N 1719   0.507   0.958   0.763  0.2794  0.3219  0.5329
  110MPD2    H5 1720   0.575   0.937   0.836 -0.7446  0.9514  1.6693
  110MPD2    N1 1721   0.312   0.550   0.928 -0.0270  0.3486  0.2085
  110MPD2    H7 1722   0.232   0.488   0.929 -1.3003  1.9710  2.3444
  111TMC2    C1 1723   0.456   0.223  11.800 -0.2249 -0.6073  0.2994
  111TMC2    C2 1724   0.371   0.193  11.903 -0.1966 -0.6078 -0.0614
  111TMC2    C3 1725   0.411   0.205  12.033 -0.9764  0.2391  0.1386
  111TMC2    C4 1726   0.590   0.239  11.831 -0.2169  0.2405  0.6137
  111TMC2    C5 1727   0.631   0.227  11.961  0.1677 -0.2149  0.1164
  111TMC2    C6 1728   0.545   0.223  12.062 -0.7696 -0.1665 -0.0135
  111TMC2     C 1729   0.434   0.146  11.677  0.7936  0.1164 -0.2598
  111TMC2     O 1730   0.440   0.213  11.571 -0.1768  0.1538 -0.6947
  111TMC2     H 1731   0.272   0.160  11.874  0.7235 -0.8318 -2.9018
  111TMC2    H1 1732   0.657   0.248  11.747  0.9629 -0.4334  1.4768
  111TMC2    H2 1733   0.584   0.214  12.163 -3.7568 -0.5407  1.1209
  111TMC2    C7 1734   0.770   0.226  11.996 -0.1879  0.6076  0.1719
  111TMC2    C8 1735   0.322   0.181  12.139  1.0118  0.3315 -0.1909
  111TMC2    O1 1736   0.795   0.219  12.118  0.1949  0.4313  0.7535
  111TMC2    O2 1737   0.350   0.118  12.240  0.1186 -0.1559  0.0760
  111TMC2    O5 1738   0.198   0.211  12.100 -0.5055  0.0592  0.0244
  111TMC2    H5 1739   0.204   0.265  12.019  3.7851 -0.5310 -0.0555
  112MPD2     C 1740   0.311   4.440  11.440 -0.9461  0.3435  0.2592
  112MPD2    C1 1741   0.347   4.569  11.388  0.8199 -0.3282 -0.3246
  112MPD2    C2 1742   0.380   4.672  11.477 -0.1341  0.2278 -0.0412
  112MPD2    C3 1743   0.378   4.647  11.614 -0.5781  0.7178 -0.1879
  112MPD2    C4 1744   0.338   4.528  11.655  0.3284  0.1720  0.3046
  112MPD2    C5 1745   0.314   4.420  11.576 -0.3464  0.2754 -0.0277
  112MPD2     H 1746   0.415   0.031  11.440 -2.8110  1.2982  0.1791
  112MPD2    H1 1747   0.323   4.501  11.759  0.9923  1.9706  0.8605
  112MPD2    H2 1748   0.273   4.354  11.386 -0.3899  1.8115 -2.5157
  112MPD2    H3 1749   0.298   4.321  11.618 -0.6733  0.6681  0.7934
  112MPD2     N 1750   0.403   0.016  11.709  0.0135  0.4060  0.2145
  112MPD2    H5 1751   0.408   0.002  11.809 -0.6648  1.4572  0.3920
  112MPD2    N1 1752   0.347   4.588  11.255  0.7937 -0.1357  0.5661
  112MPD2    H7 1753   0.365   4.683  11.225  2.5235 -0.6608 -0.0135
  113TMC2    C1 1754   4.020   3.443   1.250 -0.3211 -0.3915 -0.4073
  113TMC2    C2 1755   3.972   3.570   1.243  0.0227 -0.2768  0.2709
  113TMC2    C3 1756   3.840   3.590   1.210  0.1059  0.0399  0.3396
  113TMC2    C4 1757   3.942   3.343   1.190  0.0044 -0.0351  0.2295
  113TMC2    C5 1758   3.814   3.372   1.143 -0.1040 -0.0336  0.0241
  113TMC2    C6 1759   3.755   3.492   1.167  0.0538 -0.6822  0.1228
  113TMC2     C 1760   4.141   3.418   1.329  0.2929 -0.0209 -0.5600
  113TMC2     O 1761   4.195   3.523   1.368 -0.0381  0.2405  0.1186
  113TMC2     H 1762   4.036   3.649   1.281  0.9253 -0.8734 -0.0183
  113TMC2    H1 1763   3.982   3.242   1.185 -1.0237 -0.4608  0.5433
  113TMC2    H2 1764   3.653   3.520   1.143  0.2802  0.8398  0.9274
  113TMC2    C7 1765   3.712   3.272   1.125  0.5026  0.0858 -0.2237
  113TMC2    C8 1766   3.790   3.719   1.251  0.5710  0.8485  0.4433
  113TMC2    O1 1767   3.605   3.300   1.074  0.1193  0.1410 -0.3148
  113TMC2    O2 1768   3.850   3.767   1.343  0.0571 -0.1084 -0.6143
  113TMC2    O5 1769   3.659   3.733   1.216 -0.3994  0.2472 -0.0604
  113TMC2    H5 1770   3.656   3.708   1.121  0.0205  0.2961 -0.0843
  114MPD2     C 1771   4.476   3.111   1.580 -0.5253 -0.0759  0.0879
  114MPD2    C1 1772   4.444   3.245   1.590 -0.1593  0.1345 -0.3796
  114MPD2    C2 1773   4.346   3.305   1.520  0.0582 -0.0685 -0.0030
  114MPD2    C3 1774   4.272   3.232   1.432 -0.6958 -0.2628 -0.5281
  114MPD2    C4 1775   4.288   3.094   1.421  0.4625 -0.6634 -0.4236
  114MPD2    C5 1776   4.388   3.039   1.496  0.0508 -0.4298 -0.1131
  114MPD2     H 1777   4.334   3.413   1.524  0.5345 -0.0002 -0.4709
  114MPD2    H1 1778   4.230   3.037   1.350 -1.1993 -0.3291  0.6456
  114MPD2    H2 1779   4.554   3.064   1.638 -0.1272  0.6867  0.1654
  114MPD2    H3 1780   4.415   2.937   1.474  0.3107 -0.9282  2.5842
  114MPD2     N 1781   4.171   3.289   1.352  0.2975  0.3396  0.2327
  114MPD2    H5 1782   4.108   3.225   1.305 -1.4355 -0.5815  3.7789
  114MPD2    N1 1783   4.523   3.327   1.677  0.1715  0.2247 -0.5610
  114MPD2    H7 1784   4.492   3.421   1.698 -0.2813 -0.1700  0.5320
  115TMC2    C1 1785   0.248   0.951  17.712  0.9605 -0.3815 -0.6252
  115TMC2    C2 1786   0.304   0.985   0.087 -0.1498  0.5991 -0.5043
  115TMC2    C3 1787   0.335   1.116   0.103 -0.1150 -0.0696 -0.0763
  115TMC2    C4 1788   0.189   1.046  17.632 -0.5986  0.3552 -0.3829
  115TMC2    C5 1789   0.222   1.173  17.657  0.5473  0.7034  0.1773
  115TMC2    C6 1790   0.296   1.214   0.018 -0.0001 -0.4093  0.1679
  115TMC2     C 1791   0.215   0.812  17.681 -0.1222  0.5287  0.1271
  115TMC2     O 1792   0.121   0.785  17.607 -0.4191  0.3165  0.1401
  115TMC2     H 1793   0.318   0.911   0.165 -1.8305  2.5892  1.6880
  115TMC2    H1 1794   0.146   1.023  17.535  2.1982  0.6075 -1.6657
  115TMC2    H2 1795   0.295   1.320   0.040  0.6012  0.2056 -2.6794
  115TMC2    C7 1796   0.133   1.266  17.598 -0.5669 -0.6145  0.1614
  115TMC2    C8 1797   0.395   1.163   0.220  0.6945  0.1075  0.3181
  115TMC2    O1 1798   0.023   1.215  17.561  0.3108 -0.9678 -0.2695
  115TMC2    O2 1799   0.378   1.277   0.264 -0.1397  0.2940 -0.2013
  115TMC2    O5 1800   0.485   1.073   0.260  0.5905  0.4083  0.4997
  115TMC2    H5 1801   0.500   1.008   0.189  0.4362 -0.0804  0.9176
  116MPD2     C 1802   0.319   0.301  17.714 -0.3473 -0.2688  0.4328
  116MPD2    C1 1803   0.205   0.369  17.668 -0.1351 -0.6503 -0.4221
  116MPD2    C2 1804   0.198   0.508  17.671 -0.2175 -0.2758  1.0148
  116MPD2    C3 1805   0.298   0.581  17.734  0.4594 -0.3543  0.4517
  116MPD2    C4 1806   0.414   0.516   0.036 -0.5253 -0.5503  0.4214
  116MPD2    C5 1807   0.419   0.381   0.026 -0.3114  0.1934  0.5180
  116MPD2     H 1808   0.120   0.559  17.616  1.0981  0.8476  0.1687
  116MPD2    H1 1809   0.491   0.565   0.095  0.1454 -0.1201 -0.8101
  116MPD2    H2 1810   0.328   0.193  17.709  2.2418 -0.0505  0.3787
  116MPD2    H3 1811   0.508   0.329   0.057  1.1572  0.6006 -2.9972
  116MPD2     N 1812   0.299   0.727   0.001  0.1050 -0.0078  0.1005
  116MPD2    H5 1813   0.386   0.772   0.028 -0.0698  0.5172 -0.2262
  116MPD2    N1 1814   0.084   0.296  17.623 -0.0474  0.2678  0.3344
  116MPD2    H7 1815   0.090   0.195  17.614  0.9178  0.2809  0.8528
  117TMC2    C1 1816   2.873   2.844  13.739  0.7943  0.1782 -0.3602
  117TMC2    C2 1817   2.953   2.740  13.764 -0.6398  0.3342  0.3556
  117TMC2    C3 1818   3.083   2.772  13.802 -0.3556 -0.2902  0.4635
  117TMC2    C4 1819   2.913   2.974  13.740  0.6759 -0.4783 -0.0253
  117TMC2    C5 1820   3.039   3.003  13.781 -0.2177 -0.0184  0.0702
  117TMC2    C6 1821   3.131   2.901  13.818  0.4995  0.1899  0.1202
  117TMC2     C 1822   2.727   2.843  13.764 -0.1246 -0.1162 -0.5290
  117TMC2     O 1823   2.676   2.945  13.800  0.0927  0.2009 -0.0403
  117TMC2     H 1824   2.920   2.638  13.750 -2.2232  0.6012  2.1015
  117TMC2    H1 1825   2.846   3.047  13.696 -1.0979 -0.9047  1.9841
  117TMC2    H2 1826   3.235   2.917  13.845  0.0597  0.8189  1.4526
  117TMC2    C7 1827   3.046   3.131  13.847  0.2546  0.6263 -0.6415
  117TMC2    C8 1828   3.175   2.665  13.827 -0.3332  0.7067 -0.2080
  117TMC2    O1 1829   3.151   3.152  13.910  0.4336  0.0212  0.7563
  117TMC2    O2 1830   3.296   2.678  13.823 -0.5641 -0.3375  0.3803
  117TMC2    O5 1831   3.110   2.562  13.885 -0.4561 -0.0796  0.3042
  117TMC2    H5 1832   3.016   2.576  13.908  0.1047  0.3618  2.3084
  118MPD2     C 1833   2.767   3.351  13.935 -0.2407  0.3457 -1.0420
  118MPD2    C1 1834   2.899   3.306  13.928  0.0748 -0.0434 -0.4078
  118MPD2    C2 1835   3.001   3.391  13.969 -1.5635  0.3541  0.0069
  118MPD2    C3 1836   2.976   3.515  14.033  0.2713  0.0138 -0.0164
  118MPD2    C4 1837   2.851   3.546  14.056 -1.3632 -1.0206 -0.1516
  118MPD2    C5 1838   2.749   3.473  13.992 -0.2305  0.1411  0.1055
  118MPD2     H 1839   3.104   3.362  13.957 -2.3072 -2.3603  0.1286
  118MPD2    H1 1840   2.826   3.640  14.102  0.7455  0.8158 -2.7695
  118MPD2    H2 1841   2.686   3.295  13.889  0.1934 -1.3851  0.2869
  118MPD2    H3 1842   2.647   3.511  13.996  0.6574  2.3917  1.1535
  118MPD2     N 1843   3.079   3.595  14.084  0.3990  0.6329 -0.0052
  118MPD2    H5 1844   3.064   3.668  14.153  0.2800 -1.5147  2.2207
  118MPD2    N1 1845   2.923   3.180  13.874  0.2221  0.0123  0.6377
  118MPD2    H7 1846   2.840   3.136  13.836  0.8731 -0.3063 -0.3948
  119TMC2    C1 1847   1.007   3.951  12.888  0.3778 -0.4865  0.2967
  119TMC2    C2 1848   1.049   3.923  12.763  0.1395 -0.0750  0.4882
  119TMC2    C3 1849   1.011   3.800  12.718  0.3386  0.4021 -0.8574
  119TMC2    C4 1850   0.927   3.867  12.963 -0.3414  0.1315 -0.0452
  119TMC2    C5 1851   0.888   3.750  12.905  0.5581 -0.1156  0.0600
  119TMC2    C6 1852   0.925   3.716  12.784  0.2961  0.1609  0.2682
  119TMC2     C 1853   1.071   4.049  12.973  0.1755 -0.4068  0.6586
  119TMC2     O 1854   1.010   4.083  13.073 -0.0194  0.2854  0.5568
  119TMC2     H 1855   1.110   3.990  12.704 -0.4990  1.3180  1.4065
  119TMC2    H1 1856   0.899   3.897  13.063 -0.2442 -0.1199  0.0588
  119TMC2    H2 1857   0.892   3.624  12.737  0.8334 -0.9880  2.1644
  119TMC2    C7 1858   0.804   3.657  12.969  0.0072  0.2432  0.3785
  119TMC2    C8 1859   1.042   3.784  12.577  0.1910  0.4739 -0.6032
  119TMC2    O1 1860   0.746   3.575  12.900 -0.0016  0.1272  0.5210
  119TMC2    O2 1861   1.058   3.875  12.495  0.2829 -0.4571  0.2029
  119TMC2    O5 1862   1.047   3.651  12.555  0.5124 -0.2276  0.1900
  119TMC2    H5 1863   1.063   3.599  12.637 -0.5053 -1.3723 -0.3309
  120MPD2     C 1864   1.526   4.124  13.207  0.0840 -0.1864  0.4212
  120MPD2    C1 1865   1.399   4.112  13.256 -0.1089 -0.0521 -0.1745
  120MPD2    C2 1866   1.292   4.097  13.169 -0.6938 -0.0260 -0.4757
  120MPD2    C3 1867   1.311   4.108  13.031 -0.4160 -0.1285 -0.0450
  120MPD2    C4 1868   1.440   4.123  12.985 -0.3297 -0.2055  0.4593
  120MPD2    C5 1869   1.546   4.130  13.074 -0.1859 -0.6497  0.0081
  120MPD2     H 1870   1.194   4.064  13.201 -0.7096  0.0521 -0.4454
  120MPD2    H1 1871   1.465   4.133  12.880  3.1977 -1.0934  1.2204
  120MPD2    H2 1872   1.617   4.129  13.265  2.1808  2.0445 -3.0617
  120MPD2    H3 1873   1.649   4.129  13.041 -0.2003 -2.2403  0.0094
  120MPD2     N 1874   1.203   4.083  12.941 -0.3555 -0.2520  0.1671
  120MPD2    H5 1875   1.230   4.061  12.845 -0.9003  0.1005 -0.0666
  120MPD2    N1 1876   1.382   4.091  13.392 -0.0432  0.1671 -0.5739
  120MPD2    H7 1877   1.468   4.099  13.445  0.2018  1.4695 -1.1920
  121TMC2    C1 1878   2.835   0.641  14.063  0.3899  0.1941  0.3430
  121TMC2    C2 1879   2.850   0.579  14.181  0.1250 -0.6784 -0.2000
  121TMC2    C3 1880   2.742   0.549  14.262 -0.3323  0.2742  0.3963
  121TMC2    C4 1881   2.708   0.664  14.018 -1.2578  0.4748  0.2771
  121TMC2    C5 1882   2.608   0.639  14.101  0.1404  0.2649  0.0986
  121TMC2    C6 1883   2.620   0.580  14.227 -0.0955  0.6178  0.3593
  121TMC2     C 1884   2.934   0.734  14.016  0.0731 -0.2772  0.5824
  121TMC2     O 1885   3.015   0.762  14.101  0.0702  0.4936  0.3392
  121TMC2     H 1886   2.947   0.550  14.220  0.8449  0.7063 -0.9960
  121TMC2    H1 1887   2.689   0.722  13.928 -3.5995 -0.4374  0.1990
  121TMC2    H2 1888   2.542   0.562  14.300  0.7594  0.3047  1.1887
  121TMC2    C7 1889   2.479   0.628  14.041 -0.3890  0.1321 -0.0950
  121TMC2    C8 1890   2.774   0.498  14.395 -0.3544  0.0421  0.1720
  121TMC2    O1 1891   2.387   0.596  14.122 -0.0135 -0.4350  0.4457
  121TMC2    O2 1892   2.870   0.539  14.463 -0.2940 -0.1146  0.3143
  121TMC2    O5 1893   2.679   0.409  14.427  0.0166  0.0480  0.0578
  121TMC2    H5 1894   2.635   0.372  14.347 -4.0246  3.6846  0.5844
  122MPD2     C 1895   3.115   0.917  13.881 -0.2099 -0.3233  0.9246
  122MPD2    C1 1896   3.016   0.853  13.812 -0.7541  0.1129 -0.0892
  122MPD2    C2 1897   2.996   0.866  13.676  0.0501  0.2613 -0.5975
  122MPD2    C3 1898   3.087   0.945  13.606 -0.2466  0.7862  0.4071
  122MPD2    C4 1899   3.186   1.010  13.675  0.0186  0.5356 -0.5028
  122MPD2    C5 1900   3.199   1.005  13.817 -0.5343  0.3277 -0.2216
  122MPD2     H 1901   2.912   0.812  13.632 -0.1723  0.4382 -0.3934
  122MPD2    H1 1902   3.248   1.086  13.628  1.1500 -0.1315 -0.0978
  122MPD2    H2 1903   3.124   0.913  13.989 -0.4619 -2.2706  0.8801
  122MPD2    H3 1904   3.269   1.076  13.860  3.2504 -2.8979 -1.0759
  122MPD2     N 1905   3.070   0.974  13.464  0.0591  0.3012  0.9240
  122MPD2    H5 1906   3.138   1.038  13.423 -0.1543  0.5489  0.9548
  122MPD2    N1 1907   2.925   0.768  13.878 -0.2510 -0.1930  0.2251
  122MPD2    H7 1908   2.852   0.725  13.823 -0.8334  1.8952 -0.6218
  123TMC2    C1 1909   1.613   3.421   9.808  0.5067  0.2399  0.4160
  123TMC2    C2 1910   1.646   3.538   9.870  0.8280 -0.6476  0.4274
  123TMC2    C3 1911   1.662   3.536  10.003  0.1075 -0.9542  0.0282
  123TMC2    C4 1912   1.613   3.305   9.872  0.0061 -0.4333  0.3158
  123TMC2    C5 1913   1.624   3.308  10.010  0.2032  0.4041  0.1135
  123TMC2    C6 1914   1.660   3.423  10.080  0.3706  0.0479  0.2469
  123TMC2     C 1915   1.593   3.422   9.668 -0.3068 -0.4052 -0.0280
  123TMC2     O 1916   1.632   3.518   9.596  0.0913 -0.1417 -0.3196
  123TMC2     H 1917   1.654   3.630   9.813 -1.2930 -1.1979 -0.7573
  123TMC2    H1 1918   1.582   3.209   9.832  1.0527 -1.0535  0.9771
  123TMC2    H2 1919   1.685   3.421  10.186 -1.5791 -1.4469  0.6756
  123TMC2    C7 1920   1.612   3.194  10.097 -0.3616 -0.5198 -0.6631
  123TMC2    C8 1921   1.712   3.660  10.060  0.3455 -0.5231  0.4586
  123TMC2    O1 1922   1.638   3.208  10.214  0.0961 -0.0531 -0.2014
  123TMC2    O2 1923   1.755   3.754   9.995  0.4551 -0.4121 -0.5609
  123TMC2    O5 1924   1.648   3.666  10.175 -0.2456  0.3544 -0.1384
  123TMC2    H5 1925   1.582   3.595  10.189  1.4119 -0.8477  1.7105
  124MPD2     C 1926   1.313   3.272   9.262 -0.4209 -0.4433 -0.1387
  124MPD2    C1 1927   1.258   3.216   9.379 -0.3257  0.0350 -0.1877
  124MPD2    C2 1928   1.331   3.225   9.497 -0.7317  0.3059  0.0528
  124MPD2    C3 1929   1.446   3.301   9.510  0.1990 -0.3367  0.2205
  124MPD2    C4 1930   1.503   3.355   9.396 -0.5579  0.1523  0.1237
  124MPD2    C5 1931   1.441   3.339   9.272  0.2621 -0.4065  0.4418
  124MPD2     H 1932   1.290   3.175   9.584 -3.9449  1.4422 -0.8271
  124MPD2    H1 1933   1.599   3.405   9.403 -0.0145 -0.4044 -2.9551
  124MPD2    H2 1934   1.254   3.260   9.172  0.3722  0.5084 -0.7869
  124MPD2    H3 1935   1.481   3.384   9.182 -0.0503  0.2242  0.6190
  124MPD2     N 1936   1.493   3.336   9.637 -0.0515 -0.0244  0.8197
  124MPD2    H5 1937   1.440   3.306   9.719  2.0284  0.8570  2.4920
  124MPD2    N1 1938   1.145   3.139   9.363  0.2254 -0.8459 -0.1357
  124MPD2    H7 1939   1.100   3.143   9.272 -0.9419  1.1974  0.5295
  125TMC2    C1 1940   2.461   2.847   9.113  0.1420 -0.5113  1.1945
  125TMC2    C2 1941   2.391   2.728   9.104 -0.1347  0.2602  0.6490
  125TMC2    C3 1942   2.255   2.739   9.093  0.2636 -0.4864 -0.1922
  125TMC2    C4 1943   2.395   2.970   9.123 -0.8448  0.2520 -0.6496
  125TMC2    C5 1944   2.260   2.972   9.107  0.4641 -0.5671 -0.2360
  125TMC2    C6 1945   2.187   2.856   9.092 -0.8017  0.2367  0.1401
  125TMC2     C 1946   2.602   2.832   9.138  1.0196 -0.1361  0.1930
  125TMC2     O 1947   2.630   2.728   9.189  0.6303  0.2303 -0.0529
  125TMC2     H 1948   2.445   2.637   9.080 -1.0802  0.2102 -1.2601
  125TMC2    H1 1949   2.455   3.059   9.135 -0.3616 -0.3801  1.6287
  125TMC2    H2 1950   2.080   2.873   9.093 -1.0289 -1.2133 -1.6040
  125TMC2    C7 1951   2.202   3.095   9.061 -0.4186  0.5120  0.3947
  125TMC2    C8 1952   2.173   2.626   9.051 -0.6092 -0.5534  0.1271
  125TMC2    O1 1953   2.102   3.081   8.989 -0.2495  0.3257 -0.0784
  125TMC2    O2 1954   2.085   2.643   8.968 -0.4574  0.1647 -0.6918
  125TMC2    O5 1955   2.253   2.521   9.068 -0.7347 -0.2324  0.4653
  125TMC2    H5 1956   2.292   2.532   9.158 -0.3496 -0.6398  0.3516
  126MPD1     C 1957   3.107   2.970   9.150  0.3865  0.5740 -0.2050
  126MPD1    C1 1958   3.035   3.076   9.099  0.0280  0.1513  0.1854
  126MPD1    C2 1959   2.893   3.064   9.094 -0.8528  0.8643 -0.2700
  126MPD1    C3 1960   2.823   2.951   9.131  0.3191 -0.7621 -0.4553
  126MPD1    C4 1961   2.899   2.842   9.178  0.2773 -0.8985  0.3860
  126MPD1    C5 1962   3.037   2.862   9.192 -0.6596 -0.4117 -0.4078
  126MPD1     H 1963   2.839   3.141   9.040 -0.8164  0.6768 -0.5764
  126MPD1    H1 1964   2.861   2.746   9.209 -0.3937 -0.2919  1.4323
  126MPD1    H2 1965   3.215   2.964   9.155  0.2047 -3.2977 -0.5258
  126MPD1    H3 1966   3.097   2.784   9.236  1.2258  1.6823  0.7332
  126MPD1     N 1967   2.679   2.946   9.116  0.6544 -0.4631 -0.4443
  126MPD1    H5 1968   2.637   3.019   9.058 -0.1134 -0.5004  0.0661
  126MPD1    N1 1969   3.090   3.190   9.034 -0.0598  0.2724 -0.1316
  126MPD1    H6 1970   3.180   3.214   9.074 -0.0934  0.9544 -0.4672
  126MPD1    H7 1971   3.026   3.269   9.031  0.9240  1.0256 -1.2876
  127TMC2    C1 1972   2.759   3.679   9.973 -0.0111 -0.8365  0.4727
  127TMC2    C2 1973   2.846   3.594  10.038 -0.5945  0.5044 -0.1335
  127TMC2    C3 1974   2.807   3.465  10.063  0.1171 -0.3588  0.0765
  127TMC2    C4 1975   2.629   3.641   9.952 -0.2566 -0.6074 -0.5512
  127TMC2    C5 1976   2.589   3.515   9.998 -0.9877  0.7788  0.0837
  127TMC2    C6 1977   2.671   3.429  10.059  0.2263 -1.0945  0.2546
  127TMC2     C 1978   2.797   3.822   9.989  0.2946  0.6649  0.0942
  127TMC2     O 1979   2.918   3.847   9.977 -0.0678 -0.9124  0.5272
  127TMC2     H 1980   2.947   3.618  10.069 -0.2829 -1.2005  0.1419
  127TMC2    H1 1981   2.572   3.695   9.877  2.7696 -0.0642 -2.4651
  127TMC2    H2 1982   2.644   3.324  10.067  0.0716 -0.9018  2.2461
  127TMC2    C7 1983   2.443   3.492   9.989  0.7604 -0.0188 -0.1411
  127TMC2    C8 1984   2.896   3.381  10.133 -0.4775 -0.1346 -0.0556
  127TMC2    O1 1985   2.373   3.589   9.960 -0.4988 -0.3257  0.5990
  127TMC2    O2 1986   3.009   3.357  10.097 -0.5235  0.0694  0.1549
  127TMC2    O5 1987   2.868   3.376  10.266 -0.6648 -0.7201 -0.4421
  127TMC2    H5 1988   2.773   3.385  10.291  0.0313  2.8301  0.8768
  128MPD2     C 1989   2.581   4.106  10.108  0.3813 -0.0779 -0.2573
  128MPD2    C1 1990   2.699   4.045  10.064 -0.3934 -0.3353 -0.2876
  128MPD2    C2 1991   2.811   4.122  10.057  0.1245  0.7770  0.6246
  128MPD2    C3 1992   2.812   4.254  10.095  0.0310 -0.4740  0.1720
  128MPD2    C4 1993   2.693   4.310  10.141  0.4213 -0.3840  0.2089
  128MPD2    C5 1994   2.575   4.239  10.140  0.9077  0.3892  0.7167
  128MPD2     H 1995   2.905   4.079  10.026  0.5697  1.1613  1.4645
  128MPD2    H1 1996   2.705   4.408  10.188 -0.3566  0.8316 -2.1153
  128MPD2    H2 1997   2.486   4.052  10.110  1.3978 -1.8896 -0.5408
  128MPD2    H3 1998   2.484   4.279  10.181  1.3419  1.4406  0.6379
  128MPD2     N 1999   2.931   4.329  10.072  0.6172  0.1397 -0.3462
  128MPD2    H5 2000   3.000   4.284  10.014 -1.5934 -4.0241  0.2692
  128MPD2    N1 2001   2.694   3.907  10.030  0.3186 -0.0611 -0.6486
  128MPD2    H7 2002   2.599   3.872  10.043  0.2614  0.5506  0.6142
  129TMC2    C1 2003   2.067   0.284   1.133  0.3152  0.5845 -0.5328
  129TMC2    C2 2004   1.949   0.351   1.098  0.8136 -0.1851 -0.3117
  129TMC2    C3 2005   1.839   0.320   1.172  0.3165  0.8243 -0.3690
  129TMC2    C4 2006   2.076   0.197   1.236 -0.6140  0.0660 -0.3517
  129TMC2    C5 2007   1.963   0.162   1.299 -0.9201  0.0527  0.2565
  129TMC2    C6 2008   1.841   0.225   1.275  0.0301 -0.8038 -0.0193
  129TMC2     C 2009   2.175   0.292   1.038  0.3197 -0.7111 -0.2439
  129TMC2     O 2010   2.261   0.204   1.051 -0.0223 -0.4225 -0.6893
  129TMC2     H 2011   1.946   0.435   1.030  0.8093  0.0875  0.0291
  129TMC2    H1 2012   2.164   0.136   1.251 -1.8369 -1.4256  0.7573
  129TMC2    H2 2013   1.755   0.181   1.325 -0.7986 -1.0089 -1.6319
  129TMC2    C7 2014   1.968   0.076   1.415  0.2369  0.7523 -1.0214
  129TMC2    C8 2015   1.726   0.411   1.166  0.3766 -0.6239  0.1068
  129TMC2    O1 2016   1.891   0.101   1.506 -0.0742 -0.1803  0.4889
  129TMC2    O2 2017   1.688   0.460   1.061 -0.0955 -0.2996  0.4112
  129TMC2    O5 2018   1.663   0.385   1.282 -0.0687 -0.0277 -0.0184
  129TMC2    H5 2019   1.729   0.361   1.351  0.4632 -1.0634 -0.8925
  130MPD2     C 2020   2.356   0.349   0.814  0.1071  0.4765 -0.3311
  130MPD2    C1 2021   2.266   0.438   0.860 -0.3619  0.1699  0.2436
  130MPD2    C2 2022   2.274   0.563   0.804 -0.2389  0.3625 -0.7091
  130MPD2    C3 2023   2.355   0.597   0.702  0.0884  0.1507 -0.0680
  130MPD2    C4 2024   2.452   0.500   0.662  0.9015  1.2786  0.0407
  130MPD2    C5 2025   2.446   0.377   0.716  1.0071 -0.0164  0.6166
  130MPD2     H 2026   2.201   0.637   0.835 -1.5863 -0.4241 -1.9634
  130MPD2    H1 2027   2.531   0.517   0.589 -0.7244  1.3496 -1.6986
  130MPD2    H2 2028   2.358   0.247   0.849  4.8539  0.5349 -0.4934
  130MPD2    H3 2029   2.504   0.298   0.669  0.1530 -0.1983 -0.1407
  130MPD2     N 2030   2.334   0.728   0.655 -0.3792  0.0575 -0.1963
  130MPD2    H5 2031   2.270   0.788   0.705  0.1722  0.2197  0.3131
  130MPD2    N1 2032   2.171   0.399   0.959  0.7298 -0.0724 -0.1302
  130MPD2    H7 2033   2.104   0.472   0.983 -0.1935 -0.6972 -0.8027
  131TMC2    C1 2034   1.016   3.886   9.288 -0.0534  0.2981 -0.2276
  131TMC2    C2 2035   1.129   3.891   9.209  0.2295  0.0387  0.9113
  131TMC2    C3 2036   1.218   3.986   9.237 -0.3471 -0.4096 -0.1755
  131TMC2    C4 2037   0.970   3.983   9.380 -0.0505 -0.6563 -0.1900
  131TMC2    C5 2038   1.069   4.074   9.404 -0.1136  0.5438  0.1164
  131TMC2    C6 2039   1.193   4.079   9.334  0.3030 -0.5049 -0.0767
  131TMC2     C 2040   0.942   3.769   9.274 -0.2514 -0.4813 -0.1345
  131TMC2     O 2041   1.001   3.666   9.242 -0.2591 -0.2808 -0.1074
  131TMC2     H 2042   1.167   3.811   9.147 -0.0745  1.6493 -1.3354
  131TMC2    H1 2043   0.883   3.978   9.444 -1.6500 -0.3975 -2.3317
  131TMC2    H2 2044   1.265   4.159   9.346  0.4428 -0.8338  1.3407
  131TMC2    C7 2045   1.035   4.184   9.495 -0.7828  0.3757  0.0777
  131TMC2    C8 2046   1.329   3.999   9.147  0.0383 -0.0520 -0.5763
  131TMC2    O1 2047   0.942   4.171   9.575 -0.4050 -0.3606 -0.1618
  131TMC2    O2 2048   1.309   3.969   9.030 -0.0498 -1.0019  0.5872
  131TMC2    O5 2049   1.424   4.079   9.197  0.1836 -0.1715  0.4582
  131TMC2    H5 2050   1.426   4.079   9.295 -4.4190 -1.5395  0.5437
  132MPD2     C 2051   0.588   3.697   9.332 -0.1739  0.1158 -0.4609
  132MPD2    C1 2052   0.718   3.673   9.322  0.6432  0.2593  0.6942
  132MPD2    C2 2053   0.753   3.539   9.321  0.1720 -0.3307  0.1948
  132MPD2    C3 2054   0.656   3.434   9.330 -0.1414  0.0970 -0.4743
  132MPD2    C4 2055   0.521   3.462   9.331 -0.3368 -0.1756 -0.0714
  132MPD2    C5 2056   0.494   3.597   9.343 -0.4887  0.2360  0.2272
  132MPD2     H 2057   0.858   3.513   9.317  0.1424 -0.4693  0.3463
  132MPD2    H1 2058   0.442   3.392   9.355 -1.0246  0.0944 -1.5249
  132MPD2    H2 2059   0.558   3.799   9.308 -1.3446  0.2896  1.7857
  132MPD2    H3 2060   0.388   3.620   9.352 -0.4440  0.6308 -0.2218
  132MPD2     N 2061   0.705   3.306   9.339 -0.6996  0.0992  0.0190
  132MPD2    H5 2062   0.805   3.297   9.319 -1.1235  0.8816 -2.4868
  132MPD2    N1 2063   0.809   3.783   9.304  0.1744 -0.3216 -0.3071
  132MPD2    H7 2064   0.772   3.877   9.314 -0.1991 -0.5354  0.2992
  133TMC2    C1 2065   0.038   0.358   9.393  0.3964 -0.4727 -0.0774
  133TMC2    C2 2066   0.156   0.347   9.325  0.1234  0.2314 -0.4859
  133TMC2    C3 2067   0.242   0.449   9.337 -0.4595  0.0737 -1.0413
  133TMC2    C4 2068   0.008   0.461   9.476 -0.3876 -0.3745  0.6021
  133TMC2    C5 2069   0.099   0.555   9.487  0.6282 -0.0512  0.1864
  133TMC2    C6 2070   0.219   0.557   9.421  0.3007 -0.1601 -0.1438
  133TMC2     C 2071   4.681   0.248   9.382 -0.2967  0.8083  0.3549
  133TMC2     O 2072   4.728   0.146   9.332  0.0045  0.3207 -0.7312
  133TMC2     H 2073   0.174   0.263   9.260  1.5563  1.6838 -1.9507
  133TMC2    H1 2074   4.658   0.463   9.541 -0.2787 -0.1223  0.7368
  133TMC2    H2 2075   0.296   0.629   9.447  0.8854 -0.7103 -0.3452
  133TMC2    C7 2076   0.070   0.668   9.577  0.1147 -0.3971  0.0128
  133TMC2    C8 2077   0.377   0.436   9.271 -0.8949 -0.2072 -0.1072
  133TMC2    O1 2078   4.688   0.708   9.570 -0.3854 -0.3494 -0.3409
  133TMC2    O2 2079   0.439   0.327   9.268  0.8968  0.4405 -0.0336
  133TMC2    O5 2080   0.423   0.562   9.256  1.1154 -0.2610 -0.1053
  133TMC2    H5 2081   0.345   0.622   9.252 -0.0225 -1.7861 -0.7706
  134MPD2     C 2082   4.325   0.263   9.334 -0.2306  0.4708 -0.1116
  134MPD2    C1 2083   4.439   0.202   9.361  0.0443  0.0288 -0.0879
  134MPD2    C2 2084   4.454   0.057   9.373 -1.0070 -0.4182 -0.5443
  134MPD2    C3 2085   4.335   4.718   9.347 -0.4167  0.9324  0.0003
  134MPD2    C4 2086   4.215   0.055   9.313 -0.7868  0.4238  0.3413
  134MPD2    C5 2087   4.212   0.191   9.303  0.1003 -0.3004  0.1111
  134MPD2     H 2088   4.542   0.005   9.412 -0.5622 -0.1847 -1.2376
  134MPD2    H1 2089   4.119   0.005   9.310 -0.5104 -0.0604 -0.4295
  134MPD2    H2 2090   4.323   0.371   9.340 -0.9652  0.4885 -0.8092
  134MPD2    H3 2091   4.121   0.248   9.288  1.5735  1.7903 -0.9241
  134MPD2     N 2092   4.328   4.575   9.365 -0.1634 -0.3781  0.1088
  134MPD2    H5 2093   4.236   4.533   9.369 -0.6700  0.6558 -0.6598
  134MPD2    N1 2094   4.550   0.287   9.387  0.2200 -0.0531  0.7865
  134MPD2    H7 2095   4.542   0.387   9.403  2.4146 -0.0073  1.6094
  135TMC2    C1 2096   1.907   0.245   9.444 -0.1264 -0.1189  0.5988
  135TMC2    C2 2097   1.891   0.118   9.399 -0.2185  0.3316 -0.7310
  135TMC2    C3 2098   1.854   0.017   9.494 -0.0794 -0.0414 -0.1201
  135TMC2    C4 2099   1.892   0.268   9.575  0.5691 -0.1684  0.6581
  135TMC2    C5 2100   1.852   0.173   9.667 -0.0618  0.1010  0.2996
  135TMC2    C6 2101   1.831   0.046   9.626  0.2053  0.6407 -0.6067
  135TMC2     C 2102   1.986   0.342   9.368 -0.1800  0.4810 -0.6093
  135TMC2     O 2103   1.976   0.452   9.415  0.0142 -0.0295 -0.3072
  135TMC2     H 2104   1.891   0.093   9.294 -0.3647  0.8513 -0.8576
  135TMC2    H1 2105   1.912   0.367   9.614 -0.5762  0.2587  0.1402
  135TMC2    H2 2106   1.795   4.698   9.684  0.3832 -0.8000 -2.5975
  135TMC2    C7 2107   1.844   0.216   9.804  1.0271 -0.0051 -0.5874
  135TMC2    C8 2108   1.815   4.623   9.444  0.1956 -0.7407 -0.1131
  135TMC2    O1 2109   1.908   0.313   9.839 -0.1277 -0.2565  0.6916
  135TMC2    O2 2110   1.741   4.554   9.511 -0.0468  0.8283 -0.1516
  135TMC2    O5 2111   1.901   4.580   9.349 -0.5196 -0.0972 -0.0952
  135TMC2    H5 2112   1.970   4.644   9.321 -1.0127  1.7516  3.0360
  136MPD2     C 2113   2.209   0.502   9.253 -0.6509  0.4974 -0.2095
  136MPD2    C1 2114   2.192   0.368   9.230  0.1430  0.1078 -0.3132
  136MPD2    C2 2115   2.281   0.302   9.147  0.1150 -1.3828 -0.4369
  136MPD2    C3 2116   2.380   0.371   9.076 -0.1817 -0.7714 -0.0090
  136MPD2    C4 2117   2.391   0.504   9.095  0.6626 -0.0112  0.4497
  136MPD2    C5 2118   2.300   0.568   9.175  0.3566  0.0944  0.5990
  136MPD2     H 2119   2.261   0.199   9.120 -0.0185 -1.2560 -0.8289
  136MPD2    H1 2120   2.459   0.566   9.037 -0.0426 -1.6500 -2.1042
  136MPD2    H2 2121   2.141   0.559   9.315 -1.4158  0.4579 -1.0141
  136MPD2    H3 2122   2.314   0.675   9.188 -3.7431  0.5279  1.5911
  136MPD2     N 2123   2.473   0.312   8.987  0.2231  0.0744  0.1644
  136MPD2    H5 2124   2.540   0.371   8.939  0.9598 -1.1570 -0.3171
  136MPD2    N1 2125   2.086   0.290   9.293 -0.7265  0.5643 -0.6388
  136MPD2    H7 2126   2.085   0.189   9.280  0.7009  0.5046 -0.2295
  137TMC2    C1 2127   2.122   0.147   8.865  0.0899  0.1081  0.0842
  137TMC2    C2 2128   2.181   0.160   8.740 -0.6802  0.1455 -0.3454
  137TMC2    C3 2129   2.195   0.279   8.682 -0.4860 -0.1697 -0.4383
  137TMC2    C4 2130   2.065   0.252   8.930  0.4260 -0.8564  0.0080
  137TMC2    C5 2131   2.079   0.373   8.869  0.1947  0.1269 -0.4197
  137TMC2    C6 2132   2.144   0.387   8.752  0.3183  0.0816  0.1050
  137TMC2     C 2133   2.097   0.017   8.926  0.0152  0.5006  0.4839
  137TMC2     O 2134   2.051   0.024   9.039 -0.1326 -0.2912  0.0494
  137TMC2     H 2135   2.216   0.071   8.689  0.0101 -0.1768  0.6968
  137TMC2    H1 2136   1.998   0.231   9.013  1.6169 -2.3256  0.6009
  137TMC2    H2 2137   2.151   0.485   8.707 -0.9101  0.1623  0.0896
  137TMC2    C7 2138   2.004   0.490   8.919 -0.0043 -0.2963 -1.3522
  137TMC2    C8 2139   2.278   0.302   8.561  0.0581  0.3124  0.4619
  137TMC2    O1 2140   2.015   0.603   8.863  0.5348 -0.0686 -0.5847
  137TMC2    O2 2141   2.357   0.391   8.547  0.5484  0.1505  1.0529
  137TMC2    O5 2142   2.208   0.249   8.460 -0.5268 -0.0567  0.5839
  137TMC2    H5 2143   2.131   0.194   8.484  0.4576 -2.5131 -1.8069
  138MPD2     C 2144   2.059   4.412   8.791 -0.3934 -0.1489  0.3566
  138MPD2    C1 2145   2.064   4.513   8.886 -0.1536 -0.8455 -0.3480
  138MPD2    C2 2146   2.024   4.480   9.017  0.4927  0.5621 -0.4024
  138MPD2    C3 2147   1.986   4.353   9.054  1.2105 -0.3284  0.5310
  138MPD2    C4 2148   1.985   4.248   8.957 -0.1385  0.1021 -0.8912
  138MPD2    C5 2149   2.023   4.286   8.829 -0.3048  0.3907 -0.5337
  138MPD2     H 2150   2.010   4.553   9.096  0.2984  0.0479  0.0306
  138MPD2    H1 2151   1.985   4.143   8.984 -0.8504 -0.1473 -1.8624
  138MPD2    H2 2152   2.082   4.433   8.688  0.3317 -0.6782  0.4109
  138MPD2    H3 2153   2.012   4.218   8.745 -1.7604 -0.7216  0.5569
  138MPD2     N 2154   1.925   4.322   9.183  0.0065 -0.1268  0.4324
  138MPD2    H5 2155   1.925   4.393   9.255 -0.7638  0.3942 -0.0866
  138MPD2    N1 2156   2.112   4.644   8.849  0.0471  0.1318  0.4371
  138MPD2    H7 2157   2.158   4.644   8.758  0.1075 -0.3088  0.4670
  139TMC2    C1 2158   2.894   3.604  13.650 -0.2030  0.8065 -0.0040
  139TMC2    C2 2159   2.990   3.684  13.715  0.4691  1.0294 -0.1602
  139TMC2    C3 2160   2.943   3.782  13.791 -0.1816 -0.5520 -0.5394
  139TMC2    C4 2161   2.762   3.635  13.636  0.0936 -0.9159  0.8782
  139TMC2    C5 2162   2.725   3.749  13.707 -0.1632  0.7398  0.3578
  139TMC2    C6 2163   2.811   3.822  13.780 -0.3614  0.3103 -0.0604
  139TMC2     C 2164   2.939   3.477  13.603  0.4885 -0.4194 -0.4910
  139TMC2     O 2165   3.059   3.472  13.583 -0.0262 -0.4981 -0.5668
  139TMC2     H 2166   3.093   3.653  13.729 -0.0919 -0.8468 -0.2567
  139TMC2    H1 2167   2.687   3.587  13.573 -2.2903  0.5385  2.5979
  139TMC2    H2 2168   2.773   3.901  13.845 -0.4957 -0.1672  0.4397
  139TMC2    C7 2169   2.598   3.812  13.679 -0.3382  0.0875  0.2680
  139TMC2    C8 2170   3.037   3.877  13.852 -0.3825 -0.0736 -0.5395
  139TMC2    O1 2171   2.597   3.929  13.703  0.4125  0.1244 -0.5772
  139TMC2    O2 2172   3.156   3.876  13.824  0.5455  0.2233  0.4967
  139TMC2    O5 2173   2.982   3.943  13.955 -0.0768  0.0913  0.0503
  139TMC2    H5 2174   2.891   3.914  13.978 -0.4897  1.2851 -0.0882
  140MPD2     C 2175   2.726   3.189  13.505 -0.2148 -0.6477 -0.7028
  140MPD2    C1 2176   2.846   3.256  13.532  0.0861  0.4577 -0.0905
  140MPD2    C2 2177   2.966   3.208  13.479  0.5881  0.3464  0.4512
  140MPD2    C3 2178   2.971   3.093  13.408 -0.3384 -0.4112 -0.9606
  140MPD2    C4 2179   2.851   3.034  13.376  0.4606  0.1644  0.2120
  140MPD2    C5 2180   2.735   3.075  13.429  0.0643  0.3901  0.0032
  140MPD2     H 2181   3.062   3.248  13.510  1.7622 -2.9028  1.0000
  140MPD2    H1 2182   2.847   2.941  13.322  1.0318 -0.3400  1.0290
  140MPD2    H2 2183   2.630   3.228  13.537 -1.5876 -2.8867 -2.0389
  140MPD2    H3 2184   2.644   3.016  13.428  0.2616  0.1335 -1.5286
  140MPD2     N 2185   3.100   3.040  13.374 -0.5937  0.4484 -0.0639
  140MPD2    H5 2186   3.184   3.094  13.391 -0.9827  1.0983 -0.2237
  140MPD2    N1 2187   2.834   3.384  13.595  0.0141 -0.5518 -0.0404
  140MPD2    H7 2188   2.744   3.407  13.638 -1.1335 -1.3678 -1.9997
  141TMC2    C1 2189   3.988   4.590  14.054  0.0472 -0.0426  0.2304
  141TMC2    C2 2190   3.987   4.509  14.160 -0.3196  0.3696 -0.1618
  141TMC2    C3 2191   4.026   4.568  14.278 -0.3206 -0.2943  0.1542
  141TMC2    C4 2192   4.037   4.721  14.053  0.5355  0.1525 -0.0624
  141TMC2    C5 2193   4.082   0.035  14.172  0.3421 -0.0092 -0.1220
  141TMC2    C6 2194   4.081   4.695  14.288 -0.2619  0.2769 -0.4166
  141TMC2     C 2195   3.913   4.552  13.935  0.4886  0.6245  0.5007
  141TMC2     O 2196   3.872   4.437  13.933  0.2352 -0.0583 -0.0130
  141TMC2     H 2197   3.954   4.405  14.156  1.0169 -0.0397 -0.4485
  141TMC2    H1 2198   4.043   0.042  13.961 -2.0910  1.1858  0.4209
  141TMC2    H2 2199   4.131   4.729  14.378  0.0150 -2.6793  0.5357
  141TMC2    C7 2200   4.149   0.164  14.162  0.0856 -0.4862  0.1638
  141TMC2    C8 2201   3.996   4.498  14.399  1.0073  0.0771  0.7286
  141TMC2    O1 2202   4.179   0.198  14.047  0.1381  0.2065  0.0496
  141TMC2    O2 2203   4.071   4.480  14.495  0.0077  0.1473  0.1935
  141TMC2    O5 2204   3.890   4.417  14.384  0.2304  0.2925  0.6666
  141TMC2    H5 2205   3.850   4.431  14.296 -0.0362 -1.5790  0.4857
  142TMC2    C1 2206   1.463   2.653  10.744 -0.4776  0.2905  0.4417
  142TMC2    C2 2207   1.553   2.672  10.844  0.3106 -0.4569  0.5439
  142TMC2    C3 2208   1.678   2.712  10.811  0.0166  0.5509  0.6427
  142TMC2    C4 2209   1.490   2.693  10.619  0.0645 -0.3562  0.1252
  142TMC2    C5 2210   1.616   2.751  10.600 -0.1774 -0.2751  0.0327
  142TMC2    C6 2211   1.714   2.762  10.691  0.2558  0.3286  0.1020
  142TMC2     C 2212   1.351   2.561  10.754 -0.3318  0.1826  0.0002
  142TMC2     O 2213   1.297   2.539  10.649  0.1846  0.3197  0.1212
  142TMC2     H 2214   1.541   2.651  10.950 -0.2562 -0.3741  0.4954
  142TMC2    H1 2215   1.425   2.681  10.534  0.7132  0.6921 -0.5280
  142TMC2    H2 2216   1.816   2.787  10.666 -0.2047  1.8995 -0.1590
  142TMC2    C7 2217   1.655   2.795  10.469 -0.0486  0.4473  0.0174
  142TMC2    C8 2218   1.768   2.720  10.929 -0.0050 -0.1859  0.8270
  142TMC2    O1 2219   1.724   2.894  10.458 -0.1751 -0.4524 -0.0719
  142TMC2    O2 2220   1.755   2.643  11.023  0.0580 -0.6966 -0.0281
  142TMC2    O5 2221   1.821   2.848  10.943 -0.2364 -0.1656  0.1229
  142TMC2    H5 2222   1.798   2.908  10.869 -1.4133 -1.5954 -0.6749
  143MPD2     C 2223   1.147   2.120  10.935 -0.2913 -0.2537 -1.0178
  143MPD2    C1 2224   1.127   2.187  10.820  0.7868  0.1687  0.6378
  143MPD2    C2 2225   1.184   2.315  10.799  1.0867  0.0960  0.6126
  143MPD2    C3 2226   1.272   2.366  10.891  0.1133  0.5128  0.1770
  143MPD2    C4 2227   1.292   2.302  11.012  0.8352 -0.1922  0.0311
  143MPD2    C5 2228   1.230   2.178  11.030 -0.2252 -0.1041 -0.4226
  143MPD2     H 2229   1.154   2.368  10.709 -0.1091 -2.5757 -0.5825
  143MPD2    H1 2230   1.355   2.345  11.089 -0.7581  0.6257  0.9041
  143MPD2    H2 2231   1.098   2.026  10.959  0.2481 -0.2077  0.2627
  143MPD2    H3 2232   1.234   2.137  11.130 -0.7150  0.9712  0.0432
  143MPD2     N 2233   1.354   2.480  10.872  0.3570  0.0032 -0.1337
  143MPD2    H5 2234   1.408   2.516  10.950 -0.3119  0.5807  0.0578
  143MPD2    N1 2235   1.040   2.127  10.729 -0.2300 -0.0901  0.2714
  143MPD2    H7 2236   1.002   2.034  10.746  0.8410 -0.6016 -0.1791
  144TMC2    C1 2237   4.441   2.294   1.129  0.3780 -0.5609  0.7136
  144TMC2    C2 2238   4.444   2.217   1.014  0.1376  0.1373  0.3446
  144TMC2    C3 2239   4.564   2.186   0.964 -0.0690  0.2301  0.0266
  144TMC2    C4 2240   4.560   2.355   1.171 -0.3808 -0.2671  0.4858
  144TMC2    C5 2241   4.675   2.330   1.103 -0.5106  0.4763  0.1655
  144TMC2    C6 2242   4.684   2.232   1.008  0.0157  0.6980 -0.3292
  144TMC2     C 2243   4.314   2.367   1.147  0.0318 -1.1648  0.5225
  144TMC2     O 2244   4.228   2.354   1.062 -0.7936  0.6157  0.0830
  144TMC2     H 2245   4.353   2.166   0.984  0.7552 -0.7326 -0.0580
  144TMC2    H1 2246   4.538   2.433   1.243 -0.2869 -0.3063  0.5562
  144TMC2    H2 2247   0.045   2.193   0.984  0.3724  1.3345  0.0915
  144TMC2    C7 2248   0.054   2.378   1.167 -0.1762 -0.0471  0.5350
  144TMC2    C8 2249   4.565   2.059   0.892 -0.1277 -0.2378 -0.0410
  144TMC2    O1 2250   0.164   2.352   1.119 -0.3364 -0.6806  0.1389
  144TMC2    O2 2251   4.467   1.981   0.892 -0.3896 -0.1069  0.4440
  144TMC2    O5 2252   4.641   2.083   0.786  0.1958 -0.2945 -0.0710
  144TMC2    H5 2253   4.706   2.156   0.795 -0.8707  0.5427  0.8776
  145MPD2     C 2254   4.108   2.779   1.350  0.1010  0.1804  0.9281
  145MPD2    C1 2255   4.103   2.722   1.220 -0.0745  0.7316 -0.1975
  145MPD2    C2 2256   4.168   2.613   1.195 -0.2413  1.3261  0.2900
  145MPD2    C3 2257   4.233   2.545   1.300  0.2674 -0.0613 -0.3978
  145MPD2    C4 2258   4.229   2.597   1.427 -0.2260 -0.2684 -0.5192
  145MPD2    C5 2259   4.165   2.712   1.452 -0.2782  0.2122 -0.3126
  145MPD2     H 2260   4.167   2.571   1.095 -0.6492  2.3188 -0.1243
  145MPD2    H1 2261   4.273   2.540   1.508 -1.7426 -0.0393  0.4655
  145MPD2    H2 2262   4.062   2.876   1.366  0.6529  0.5512  0.2820
  145MPD2    H3 2263   4.175   2.762   1.548 -0.0461 -1.0882  0.3372
  145MPD2     N 2264   4.309   2.431   1.273  0.1863 -0.3684  0.0662
  145MPD2    H5 2265   4.378   2.408   1.343 -0.6189 -1.9314  0.3347
  145MPD2    N1 2266   4.051   2.793   1.110  0.4436  0.1507  0.4835
  145MPD2    H7 2267   4.061   2.746   1.021 -2.6326  0.7879 -0.2010
  146TMC2    C1 2268   0.318   1.045  12.283  0.3160  0.1961 -0.4200
  146TMC2    C2 2269   0.241   1.068  12.168  0.3114  0.0895  0.5033
  146TMC2    C3 2270   0.236   0.966  12.071 -0.5489 -0.0739 -0.2189
  146TMC2    C4 2271   0.386   0.922  12.307  0.1688  0.3966  1.0164
  146TMC2    C5 2272   0.381   0.835  12.204  0.8878 -0.5043  1.0153
  146TMC2    C6 2273   0.311   0.851  12.084 -0.0176  0.2134  0.1466
  146TMC2     C 2274   0.320   1.156  12.376  0.4287 -0.8632  0.2717
  146TMC2     O 2275   0.296   1.271  12.336 -0.3753  0.7434  0.1180
  146TMC2     H 2276   0.187   1.162  12.164 -0.3232 -0.3073 -0.2944
  146TMC2    H1 2277   0.464   0.913  12.382  0.0756 -0.0636  1.0560
  146TMC2    H2 2278   0.315   0.775  12.007 -1.9103 -0.1517  0.3902
  146TMC2    C7 2279   0.452   0.707  12.221  0.0079 -0.5658  0.0920
  146TMC2    C8 2280   0.176   0.975  11.942 -0.1877  0.8233  0.1929
  146TMC2    O1 2281   0.482   0.648  12.118 -0.9770 -0.0918  0.3446
  146TMC2    O2 2282   0.222   0.928  11.841  0.3942  0.4217 -0.1387
  146TMC2    O5 2283   0.101   1.085  11.949  0.3207  0.4155 -0.0873
  146TMC2    H5 2284   0.059   1.078  12.037 -1.7008  0.7493 -1.0397
  147MPD2     C 2285   0.677   0.355  12.518  0.1636 -0.0020  0.0856
  147MPD2    C1 2286   0.612   0.445  12.599  0.5201 -0.6229 -1.2046
  147MPD2    C2 2287   0.550   0.552  12.537 -0.0565 -0.1418  0.3881
  147MPD2    C3 2288   0.544   0.565  12.402 -0.6561 -0.8725  0.2785
  147MPD2    C4 2289   0.611   0.474  12.326 -0.0750  0.4759 -0.0691
  147MPD2    C5 2290   0.673   0.367  12.386  0.2543  0.5790  0.1086
  147MPD2     H 2291   0.523   0.635  12.600 -1.3016 -1.5421  1.7199
  147MPD2    H1 2292   0.624   0.488  12.219 -2.8178 -0.0355 -0.4676
  147MPD2    H2 2293   0.749   0.287  12.564  0.9043  0.1046 -0.9168
  147MPD2    H3 2294   0.732   0.306  12.319 -0.1084 -0.5941  0.8577
  147MPD2     N 2295   0.467   0.668  12.351  0.4292 -0.0318  0.6863
  147MPD2    H5 2296   0.416   0.726  12.417 -2.4283  0.2700 -1.7757
  147MPD2    N1 2297   0.643   0.434  12.736  0.3228  0.6721 -0.5929
  147MPD2    H7 2298   0.728   0.386  12.763  0.7763  1.3451 -0.8067
  148TMC2    C1 2299   1.366   4.033  10.175  0.1880 -0.4073  0.0444
  148TMC2    C2 2300   1.479   4.098  10.128  0.3999  0.3187  0.1503
  148TMC2    C3 2301   1.552   4.041  10.033 -0.3914  0.3001 -1.3189
  148TMC2    C4 2302   1.318   3.926  10.113 -0.5747 -0.2382  0.4333
  148TMC2    C5 2303   1.387   3.877  10.002 -0.2639  0.8856  0.6611
  148TMC2    C6 2304   1.509   3.930   9.964 -0.5546 -0.4982  0.2079
  148TMC2     C 2305   1.273   4.110  10.256  0.3550 -0.0218  0.1546
  148TMC2     O 2306   1.315   4.194  10.338 -0.0123  0.4597  0.0680
  148TMC2     H 2307   1.510   4.191  10.175  0.7428 -1.1250  2.7761
  148TMC2    H1 2308   1.241   3.862  10.153 -0.5361  0.2037  1.2163
  148TMC2    H2 2309   1.564   3.900   9.875 -0.8248  0.0364 -0.1405
  148TMC2    C7 2310   1.329   3.771   9.925 -0.1965 -0.3724 -0.7487
  148TMC2    C8 2311   1.671   4.111   9.993  0.7989  0.3191 -0.0742
  148TMC2    O1 2312   1.261   3.686   9.985 -0.0899 -0.3530  0.4967
  148TMC2    O2 2313   1.680   4.232   9.996 -0.3725 -0.4273 -0.1673
  148TMC2    O5 2314   1.760   4.013   9.957  0.1317 -0.2298 -0.2322
  148TMC2    H5 2315   1.731   3.920   9.970 -1.5982  0.3152 -0.0944
  149MPD2     C 2316   1.028   4.228  10.365 -0.3816 -0.2431  0.3887
  149MPD2    C1 2317   1.033   4.112  10.289  0.0439 -0.3368 -0.2148
  149MPD2    C2 2318   0.923   4.031  10.277  0.2268  0.0085 -0.0622
  149MPD2    C3 2319   0.805   4.062  10.347  0.5267 -0.3788 -0.9398
  149MPD2    C4 2320   0.802   4.174  10.427  0.4808  0.1584 -0.9275
  149MPD2    C5 2321   0.912   4.258  10.432 -0.4122 -0.3470 -0.2809
  149MPD2     H 2322   0.933   3.940  10.220 -0.7714 -0.7324  0.9671
  149MPD2    H1 2323   0.713   4.200  10.483  0.8801  1.1649 -0.7591
  149MPD2    H2 2324   1.115   4.289  10.386 -2.0291  1.6576  1.6749
  149MPD2    H3 2325   0.909   4.349  10.490  0.0364 -1.5704  1.6739
  149MPD2     N 2326   0.681   3.989  10.334 -0.6925 -0.2654 -0.4098
  149MPD2    H5 2327   0.603   4.030  10.384 -1.0729  0.3521 -1.5090
  149MPD2    N1 2328   1.146   4.064  10.232 -0.6603  0.3833 -0.0941
  149MPD2    H7 2329   1.131   3.981  10.174  1.2920 -1.1550  1.5933
  150TMC2    C1 2330   2.919   3.677  12.529 -0.3564 -0.0695  0.4770
  150TMC2    C2 2331   2.855   3.788  12.562  0.6424  0.4461 -1.2021
  150TMC2    C3 2332   2.926   3.891  12.614  0.9109  0.2892  0.2076
  150TMC2    C4 2333   3.054   3.668  12.531  0.2109 -0.8742 -0.3791
  150TMC2    C5 2334   3.122   3.776  12.573 -0.0633  0.3186  0.0226
  150TMC2    C6 2335   3.058   3.891  12.619 -0.0656  0.0403 -0.1408
  150TMC2     C 2336   2.851   3.559  12.486  0.7899 -0.6089  0.7085
  150TMC2     O 2337   2.913   3.457  12.474  0.2146  0.0873 -0.6833
  150TMC2     H 2338   2.747   3.791  12.570  0.5075 -2.6274 -1.9217
  150TMC2    H1 2339   3.101   3.576  12.497  1.4817 -0.2852 -0.1952
  150TMC2    H2 2340   3.110   3.984  12.639  0.1731 -0.3781  1.1745
  150TMC2    C7 2341   3.268   3.794  12.570  0.0191 -0.3893 -0.2080
  150TMC2    C8 2342   2.858   4.016  12.621 -0.4302  0.0463  0.1106
  150TMC2    O1 2343   3.311   3.896  12.623 -0.3952  0.6775  0.0251
  150TMC2    O2 2344   2.901   4.124  12.584  0.3139 -0.2284 -0.2973
  150TMC2    O5 2345   2.737   4.010  12.683 -0.4479  0.3768 -0.1332
  150TMC2    H5 2346   2.715   3.925  12.728 -0.9529 -0.4103 -1.8908
  151MPD2     C 2347   2.436   3.334  12.272  0.1010 -0.1248  0.8093
  151MPD2    C1 2348   2.432   3.466  12.253 -0.4717 -0.1318 -0.3008
  151MPD2    C2 2349   2.527   3.545  12.311 -0.5161 -0.0026  0.4946
  151MPD2    C3 2350   2.636   3.495  12.379  0.0393  0.5190  0.1652
  151MPD2    C4 2351   2.634   3.355  12.402 -0.2581 -0.5890  0.3248
  151MPD2    C5 2352   2.530   3.283  12.346 -0.3475  0.0736  0.8123
  151MPD2     H 2353   2.520   3.652  12.299  0.3031 -0.0070 -0.0254
  151MPD2    H1 2354   2.702   3.304  12.469 -1.2127 -0.1210  1.6382
  151MPD2    H2 2355   2.372   3.259  12.228 -0.5369  0.8071  0.1531
  151MPD2    H3 2356   2.525   3.178  12.370  1.1726 -0.4698 -1.3525
  151MPD2     N 2357   2.733   3.589  12.431 -0.0127 -0.6300  0.4551
  151MPD2    H5 2358   2.710   3.688  12.421 -0.5746 -0.6395  1.6250
  151MPD2    N1 2359   2.321   3.512  12.180  0.1635 -0.2822  0.8053
  151MPD2    H7 2360   2.243   3.448  12.166 -0.5241  0.5346  0.9237
  152TMC2    C1 2361   2.476   3.484  12.702 -0.3997 -0.0345 -0.1790
  152TMC2    C2 2362   2.536   3.361  12.701  0.1369  0.3461  0.7789
  152TMC2    C3 2363   2.646   3.344  12.787  0.4074  0.3394 -1.1815
  152TMC2    C4 2364   2.528   3.596  12.762 -0.1642  0.4100  0.2769
  152TMC2    C5 2365   2.646   3.573  12.830  0.4198 -0.4686  0.4677
  152TMC2    C6 2366   2.705   3.450  12.849  0.6167  0.1849 -0.4050
  152TMC2     C 2367   2.353   3.511  12.625 -0.8717 -0.7077 -0.3127
  152TMC2     O 2368   2.312   3.624  12.629  0.0086 -0.3870  0.3414
  152TMC2     H 2369   2.485   3.276  12.656  1.0617 -1.4950  3.2127
  152TMC2    H1 2370   2.485   3.695  12.748  0.8905  0.2722 -3.9784
  152TMC2    H2 2371   2.782   3.431  12.922 -0.6518 -0.4152  0.7684
  152TMC2    C7 2372   2.719   3.690  12.859  0.1310 -0.7038 -0.5554
  152TMC2    C8 2373   2.722   3.225  12.758  0.0696  0.2717 -0.1926
  152TMC2    O1 2374   2.664   3.800  12.862  0.1478  0.3505  0.4016
  152TMC2    O2 2375   2.833   3.234  12.702  0.3245  0.1687 -0.2862
  152TMC2    O5 2376   2.636   3.118  12.763  0.2992 -0.2419 -0.7174
  152TMC2    H5 2377   2.557   3.141  12.817  0.8650  0.8202 -0.3416
  153MPD2     C 2378   2.122   3.298  12.426  0.5550  0.2515 -0.4868
  153MPD2    C1 2379   2.163   3.409  12.497 -0.0653 -0.3009 -0.5881
  153MPD2    C2 2380   2.078   3.512  12.501  0.0396  0.0283 -0.1330
  153MPD2    C3 2381   1.960   3.507  12.424  0.6214 -0.2679 -0.2002
  153MPD2    C4 2382   1.924   3.395  12.347 -0.5872  0.5320 -0.0314
  153MPD2    C5 2383   2.007   3.288  12.352  0.3486  0.3247  0.1632
  153MPD2     H 2384   2.101   3.596  12.565 -0.9273 -0.4094  0.7871
  153MPD2    H1 2385   1.834   3.389  12.286 -0.8195  2.4133  0.1429
  153MPD2    H2 2386   2.190   3.215  12.415  3.4205  2.4718  0.4144
  153MPD2    H3 2387   1.989   3.197  12.296  1.0940  0.8623 -0.9519
  153MPD2     N 2388   1.881   3.624  12.426  0.2496 -0.0791 -0.4492
  153MPD2    H5 2389   1.922   3.708  12.465  0.8507 -1.2375  1.3861
  153MPD2    N1 2390   2.288   3.404  12.576  0.3994 -0.3899 -0.0698
  153MPD2    H7 2391   2.325   3.312  12.600 -0.5524 -0.7463  0.0566
  154TMC2    C1 2392   4.256   3.472   0.799 -0.5354 -0.1462 -0.3628
  154TMC2    C2 2393   4.274   3.487   0.662  0.2672 -0.3857 -0.3500
  154TMC2    C3 2394   4.295   3.368   0.597 -0.0805  0.1314 -0.1702
  154TMC2    C4 2395   4.253   3.353   0.866  0.2256 -0.0719  0.6603
  154TMC2    C5 2396   4.284   3.237   0.788 -0.2394 -0.0451  0.0419
  154TMC2    C6 2397   4.314   3.245   0.649  0.7219  0.6687  0.3782
  154TMC2     C 2398   4.205   3.579   0.883 -0.1798 -0.0635  0.3216
  154TMC2     O 2399   4.225   3.568   1.005  0.1989  0.3655  0.1460
  154TMC2     H 2400   4.266   3.578   0.604  1.3518  1.0303  1.7109
  154TMC2    H1 2401   4.238   3.327   0.971  0.6694 -1.7385  0.3088
  154TMC2    H2 2402   4.343   3.161   0.586 -0.1003  2.1456 -1.9532
  154TMC2    C7 2403   4.301   3.104   0.844 -0.1754  0.5991  0.5574
  154TMC2    C8 2404   4.316   3.371   0.455 -0.8751  0.9207  0.2278
  154TMC2    O1 2405   4.279   3.014   0.763  0.0034 -0.0949 -0.6496
  154TMC2    O2 2406   4.356   3.472   0.393  0.2713 -0.5954  0.1183
  154TMC2    O5 2407   4.255   3.263   0.409 -0.1370  0.3584  0.2838
  154TMC2    H5 2408   4.205   3.212   0.477 -2.2052  3.2322  0.9203
  155MPD2     C 2409   4.011   3.865   0.782 -0.0684 -0.7586 -0.1104
  155MPD2    C1 2410   4.077   3.787   0.870 -0.1563  0.4048 -0.5585
  155MPD2    C2 2411   4.074   3.831   0.999  0.1048  0.6655  0.4149
  155MPD2    C3 2412   4.014   3.952   1.037  0.1155  0.9758 -0.2569
  155MPD2    C4 2413   3.955   4.032   0.938  0.3559 -0.0189  0.2052
  155MPD2    C5 2414   3.949   3.980   0.814  0.4079  0.7420  0.3139
  155MPD2     H 2415   4.123   3.773   1.077  1.5091 -1.2476 -1.8641
  155MPD2    H1 2416   3.922   4.133   0.956  0.7492  0.2962 -0.8671
  155MPD2    H2 2417   4.005   3.846   0.676  2.3208  1.3996 -0.6231
  155MPD2    H3 2418   3.910   4.033   0.728 -0.7407 -0.2947  0.2102
  155MPD2     N 2419   4.020   3.987   1.175  0.0418 -0.0845  0.4566
  155MPD2    H5 2420   4.067   3.930   1.245  0.1766 -1.9256 -1.1363
  155MPD2    N1 2421   4.144   3.674   0.816  0.2130 -0.3509 -0.3108
  155MPD2    H7 2422   4.157   3.674   0.716  1.3383  2.4628 -0.1492
  156TMC2    C1 2423   3.135   0.898  12.075  0.1656  0.0026  0.0106
  156TMC2    C2 2424   3.225   0.798  12.090 -0.3972 -0.2984  0.3914
  156TMC2    C3 2425   3.272   0.743  11.972  0.1478 -0.5975 -0.0301
  156TMC2    C4 2426   3.084   0.937  11.954  0.4582  0.4636  0.0151
  156TMC2    C5 2427   3.126   0.868  11.848  0.1738  0.1297 -0.1077
  156TMC2    C6 2428   3.218   0.767  11.851 -0.4568  0.4738  0.3747
  156TMC2     C 2429   3.080   0.966  12.191 -0.5459 -0.0303 -0.3748
  156TMC2     O 2430   3.012   1.065  12.165  0.3981 -0.4655 -0.2713
  156TMC2     H 2431   3.259   0.748  12.180  2.6048 -0.6736 -0.9459
  156TMC2    H1 2432   3.020   1.023  11.938  1.2918  1.3362  1.4757
  156TMC2    H2 2433   3.255   0.717  11.763  1.0451  2.4817 -0.1300
  156TMC2    C7 2434   3.047   0.884  11.728  0.3752 -0.2844 -0.6642
  156TMC2    C8 2435   3.356   0.622  11.997  0.1827  0.8221 -0.4317
  156TMC2    O1 2436   2.987   0.988  11.726  0.4384  0.7129  0.3124
  156TMC2    O2 2437   3.318   0.504  11.987 -0.5989  0.2163  0.3548
  156TMC2    O5 2438   3.449   0.674  12.081  0.1648  0.4012 -0.2927
  156TMC2    H5 2439   3.465   0.766  12.053 -1.0752  0.2423 -1.5428
  157MPD2     C 2440   3.027   0.836  12.536 -0.2959  0.2141  0.3064
  157MPD2    C1 2441   3.029   0.928  12.434 -0.6785  0.0210  0.2180
  157MPD2    C2 2442   2.980   1.054  12.462 -0.5742  0.2875 -0.7024
  157MPD2    C3 2443   2.920   1.092  12.578  0.5936  0.8831  0.3650
  157MPD2    C4 2444   2.912   0.998  12.674 -0.1817  0.3891  0.1573
  157MPD2    C5 2445   2.968   0.874  12.656 -0.1804 -0.2896 -0.8233
  157MPD2     H 2446   2.976   1.130  12.385  0.5646 -1.5569 -2.5682
  157MPD2    H1 2447   2.845   1.012  12.758  0.0926  2.2267  0.0791
  157MPD2    H2 2448   3.082   0.743  12.530 -1.5522 -0.3951 -1.7478
  157MPD2    H3 2449   2.969   0.796  12.732  0.4955 -1.6033 -2.1825
  157MPD2     N 2450   2.862   1.221  12.581 -0.6001  0.8773  0.3799
  157MPD2    H5 2451   2.870   1.288  12.505  2.0641  0.4195  0.2735
  157MPD2    N1 2452   3.089   0.887  12.309  0.3845  0.6671  0.0156
  157MPD2    H7 2453   3.127   0.794  12.298  0.8111  0.9656 -1.0751
  158TMC2    C1 2454   3.098   4.692  13.226  0.3072 -0.3613  0.3234
  158TMC2    C2 2455   3.175   4.657  13.118  0.3986  0.5085 -0.8384
  158TMC2    C3 2456   3.117   4.653  12.991  0.3976 -0.0115 -0.3926
  158TMC2    C4 2457   2.965   4.722  13.211  0.1201  0.0691  0.2611
  158TMC2    C5 2458   2.904   4.711  13.084 -0.0669  0.3362 -0.0160
  158TMC2    C6 2459   2.985   4.695  12.968 -0.1427  0.0838  0.0456
  158TMC2     C 2460   3.165   4.657  13.351  0.3103  0.0411 -0.2072
  158TMC2     O 2461   3.287   4.665  13.345 -0.3527 -0.8650  0.7679
  158TMC2     H 2462   3.281   4.634  13.128  0.1646 -0.5046 -0.6997
  158TMC2    H1 2463   2.903   0.018  13.294  0.0561  1.1532 -0.2044
  158TMC2    H2 2464   2.958   4.721  12.866  2.0994 -0.7522 -0.7727
  158TMC2    C7 2465   2.766   0.013  13.058 -0.0222 -0.1531 -0.5260
  158TMC2    C8 2466   3.194   4.630  12.866 -0.5966 -0.3372 -0.2554
  158TMC2    O1 2467   2.746   0.065  12.947  0.2437 -0.2229 -0.4353
  158TMC2    O2 2468   3.157   4.604  12.750  0.5392  0.1361  0.4177
  158TMC2    O5 2469   3.308   4.693  12.892  0.0997  0.0292  0.6418
  158TMC2    H5 2470   3.304   0.006  12.977  0.7433 -0.4552  0.9531
  159MPD2     C 2471   3.178   4.533  13.840 -0.5022  0.5721 -0.2448
  159MPD2    C1 2472   3.048   4.544  13.807 -0.5526 -0.4963  0.4079
  159MPD2    C2 2473   3.012   4.584  13.680 -0.1719  0.0172  0.4665
  159MPD2    C3 2474   3.111   4.608  13.582 -0.2354  0.3601  0.3319
  159MPD2    C4 2475   3.245   4.612  13.615  0.5810  0.8608  0.3599
  159MPD2    C5 2476   3.273   4.573  13.744  0.6663  0.0901 -0.2705
  159MPD2     H 2477   2.907   4.605  13.665  0.1725  0.0510 -1.9036
  159MPD2    H1 2478   3.333   4.640  13.560 -1.1070  2.5411 -1.4777
  159MPD2    H2 2479   3.212   4.514  13.941  0.2849  2.4108 -0.1482
  159MPD2    H3 2480   3.377   4.570  13.774  0.3456 -0.1155  0.8112
  159MPD2     N 2481   3.076   4.640  13.453 -0.2125  0.0651  0.0505
  159MPD2    H5 2482   2.976   4.645  13.437 -0.3146  1.4196  1.0698
  159MPD2    N1 2483   2.960   4.505  13.910 -0.0120  0.9220  0.0553
  159MPD2    H7 2484   3.008   4.473  13.993  0.9515  0.1070 -0.8187
  160TMC2    C1 2485   3.023   2.680   1.914 -0.3448  0.2562  0.6689
  160TMC2    C2 2486   3.082   2.655   2.036 -0.0379 -0.0952  0.1044
  160TMC2    C3 2487   3.209   2.700   2.052 -0.1018 -0.8148 -0.8512
  160TMC2    C4 2488   3.086   2.744   1.813  0.0752  0.1846 -0.1750
  160TMC2    C5 2489   3.211   2.796   1.836  0.1409  0.3615 -0.5839
  160TMC2    C6 2490   3.274   2.771   1.956  0.1371  0.1471 -0.0603
  160TMC2     C 2491   2.895   2.610   1.887  0.6914 -0.1253  0.1511
  160TMC2     O 2492   2.848   2.537   1.970  0.2045  0.3462  0.3885
  160TMC2     H 2493   3.039   2.614   2.127 -3.0082 -0.8702 -1.6626
  160TMC2    H1 2494   3.062   2.746   1.707  2.2513 -0.8864 -0.6911
  160TMC2    H2 2495   3.377   2.799   1.975 -0.7240  3.3962 -0.1960
  160TMC2    C7 2496   3.295   2.826   1.719 -0.2059  0.1655 -0.2779
  160TMC2    C8 2497   3.265   2.708   2.186  0.4446 -0.3882  0.3743
  160TMC2    O1 2498   3.279   2.764   1.612  0.3816  0.1383  1.1102
  160TMC2    O2 2499   3.389   2.707   2.200 -0.2132  1.0017  0.6376
  160TMC2    O5 2500   3.182   2.773   2.272  0.4068 -0.3880 -0.4117
  160TMC2    H5 2501   3.088   2.776   2.244  0.0408  1.8649  1.0095
  161MPD2     C 2502   2.700   2.476   1.709  0.4956  0.4279 -0.2859
  161MPD2    C1 2503   2.734   2.611   1.703  0.1657 -0.6725  0.3900
  161MPD2    C2 2504   2.658   2.700   1.639 -0.3918 -0.4737 -0.8411
  161MPD2    C3 2505   2.539   2.667   1.573  0.2381 -0.1153  1.4063
  161MPD2    C4 2506   2.509   2.529   1.574 -0.0653 -0.7428 -0.2894
  161MPD2    C5 2507   2.583   2.440   1.646 -0.4569  0.2774  0.4928
  161MPD2     H 2508   2.688   2.804   1.648  0.6207 -0.8813  0.5091
  161MPD2    H1 2509   2.437   2.482   1.508 -3.2617  0.6018  2.2198
  161MPD2    H2 2510   2.763   2.408   1.766 -0.7453 -0.2631  0.2754
  161MPD2    H3 2511   2.548   2.337   1.654 -1.9375  0.6852 -0.8288
  161MPD2     N 2512   2.455   2.757   1.502  0.4711  0.3447 -1.1904
  161MPD2    H5 2513   2.379   2.710   1.453  1.3267 -2.3817  0.0671
  161MPD2    N1 2514   2.836   2.669   1.777  0.5174 -0.0210 -0.3422
  161MPD2    H7 2515   2.865   2.761   1.746  0.5013 -0.0687 -0.4978
  162TMC2    C1 2516   0.994   0.032   1.351  0.5068 -0.7261  0.2083
  162TMC2    C2 2517   0.879   0.073   1.300  0.0655  0.1114 -0.0865
  162TMC2    C3 2518   0.774   0.093   1.383 -0.3391  0.3952 -0.7397
  162TMC2    C4 2519   1.019   0.014   1.486 -0.0560 -0.2943 -0.4769
  162TMC2    C5 2520   0.912   0.052   1.565  0.4868  0.6786 -0.0726
  162TMC2    C6 2521   0.782   0.079   1.520  0.1483  0.5708 -0.5810
  162TMC2     C 2522   1.103   0.003   1.260  0.0911  0.1195 -0.1603
  162TMC2     O 2523   1.108   0.055   1.150  0.4496  0.0732 -0.2332
  162TMC2     H 2524   0.861   0.094   1.195  0.2064  2.6348  0.4021
  162TMC2    H1 2525   1.119   4.730   1.522 -0.4177  0.4738  0.9508
  162TMC2    H2 2526   0.708   0.120   1.588  1.3868 -2.0411  2.3414
  162TMC2    C7 2527   0.933   0.026   1.707 -0.5997 -0.0569 -0.5824
  162TMC2    C8 2528   0.646   0.135   1.330 -0.5971 -0.3071 -0.4337
  162TMC2    O1 2529   0.862   0.096   1.779 -0.4014  0.3316  0.1481
  162TMC2    O2 2530   0.632   0.186   1.220  0.1599 -0.3978 -0.3917
  162TMC2    O5 2531   0.548   0.074   1.403  0.5080  0.3572 -0.2365
  162TMC2    H5 2532   0.577   0.012   1.472  0.1735 -2.8460 -2.9670
  163MPD2     C 2533   1.440   4.393   1.104  0.0770  0.2965 -0.3188
  163MPD2    C1 2534   1.375   4.488   1.032  0.2399  0.7544 -0.4174
  163MPD2    C2 2535   1.295   4.578   1.103 -0.0902  0.0221  0.3087
  163MPD2    C3 2536   1.279   4.563   1.237 -0.1110 -0.1393 -0.5677
  163MPD2    C4 2537   1.341   4.458   1.303  0.2141  0.4544  0.1622
  163MPD2    C5 2538   1.419   4.373   1.237 -0.1229  0.1798 -0.0957
  163MPD2     H 2539   1.244   4.653   1.043 -0.2789 -0.6665 -0.3845
  163MPD2    H1 2540   1.320   4.440   1.408 -0.9270  1.9901  0.1945
  163MPD2    H2 2541   1.500   4.320   1.051  0.6965  0.2920  0.3928
  163MPD2    H3 2542   1.468   4.289   1.285  1.7766  0.5359 -1.3816
  163MPD2     N 2543   1.188   4.640   1.315 -0.2916 -0.7136  0.1192
  163MPD2    H5 2544   1.172   4.606   1.410 -2.4065  1.8224  0.6826
  163MPD2    N1 2545   1.384   4.476   0.892  0.8189 -0.8643  0.2505
  163MPD2    H7 2546   1.423   4.393   0.849  1.3502  0.0248 -0.9974
  164TMC2    C1 2547   1.088   3.548  10.684 -0.4511  0.4754 -0.0957
  164TMC2    C2 2548   1.155   3.606  10.578  0.0245  0.2447 -0.4163
  164TMC2    C3 2549   1.089   3.701  10.509 -0.3130  0.3795  0.2378
  164TMC2    C4 2550   0.972   3.598  10.729 -0.6349  0.2018 -0.0840
  164TMC2    C5 2551   0.912   3.709  10.672  0.7995 -0.0439  0.0093
  164TMC2    C6 2552   0.972   3.756  10.557 -0.5493  0.3879  0.2702
  164TMC2     C 2553   1.149   3.438  10.759 -0.8472 -0.3430  0.1258
  164TMC2     O 2554   1.087   3.378  10.845 -0.0297 -0.5467 -0.2353
  164TMC2     H 2555   1.246   3.562  10.539  0.0916 -1.4783  1.6665
  164TMC2    H1 2556   0.941   3.563  10.827 -2.4153 -3.1019 -1.8522
  164TMC2    H2 2557   0.934   3.840  10.500  0.2611  0.4051 -0.2406
  164TMC2    C7 2558   0.810   3.787  10.730 -0.5990  0.3541  0.3798
  164TMC2    C8 2559   1.151   3.754  10.395  0.0798  0.5794  0.4162
  164TMC2    O1 2560   0.750   3.871  10.659 -0.4367 -0.4238 -0.0770
  164TMC2    O2 2561   1.271   3.737  10.378 -0.2641 -0.0471 -0.3940
  164TMC2    O5 2562   1.067   3.749  10.290 -0.0420 -0.8140  0.3368
  164TMC2    H5 2563   0.982   3.713  10.324  0.1880 -0.1226  1.6482
  165TMC2    C1 2564   2.837   2.187   1.150  0.4120 -0.0276 -0.0941
  165TMC2    C2 2565   2.894   2.108   1.056  0.4441  0.2143  0.0537
  165TMC2    C3 2566   3.029   2.085   1.061 -0.1777  0.1906  0.2248
  165TMC2    C4 2567   2.902   2.238   1.250  0.3248 -0.2170  0.5168
  165TMC2    C5 2568   3.035   2.208   1.258 -0.4203  0.1606  0.2352
  165TMC2    C6 2569   3.103   2.139   1.162 -0.5050  0.5335 -0.0228
  165TMC2     C 2570   2.697   2.211   1.122  0.5123  0.4976  0.4343
  165TMC2     O 2571   2.643   2.126   1.054 -0.2008  0.3573 -0.7880
  165TMC2     H 2572   2.839   2.074   0.969  1.0259 -1.4465  0.3486
  165TMC2    H1 2573   2.854   2.289   1.333  1.0424  1.6838 -0.2249
  165TMC2    H2 2574   3.207   2.113   1.176 -0.9293 -1.5282 -0.7102
  165TMC2    C7 2575   3.110   2.265   1.359  0.5472  0.0481  0.3770
  165TMC2    C8 2576   3.086   2.000   0.957 -0.0114 -0.3676 -0.0653
  165TMC2    O1 2577   3.225   2.282   1.323  0.0137 -0.5508  0.2421
  165TMC2    O2 2578   3.204   1.997   0.928 -0.5513  0.2000  0.6935
  165TMC2    O5 2579   3.003   1.893   0.943  0.3389  0.0957 -0.0571
  165TMC2    H5 2580   2.913   1.905   0.980  0.5457  0.6126  0.2753
  166MPD2     C 2581   2.251   2.451   1.088 -0.2770  0.0037  0.3982
  166MPD2    C1 2582   2.289   2.327   1.041  0.4452  0.1156  0.7962
  166MPD2    C2 2583   2.417   2.278   1.083 -0.0051 -0.0285  0.7349
  166MPD2    C3 2584   2.503   2.353   1.161  0.3727 -0.7173  0.3776
  166MPD2    C4 2585   2.464   2.478   1.192 -0.3470 -0.1135 -0.4160
  166MPD2    C5 2586   2.337   2.523   1.163  0.4045  0.0240 -0.1381
  166MPD2     H 2587   2.439   2.182   1.040 -1.3548  0.4868 -1.1387
  166MPD2    H1 2588   2.535   2.544   1.241 -3.2685  0.5569  2.9181
  166MPD2    H2 2589   2.155   2.496   1.068 -0.3113  0.2803  1.1822
  166MPD2    H3 2590   2.297   2.614   1.205 -0.4216 -0.8336  0.9504
  166MPD2     N 2591   2.637   2.316   1.194 -0.0432  0.2521  0.1646
  166MPD2    H5 2592   2.694   2.381   1.246  1.2936  0.6723 -1.8293
  166MPD2    N1 2593   2.194   2.255   0.960  0.3197  0.0007 -0.7195
  166MPD2    H7 2594   2.107   2.302   0.936  0.7349  0.9796 -0.3128
  167TMC2    C1 2595   0.194   4.291  12.846 -0.3897 -0.5952 -0.5696
  167TMC2    C2 2596   0.156   4.327  12.969 -0.2920 -0.5309 -0.4154
  167TMC2    C3 2597   0.077   4.237  13.038 -0.5598 -0.5582 -0.2863
  167TMC2    C4 2598   0.176   4.162  12.793  0.3345  0.4496 -0.1147
  167TMC2    C5 2599   0.095   4.076  12.865 -0.2989 -0.5637  0.2343
  167TMC2    C6 2600   0.052   4.108  12.987 -0.0710 -0.1919 -0.4197
  167TMC2     C 2601   0.249   4.396  12.765 -0.1927  0.0055  0.0697
  167TMC2     O 2602   0.241   4.510  12.815 -0.0426  0.7243 -0.0051
  167TMC2     H 2603   0.149   4.426  13.013  1.7282 -0.0701 -1.1715
  167TMC2    H1 2604   0.187   4.145  12.687 -0.6527  0.2910 -0.1921
  167TMC2    H2 2605   4.735   4.030  13.039  1.0713 -0.2410  0.6840
  167TMC2    C7 2606   0.069   3.941  12.827 -0.7013 -0.1556 -0.5293
  167TMC2    C8 2607   0.017   4.267  13.164 -0.4390  0.5627  0.2261
  167TMC2    O1 2608   4.736   3.869  12.898  0.1570  0.5568 -0.0550
  167TMC2    O2 2609   4.669   4.189  13.205  0.0116 -0.6039  0.2082
  167TMC2    O5 2610   0.104   4.342  13.238  0.0614  0.3709 -0.1118
  167TMC2    H5 2611   0.181   4.383  13.192  0.2924 -0.4529 -0.4568
  168MPD2     C 2612   0.383   4.579  12.578  0.3709 -0.0491 -0.5837
  168MPD2    C1 2613   0.375   4.446  12.555 -0.0699  0.2729  0.7465
  168MPD2    C2 2614   0.422   4.393  12.436  0.0770 -0.1908 -0.1153
  168MPD2    C3 2615   0.471   4.482  12.340  0.2797 -0.2025  0.0230
  168MPD2    C4 2616   0.490   4.616  12.370 -0.0374  0.0431 -0.6989
  168MPD2    C5 2617   0.445   4.661  12.491 -0.1297 -0.2777  0.4168
  168MPD2     H 2618   0.426   4.286  12.418 -0.3094 -0.3218  0.5689
  168MPD2    H1 2619   0.517   4.688  12.293  1.7766 -1.0122 -1.0595
  168MPD2    H2 2620   0.347   4.632  12.666  0.5353  0.1004 -0.6066
  168MPD2    H3 2621   0.459   0.027  12.522  1.4828 -0.6448  0.9201
  168MPD2     N 2622   0.503   4.443  12.210  0.0612  0.0374  0.5404
  168MPD2    H5 2623   0.539   4.514  12.147  0.9174 -2.1876 -1.4482
  168MPD2    N1 2624   0.316   4.354  12.643  0.2576 -0.2399  0.0869
  168MPD2    H7 2625   0.325   4.255  12.622  1.1029  0.0680 -0.9990
  169MPD1     C 2626   1.608   3.754   9.024 -0.1279  0.4378  0.5197
  169MPD1    C1 2627   1.614   3.618   9.037  0.1451  0.5328  0.0751
  169MPD1    C2 2628   1.714   3.565   9.122  0.1124  0.1342  0.0807
  169MPD1    C3 2629   1.766   3.647   9.223  0.1152 -0.0252  0.3445
  169MPD1    C4 2630   1.742   3.785   9.222 -0.2217 -0.2774  0.5668
  169MPD1    C5 2631   1.662   3.830   9.123 -1.2979 -0.0489  0.8290
  169MPD1     H 2632   1.728   3.457   9.117  1.2761  0.2797  0.2779
  169MPD1    H1 2633   1.773   3.847   9.305  2.5105  1.8107 -2.0212
  169MPD1    H2 2634   1.546   3.802   8.950 -1.7504  1.6316  2.6465
  169MPD1    H3 2635   1.639   3.936   9.118  1.6292  0.5793  0.9065
  169MPD1     N 2636   1.849   3.574   9.305  0.2464  0.6790 -0.0585
  169MPD1    H5 2637   1.839   3.473   9.293 -0.1190  0.4744  1.9059
  169MPD1    N1 2638   1.558   3.536   8.941 -0.1076 -0.1092  0.1263
  169MPD1    H6 2639   1.470   3.581   8.914  1.1081  1.6840 -0.8521
  169MPD1    H7 2640   1.550   3.440   8.972 -0.6977 -0.8139 -2.2636
  170MPD1     C 2641   1.970   1.338  12.738 -0.3877  0.4577  0.0341
  170MPD1    C1 2642   2.022   1.371  12.864  0.3351  0.1119 -0.4929
  170MPD1    C2 2643   1.943   1.456  12.944  0.1177  0.2347  0.3244
  170MPD1    C3 2644   1.817   1.502  12.905  0.0038 -0.1925  0.1927
  170MPD1    C4 2645   1.772   1.473  12.783  0.4733  0.6054  0.2518
  170MPD1    C5 2646   1.850   1.391  12.702  0.1751 -0.0326  0.3562
  170MPD1     H 2647   1.982   1.481  13.041  1.3024 -1.0754  0.1692
  170MPD1    H1 2648   1.676   1.500  12.741 -0.9244 -0.7120  2.5933
  170MPD1    H2 2649   2.033   1.277  12.674  1.4741  1.3944  0.9653
  170MPD1    H3 2650   1.812   1.367  12.604 -1.3600 -0.8412  1.1331
  170MPD1     N 2651   1.739   1.583  12.982 -0.3684 -0.1198 -0.1824
  170MPD1    H5 2652   1.748   1.584  13.083  1.2559 -2.2393 -0.2963
  170MPD1    N1 2653   2.162   1.348  12.891 -0.0877  0.1613  0.0234
  170MPD1    H6 2654   2.192   1.357  12.988 -1.4623  0.1062  0.4508
  170MPD1    H7 2655   2.191   1.262  12.845 -3.7951 -0.9512 -0.2277
  171MPD1     C 2656   0.152   2.903  15.250  0.5385 -0.4716  0.0683
  171MPD1    C1 2657   0.280   2.868  15.263  0.1267 -1.3671 -0.1877
  171MPD1    C2 2658   0.309   2.737  15.312 -0.5047 -0.3825  0.1180
  171MPD1    C3 2659   0.206   2.647  15.330  0.8207 -0.2089 -0.3268
  171MPD1    C4 2660   0.075   2.686  15.310 -0.1273 -0.5460  0.7768
  171MPD1    C5 2661   0.051   2.814  15.271 -0.5473  0.6754  0.8755
  171MPD1     H 2662   0.411   2.703  15.326 -0.4647 -0.4080 -0.2350
  171MPD1    H1 2663   4.723   2.628  15.335 -1.6806  1.1273 -0.9027
  171MPD1    H2 2664   0.126   2.999  15.207  0.2556  0.6539  2.8185
  171MPD1    H3 2665   4.686   2.852  15.266 -0.8271 -0.0984  0.7008
  171MPD1     N 2666   0.235   2.512  15.378 -0.1294 -0.0787  0.9867
  171MPD1    H5 2667   0.160   2.452  15.412  1.3884 -1.0607  2.6383
  171MPD1    N1 2668   0.387   2.959  15.269  0.1172  0.0529 -0.2762
  171MPD1    H6 2669   0.381   3.031  15.198 -1.8852 -1.3523 -1.5469
  171MPD1    H7 2670   0.473   2.906  15.251  1.2349  2.1540 -1.1175
  172MPD1     C 2671   3.733   2.285   1.090 -0.2977 -0.2859 -0.0137
  172MPD1    C1 2672   3.740   2.213   0.972 -0.1909  0.2704  0.0018
  172MPD1    C2 2673   3.845   2.255   0.887 -0.3675  0.1264  0.2036
  172MPD1    C3 2674   3.918   2.370   0.912  0.2713  0.5631  0.2640
  172MPD1    C4 2675   3.893   2.444   1.030  0.3575 -0.1653 -0.0359
  172MPD1    C5 2676   3.811   2.394   1.120  0.5307  0.1257 -0.0312
  172MPD1     H 2677   3.864   2.204   0.794  3.5439  0.6914  0.7220
  172MPD1    H1 2678   3.957   2.526   1.062  1.6378 -0.7324 -1.1643
  172MPD1    H2 2679   3.664   2.267   1.172 -0.3668 -0.2341 -0.0598
  172MPD1    H3 2680   3.790   2.439   1.216  1.9060  0.4593  0.1126
  172MPD1     N 2681   4.016   2.398   0.817 -1.5648  0.1432 -0.2904
  172MPD1    H5 2682   4.007   2.338   0.736 -1.1747  1.4944 -1.3305
  172MPD1    N1 2683   3.686   2.085   0.965  0.5201  0.4490  0.6146
  172MPD1    H6 2684   3.594   2.081   1.007  0.6680 -0.5385  0.8441
  172MPD1    H7 2685   3.682   2.032   0.878 -1.5456  0.8858  0.4605
  173MPD1     C 2686   1.040   2.839  14.219 -0.2034 -0.4851  0.4872
  173MPD1    C1 2687   1.019   2.763  14.337 -0.0638 -0.1052 -1.1401
  173MPD1    C2 2688   1.003   2.629  14.314 -0.4369  0.0362 -0.3360
  173MPD1    C3 2689   0.991   2.571  14.186 -0.0730 -0.4162 -0.2627
  173MPD1    C4 2690   0.984   2.655  14.074 -0.8060  0.9631  0.5781
  173MPD1    C5 2691   1.014   2.785  14.095  0.0315  0.1545  0.4253
  173MPD1     H 2692   1.003   2.565  14.401  2.1017 -1.1813 -1.2368
  173MPD1    H1 2693   0.970   2.622  13.972 -0.4833  0.1698  0.7912
  173MPD1    H2 2694   1.064   2.944  14.230 -0.0024 -0.2940 -1.8156
  173MPD1    H3 2695   1.035   2.840  14.003 -1.0519 -0.9060 -0.4422
  173MPD1     N 2696   0.977   2.434  14.173  0.6906  0.4794  0.2758
  173MPD1    H5 2697   0.968   2.378  14.258  0.3376 -3.0095 -2.0400
  173MPD1    N1 2698   1.039   2.819  14.461  0.4740  0.3578 -0.2070
  173MPD1    H6 2699   1.028   2.919  14.474  2.4370  0.6360 -0.6895
  173MPD1    H7 2700   1.002   2.767  14.540 -1.8107  1.3341 -0.6360
  174MPD1     C 2701   1.610   1.811  13.780 -0.0061 -0.0707  0.3623
  174MPD1    C1 2702   1.589   1.784  13.915  0.2234  0.2452  0.1234
  174MPD1    C2 2703   1.500   1.862  13.984 -0.2372 -1.0673  0.1074
  174MPD1    C3 2704   1.412   1.941  13.913 -0.2045 -0.3932 -0.2585
  174MPD1    C4 2705   1.430   1.963  13.778 -0.7061 -0.3477  0.3062
  174MPD1    C5 2706   1.525   1.888  13.713  0.2425 -0.7310  0.1720
  174MPD1     H 2707   1.499   1.859  14.093  0.3103  0.8105  0.1704
  174MPD1    H1 2708   1.355   2.025  13.731  1.9194  0.8557 -2.2305
  174MPD1    H2 2709   1.689   1.772  13.717 -0.5562  1.1730 -1.1227
  174MPD1    H3 2710   1.527   1.895  13.605  0.7329 -3.5798  0.0104
  174MPD1     N 2711   1.295   1.985  13.970  0.2429 -0.7957 -0.0162
  174MPD1    H5 2712   1.230   2.044  13.919  1.3961  1.5915  1.3003
  174MPD1    N1 2713   1.689   1.706  13.972 -0.4039 -0.5828 -0.0434
  174MPD1    H6 2714   1.658   1.651  14.052  0.0192 -1.4733 -0.4916
  174MPD1    H7 2715   1.729   1.650  13.898  0.9599 -0.4731  0.6021
  175MPD1     C 2716   3.884   3.123  15.328 -1.0002 -0.5492 -0.2707
  175MPD1    C1 2717   3.820   3.226  15.394  0.1396 -0.2142  0.0566
  175MPD1    C2 2718   3.824   3.227  15.535 -0.1374 -0.0981 -0.4435
  175MPD1    C3 2719   3.881   3.120  15.607 -0.0969 -0.3464 -0.4717
  175MPD1    C4 2720   3.926   3.009  15.535 -0.4233  0.1411  0.0783
  175MPD1    C5 2721   3.928   3.011  15.395 -0.0831  0.2115 -0.0721
  175MPD1     H 2722   3.777   3.311  15.584  0.8326  0.2301 -0.0788
  175MPD1    H1 2723   3.950   2.921  15.593 -2.7860  0.8386  2.1217
  175MPD1    H2 2724   3.909   3.121  15.222  0.9466 -0.6376  0.1833
  175MPD1    H3 2725   3.981   2.938  15.334  0.8207  0.3400  0.5630
  175MPD1     N 2726   3.881   3.118  15.746  0.2847  0.2298  0.1736
  175MPD1    H5 2727   3.896   3.036  15.805 -2.6372 -0.4664 -0.0178
  175MPD1    N1 2728   3.788   3.344  15.312  0.0671  0.4518  0.6619
  175MPD1    H6 2729   3.713   3.402  15.351 -0.8720 -0.5151  0.2785
  175MPD1    H7 2730   3.755   3.312  15.222  0.1217 -1.7199  1.4066
  176MPD1     C 2731   0.774   0.176   0.267  0.1458  0.8755 -0.7844
  176MPD1    C1 2732   0.906   0.195   0.224  0.3780  0.6088  0.6717
  176MPD1    C2 2733   0.968   0.316   0.218  0.9011  0.3410  0.7397
  176MPD1    C3 2734   0.891   0.431   0.250  0.1518 -0.7717  0.1536
  176MPD1    C4 2735   0.758   0.415   0.292 -0.2645  0.3079  0.4365
  176MPD1    C5 2736   0.707   0.290   0.298 -0.6753  0.1159 -0.1323
  176MPD1     H 2737   1.076   0.317   0.208  0.6160  0.6593 -2.2127
  176MPD1    H1 2738   0.688   0.494   0.317 -1.1901  0.8190 -3.7366
  176MPD1    H2 2739   0.727   0.080   0.280 -1.9959  2.1157  0.8315
  176MPD1    H3 2740   0.601   0.280   0.321 -0.5329  1.7560  1.2193
  176MPD1     N 2741   0.948   0.561   0.236 -0.0388  0.2096 -0.6064
  176MPD1    H5 2742   1.043   0.585   0.211 -0.0748  2.6001  1.4369
  176MPD1    N1 2743   0.987   0.079   0.228 -0.1708 -0.0994  0.2231
  176MPD1    H6 2744   1.058   0.082   0.156  2.1652 -1.6215  2.4544
  176MPD1    H7 2745   0.926   4.735   0.231 -1.8623  1.1390 -0.7054
  177MPD1     C 2746   3.749   0.303  10.139 -0.1986  0.0143 -0.6228
  177MPD1    C1 2747   3.708   0.293  10.007  0.2251 -0.7348  0.0079
  177MPD1    C2 2748   3.611   0.200   9.977  0.2007  0.0670 -0.1845
  177MPD1    C3 2749   3.561   0.116  10.075 -1.0970 -0.5586 -0.3812
  177MPD1    C4 2750   3.612   0.121  10.205  0.0092  0.2016  0.1049
  177MPD1    C5 2751   3.708   0.213  10.233 -0.2676 -0.4428 -0.5489
  177MPD1     H 2752   3.570   0.194   9.877  1.2248 -0.5427 -0.5698
  177MPD1    H1 2753   3.579   0.046  10.276  1.7620  0.0813  0.7785
  177MPD1    H2 2754   3.840   0.360  10.157  0.0380 -0.0262 -1.6744
  177MPD1    H3 2755   3.758   0.205  10.329 -1.4686  0.3967  0.1454
  177MPD1     N 2756   3.454   0.029  10.040 -0.3278  0.2003 -0.6831
  177MPD1    H5 2757   3.444   0.023   9.939  1.6066 -1.1206 -0.8057
  177MPD1    N1 2758   3.744   0.379   9.904  0.4245  0.0686  0.1853
  177MPD1    H6 2759   3.761   0.333   9.815 -0.2105 -0.4974  0.3591
  177MPD1    H7 2760   3.829   0.432   9.920  0.6416  0.2842 -1.6875
  178MPD1     C 2761   1.371   0.990   0.121 -0.0023 -0.1987  0.2153
  178MPD1    C1 2762   1.380   1.100   0.041  0.0348  0.2747  0.5418
  178MPD1    C2 2763   1.466   1.093  17.678 -0.1079 -0.5486 -0.3024
  178MPD1    C3 2764   1.542   0.975  17.644  0.3281  0.2224  0.3605
  178MPD1    C4 2765   1.515   0.865  17.729  0.0509  0.0491  0.0254
  178MPD1    C5 2766   1.438   0.880   0.091 -0.7056  0.0603  0.2995
  178MPD1     H 2767   1.473   1.178  17.611  1.1339 -0.6830 -0.3399
  178MPD1    H1 2768   1.556   0.769  17.701 -1.3534 -0.9732  1.5068
  178MPD1    H2 2769   1.300   0.991   0.203 -0.1660  1.0042  0.0681
  178MPD1    H3 2770   1.425   0.796   0.159 -2.1572  1.4923  1.7997
  178MPD1     N 2771   1.636   0.951  17.536  0.3210 -0.3119  0.5750
  178MPD1    H5 2772   1.674   0.858  17.526 -1.6714 -0.8509 -2.1289
  178MPD1    N1 2773   1.279   1.202   0.066  0.1692  0.1892 -0.0417
  178MPD1    H6 2774   1.266   1.216   0.166  1.3573 -1.8154  0.3878
  178MPD1    H7 2775   1.302   1.296   0.034  0.4927 -0.2110 -0.9748
  179MPD1     C 2776   1.681   3.413  15.523  0.2122  0.7291 -0.1215
  179MPD1    C1 2777   1.567   3.453  15.455 -0.4083 -0.6050  0.1770
  179MPD1    C2 2778   1.445   3.428  15.518 -0.6286  0.1271  0.5577
  179MPD1    C3 2779   1.430   3.387  15.654  0.2550 -1.1836 -0.5536
  179MPD1    C4 2780   1.548   3.354  15.726  0.5023  0.2995 -0.2460
  179MPD1    C5 2781   1.662   3.371  15.656  0.3746 -0.2207 -0.1304
  179MPD1     H 2782   1.358   3.442  15.456 -0.4407  2.3952  0.7997
  179MPD1    H1 2783   1.547   3.318  15.828  1.3310 -0.6830 -0.5865
  179MPD1    H2 2784   1.776   3.400  15.473 -1.3749 -2.0333 -2.4072
  179MPD1    H3 2785   1.749   3.346  15.715 -0.5184 -1.3983  0.6818
  179MPD1     N 2786   1.308   3.388  15.724  0.3097 -0.3950  0.0250
  179MPD1    H5 2787   1.310   3.341  15.814 -0.1405  0.1862  0.3344
  179MPD1    N1 2788   1.575   3.470  15.313  0.5553  0.4988  0.0576
  179MPD1    H6 2789   1.655   3.532  15.305  1.2705 -0.4872 -0.4327
  179MPD1    H7 2790   1.501   3.516  15.260  0.1830  0.0144  0.1571
  180MPD1     C 2791   1.939   0.579  14.847 -0.0269  0.1817  1.0272
  180MPD1    C1 2792   1.977   0.666  14.750  0.3723 -0.2832  0.1655
  180MPD1    C2 2793   1.881   0.694  14.653  0.3532 -0.0388  0.1029
  180MPD1    C3 2794   1.759   0.624  14.645  0.6740 -0.0341  0.2529
  180MPD1    C4 2795   1.727   0.542  14.745  0.6731 -0.7466 -0.0127
  180MPD1    C5 2796   1.818   0.513  14.841  0.1805 -0.3721 -0.1389
  180MPD1     H 2797   1.910   0.760  14.572 -0.8052 -0.4816 -0.6786
  180MPD1    H1 2798   1.638   0.482  14.738  0.6446 -1.0820  3.2289
  180MPD1    H2 2799   2.002   0.555  14.931  1.7863 -0.0468 -0.3909
  180MPD1    H3 2800   1.791   0.445  14.921 -1.9281  0.6662  0.0368
  180MPD1     N 2801   1.656   0.641  14.546  0.0509  0.5024 -0.3036
  180MPD1    H5 2802   1.566   0.601  14.567  0.9782 -1.8296 -0.7341
  180MPD1    N1 2803   2.097   0.743  14.772 -0.2508 -0.7902 -0.8089
  180MPD1    H6 2804   2.166   0.685  14.820 -0.7169  0.6562  1.6010
  180MPD1    H7 2805   2.137   0.782  14.687 -2.5365  0.0993 -1.4652
  181MPD1     C 2806   2.110   1.592  10.539  0.2112 -0.0139  0.9900
  181MPD1    C1 2807   2.231   1.551  10.495 -0.3738  0.3126 -0.6994
  181MPD1    C2 2808   2.307   1.621  10.404  0.4286 -0.6506  0.5107
  181MPD1    C3 2809   2.244   1.739  10.353  0.4194  0.7161 -0.0619
  181MPD1    C4 2810   2.119   1.780  10.398 -0.7190 -0.0665  0.4803
  181MPD1    C5 2811   2.054   1.706  10.487  0.0061  0.1473  0.3094
  181MPD1     H 2812   2.408   1.596  10.374  0.8547  0.7205  0.7987
  181MPD1    H1 2813   2.062   1.866  10.365 -0.6518  0.1239  0.8472
  181MPD1    H2 2814   2.045   1.537  10.606  0.0097 -1.7730 -0.6569
  181MPD1    H3 2815   1.950   1.730  10.506  0.1090  1.4198 -0.7881
  181MPD1     N 2816   2.308   1.812  10.253 -0.1114  0.4230 -0.7925
  181MPD1    H5 2817   2.384   1.755  10.216  0.0093 -0.7933  1.3193
  181MPD1    N1 2818   2.294   1.451  10.570 -0.3813 -0.0206 -0.5492
  181MPD1    H6 2819   2.233   1.371  10.586 -0.0568  0.1495  1.5551
  181MPD1    H7 2820   2.379   1.417  10.527  0.2481  0.6836  0.1301
  182MPD1     C 2821   4.252   1.630   1.491  0.2851 -0.4209 -0.4055
  182MPD1    C1 2822   4.231   1.556   1.377 -0.5469  0.1049 -0.0920
  182MPD1    C2 2823   4.104   1.559   1.321  0.2264  0.3795  0.9736
  182MPD1    C3 2824   4.014   1.660   1.348 -0.1972 -0.0783 -0.2889
  182MPD1    C4 2825   4.046   1.752   1.444 -0.0470 -0.4907 -0.4646
  182MPD1    C5 2826   4.162   1.732   1.521  0.0055 -0.3805  0.4458
  182MPD1     H 2827   4.088   1.488   1.240  0.4728  0.7507  0.5937
  182MPD1    H1 2828   3.979   1.832   1.471 -1.3417 -1.9432  0.6414
  182MPD1    H2 2829   4.340   1.626   1.554  1.2375  1.3737 -1.6275
  182MPD1    H3 2830   4.175   1.791   1.612  0.7827 -0.4636  0.3895
  182MPD1     N 2831   3.886   1.672   1.282  0.7574  0.7636 -0.3420
  182MPD1    H5 2832   3.825   1.751   1.304  0.5556  0.6704 -0.5588
  182MPD1    N1 2833   4.307   1.442   1.360 -0.7878 -0.0670 -0.2561
  182MPD1    H6 2834   4.407   1.452   1.376 -1.0714  0.9608  0.8986
  182MPD1    H7 2835   4.309   1.411   1.263 -2.2880 -1.0032  0.0164
  183MPD1     C 2836   4.069   1.729   9.265  0.3356  0.4876  0.1623
  183MPD1    C1 2837   4.019   1.640   9.361  0.6008  0.0066 -0.0964
  183MPD1    C2 2838   3.888   1.671   9.412  0.5089 -0.3023  0.1751
  183MPD1    C3 2839   3.821   1.781   9.376 -0.4407  0.0682 -0.0657
  183MPD1    C4 2840   3.874   1.873   9.294  0.4080 -0.5958 -0.3958
  183MPD1    C5 2841   3.994   1.844   9.235 -0.4955 -0.3514  0.0835
  183MPD1     H 2842   3.842   1.606   9.486  0.6004  0.3997  0.8481
  183MPD1    H1 2843   3.817   1.959   9.263 -0.9911 -0.4768  2.5476
  183MPD1    H2 2844   4.157   1.711   9.205 -0.6413 -2.0942 -0.4599
  183MPD1    H3 2845   4.035   1.912   9.162 -0.9116  0.8863  0.9969
  183MPD1     N 2846   3.693   1.803   9.435  0.2394 -0.1784  0.6773
  183MPD1    H5 2847   3.652   1.728   9.490 -2.2720 -1.2763 -2.6997
  183MPD1    N1 2848   4.089   1.516   9.384  0.6149 -0.6568 -0.0588
  183MPD1    H6 2849   4.185   1.550   9.388  0.6608 -0.8206  0.2098
  183MPD1    H7 2850   4.071   1.484   9.479 -0.8985  1.7128  0.4747
  184MPD1     C 2851   2.199   4.203  10.006 -0.4808 -0.1247  0.6492
  184MPD1    C1 2852   2.263   4.320  10.051  0.2726  0.3139 -0.6540
  184MPD1    C2 2853   2.331   4.398   9.955 -0.0433 -0.3075  0.3572
  184MPD1    C3 2854   2.350   4.355   9.822 -0.0372  0.1038 -0.9246
  184MPD1    C4 2855   2.277   4.248   9.783 -0.7751 -0.1389  0.5385
  184MPD1    C5 2856   2.206   4.175   9.875 -0.7534  0.0405  0.6780
  184MPD1     H 2857   2.372   4.494   9.984 -0.3082 -0.6711  1.9569
  184MPD1    H1 2858   2.264   4.223   9.678  2.5630 -0.5247  0.2021
  184MPD1    H2 2859   2.152   4.131  10.072 -1.3448  1.2558  1.5547
  184MPD1    H3 2860   2.144   4.093   9.841 -1.1167  0.0564  1.3173
  184MPD1     N 2861   2.429   4.422   9.727  0.0500 -0.9532  0.1446
  184MPD1    H5 2862   2.442   4.371   9.640  2.5651 -0.1508  0.0359
  184MPD1    N1 2863   2.232   4.369  10.182  0.4508  0.4220 -0.5781
  184MPD1    H6 2864   2.230   4.297  10.254  2.5358 -0.3962 -1.3506
  184MPD1    H7 2865   2.287   4.450  10.208 -0.6487  1.2095 -0.7133
  185MPD1     C 2866   2.750   4.211   8.849 -0.0226 -0.6044  0.4678
  185MPD1    C1 2867   2.656   4.181   8.945 -0.3274 -0.6696  0.4283
  185MPD1    C2 2868   2.665   4.248   9.063 -1.1560 -0.7743  0.4355
  185MPD1    C3 2869   2.754   4.359   9.081 -0.1691  0.5674 -0.5506
  185MPD1    C4 2870   2.857   4.373   8.990 -0.2603  0.3241  0.6207
  185MPD1    C5 2871   2.853   4.296   8.876  0.6077 -0.2506  1.1012
  185MPD1     H 2872   2.587   4.232   9.137 -1.0735  1.0006  0.8894
  185MPD1    H1 2873   2.932   4.449   9.005 -0.1154 -0.0531  1.8001
  185MPD1    H2 2874   2.764   4.143   8.766  2.4358 -1.7239  1.7997
  185MPD1    H3 2875   2.925   4.306   8.796 -1.6181 -0.0685 -0.8787
  185MPD1     N 2876   2.757   4.437   9.204  0.4304 -0.2758 -0.5317
  185MPD1    H5 2877   2.836   4.498   9.220 -1.7883  2.2391  0.8464
  185MPD1    N1 2878   2.571   4.064   8.936  0.1039  0.1512 -0.1031
  185MPD1    H6 2879   2.486   4.070   8.991  0.6828 -1.2327  0.9261
  185MPD1    H7 2880   2.559   4.055   8.835 -0.5997  0.3625 -0.0338
  186MPD1     C 2881   1.499   3.694  15.813  0.3826  0.4629  0.2814
  186MPD1    C1 2882   1.615   3.689  15.891  0.4125 -0.4067  0.0867
  186MPD1    C2 2883   1.611   3.717  16.029  0.0169 -0.2867  0.3226
  186MPD1    C3 2884   1.486   3.738  16.087  0.2371  0.1011  0.0913
  186MPD1    C4 2885   1.375   3.733  16.007  0.6034  0.9060  0.5307
  186MPD1    C5 2886   1.381   3.707  15.874 -0.2701 -0.4587 -0.7811
  186MPD1     H 2887   1.703   3.735  16.083 -1.4031  2.2272  1.9203
  186MPD1    H1 2888   1.274   3.744  16.045  0.7018  1.6752  0.5626
  186MPD1    H2 2889   1.490   3.664  15.709 -1.8751  1.3795  0.1914
  186MPD1    H3 2890   1.288   3.697  15.818 -1.4491  0.0356  1.0794
  186MPD1     N 2891   1.481   3.777  16.227  0.4510  0.3267 -0.2220
  186MPD1    H5 2892   1.393   3.824  16.245  0.6161  1.1662 -1.5918
  186MPD1    N1 2893   1.733   3.683  15.820 -0.4332 -0.0949 -0.2518
  186MPD1    H6 2894   1.728   3.645  15.726  2.1012 -0.2374 -0.3176
  186MPD1    H7 2895   1.803   3.632  15.874  0.4104  0.9477 -0.3694
  187MPD1     C 2896   1.281   1.673   0.193  0.5279 -0.0615  0.3112
  187MPD1    C1 2897   1.221   1.548   0.187  0.1529  0.0387 -0.0646
  187MPD1    C2 2898   1.152   1.509   0.072 -0.2197  0.6569 -0.1791
  187MPD1    C3 2899   1.130   1.590  17.710  0.2122 -0.0262  0.3001
  187MPD1    C4 2900   1.188   1.710  17.718 -0.3698 -0.0391 -1.0512
  187MPD1    C5 2901   1.265   1.748   0.077  0.1761 -0.2923 -0.0157
  187MPD1     H 2902   1.116   1.407   0.069 -0.0949  0.6671 -1.7072
  187MPD1    H1 2903   1.172   1.784  17.640  0.7969  0.2911 -0.9746
  187MPD1    H2 2904   1.352   1.705   0.268 -0.4014 -1.6267  1.8390
  187MPD1    H3 2905   1.301   1.850   0.086 -0.6957 -0.2410  2.7520
  187MPD1     N 2906   1.048   1.556  17.603 -0.1599  0.2467  0.2997
  187MPD1    H5 2907   1.049   1.622  17.525  3.0346 -0.3614 -0.1778
  187MPD1    N1 2908   1.259   1.448   0.277  0.3334 -0.1061 -0.2529
  187MPD1    H6 2909   1.285   1.492   0.365 -0.3849  0.4019 -0.2945
  187MPD1    H7 2910   1.187   1.380   0.298  1.1514 -0.9704 -0.2920
  188MPD1     C 2911   4.538   1.183  10.366 -0.1587  0.0735 -0.5052
  188MPD1    C1 2912   4.618   1.097  10.437  0.1764 -0.0666 -0.2796
  188MPD1    C2 2913   4.643   0.974  10.389 -0.2170  0.1319 -0.3380
  188MPD1    C3 2914   4.583   0.935  10.269 -0.6378 -0.2232  0.0115
  188MPD1    C4 2915   4.493   1.019  10.203 -0.2069  0.2459 -0.2284
  188MPD1    C5 2916   4.472   1.144  10.253 -0.2235 -0.0421 -0.2589
  188MPD1     H 2917   4.693   0.903  10.453 -0.3802 -0.6011 -1.0275
  188MPD1    H1 2918   4.467   1.006  10.099 -0.1230 -1.9351  0.0221
  188MPD1    H2 2919   4.498   1.273  10.411 -2.4703  1.0975 -4.6458
  188MPD1    H3 2920   4.403   1.209  10.201  0.0186  0.3987 -0.0369
  188MPD1     N 2921   4.607   0.810  10.208 -0.2035 -0.0251 -0.2141
  188MPD1    H5 2922   4.562   0.800  10.117  1.0246 -0.4238 -0.7766
  188MPD1    N1 2923   4.657   1.135  10.567 -0.2357  0.0137 -0.1049
  188MPD1    H6 2924   4.579   1.150  10.630  2.3922 -0.9673  3.3567
  188MPD1    H7 2925   4.726   1.066  10.596  0.3109  0.7156  0.2751
  189MPD1     C 2926   3.200   2.654   0.388 -0.7189  0.6333  0.0152
  189MPD1    C1 2927   3.144   2.603   0.267 -0.1646 -0.1181  0.1493
  189MPD1    C2 2928   3.008   2.588   0.261 -0.1975 -0.7443  0.3145
  189MPD1    C3 2929   2.926   2.597   0.371  0.3292  0.0346  0.0889
  189MPD1    C4 2930   2.981   2.634   0.490  0.8610  0.1341 -0.1495
  189MPD1    C5 2931   3.119   2.662   0.499  0.9930  0.4267 -0.2945
  189MPD1     H 2932   2.967   2.561   0.164  0.1139 -1.5535  0.4063
  189MPD1    H1 2933   2.926   2.653   0.582  0.7750  0.7353 -0.3260
  189MPD1    H2 2934   3.298   2.699   0.384 -0.4654  0.0014 -0.9045
  189MPD1    H3 2935   3.158   2.710   0.588  0.9198  0.7570 -0.4394
  189MPD1     N 2936   2.788   2.581   0.344  0.2378  0.1494 -0.0260
  189MPD1    H5 2937   2.764   2.534   0.257  0.9484  2.5414 -1.5255
  189MPD1    N1 2938   3.221   2.600   0.149 -0.1910  0.7020  0.2719
  189MPD1    H6 2939   3.315   2.566   0.166 -0.5273 -0.3749  0.0336
  189MPD1    H7 2940   3.181   2.541   0.075  1.1119 -0.6946  0.6821
  190MPD1     C 2941   0.649   0.147  16.104  0.1838 -0.0985  0.2133
  190MPD1    C1 2942   0.711   0.146  16.227  0.4314 -0.1468 -0.0938
  190MPD1    C2 2943   0.843   0.101  16.240 -0.3259 -0.6114  0.5471
  190MPD1    C3 2944   0.926   0.087  16.132 -0.0556 -0.1444  0.4808
  190MPD1    C4 2945   0.871   0.112  16.006  0.0289  0.3252  0.1558
  190MPD1    C5 2946   0.736   0.140  16.000 -0.2510 -0.3057  0.1930
  190MPD1     H 2947   0.892   0.098  16.336 -1.2627  1.6868  1.0998
  190MPD1    H1 2948   0.928   0.117  15.914  1.8214 -0.3557  1.2164
  190MPD1    H2 2949   0.549   0.184  16.084 -0.0786 -1.3683 -0.7672
  190MPD1    H3 2950   0.696   0.161  15.901 -1.1855 -0.9724  0.4352
  190MPD1     N 2951   1.061   0.049  16.148  0.6884  0.0789  0.4582
  190MPD1    H5 2952   1.099   0.009  16.233 -0.5025  0.9582  1.4001
  190MPD1    N1 2953   0.638   0.158  16.345 -0.4506  0.0382  0.8553
  190MPD1    H6 2954   0.572   0.230  16.316  0.6415  1.0133  0.7816
  190MPD1    H7 2955   0.694   0.184  16.426 -0.2653  0.8581  0.4670
  191MPD1     C 2956   0.749   2.179  12.399  0.3749 -0.9359 -0.0265
  191MPD1    C1 2957   0.888   2.176  12.389  0.2851  0.0793 -0.0535
  191MPD1    C2 2958   0.938   2.210  12.264  0.1059  0.1381 -0.2037
  191MPD1    C3 2959   0.855   2.219  12.148 -0.6119 -0.9535 -0.0366
  191MPD1    C4 2960   0.714   2.212  12.170  0.6606 -0.3550  0.4736
  191MPD1    C5 2961   0.667   2.192  12.291  1.0424  0.2458 -0.1518
  191MPD1     H 2962   1.046   2.215  12.252 -0.1184  1.0085 -1.7634
  191MPD1    H1 2963   0.644   2.226  12.088 -0.6388 -0.1090  1.6265
  191MPD1    H2 2964   0.699   2.165  12.494 -0.0126  0.9277  0.0437
  191MPD1    H3 2965   0.560   2.189  12.307  1.0705  1.3160  0.2511
  191MPD1     N 2966   0.914   2.255  12.024 -0.2023  0.5184  0.7751
  191MPD1    H5 2967   1.014   2.266  12.026  0.0198 -1.4547  0.4539
  191MPD1    N1 2968   0.970   2.167  12.501  0.0021 -0.2830 -0.2674
  191MPD1    H6 2969   1.058   2.120  12.480  1.0068  1.1531  0.7645
  191MPD1    H7 2970   0.926   2.113  12.576  1.0087  0.0295  0.5510
  192MPD1     C 2971   0.906   1.872  11.088  0.1553 -0.3641  0.5815
  192MPD1    C1 2972   0.843   1.991  11.101  0.2703  0.6795 -0.6794
  192MPD1    C2 2973   0.888   2.093  11.186 -0.1887 -0.1193  0.6391
  192MPD1    C3 2974   0.985   2.061  11.275  0.5718  0.6464  0.2023
  192MPD1    C4 2975   1.065   1.946  11.256 -0.3451 -0.7116  0.0614
  192MPD1    C5 2976   1.020   1.849  11.162  0.2294 -0.3981  0.5272
  192MPD1     H 2977   0.828   2.182  11.195  0.5616  0.2191  2.2356
  192MPD1    H1 2978   1.147   1.926  11.324 -0.7626 -1.3910  0.3606
  192MPD1    H2 2979   0.867   1.801  11.016 -1.0968  1.1060 -0.1918
  192MPD1    H3 2980   1.073   1.754  11.164  0.6786 -0.1405  1.0213
  192MPD1     N 2981   1.025   2.144  11.381 -0.1962  0.1080 -0.3999
  192MPD1    H5 2982   1.111   2.122  11.429  0.0231 -0.1287 -0.8995
  192MPD1    N1 2983   0.728   2.012  11.027 -0.0713 -0.1584  0.3267
  192MPD1    H6 2984   0.723   2.109  10.997 -1.1371 -0.9307 -1.9351
  192MPD1    H7 2985   0.728   1.958  10.941  0.4121  0.9923 -0.4012
  193MPD1     C 2986   4.648   2.295  16.468 -0.1702 -0.2321  0.2559
  193MPD1    C1 2987   4.669   2.425  16.505 -0.8285  0.2041  0.3671
  193MPD1    C2 2988   0.063   2.466  16.534 -0.7684 -0.0488  0.3977
  193MPD1    C3 2989   0.170   2.376  16.528 -0.0918  0.5650  0.3201
  193MPD1    C4 2990   0.144   2.252  16.473  0.1433  0.0159 -0.2669
  193MPD1    C5 2991   0.012   2.203  16.453 -0.1283 -0.0771  0.5261
  193MPD1     H 2992   0.078   2.573  16.540  2.8566 -0.4851 -1.2868
  193MPD1    H1 2993   0.229   2.184  16.476  1.5345  1.7917  1.0560
  193MPD1    H2 2994   4.549   2.257  16.444  0.1578  0.3373 -2.0099
  193MPD1    H3 2995   4.727   2.100  16.428  0.7908  0.0882 -0.9150
  193MPD1     N 2996   0.306   2.412  16.567  0.2675  0.0133  0.2944
  193MPD1    H5 2997   0.386   2.354  16.543  0.2582  0.5111 -0.9641
  193MPD1    N1 2998   4.569   2.520  16.496  0.0190 -0.2838  0.4462
  193MPD1    H6 2999   4.483   2.468  16.506 -1.1141  1.5313  0.0313
  193MPD1    H7 3000   4.574   2.590  16.570 -2.0216 -0.4504  0.7218
  194MPD1     C 3001   3.357   0.524   0.194  0.3567  0.2901  0.0982
  194MPD1    C1 3002   3.265   0.450   0.125 -0.4031  0.2066  0.0748
  194MPD1    C2 3003   3.320   0.352   0.041 -0.8644  0.3545  0.0051
  194MPD1    C3 3004   3.460   0.321   0.046  0.4303  0.0848 -0.1358
  194MPD1    C4 3005   3.543   0.384   0.131 -0.4214 -0.0129  0.4051
  194MPD1    C5 3006   3.491   0.486   0.206  0.5834 -0.1922  0.3298
  194MPD1     H 3007   3.250   0.295  17.725  1.2440 -2.1495 -0.0626
  194MPD1    H1 3008   3.649   0.363   0.146  0.3999  2.5340 -1.9044
  194MPD1    H2 3009   3.328   0.615   0.244 -2.2364 -0.2893 -0.3867
  194MPD1    H3 3010   3.554   0.553   0.263 -1.6427  1.9979  0.2020
  194MPD1     N 3011   3.518   0.207  17.729 -0.3773  0.6029  0.4829
  194MPD1    H5 3012   3.617   0.191  17.743 -1.1391 -3.9550  0.6393
  194MPD1    N1 3013   3.133   0.502   0.107 -0.3370  0.6873  0.1070
  194MPD1    H6 3014   3.088   0.530   0.194  1.8103  3.6273  0.2531
  194MPD1    H7 3015   3.071   0.427   0.075  1.3145  0.2122 -1.9203
  195MPD1     C 3016   0.481   1.699   1.330  0.7822 -0.0037  0.2260
  195MPD1    C1 3017   0.369   1.622   1.333  0.7246 -0.2544  0.4134
  195MPD1    C2 3018   0.313   1.585   1.212 -0.1055 -0.6040  0.0937
  195MPD1    C3 3019   0.370   1.616   1.092 -0.1416  0.0722 -0.0914
  195MPD1    C4 3020   0.486   1.687   1.093 -0.0560  0.1649  0.0381
  195MPD1    C5 3021   0.542   1.728   1.213  1.1022 -0.3363  0.5964
  195MPD1     H 3022   0.227   1.520   1.221 -0.9957  0.5704  0.0212
  195MPD1    H1 3023   0.529   1.721   0.999 -0.1174  2.3299  0.7999
  195MPD1    H2 3024   0.530   1.726   1.423  2.2302 -1.0232 -0.2536
  195MPD1    H3 3025   0.640   1.775   1.220  0.8090  0.0180  2.2864
  195MPD1     N 3026   0.337   1.569   0.969 -0.3361  0.1939 -0.7875
  195MPD1    H5 3027   0.396   1.602   0.894  0.4551 -0.9912 -0.6983
  195MPD1    N1 3028   0.314   1.595   1.457 -0.1293 -0.2007  0.5422
  195MPD1    H6 3029   0.386   1.590   1.528  1.9094 -0.3012 -1.5546
  195MPD1    H7 3030   0.256   1.511   1.458 -2.0926  1.1329 -0.0810
  196MPD1     C 3031   4.558   1.876  17.597 -0.5058  0.4051 -0.5164
  196MPD1    C1 3032   4.456   1.781  17.618 -0.9764 -0.6109  0.2689
  196MPD1    C2 3033   4.426   1.743  17.742  0.4308 -0.2590  0.0673
  196MPD1    C3 3034   4.520   1.772   0.098 -0.4377  0.1213  0.2018
  196MPD1    C4 3035   4.621   1.866   0.080 -0.4921 -0.6273 -0.3222
  196MPD1    C5 3036   4.643   1.919  17.699  0.0527 -0.0089  0.6297
  196MPD1     H 3037   4.337   1.686   0.023 -1.0004  1.8213 -0.2897
  196MPD1    H1 3038   4.678   1.885   0.170 -3.3645 -1.0662  1.6054
  196MPD1    H2 3039   4.584   1.909  17.497 -2.4005  3.0924 -0.1260
  196MPD1    H3 3040   4.719   1.994  17.679  1.3611 -1.4070  0.3752
  196MPD1     N 3041   4.514   1.723   0.226 -0.0572  0.1863 -0.8933
  196MPD1    H5 3042   4.591   1.756   0.284 -2.0895 -0.4216  2.1729
  196MPD1    N1 3043   4.365   1.762  17.514 -0.1132  0.0699  0.6822
  196MPD1    H6 3044   4.330   1.666  17.519  0.3026 -0.0270  1.6264
  196MPD1    H7 3045   4.405   1.776  17.422  0.7831  0.6924  1.1721
  197MPD1     C 3046   3.444   3.195  17.452 -0.1234 -0.4018 -0.0217
  197MPD1    C1 3047   3.548   3.107  17.456 -0.5387 -0.0237  0.4540
  197MPD1    C2 3048   3.648   3.145  17.368 -0.5705 -0.4396  0.5061
  197MPD1    C3 3049   3.650   3.246  17.274 -0.8001 -0.0208 -0.1962
  197MPD1    C4 3050   3.540   3.322  17.276  0.7222 -0.4230  0.3424
  197MPD1    C5 3051   3.435   3.302  17.366 -0.3201 -0.2031  0.4185
  197MPD1     H 3052   3.742   3.093  17.381  0.5131  1.2079 -0.7872
  197MPD1    H1 3053   3.527   3.395  17.198 -1.4433 -1.2000 -0.0304
  197MPD1    H2 3054   3.360   3.174  17.517  0.1510  0.3147  0.5566
  197MPD1    H3 3055   3.350   3.369  17.365  0.9427  1.4022  1.2792
  197MPD1     N 3056   3.754   3.281  17.190 -0.3110 -0.1124  0.3211
  197MPD1    H5 3057   3.741   3.369  17.141  1.9467  1.2417  2.1285
  197MPD1    N1 3058   3.563   3.024  17.566  0.1073 -0.1579  0.4071
  197MPD1    H6 3059   3.622   2.943  17.552 -1.0021 -1.3190  2.3276
  197MPD1    H7 3060   3.476   2.991  17.607  1.9990 -2.4433  2.5692
  198MPD1     C 3061   0.588   1.173  15.127 -0.5844 -0.2080  0.1618
  198MPD1    C1 3062   0.609   1.145  15.264 -0.2515 -0.3427 -0.1710
  198MPD1    C2 3063   0.732   1.189  15.317 -0.0160  0.1927  0.2418
  198MPD1    C3 3064   0.817   1.268  15.242  0.0241 -0.3729 -0.1698
  198MPD1    C4 3065   0.807   1.270  15.107 -0.3161  0.1155  0.5997
  198MPD1    C5 3066   0.690   1.226  15.047  0.3845 -0.2079 -0.7628
  198MPD1     H 3067   0.753   1.167  15.421  2.3902 -1.9136 -0.6992
  198MPD1    H1 3068   0.893   1.293  15.046  0.4448 -1.8189  0.9397
  198MPD1    H2 3069   0.497   1.142  15.078 -1.1264  0.4930  0.7225
  198MPD1    H3 3070   0.681   1.224  14.939  0.3690  1.2052 -0.7824
  198MPD1     N 3071   0.936   1.317  15.307 -0.3964 -0.5683 -0.8514
  198MPD1    H5 3072   0.931   1.316  15.408 -1.3374  0.8461 -0.8948
  198MPD1    N1 3073   0.518   1.068  15.338 -0.2007 -0.2764 -0.4150
  198MPD1    H6 3074   0.512   1.086  15.438 -2.3173 -1.0801 -0.4091
  198MPD1    H7 3075   0.424   1.058  15.302 -0.8418  2.0059  0.6192
  199MPD1     C 3076   3.349   2.572   9.847  0.4623  0.2526  0.8842
  199MPD1    C1 3077   3.272   2.686   9.836  0.0343  0.0333 -0.7370
  199MPD1    C2 3078   3.137   2.673   9.838 -0.4699 -0.5095  0.2837
  199MPD1    C3 3079   3.073   2.550   9.844 -0.4058  0.0587  0.0811
  199MPD1    C4 3080   3.151   2.438   9.855  0.5841 -0.0213  0.4492
  199MPD1    C5 3081   3.288   2.449   9.851  0.0021 -0.0628 -0.0706
  199MPD1     H 3082   3.073   2.761   9.833  0.2628 -0.0244 -0.5268
  199MPD1    H1 3083   3.096   2.346   9.870 -0.3668  0.6504  1.0567
  199MPD1    H2 3084   3.457   2.583   9.837  0.4609 -0.0540  0.5328
  199MPD1    H3 3085   3.346   2.358   9.848 -3.7135 -2.3655 -2.0710
  199MPD1     N 3086   2.934   2.533   9.823  0.5020  0.2571 -0.1282
  199MPD1    H5 3087   2.894   2.441   9.839  0.7764 -0.0475 -1.1613
  199MPD1    N1 3088   3.338   2.809   9.830 -0.3908  0.3918  0.5323
  199MPD1    H6 3089   3.440   2.810   9.821 -0.1842 -3.4408  2.5709
  199MPD1    H7 3090   3.291   2.873   9.766  0.4456 -0.4594 -0.9330
  200MPD1     C 3091   2.148   2.281  15.282  0.1834  0.4339 -0.0356
  200MPD1    C1 3092   2.097   2.248  15.160 -0.0892 -0.5991 -0.4194
  200MPD1    C2 3093   2.140   2.324  15.049  0.6309  0.3229 -0.1825
  200MPD1    C3 3094   2.225   2.430  15.066  0.1883  0.4831 -0.5210
  200MPD1    C4 3095   2.270   2.462  15.195  0.2036 -0.3318 -0.4759
  200MPD1    C5 3096   2.226   2.394  15.306 -0.1353  0.2212 -0.1962
  200MPD1     H 3097   2.082   2.310  14.959  1.0575 -2.1058 -0.0730
  200MPD1    H1 3098   2.335   2.545  15.218 -1.4966  0.5766  1.0624
  200MPD1    H2 3099   2.120   2.222  15.369  0.2990  0.0899 -0.2281
  200MPD1    H3 3100   2.265   2.426  15.401  0.5332 -1.1922  0.0078
  200MPD1     N 3101   2.277   2.499  14.953 -0.1005  0.3846  0.3190
  200MPD1    H5 3102   2.237   2.465  14.866  2.0110 -0.8534 -0.1584
  200MPD1    N1 3103   2.011   2.134  15.137 -0.6784  0.0085  0.4356
  200MPD1    H6 3104   1.958   2.132  15.051 -0.1025 -1.8799  0.1204
  200MPD1    H7 3105   1.945   2.112  15.212  1.9194 -1.5286  2.2803
  201MPD1     C 3106   4.420   1.718  12.998  0.6953 -0.0816 -0.8279
  201MPD1    C1 3107   4.417   1.609  13.082  0.8658  0.2935 -0.4755
  201MPD1    C2 3108   4.481   1.495  13.038  0.3532 -0.3039 -0.5962
  201MPD1    C3 3109   4.537   1.485  12.916 -0.3964 -0.2418 -0.3699
  201MPD1    C4 3110   4.524   1.592  12.828 -0.0877  0.6500 -0.5484
  201MPD1    C5 3111   4.478   1.706  12.872  0.0626  0.0399  0.6659
  201MPD1     H 3112   4.504   1.421  13.113  1.5876  0.5488 -0.1185
  201MPD1    H1 3113   4.569   1.587  12.730 -1.9924  1.9751 -1.4726
  201MPD1    H2 3114   4.388   1.815  13.033  1.0974 -0.6978  1.3038
  201MPD1    H3 3115   4.494   1.790  12.806  0.5624 -1.2867 -0.8711
  201MPD1     N 3116   4.606   1.369  12.887 -0.0791  0.3365  0.4284
  201MPD1    H5 3117   4.608   1.295  12.957  2.4332  1.4182  1.4534
  201MPD1    N1 3118   4.364   1.618  13.213 -0.3487  0.0498  0.4284
  201MPD1    H6 3119   4.279   1.674  13.218 -0.5687 -0.1755 -0.7095
  201MPD1    H7 3120   4.337   1.525  13.247 -0.4825 -1.4617 -3.7510
  202MPD1     C 3121   3.806   0.463   9.144  0.5983 -0.0523  0.4407
  202MPD1    C1 3122   3.689   0.535   9.176  0.2849  0.1423 -0.5589
  202MPD1    C2 3123   3.699   0.619   9.283 -1.0139  0.1430 -0.3027
  202MPD1    C3 3124   3.804   0.604   9.369 -0.2724 -0.5933  0.4681
  202MPD1    C4 3125   3.906   0.517   9.347 -0.5226  0.1628 -0.1533
  202MPD1    C5 3126   3.913   0.452   9.229  0.2994 -0.3306  0.1978
  202MPD1     H 3127   3.614   0.678   9.316 -1.5825 -1.6420  1.5000
  202MPD1    H1 3128   3.989   0.501   9.416  0.8840  2.5830 -1.2932
  202MPD1    H2 3129   3.822   0.418   9.046 -1.8319 -1.1094  0.5414
  202MPD1    H3 3130   3.995   0.390   9.194  0.0469  0.0710 -1.1102
  202MPD1     N 3131   3.801   0.671   9.486  0.1394  0.3641  0.0679
  202MPD1    H5 3132   3.858   0.627   9.557 -0.9326  0.5310  1.0257
  202MPD1    N1 3133   3.602   0.575   9.071 -0.6794 -0.2893  0.3915
  202MPD1    H6 3134   3.513   0.614   9.103  0.4869  0.4299  2.7548
  202MPD1    H7 3135   3.578   0.497   9.012  0.3133 -0.3822  0.1099
  203MPD1     C 3136   3.847   1.844  12.946 -0.0202  0.6473 -0.3065
  203MPD1    C1 3137   3.727   1.901  12.907  0.6031  0.1175 -0.0746
  203MPD1    C2 3138   3.677   1.887  12.774  0.5506  0.1685 -0.0255
  203MPD1    C3 3139   3.729   1.788  12.686 -0.0901  0.4112  0.1779
  203MPD1    C4 3140   3.845   1.735  12.734  0.4090 -0.2460  0.0359
  203MPD1    C5 3141   3.906   1.758  12.853  0.2338  0.0704 -0.5655
  203MPD1     H 3142   3.587   1.941  12.745  0.0313 -0.8647 -0.3269
  203MPD1    H1 3143   3.884   1.653  12.675 -0.8438  0.2533 -1.5084
  203MPD1    H2 3144   3.901   1.857  13.039  1.2310  1.4229 -1.1285
  203MPD1    H3 3145   4.002   1.716  12.882 -0.3943 -0.6879  0.3952
  203MPD1     N 3146   3.675   1.767  12.559 -0.1293  0.3620 -0.4724
  203MPD1    H5 3147   3.585   1.813  12.554 -1.1181 -1.4003  1.1582
  203MPD1    N1 3148   3.676   2.006  12.984  0.3615  0.2771 -0.4892
  203MPD1    H6 3149   3.700   1.991  13.082  1.1845 -0.8738 -0.8717
  203MPD1    H7 3150   3.577   2.028  12.977  0.3135  0.2980  0.3012
  204MPD1     C 3151   3.096   3.215   0.491 -0.1569 -0.2208 -0.4523
  204MPD1    C1 3152   3.149   3.108   0.422  0.5510 -0.5920 -0.2989
  204MPD1    C2 3153   3.106   3.079   0.300 -0.2244  0.0330  0.2091
  204MPD1    C3 3154   3.020   3.158   0.230 -0.3635 -0.2854 -0.6090
  204MPD1    C4 3155   2.975   3.272   0.292  0.0776 -0.0626 -0.5280
  204MPD1    C5 3156   3.019   3.299   0.421 -0.6378  0.6893  0.0581
  204MPD1     H 3157   3.152   2.992   0.255 -1.7332 -0.8763  0.3907
  204MPD1    H1 3158   2.892   3.331   0.254 -1.0419  0.3097  2.5357
  204MPD1    H2 3159   3.122   3.229   0.595 -2.7301 -0.2855  0.1815
  204MPD1    H3 3160   2.984   3.385   0.476  0.5975  1.4929 -0.4151
  204MPD1     N 3161   2.984   3.106   0.099  0.4014  0.5879 -0.1598
  204MPD1    H5 3162   3.026   3.017   0.075  1.1989  1.3636 -1.5994
  204MPD1    N1 3163   3.218   3.016   0.502 -0.2204 -0.3363 -0.5242
  204MPD1    H6 3164   3.275   3.072   0.565 -0.1439  0.1309 -1.0054
  204MPD1    H7 3165   3.296   2.976   0.449  0.6978  1.7729 -0.7665
  205MPD1     C 3166   3.188   2.163   0.664  0.6913  0.2570 -0.6805
  205MPD1    C1 3167   3.255   2.056   0.611  0.6877 -0.1759  0.0032
  205MPD1    C2 3168   3.305   2.077   0.483  0.2767 -0.3885  0.7041
  205MPD1    C3 3169   3.327   2.202   0.428 -0.3331 -0.7084 -0.5097
  205MPD1    C4 3170   3.273   2.312   0.495 -0.1418 -0.4295  0.6869
  205MPD1    C5 3171   3.200   2.294   0.609 -0.5214  0.4971 -0.0136
  205MPD1     H 3172   3.325   1.986   0.429 -2.3232 -1.9031  2.2977
  205MPD1    H1 3173   3.277   2.413   0.455  0.0690 -1.4451 -1.8638
  205MPD1    H2 3174   3.121   2.144   0.747  2.1750 -0.8928  0.2461
  205MPD1    H3 3175   3.144   2.377   0.650 -0.1833  0.4987  0.4496
  205MPD1     N 3176   3.388   2.223   0.306  0.1308 -0.1882  0.4182
  205MPD1    H5 3177   3.388   2.321   0.278 -0.0490  0.7010  3.5798
  205MPD1    N1 3178   3.229   1.927   0.656 -0.5210  0.3703 -0.1727
  205MPD1    H6 3179   3.294   1.855   0.626 -1.2185 -0.5903  0.5807
  205MPD1    H7 3180   3.222   1.935   0.757  0.0203 -0.9795 -0.0374
  206MPD1     C 3181   2.901   0.927  16.662 -0.2233  0.3025 -0.3390
  206MPD1    C1 3182   2.875   1.024  16.566  0.1768 -0.6661  0.3673
  206MPD1    C2 3183   2.757   1.024  16.491 -0.1713  0.3167 -0.4229
  206MPD1    C3 3184   2.677   0.912  16.489  0.6476 -0.2004 -0.2934
  206MPD1    C4 3185   2.717   0.809  16.567  0.7119 -0.5628 -0.6246
  206MPD1    C5 3186   2.818   0.819  16.661 -0.7947 -0.5588  0.3562
  206MPD1     H 3187   2.727   1.102  16.423  0.4452  0.9478  0.0242
  206MPD1    H1 3188   2.660   0.718  16.579  2.2069 -1.4578 -0.2772
  206MPD1    H2 3189   2.977   0.932  16.739  0.7444 -1.9452 -1.1520
  206MPD1    H3 3190   2.833   0.741  16.735 -0.1704  2.3913  3.3331
  206MPD1     N 3191   2.564   0.912  16.407  0.1423 -0.5622 -0.7281
  206MPD1    H5 3192   2.538   0.997  16.357  0.0557  0.5462  1.2109
  206MPD1    N1 3193   2.955   1.137  16.572 -0.5199 -0.5822 -0.0893
  206MPD1    H6 3194   2.950   1.190  16.486 -1.5300  0.0390  0.3474
  206MPD1    H7 3195   3.048   1.102  16.596 -2.4029 -3.3173  3.3046
  207MPD1     C 3196   0.884   2.151   9.743  0.3027 -0.2404  0.2741
  207MPD1    C1 3197   0.853   2.021   9.777 -0.6581  0.5325 -0.2965
  207MPD1    C2 3198   0.843   1.996   9.911  0.3294 -0.6436  0.0928
  207MPD1    C3 3199   0.860   2.097  10.007 -0.0182 -0.2671  0.3764
  207MPD1    C4 3200   0.882   2.223   9.964  0.1192  0.0383 -0.2655
  207MPD1    C5 3201   0.886   2.256   9.832  0.4987 -0.2032 -0.6445
  207MPD1     H 3202   0.830   1.890   9.928  3.3629 -0.5803  2.8460
  207MPD1    H1 3203   0.890   2.303  10.037 -0.9293 -0.8433  0.7980
  207MPD1    H2 3204   0.904   2.180   9.641 -2.2212  0.3537 -0.0514
  207MPD1    H3 3205   0.917   2.351   9.789  0.6721  0.1828  0.3405
  207MPD1     N 3206   0.857   2.085  10.143  0.7424  0.1962  0.0407
  207MPD1    H5 3207   0.875   2.170  10.195  0.3631 -0.5232  1.3545
  207MPD1    N1 3208   0.859   1.913   9.688  0.0193 -0.3072 -0.4985
  207MPD1    H6 3209   0.839   1.943   9.593 -2.8885  1.0773  0.5662
  207MPD1    H7 3210   0.781   1.850   9.702  1.9357 -3.1473 -2.5717
  208MPD1     C 3211   2.700   0.726   0.231 -0.3903  0.2722  0.0524
  208MPD1    C1 3212   2.778   0.700   0.345  0.1258 -0.3812  0.5008
  208MPD1    C2 3213   2.912   0.739   0.331  0.6302 -0.0917 -0.1261
  208MPD1    C3 3214   2.960   0.819   0.232  0.8142  0.9317  0.6889
  208MPD1    C4 3215   2.873   0.855   0.132 -0.0961  0.3841  0.2187
  208MPD1    C5 3216   2.738   0.823   0.134 -0.0004 -0.0918  0.7203
  208MPD1     H 3217   2.976   0.715   0.416  1.1658 -1.6788 -0.9776
  208MPD1    H1 3218   2.900   0.929   0.058 -1.6426 -0.6369 -1.3659
  208MPD1    H2 3219   2.601   0.683   0.219  1.3839 -3.8566  0.1050
  208MPD1    H3 3220   2.670   0.867   0.061  2.2612  0.9348 -0.7589
  208MPD1     N 3221   3.086   0.869   0.240 -0.5749 -0.4594 -0.4274
  208MPD1    H5 3222   3.138   0.848   0.325  0.1024  0.9764 -0.4914
  208MPD1    N1 3223   2.735   0.604   0.437 -0.4455 -0.1441 -0.6134
  208MPD1    H6 3224   2.758   0.623   0.534 -0.0076 -2.4649 -0.2830
  208MPD1    H7 3225   2.635   0.623   0.440 -0.9554 -3.0393  0.2233
  209MPD1     C 3226   0.129   1.373  11.720 -0.1596 -0.1483  0.2297
  209MPD1    C1 3227   0.102   1.439  11.604  0.3612 -0.8180 -0.0011
  209MPD1    C2 3228   0.209   1.459  11.511 -0.2696 -0.9655  0.1486
  209MPD1    C3 3229   0.342   1.427  11.546 -0.4413 -0.3561  0.3389
  209MPD1    C4 3230   0.363   1.360  11.666  0.5128 -0.2085  0.1255
  209MPD1    C5 3231   0.255   1.325  11.750  0.2224 -0.1250  0.2912
  209MPD1     H 3232   0.195   1.508  11.415 -1.0361 -0.9779  0.2498
  209MPD1    H1 3233   0.455   1.311  11.696  0.9402  1.1307  1.0002
  209MPD1    H2 3234   0.053   1.351  11.794 -0.5861 -0.7846 -0.4004
  209MPD1    H3 3235   0.272   1.263  11.837  0.3902 -0.2140  0.1933
  209MPD1     N 3236   0.449   1.458  11.453 -0.6717  0.5389  0.1597
  209MPD1    H5 3237   0.421   1.499  11.365 -1.7586 -1.4940 -0.4603
  209MPD1    N1 3238   4.711   1.489  11.572  0.3155 -0.0081  0.1830
  209MPD1    H6 3239   4.670   1.532  11.655 -1.4582  0.0822 -0.7448
  209MPD1    H7 3240   4.707   1.549  11.490 -0.1285 -0.5649 -0.2008
  210MPD1     C 3241   1.202   1.989  11.782  0.5454  0.7354 -0.5158
  210MPD1    C1 3242   1.254   1.945  11.660 -0.5583 -0.0917  0.2709
  210MPD1    C2 3243   1.182   1.852  11.583  0.2873  0.0294 -0.2228
  210MPD1    C3 3244   1.061   1.799  11.626  0.3627 -0.4115 -0.5458
  210MPD1    C4 3245   1.014   1.841  11.748  0.2421 -0.4998 -0.4231
  210MPD1    C5 3246   1.086   1.932  11.822  0.1603 -0.2601 -0.1215
  210MPD1     H 3247   1.227   1.816  11.491 -0.4119  0.7169 -0.8380
  210MPD1    H1 3248   0.915   1.820  11.789  0.4573 -0.1347  0.2890
  210MPD1    H2 3249   1.259   2.052  11.849 -1.9035  0.7243  1.5898
  210MPD1    H3 3250   1.049   1.956  11.920 -0.5348  1.1729 -0.7458
  210MPD1     N 3251   0.969   1.724  11.551  0.5985  0.2640 -0.5316
  210MPD1    H5 3252   0.877   1.708  11.592  0.9692  0.0005  0.1916
  210MPD1    N1 3253   1.383   1.984  11.612 -0.0753  0.9291  0.2233
  210MPD1    H6 3254   1.387   1.987  11.510  0.8356  0.3676  0.2440
  210MPD1    H7 3255   1.416   2.072  11.652  0.3063  1.0034 -0.2515
  211MPD1     C 3256   3.716   2.292  15.740  0.0767  0.1037  0.6437
  211MPD1    C1 3257   3.713   2.300  15.876  0.7144  0.9073 -0.6292
  211MPD1    C2 3258   3.592   2.275  15.933 -0.0300 -0.5167 -0.6382
  211MPD1    C3 3259   3.481   2.224  15.868  0.4882 -0.0292  0.0422
  211MPD1    C4 3260   3.487   2.211  15.730 -0.3388  0.3119  0.1994
  211MPD1    C5 3261   3.607   2.247  15.670  0.1393  0.1817 -1.1716
  211MPD1     H 3262   3.590   2.289  16.040 -2.5811 -1.9815 -0.4973
  211MPD1    H1 3263   3.410   2.157  15.675  0.2406 -0.5502  0.2461
  211MPD1    H2 3264   3.798   2.328  15.679 -0.4243 -2.6459 -1.6967
  211MPD1    H3 3265   3.606   2.236  15.562 -0.9289 -0.1528 -1.1286
  211MPD1     N 3266   3.365   2.185  15.945  0.3613 -0.0179  0.4011
  211MPD1    H5 3267   3.376   2.176  16.046 -0.0985  0.0032  0.4546
  211MPD1    N1 3268   3.819   2.356  15.946 -0.0249  0.7771  0.6626
  211MPD1    H6 3269   3.908   2.333  15.902 -0.9710 -0.1368 -0.7790
  211MPD1    H7 3270   3.807   2.330  16.043  1.4181  1.4716  1.0284
  212MPD1     C 3271   2.512   4.216  16.551  0.5989  0.4058 -0.4074
  212MPD1    C1 3272   2.471   4.331  16.608 -0.0722 -0.1966 -0.1541
  212MPD1    C2 3273   2.381   4.322  16.718 -0.3028 -0.1238 -0.1539
  212MPD1    C3 3274   2.352   4.206  16.781  0.0615  0.5368  0.0073
  212MPD1    C4 3275   2.398   4.086  16.730  0.8477  0.3426 -1.2085
  212MPD1    C5 3276   2.471   4.097  16.611 -0.5277  0.5805 -0.1315
  212MPD1     H 3277   2.322   4.405  16.753 -0.2223 -0.1300 -0.0016
  212MPD1    H1 3278   2.378   3.989  16.773  1.6832  1.2827  1.3251
  212MPD1    H2 3279   2.585   4.211  16.471  0.2316 -1.0633 -0.6479
  212MPD1    H3 3280   2.505   4.003  16.570  1.5406  1.0659  0.4472
  212MPD1     N 3281   2.254   4.198  16.884 -0.7249  0.7738 -0.6100
  212MPD1    H5 3282   2.235   4.105  16.921  3.1647  0.7617  1.3696
  212MPD1    N1 3283   2.484   4.453  16.544  0.0258  0.1579 -0.1665
  212MPD1    H6 3284   2.460   4.531  16.605  0.5252  1.3668 -1.5205
  212MPD1    H7 3285   2.583   4.460  16.519  0.5161  1.8655  2.2519
  213MPD1     C 3286   1.527   1.124  15.343  0.3513 -0.2378  0.2274
  213MPD1    C1 3287   1.532   1.073  15.209 -1.1445  0.6755  0.2829
  213MPD1    C2 3288   1.410   1.043  15.153 -0.1530 -1.1450  0.0124
  213MPD1    C3 3289   1.298   1.038  15.229  0.4447  0.1773  0.7034
  213MPD1    C4 3290   1.299   1.052  15.365  0.6132 -0.2860 -0.4476
  213MPD1    C5 3291   1.422   1.090  15.423  0.3659  0.6771  0.0431
  213MPD1     H 3292   1.405   1.016  15.049 -0.0791  0.5006 -0.4108
  213MPD1    H1 3293   1.209   1.070  15.422 -0.2764 -0.6159 -1.7318
  213MPD1    H2 3294   1.614   1.158  15.398 -0.1675 -1.6411  1.9158
  213MPD1    H3 3295   1.437   1.111  15.528 -1.1560  1.0983  0.1773
  213MPD1     N 3296   1.183   1.001  15.152  0.2024 -0.2068  0.3033
  213MPD1    H5 3297   1.187   1.008  15.050  1.7886  1.0696  0.4559
  213MPD1    N1 3298   1.635   1.116  15.123 -0.1198  0.4568 -0.1693
  213MPD1    H6 3299   1.728   1.119  15.165  0.3193  0.5640 -1.1595
  213MPD1    H7 3300   1.639   1.059  15.039 -0.4652  1.4636 -0.8673
  214MPD1     C 3301   0.347   0.496  15.414  0.3808  0.5617  0.0410
  214MPD1    C1 3302   0.398   0.475  15.289 -0.1793  0.4984 -0.2252
  214MPD1    C2 3303   0.478   0.569  15.228  0.3675  0.2148 -0.6330
  214MPD1    C3 3304   0.517   0.683  15.295  0.5598 -0.0756  0.3124
  214MPD1    C4 3305   0.474   0.707  15.423  0.3179  0.1911  0.5201
  214MPD1    C5 3306   0.382   0.615  15.472 -0.1649  0.4123 -0.5778
  214MPD1     H 3307   0.506   0.542  15.127  2.7238  2.1712 -0.4894
  214MPD1    H1 3308   0.506   0.793  15.482  0.8035  0.5318 -0.2387
  214MPD1    H2 3309   0.282   0.424  15.464 -0.2907 -0.7823 -2.7885
  214MPD1    H3 3310   0.336   0.632  15.568 -1.1147 -2.9233 -0.4451
  214MPD1     N 3311   0.601   0.781  15.235  0.7432  0.3798  0.3145
  214MPD1    H5 3312   0.635   0.859  15.292 -1.0090  2.9147 -2.1481
  214MPD1    N1 3313   0.359   0.364  15.213  0.5390  0.2781  0.4518
  214MPD1    H6 3314   0.432   0.340  15.145 -1.6172  0.9801 -2.1006
  214MPD1    H7 3315   0.352   0.283  15.273 -1.7485 -0.1627 -0.4051
  215MPD1     C 3316   4.344   1.595  10.920 -0.8179  0.1307 -1.3453
  215MPD1    C1 3317   4.357   1.663  11.040  0.0021  0.0205  0.2073
  215MPD1    C2 3318   4.462   1.753  11.042  0.4827  0.1171  0.2636
  215MPD1    C3 3319   4.544   1.771  10.940  0.1674 -0.3634  1.0084
  215MPD1    C4 3320   4.520   1.717  10.816 -0.1951  0.4478 -0.0034
  215MPD1    C5 3321   4.414   1.630  10.810  0.1674  0.0693  0.9381
  215MPD1     H 3322   4.485   1.805  11.135  2.2894 -1.0363  0.4611
  215MPD1    H1 3323   4.578   1.732  10.726 -0.4916  2.0586  0.0600
  215MPD1    H2 3324   4.258   1.530  10.907 -0.8408 -0.5274  1.9771
  215MPD1    H3 3325   4.383   1.589  10.715  0.3772 -0.5495  1.1338
  215MPD1     N 3326   4.651   1.854  10.966 -0.1915 -0.7904  0.3243
  215MPD1    H5 3327   4.670   1.868  11.065 -0.7757 -3.1090  0.7547
  215MPD1    N1 3328   4.286   1.631  11.158 -0.0431  0.3043 -1.1086
  215MPD1    H6 3329   4.277   1.718  11.210 -3.7708 -0.5994 -0.2325
  215MPD1    H7 3330   4.197   1.586  11.137  0.2980 -0.7044 -0.3249
  216MPD1     C 3331   2.174   4.052  17.729  0.3582 -0.5663 -1.0122
  216MPD1    C1 3332   2.307   4.067  17.689 -0.3355  0.3736  0.3653
  216MPD1    C2 3333   2.397   4.014   0.030 -0.1066 -0.3022 -0.6197
  216MPD1    C3 3334   2.367   3.951   0.146  0.4038 -0.5506 -0.1839
  216MPD1    C4 3335   2.235   3.940   0.186  0.7699 -0.0982  0.2127
  216MPD1    C5 3336   2.139   3.988   0.099  0.2709 -0.8243  0.6994
  216MPD1     H 3337   2.503   4.030   0.012  0.0567 -1.6901 -0.9345
  216MPD1    H1 3338   2.199   3.896   0.278  0.8965  0.5312  0.5654
  216MPD1    H2 3339   2.111   4.114  17.667 -0.9177  1.0860  1.9530
  216MPD1    H3 3340   2.034   3.979   0.123 -0.2352  0.6444 -0.9289
  216MPD1     N 3341   2.471   3.889   0.220 -0.5459  0.1772 -0.3594
  216MPD1    H5 3342   2.567   3.907   0.193 -0.9704  0.9995 -1.3060
  216MPD1    N1 3343   2.353   4.151  17.582  0.0990  0.2246  0.2028
  216MPD1    H6 3344   2.448   4.126  17.555  0.2649  0.9394  0.1234
  216MPD1    H7 3345   2.296   4.154  17.497 -1.2405 -4.7015  0.9474
  217MPD1     C 3346   2.422   4.165   8.534 -0.5393  0.3733 -0.2569
  217MPD1    C1 3347   2.536   4.215   8.487  0.0963  0.4026 -0.0154
  217MPD1    C2 3348   2.574   4.327   8.558  0.0642 -0.1348 -0.1621
  217MPD1    C3 3349   2.515   4.372   8.677  0.1161 -0.4670  0.3121
  217MPD1    C4 3350   2.407   4.304   8.734 -0.0691 -0.2569 -0.2870
  217MPD1    C5 3351   2.361   4.197   8.656  0.2814  0.2111 -0.0392
  217MPD1     H 3352   2.659   4.374   8.510 -0.2705  1.0091  0.3389
  217MPD1    H1 3353   2.365   4.325   8.832 -0.2335  0.4068 -0.4938
  217MPD1    H2 3354   2.363   4.091   8.481  1.0576 -0.5079 -0.8022
  217MPD1    H3 3355   2.272   4.142   8.684 -0.2485 -0.3696 -2.8290
  217MPD1     N 3356   2.559   4.486   8.748 -0.0075 -0.2448  0.1340
  217MPD1    H5 3357   2.512   4.517   8.832  2.5010  1.3603  0.9450
  217MPD1    N1 3358   2.583   4.184   8.362  0.0015 -0.1112  0.4996
  217MPD1    H6 3359   2.681   4.212   8.352 -0.4343  1.6729  1.1892
  217MPD1    H7 3360   2.565   4.091   8.327  2.6870 -0.2685 -0.4366
  218MPD1     C 3361   4.702   2.262  12.872 -0.0712 -0.4664  0.1454
  218MPD1    C1 3362   4.684   2.134  12.810 -0.8780 -0.0954 -0.6708
  218MPD1    C2 3363   0.003   2.127  12.685 -0.2112  0.4712  0.2781
  218MPD1    C3 3364   0.076   2.227  12.622 -0.1187  0.1064 -0.3856
  218MPD1    C4 3365   0.078   2.352  12.686 -0.0536  0.2919 -0.0614
  218MPD1    C5 3366   0.024   2.367  12.809 -0.8058 -0.3318  0.0095
  218MPD1     H 3367   0.000   2.038  12.624  0.9889  1.0595 -0.6272
  218MPD1    H1 3368   0.127   2.435  12.636 -1.6892  1.4874  0.3315
  218MPD1    H2 3369   4.668   2.281  12.973  0.4284 -2.9049  0.7742
  218MPD1    H3 3370   0.031   2.454  12.874  0.3887  0.0812 -0.6685
  218MPD1     N 3371   0.135   2.201  12.498 -0.5042 -0.0717 -0.3505
  218MPD1    H5 3372   0.126   2.106  12.466 -2.4037 -0.1737  0.4752
  218MPD1    N1 3373   4.619   2.025  12.873  0.2535 -0.0965 -0.0252
  218MPD1    H6 3374   4.524   2.023  12.837  1.2775 -2.2837 -2.5928
  218MPD1    H7 3375   4.607   2.053  12.970  1.1905  2.5090 -0.6436
  219MPD1     C 3376   0.507   2.425  11.483 -0.1945  0.9770 -0.0106
  219MPD1    C1 3377   0.493   2.513  11.593  1.0763 -0.3558 -0.2219
  219MPD1    C2 3378   0.441   2.457  11.709  0.1519 -0.1509 -0.3987
  219MPD1    C3 3379   0.411   2.322  11.720 -0.5110  0.5169  0.2797
  219MPD1    C4 3380   0.429   2.234  11.612  0.4199  0.5626 -0.2633
  219MPD1    C5 3381   0.479   2.289  11.494  0.1962  0.3031 -0.3593
  219MPD1     H 3382   0.434   2.517  11.799 -0.9135  0.2631 -0.7587
  219MPD1    H1 3383   0.404   2.129  11.608  3.2445 -0.2132  2.0097
  219MPD1    H2 3384   0.531   2.467  11.387 -0.8334  1.2178 -0.0666
  219MPD1    H3 3385   0.493   2.228  11.405  1.0828 -0.4920  0.3350
  219MPD1     N 3386   0.366   2.257  11.836  0.0066  0.2111  0.1560
  219MPD1    H5 3387   0.340   2.159  11.828  1.2944 -0.0045 -1.2598
  219MPD1    N1 3388   0.516   2.654  11.580  0.6145 -0.4344 -0.1554
  219MPD1    H6 3389   0.589   2.674  11.513 -1.5326  0.3258 -2.2672
  219MPD1    H7 3390   0.540   2.700  11.668 -0.7420 -0.6611  0.3313
  220MPD1     C 3391   0.912   1.347   9.788  0.5575  0.6501 -0.8016
  220MPD1    C1 3392   0.954   1.477   9.824  0.2774  0.1482 -0.0355
  220MPD1    C2 3393   0.853   1.560   9.862  0.0734  0.2754 -0.2712
  220MPD1    C3 3394   0.724   1.521   9.880 -0.0180  0.9556 -0.0048
  220MPD1    C4 3395   0.693   1.388   9.858 -0.3708  0.2350 -0.4433
  220MPD1    C5 3396   0.791   1.304   9.811 -0.4288 -0.2073 -0.0338
  220MPD1     H 3397   0.882   1.664   9.873 -0.2670  0.1551  1.7667
  220MPD1    H1 3398   0.595   1.341   9.865 -0.5082  0.7309  1.1989
  220MPD1    H2 3399   0.991   1.284   9.748  0.8402  0.4099  0.1129
  220MPD1    H3 3400   0.763   1.206   9.774  0.7282 -0.3875 -0.4163
  220MPD1     N 3401   0.625   1.627   9.908 -0.3757  0.0886 -0.8038
  220MPD1    H5 3402   0.658   1.722   9.919  0.0180 -0.2110  0.6336
  220MPD1    N1 3403   1.085   1.512   9.810  0.7276  0.4333 -0.4959
  220MPD1    H6 3404   1.119   1.587   9.870  1.7212  0.4751 -1.1025
  220MPD1    H7 3405   1.153   1.437   9.808  0.8658  0.5403  0.1551
  221MPD1     C 3406   2.409   2.202  16.504 -1.1036  0.6223  0.5183
  221MPD1    C1 3407   2.462   2.166  16.388 -0.1277 -0.3115  0.1384
  221MPD1    C2 3408   2.576   2.092  16.392  0.2179 -0.0350 -0.1168
  221MPD1    C3 3409   2.642   2.058  16.512  0.9066 -0.1559 -0.2979
  221MPD1    C4 3410   2.589   2.103  16.630 -0.1659 -1.0933 -0.0267
  221MPD1    C5 3411   2.469   2.176  16.623  0.4138  0.5992  0.0810
  221MPD1     H 3412   2.608   2.041  16.301 -1.5174 -2.7747  0.8204
  221MPD1    H1 3413   2.634   2.082  16.726 -1.1661 -3.1499 -0.0213
  221MPD1    H2 3414   2.313   2.253  16.505 -1.1182  0.5940  0.8779
  221MPD1    H3 3415   2.418   2.214  16.710  2.4847  0.5196  1.3302
  221MPD1     N 3416   2.758   1.971  16.516 -0.1116  0.0550  0.3846
  221MPD1    H5 3417   2.819   1.975  16.597 -1.0584 -0.3166  1.1227
  221MPD1    N1 3418   2.390   2.191  16.269 -0.7556 -0.3339 -0.3122
  221MPD1    H6 3419   2.454   2.178  16.191  0.6174 -2.7089  1.2171
  221MPD1    H7 3420   2.351   2.285  16.268 -1.4981 -0.6343  0.7347
  222MPD1     C 3421   2.180   0.215  16.899  0.0042  0.5879  0.0005
  222MPD1    C1 3422   2.269   0.302  16.837  0.4770  0.0969 -0.0852
  222MPD1    C2 3423   2.313   0.413  16.913  0.5285 -0.2187  0.7544
  222MPD1    C3 3424   2.259   0.440  17.034 -0.1584 -0.1740 -0.0358
  222MPD1    C4 3425   2.170   0.358  17.097 -0.9120  0.5776 -0.3839
  222MPD1    C5 3426   2.138   0.246  17.026 -0.1896 -0.6129 -0.2501
  222MPD1     H 3427   2.400   0.466  16.874  0.1420  0.7401  1.2047
  222MPD1    H1 3428   2.138   0.376  17.199  2.2616 -2.3303  1.1259
  222MPD1    H2 3429   2.154   0.118  16.858  2.8995  0.2676 -1.0469
  222MPD1    H3 3430   2.065   0.178  17.069 -0.1570 -0.6705 -0.2859
  222MPD1     N 3431   2.292   0.558  17.111 -0.1485 -0.0628  0.0785
  222MPD1    H5 3432   2.256   0.565  17.205 -1.0378  0.6539 -0.3170
  222MPD1    N1 3433   2.324   0.264  16.715  0.2397 -0.2887  0.1611
  222MPD1    H6 3434   2.257   0.214  16.656 -0.9716  0.5974  0.7949
  222MPD1    H7 3435   2.361   0.347  16.668 -0.6195  0.9449  1.6912
  223MPD1     C 3436   1.816   0.720   0.032  0.4925  0.7427 -0.0632
  223MPD1    C1 3437   1.849   0.614  17.699 -0.2679  0.4428 -0.1472
  223MPD1    C2 3438   1.950   0.632  17.599  0.4565 -0.3986 -0.0553
  223MPD1    C3 3439   2.020   0.748  17.594 -0.2900 -0.3824 -0.1475
  223MPD1    C4 3440   1.984   0.851  17.669  0.0579  0.1996 -0.4104
  223MPD1    C5 3441   1.878   0.843   0.014  0.2720 -0.5109  0.3948
  223MPD1     H 3442   1.961   0.564  17.515  1.4726  0.3343 -0.5135
  223MPD1    H1 3443   2.031   0.948  17.672 -0.9110  0.5945  1.9456
  223MPD1    H2 3444   1.741   0.708   0.110 -0.3126  1.2060 -0.7701
  223MPD1    H3 3445   1.856   0.922   0.085 -2.1907 -0.8523  0.0206
  223MPD1     N 3446   2.123   0.760  17.492 -0.7016 -0.4765  0.0995
  223MPD1    H5 3447   2.153   0.673  17.450 -0.0258  1.0614 -2.6176
  223MPD1    N1 3448   1.763   0.503  17.696 -0.4628  0.2011 -0.0404
  223MPD1    H6 3449   1.810   0.423  17.655  2.5627  0.4610  2.8679
  223MPD1    H7 3450   1.735   0.484   0.048 -3.6591  2.1818 -0.5585
  224MPD1     C 3451   3.510   2.041   9.003 -0.1642  0.3336  0.6279
  224MPD1    C1 3452   3.581   1.930   9.035 -0.2635  0.6232  1.1279
  224MPD1    C2 3453   3.510   1.826   9.100  0.2084 -0.1473  0.3179
  224MPD1    C3 3454   3.377   1.850   9.144 -0.4153 -0.6959 -0.3287
  224MPD1    C4 3455   3.314   1.973   9.115  0.8963  0.2408  0.0138
  224MPD1    C5 3456   3.380   2.070   9.044  0.3152 -0.7144 -1.1729
  224MPD1     H 3457   3.558   1.731   9.121 -0.9368 -1.0882 -1.3390
  224MPD1    H1 3458   3.207   1.981   9.130  0.5532 -2.3666 -1.0840
  224MPD1    H2 3459   3.553   2.132   8.963 -0.6101  0.5520  0.6364
  224MPD1    H3 3460   3.331   2.162   9.016 -0.8068 -0.5043  1.4749
  224MPD1     N 3461   3.289   1.755   9.201  0.6207  0.4371 -0.3325
  224MPD1    H5 3462   3.192   1.781   9.209 -0.5637 -3.8821 -0.6448
  224MPD1    N1 3463   3.695   1.905   8.960  0.0091 -0.1138  0.0719
  224MPD1    H6 3464   3.734   1.817   8.995  0.0680  0.0548  0.4282
  224MPD1    H7 3465   3.764   1.978   8.958 -1.1602  0.9881 -0.0514
  225MPD1     C 3466   4.698   3.310  12.394  0.7098  0.2479 -0.0790
  225MPD1    C1 3467   4.693   3.170  12.407 -0.5219 -0.0350  0.4611
  225MPD1    C2 3468   4.687   3.092  12.290  0.3475  0.2587 -1.0461
  225MPD1    C3 3469   4.694   3.153  12.167 -0.7209 -0.6689 -0.6108
  225MPD1    C4 3470   4.711   3.290  12.159 -0.3407  0.2512  0.4727
  225MPD1    C5 3471   4.698   3.372  12.267  0.6696 -0.5909  0.7692
  225MPD1     H 3472   4.673   2.984  12.288  2.2030 -0.0082  0.9850
  225MPD1    H1 3473   4.707   3.346  12.066 -1.4710 -1.1500 -0.3247
  225MPD1    H2 3474   4.683   3.380  12.475 -1.1987 -0.8422  0.5180
  225MPD1    H3 3475   4.700   3.479  12.251  2.8844 -0.7490 -0.0191
  225MPD1     N 3476   4.679   3.078  12.039  0.0599  0.2097  0.0394
  225MPD1    H5 3477   4.707   3.125  11.953  0.9269  0.2813  0.3675
  225MPD1    N1 3478   4.671   3.113  12.536  0.6919 -0.6063 -0.7292
  225MPD1    H6 3479   4.725   3.155  12.611 -0.8303  0.3630 -0.1738
  225MPD1    H7 3480   4.701   3.015  12.539 -0.5927 -0.9929 -0.3780
  226MPD1     C 3481   1.940   2.918   9.328 -0.5754  0.2715  0.3135
  226MPD1    C1 3482   1.981   2.785   9.345 -0.5450 -0.0947 -0.1191
  226MPD1    C2 3483   2.099   2.760   9.406 -0.9083  0.4969  0.1013
  226MPD1    C3 3484   2.190   2.856   9.437  0.4726  0.5022  0.3228
  226MPD1    C4 3485   2.152   2.991   9.418 -0.3953  0.2575 -0.4600
  226MPD1    C5 3486   2.025   3.016   9.370 -0.3110 -0.3907  0.1221
  226MPD1     H 3487   2.115   2.663   9.451  0.0650  0.5956 -0.0286
  226MPD1    H1 3488   2.214   3.071   9.456  0.4890  0.8101 -3.0330
  226MPD1    H2 3489   1.839   2.945   9.302  0.2182  1.4349 -1.5952
  226MPD1    H3 3490   1.991   3.119   9.368  2.3543  0.4772 -0.1340
  226MPD1     N 3491   2.317   2.828   9.480 -0.5748  0.0586 -0.4746
  226MPD1    H5 3492   2.332   2.727   9.475 -0.7022 -0.0621  1.8952
  226MPD1    N1 3493   1.882   2.684   9.330  0.2914  0.1620 -0.5181
  226MPD1    H6 3494   1.811   2.703   9.260 -1.1876 -0.4977  0.7899
  226MPD1    H7 3495   1.916   2.589   9.315  0.2578  0.1552 -0.5506
  227MPD1     C 3496   3.415   2.945   9.520  0.3560  0.1143  0.8495
  227MPD1    C1 3497   3.385   2.813   9.517 -0.0263 -0.1880  0.3155
  227MPD1    C2 3498   3.254   2.782   9.495  0.0546  0.7880 -0.3746
  227MPD1    C3 3499   3.148   2.880   9.507 -0.2471  0.2864  0.4998
  227MPD1    C4 3500   3.182   3.009   9.529 -0.2018 -0.7355 -0.0650
  227MPD1    C5 3501   3.319   3.041   9.540  0.3929 -0.3186  0.0237
  227MPD1     H 3502   3.239   2.675   9.502  0.8513  0.6764 -0.3772
  227MPD1    H1 3503   3.110   3.086   9.552 -0.5610 -0.5144 -1.9252
  227MPD1    H2 3504   3.519   2.974   9.534 -0.4422  3.0798  0.7009
  227MPD1    H3 3505   3.348   3.144   9.560  1.1767 -0.7618  1.1880
  227MPD1     N 3506   3.019   2.828   9.510 -0.0319  0.4058 -0.2696
  227MPD1    H5 3507   3.006   2.727   9.516  0.5821  0.4511  1.6879
  227MPD1    N1 3508   3.482   2.714   9.509 -0.0567 -0.5094 -0.2249
  227MPD1    H6 3509   3.445   2.623   9.535 -0.2185 -0.2031  0.5946
  227MPD1    H7 3510   3.572   2.726   9.554  0.1892 -0.6464 -0.6778
  228MPD1     C 3511   1.324   0.971  13.004 -0.5670  0.1447 -0.5508
  228MPD1    C1 3512   1.195   1.017  12.987 -0.0136  0.3130  0.2913
  228MPD1    C2 3513   1.093   0.922  12.977 -0.1849  0.3215  0.6294
  228MPD1    C3 3514   1.106   0.790  13.010  0.0401  0.4555  0.1942
  228MPD1    C4 3515   1.232   0.754  13.046  0.1653  0.3861  0.3143
  228MPD1    C5 3516   1.342   0.840  13.033 -1.2989  0.5001  0.1215
  228MPD1     H 3517   0.991   0.955  12.960 -0.0846  1.2134  1.7604
  228MPD1    H1 3518   1.264   0.651  13.044 -2.5617 -0.4646  0.5750
  228MPD1    H2 3519   1.412   1.034  12.993 -1.4404  1.1049 -1.8974
  228MPD1    H3 3520   1.443   0.808  13.055 -1.6331  0.2280  1.2958
  228MPD1     N 3521   1.000   0.693  13.007 -0.4465 -0.1735 -0.1888
  228MPD1    H5 3522   0.912   0.734  12.975 -0.4101  0.0537  0.0058
  228MPD1    N1 3523   1.172   1.155  12.962 -0.0378  0.0802  0.1777
  228MPD1    H6 3524   1.247   1.218  12.990 -0.0095 -0.1878  0.6971
  228MPD1    H7 3525   1.082   1.183  12.999  0.1530 -0.8295  1.3016
  229MPD1     C 3526   0.725   3.783  14.282 -0.7459 -1.2479 -0.1523
  229MPD1    C1 3527   0.704   3.812  14.416 -0.3891 -0.1266 -0.1032
  229MPD1    C2 3528   0.789   3.769  14.512 -0.5276 -0.2354 -0.6838
  229MPD1    C3 3529   0.888   3.675  14.469  0.3892 -0.2294 -0.2801
  229MPD1    C4 3530   0.901   3.634  14.338  0.0459  0.9783  0.7190
  229MPD1    C5 3531   0.818   3.693  14.245  0.7125 -0.3757 -0.1086
  229MPD1     H 3532   0.783   3.804  14.614 -0.8593 -0.2430 -0.6999
  229MPD1    H1 3533   0.965   3.552  14.307 -1.2557  0.2721 -0.1138
  229MPD1    H2 3534   0.660   3.829  14.209 -0.3450 -0.5634 -0.0818
  229MPD1    H3 3535   0.818   3.681  14.138  1.1290 -0.7116 -0.0696
  229MPD1     N 3536   0.980   3.618  14.561  0.8271  0.3130 -0.1549
  229MPD1    H5 3537   1.062   3.572  14.524  0.9204  0.8884 -0.6727
  229MPD1    N1 3538   0.606   3.907  14.448  0.2753  0.2505  0.1390
  229MPD1    H6 3539   0.518   3.905  14.397  0.5007 -0.3008 -0.2292
  229MPD1    H7 3540   0.594   3.900  14.549 -2.7087  0.1648 -0.2199
  230MPD1     C 3541   1.156   3.870  15.542 -0.6644 -0.1680  0.3634
  230MPD1    C1 3542   1.075   3.927  15.440 -0.3823 -0.5119 -0.2792
  230MPD1    C2 3543   1.079   3.868  15.310  0.2713 -0.1345  0.5854
  230MPD1    C3 3544   1.166   3.767  15.280 -0.3325 -0.0635  0.0481
  230MPD1    C4 3545   1.254   3.718  15.377 -0.4573  0.3764 -0.3999
  230MPD1    C5 3546   1.247   3.767  15.502  0.4027  0.3209 -0.3420
  230MPD1     H 3547   1.011   3.916  15.240  1.2566  0.8497  0.2862
  230MPD1    H1 3548   1.308   3.626  15.356 -2.2761 -0.3989 -1.6795
  230MPD1    H2 3549   1.165   3.902  15.645 -0.5825 -0.6179  0.4940
  230MPD1    H3 3550   1.302   3.718  15.582 -2.3470  1.8508  2.4652
  230MPD1     N 3551   1.167   3.710  15.147  0.2175  0.9084  0.1441
  230MPD1    H5 3552   1.086   3.738  15.092  0.2758 -0.9654 -0.8784
  230MPD1    N1 3553   0.998   4.034  15.473  0.1713 -0.1404 -0.6189
  230MPD1    H6 3554   0.957   4.085  15.395  1.2556 -0.3350 -1.3292
  230MPD1    H7 3555   1.054   4.109  15.514 -0.9465  0.1925  0.3000
  231MPD1     C 3556   0.312   1.733  15.825  0.5823  0.5482 -0.3091
  231MPD1    C1 3557   0.273   1.835  15.743 -0.0236  0.6704 -0.1256
  231MPD1    C2 3558   0.280   1.812  15.607 -0.2920 -0.0960 -0.5513
  231MPD1    C3 3559   0.340   1.702  15.551  0.0795 -0.2702 -0.7369
  231MPD1    C4 3560   0.389   1.607  15.643 -0.0042 -0.1302  0.8713
  231MPD1    C5 3561   0.369   1.625  15.777  0.4653 -0.3589  0.1372
  231MPD1     H 3562   0.229   1.878  15.537  0.0583 -0.0392 -0.7501
  231MPD1    H1 3563   0.451   1.521  15.621  0.3854  0.0356  1.3204
  231MPD1    H2 3564   0.309   1.752  15.932 -2.1414  0.6726 -0.3975
  231MPD1    H3 3565   0.409   1.552  15.847  1.0307 -1.0868 -0.9381
  231MPD1     N 3566   0.341   1.693  15.412 -0.3557  0.2640 -0.0110
  231MPD1    H5 3567   0.291   1.768  15.365 -0.7334 -0.1416 -0.2566
  231MPD1    N1 3568   0.200   1.943  15.791  0.4029 -0.0444  0.0241
  231MPD1    H6 3569   0.233   1.976  15.882 -3.1832  1.7250  0.6833
  231MPD1    H7 3570   0.205   2.028  15.736  2.5258 -0.5992 -0.6636
  232MPD1     C 3571   1.673   3.890   0.347  0.3183  0.0849  0.3013
  232MPD1    C1 3572   1.677   3.887   0.210 -0.0335 -0.4178  0.4773
  232MPD1    C2 3573   1.608   3.782   0.149 -0.7898  1.0797 -0.6272
  232MPD1    C3 3574   1.532   3.693   0.226  0.4798 -0.1780  0.3259
  232MPD1    C4 3575   1.536   3.705   0.366  0.3166  0.2907 -0.5400
  232MPD1    C5 3576   1.600   3.807   0.424 -0.6481  0.2942 -0.3196
  232MPD1     H 3577   1.619   3.774   0.042  1.0452 -1.1431 -0.2677
  232MPD1    H1 3578   1.491   3.630   0.430 -3.9440  1.0973 -2.5469
  232MPD1    H2 3579   1.711   3.977   0.400  3.5227 -1.8903  1.2193
  232MPD1    H3 3580   1.607   3.816   0.532  0.8811 -0.1277 -0.3886
  232MPD1     N 3581   1.455   3.583   0.174 -0.5413  0.3296  0.6516
  232MPD1    H5 3582   1.401   3.530   0.243 -1.3040  2.6623  1.8329
  232MPD1    N1 3583   1.762   3.977   0.138 -0.3201  0.8057 -0.1285
  232MPD1    H6 3584   1.732   3.990   0.042  3.0919  1.6221 -1.0719
  232MPD1    H7 3585   1.784   4.068   0.178 -1.0920  0.3654  1.3094
  233MPD1     C 3586   2.971   2.478   2.417 -0.9727  0.2461 -1.0230
  233MPD1    C1 3587   2.902   2.367   2.367  0.0659 -0.5491  0.1633
  233MPD1    C2 3588   2.973   2.283   2.278  0.0967  0.1675  0.1322
  233MPD1    C3 3589   3.109   2.298   2.248 -0.4908 -0.8406 -0.2751
  233MPD1    C4 3590   3.174   2.392   2.316  0.6899 -0.2529  0.3746
  233MPD1    C5 3591   3.104   2.490   2.387  0.0036 -0.0583  0.5459
  233MPD1     H 3592   2.915   2.205   2.231  1.0071 -0.9729  0.9042
  233MPD1    H1 3593   3.281   2.409   2.313  0.9832 -2.3789 -0.6716
  233MPD1    H2 3594   2.920   2.548   2.483 -0.1288 -1.5109  1.4715
  233MPD1    H3 3595   3.156   2.564   2.446  0.1499  0.6188 -0.4433
  233MPD1     N 3596   3.182   2.217   2.158 -0.4683  0.4009  0.3835
  233MPD1    H5 3597   3.283   2.224   2.162 -0.5757  2.2312 -0.0756
  233MPD1    N1 3598   2.760   2.353   2.380  0.4829  1.0019  0.6901
  233MPD1    H6 3599   2.734   2.381   2.475  0.7500  1.8597  0.5141
  233MPD1    H7 3600   2.722   2.259   2.368  2.0273  0.4318  0.2619
  234MPD1     C 3601   3.980   4.510   9.603  0.8610  0.0139 -0.4247
  234MPD1    C1 3602   3.878   4.482   9.515  0.3138  0.0291 -0.5594
  234MPD1    C2 3603   3.794   4.585   9.477  0.2344 -0.9037  0.5174
  234MPD1    C3 3604   3.808   4.711   9.543 -0.1951 -0.3710  1.0127
  234MPD1    C4 3605   3.909   4.729   9.644 -0.7038  0.0224  0.6783
  234MPD1    C5 3606   3.996   4.633   9.667 -1.3475 -0.6605  0.5009
  234MPD1     H 3607   3.731   4.579   9.389  0.4186 -1.6695  0.4390
  234MPD1    H1 3608   3.914   0.089   9.692 -0.8527  0.1922  0.3588
  234MPD1    H2 3609   4.061   4.442   9.628  0.8712  0.7762  1.5926
  234MPD1    H3 3610   4.079   4.653   9.733  0.9388  3.1082 -3.5747
  234MPD1     N 3611   3.716   0.075   9.512  0.2462  0.4533 -0.3104
  234MPD1    H5 3612   3.644   0.055   9.444  1.3589 -0.8693 -1.0988
  234MPD1    N1 3613   3.877   4.360   9.446  0.1289  0.0853 -0.4541
  234MPD1    H6 3614   3.784   4.348   9.406  0.5403 -0.2576 -1.3090
  234MPD1    H7 3615   3.901   4.282   9.507  2.6742  0.8586 -0.4735
  235MPD1     C 3616   0.408   2.452   9.829 -0.0291 -0.0212 -0.3418
  235MPD1    C1 3617   0.352   2.516   9.718 -0.2027  0.4034  0.8019
  235MPD1    C2 3618   0.417   2.599   9.644  0.4598 -0.3971 -1.0461
  235MPD1    C3 3619   0.546   2.630   9.665 -0.2914 -0.1925 -0.6329
  235MPD1    C4 3620   0.604   2.574   9.778  0.7139 -0.7042  0.6787
  235MPD1    C5 3621   0.535   2.486   9.868  0.9041 -0.1129 -0.4481
  235MPD1     H 3622   0.365   2.637   9.558 -1.0624 -0.9661 -0.3801
  235MPD1    H1 3623   0.702   2.603   9.812 -0.4688  3.0622  0.7754
  235MPD1    H2 3624   0.359   2.379   9.892  0.6218 -2.5019 -2.6512
  235MPD1    H3 3625   0.576   2.448   9.961  0.6284  1.6279  0.3775
  235MPD1     N 3626   0.609   2.715   9.574 -0.1913 -0.2153 -0.1887
  235MPD1    H5 3627   0.552   2.768   9.510 -0.7893  0.5143  0.9505
  235MPD1    N1 3628   0.229   2.462   9.681 -0.3427  0.4881 -0.6344
  235MPD1    H6 3629   0.189   2.419   9.764 -0.1896 -1.1707 -1.4268
  235MPD1    H7 3630   0.166   2.536   9.650  2.0728  1.7007 -2.6623
  236MPD1     C 3631   4.476   4.150  10.057  0.2361  0.1119  0.0350
  236MPD1    C1 3632   4.598   4.215  10.068 -0.0112  0.7207  0.0164
  236MPD1    C2 3633   4.715   4.143  10.113  0.2750  0.2802  0.2089
  236MPD1    C3 3634   4.705   4.008  10.140 -0.4107 -0.2094 -0.4320
  236MPD1    C4 3635   4.577   3.950  10.135  0.6513  0.3939 -0.0231
  236MPD1    C5 3636   4.471   4.021  10.093  0.3355  0.4174 -0.2807
  236MPD1     H 3637   0.072   4.198  10.122  0.7285 -0.8513  2.3186
  236MPD1    H1 3638   4.561   3.846  10.161 -2.4884  0.8419 -0.1202
  236MPD1    H2 3639   4.392   4.202  10.012  1.1700  0.9736 -0.7203
  236MPD1    H3 3640   4.370   3.982  10.093  0.4143  0.2131 -1.1281
  236MPD1     N 3641   0.084   3.925  10.166 -0.2092  0.1913  0.6344
  236MPD1    H5 3642   0.059   3.832  10.198 -0.4341  0.1031  0.1994
  236MPD1    N1 3643   4.610   4.353  10.029  0.9057 -0.5431  0.0042
  236MPD1    H6 3644   4.674   4.398  10.095  0.6616  0.0228 -0.1492
  236MPD1    H7 3645   4.524   4.402  10.007 -0.6826 -3.1205  0.5156
  237MPD1     C 3646   0.247   2.508  14.411 -0.6790 -0.0012  0.5309
  237MPD1    C1 3647   0.160   2.406  14.453  0.2024 -0.7772 -0.0203
  237MPD1    C2 3648   0.114   2.399  14.586 -0.8912  0.3199 -0.4689
  237MPD1    C3 3649   0.145   2.504  14.671 -0.6845 -0.0121  0.0593
  237MPD1    C4 3650   0.237   2.601  14.628 -0.1353 -1.3132  0.3030
  237MPD1    C5 3651   0.291   2.596  14.503 -0.5271 -0.1674 -0.3810
  237MPD1     H 3652   0.045   2.322  14.617 -0.4426  0.4796  0.9269
  237MPD1    H1 3653   0.270   2.681  14.693 -1.8739 -0.0335 -0.3794
  237MPD1    H2 3654   0.288   2.518  14.312  0.3186  0.0217  0.9436
  237MPD1    H3 3655   0.352   2.681  14.473  1.6515 -2.1815 -1.7353
  237MPD1     N 3656   0.103   2.514  14.810  0.4660  0.9559 -0.1502
  237MPD1    H5 3657   0.113   2.607  14.851  0.6186  0.4476  0.9755
  237MPD1    N1 3658   0.125   2.307  14.361 -0.1703  0.1343  0.5594
  237MPD1    H6 3659   0.199   2.297  14.292 -0.6870  0.6517 -0.0568
  237MPD1    H7 3660   0.090   2.224  14.408 -2.1186  0.8942  0.4482
  238MPD1     C 3661   2.340   1.414  14.439 -0.3252 -0.6840 -0.1313
  238MPD1    C1 3662   2.337   1.307  14.529 -0.8096 -0.0711  0.3050
  238MPD1    C2 3663   2.226   1.227  14.533  0.0758 -0.8729 -0.4394
  238MPD1    C3 3664   2.122   1.250  14.445  0.7757  0.3674  0.5020
  238MPD1    C4 3665   2.137   1.341  14.340  0.3644 -0.7705  0.2396
  238MPD1    C5 3666   2.248   1.421  14.343  0.4507  0.0073  0.1475
  238MPD1     H 3667   2.210   1.170  14.624  0.1087 -0.5997 -0.2600
  238MPD1    H1 3668   2.070   1.359  14.257 -0.8012  0.5391  1.4722
  238MPD1    H2 3669   2.431   1.472  14.431 -1.4706  1.3356  1.8135
  238MPD1    H3 3670   2.247   1.495  14.265 -0.3839  0.8380  0.9489
  238MPD1     N 3671   2.002   1.180  14.441 -0.2912  0.1613  0.2913
  238MPD1    H5 3672   1.937   1.220  14.373 -1.7313  1.3163  2.3275
  238MPD1    N1 3673   2.430   1.293  14.637  0.0910  0.8147 -0.0550
  238MPD1    H6 3674   2.448   1.196  14.663 -2.3947 -0.3252 -2.5406
  238MPD1    H7 3675   2.521   1.336  14.625 -0.2069  1.3263 -0.5218
  239MPD1     C 3676   1.728   1.427  14.385 -0.2429  0.2243  0.4739
  239MPD1    C1 3677   1.810   1.433  14.274 -0.5406  0.1481 -0.3147
  239MPD1    C2 3678   1.866   1.561  14.245 -0.5928  0.6004 -0.5504
  239MPD1    C3 3679   1.839   1.670  14.327  0.1652 -0.0841 -0.3542
  239MPD1    C4 3680   1.766   1.650  14.444  0.2703  0.3946 -1.0751
  239MPD1    C5 3681   1.715   1.529  14.476  0.5281 -0.9825 -0.1064
  239MPD1     H 3682   1.924   1.581  14.155 -0.6794  0.9854 -0.5219
  239MPD1    H1 3683   1.736   1.733  14.508 -0.7193  0.0916 -1.1388
  239MPD1    H2 3684   1.671   1.335  14.393 -2.6410  1.6074 -0.8436
  239MPD1    H3 3685   1.656   1.511  14.566  0.2536  0.4333  0.0003
  239MPD1     N 3686   1.860   1.805  14.294 -0.8206 -0.1548 -0.3255
  239MPD1    H5 3687   1.816   1.881  14.345  2.1929  0.8625  0.7767
  239MPD1    N1 3688   1.819   1.321  14.184  0.7608  1.0135  0.2439
  239MPD1    H6 3689   1.885   1.349  14.112  1.0026 -0.6861 -0.1758
  239MPD1    H7 3690   1.734   1.314  14.128  2.1979 -0.7632 -1.7074
  240MPD1     C 3691   0.828   1.952  13.852 -0.0884 -0.3840 -0.0045
  240MPD1    C1 3692   0.820   1.879  13.970  0.1345  0.1358 -0.0457
  240MPD1    C2 3693   0.924   1.797  14.001 -0.2459  0.2422 -0.6292
  240MPD1    C3 3694   1.023   1.771  13.908 -1.3691 -0.9878  0.0644
  240MPD1    C4 3695   1.026   1.836  13.786  0.1989 -0.1519  0.5965
  240MPD1    C5 3696   0.929   1.931  13.761  0.3333 -0.2105  0.6874
  240MPD1     H 3697   0.921   1.734  14.089  1.5156  1.0285  0.0064
  240MPD1    H1 3698   1.101   1.821  13.709 -0.0147  2.0648 -0.0318
  240MPD1    H2 3699   0.760   2.030  13.821  0.0488 -1.6924 -3.7128
  240MPD1    H3 3700   0.932   1.988  13.669  1.7227  0.5564  1.2071
  240MPD1     N 3701   1.118   1.681  13.950 -0.2665 -0.1008 -0.4686
  240MPD1    H5 3702   1.115   1.656  14.049  1.8176 -1.2478 -0.6909
  240MPD1    N1 3703   0.721   1.913  14.064  0.0645 -0.3407 -0.1794
  240MPD1    H6 3704   0.630   1.926  14.021 -0.8364  2.7594  2.6833
  240MPD1    H7 3705   0.711   1.853  14.145  0.3692 -1.9398 -1.3312
  241MPD1     C 3706   1.402   1.748  14.731 -0.3780  0.4524  0.1688
  241MPD1    C1 3707   1.380   1.617  14.720 -0.4142 -0.2979 -0.9320
  241MPD1    C2 3708   1.367   1.568  14.588  0.3269 -0.2132 -0.5567
  241MPD1    C3 3709   1.385   1.646  14.480  0.3456 -0.9156 -0.2260
  241MPD1    C4 3710   1.418   1.775  14.496 -0.7467 -0.0862 -0.2251
  241MPD1    C5 3711   1.428   1.823  14.621 -0.5088 -0.4380  0.1698
  241MPD1     H 3712   1.336   1.464  14.581 -0.3389  0.0146 -1.0475
  241MPD1    H1 3713   1.438   1.835  14.408 -3.9916 -0.8460 -1.4882
  241MPD1    H2 3714   1.386   1.797  14.826  1.1575  0.4473  0.4404
  241MPD1    H3 3715   1.449   1.928  14.640 -1.3693 -0.4066  0.9392
  241MPD1     N 3716   1.376   1.604  14.348  0.1022  0.7235 -0.0176
  241MPD1    H5 3717   1.387   1.682  14.284  0.2531  0.4550 -0.3197
  241MPD1    N1 3718   1.331   1.543  14.823  0.4016  0.2536 -0.1736
  241MPD1    H6 3719   1.355   1.444  14.817 -0.6215  0.0942 -1.6114
  241MPD1    H7 3720   1.371   1.577  14.910 -1.2189  2.3430 -0.2535
  242MPD1     C 3721   0.315   4.457  15.821 -0.2745 -0.3215 -0.3343
  242MPD1    C1 3722   0.243   4.391  15.730  0.2936  0.7707 -0.1238
  242MPD1    C2 3723   0.285   4.401  15.600 -1.1197  0.7640 -0.6684
  242MPD1    C3 3724   0.385   4.487  15.557 -0.0008  0.4010  0.4173
  242MPD1    C4 3725   0.454   4.554  15.657  0.4309 -0.6345  0.5497
  242MPD1    C5 3726   0.417   4.545  15.786 -0.3112 -0.3787  0.3513
  242MPD1     H 3727   0.245   4.331  15.528 -1.1835 -1.6557  1.7085
  242MPD1    H1 3728   0.536   4.620  15.630  0.0092 -0.4776 -0.3444
  242MPD1    H2 3729   0.302   4.437  15.927  1.9979 -2.0701 -0.3855
  242MPD1    H3 3730   0.477   4.593  15.863  1.5543  0.7812 -1.8242
  242MPD1     N 3731   0.422   4.492  15.424 -0.5534 -0.2707 -0.4395
  242MPD1    H5 3732   0.515   4.530  15.411 -1.4697  1.2042 -2.6110
  242MPD1    N1 3733   0.160   4.283  15.775  0.1234 -0.7785 -0.4519
  242MPD1    H6 3734   0.093   4.308  15.847  0.3628  0.4720 -0.6522
  242MPD1    H7 3735   0.104   4.237  15.704  1.2922 -1.8581 -0.6885
  243MPD1     C 3736   3.528   3.085  15.707 -0.1101  0.4720 -0.5306
  243MPD1    C1 3737   3.404   3.106  15.758  0.0249  0.7884  0.0602
  243MPD1    C2 3738   3.318   3.003  15.787 -0.2938 -0.2260  0.6111
  243MPD1    C3 3739   3.362   2.871  15.783  0.5647  0.1321  0.3482
  243MPD1    C4 3740   3.497   2.847  15.739  0.1856  0.3192 -0.5009
  243MPD1    C5 3741   3.577   2.956  15.702  0.2380 -0.0425  0.1603
  243MPD1     H 3742   3.212   3.016  15.810  0.3037  2.0824  2.0733
  243MPD1    H1 3743   3.543   2.749  15.730  0.7451  0.4146  1.2282
  243MPD1    H2 3744   3.587   3.170  15.675 -2.8852  2.8768  0.7057
  243MPD1    H3 3745   3.681   2.947  15.674 -0.2468 -2.8185 -0.7449
  243MPD1     N 3746   3.272   2.769  15.834 -0.3125  0.8576 -0.1623
  243MPD1    H5 3747   3.175   2.791  15.857 -0.4547 -1.1812  1.1529
  243MPD1    N1 3748   3.344   3.231  15.741  0.0518  0.4610 -0.1951
  243MPD1    H6 3749   3.262   3.240  15.801  1.4014  1.4064  1.5187
  243MPD1    H7 3750   3.408   3.309  15.759 -0.2416  0.4586  0.8739
  244MPD1     C 3751   3.418   2.652  16.687 -0.2843 -0.1931 -0.4099
  244MPD1    C1 3752   3.503   2.622  16.587  0.1392  0.1286 -0.4860
  244MPD1    C2 3753   3.446   2.579  16.465  0.2967  0.9671 -0.5068
  244MPD1    C3 3754   3.312   2.589  16.443 -0.1695  0.4073  0.1780
  244MPD1    C4 3755   3.226   2.636  16.542  0.4615  0.0708 -0.0155
  244MPD1    C5 3756   3.283   2.655  16.664 -0.6559 -0.5060 -0.1076
  244MPD1     H 3757   3.509   2.541  16.385 -0.1134  1.7051 -1.1821
  244MPD1    H1 3758   3.119   2.643  16.524 -0.1001 -2.5407  2.3276
  244MPD1    H2 3759   3.457   2.671  16.786  1.5021 -2.8744 -0.6214
  244MPD1    H3 3760   3.220   2.676  16.749  0.0919 -1.4455  0.6825
  244MPD1     N 3761   3.263   2.536  16.318  0.7480  0.5848 -0.0288
  244MPD1    H5 3762   3.325   2.479  16.261  1.2020 -1.0060  2.0332
  244MPD1    N1 3763   3.637   2.598  16.610  0.3098 -0.0581 -0.1111
  244MPD1    H6 3764   3.692   2.614  16.526  0.1390 -0.1464 -0.2392
  244MPD1    H7 3765   3.665   2.660  16.686 -0.5712 -0.4786  0.5656
  245MPD1     C 3766   4.289   3.748  13.065 -0.3706  0.0868  1.2086
  245MPD1    C1 3767   4.404   3.817  13.039  0.5166 -0.2640  0.4336
  245MPD1    C2 3768   4.441   3.923  13.126  0.1167 -0.0336  0.0600
  245MPD1    C3 3769   4.377   3.944  13.246 -0.0634 -0.0950  0.2285
  245MPD1    C4 3770   4.278   3.859  13.279 -0.3874 -0.2048  0.3227
  245MPD1    C5 3771   4.230   3.764  13.188 -0.2710  0.5648  0.2162
  245MPD1     H 3772   4.522   3.985  13.089  0.0264  1.1948  1.9140
  245MPD1    H1 3773   4.229   3.870  13.375 -1.2521  0.0298 -0.1388
  245MPD1    H2 3774   4.249   3.678  12.992  1.2509 -0.1915  0.5808
  245MPD1    H3 3775   4.142   3.705  13.212 -0.3279  0.2345 -0.8107
  245MPD1     N 3776   4.429   4.048  13.329  0.0083 -0.5857 -0.2201
  245MPD1    H5 3777   4.505   4.105  13.294  0.7956 -2.5502 -1.6651
  245MPD1    N1 3778   4.468   3.799  12.915  0.7207 -1.0660  0.3322
  245MPD1    H6 3779   4.565   3.827  12.917  0.3525  0.3368 -0.7384
  245MPD1    H7 3780   4.460   3.702  12.884  0.5390 -0.0413 -2.8688
  246MPD1     C 3781   0.169   0.961   9.991 -0.0203  0.1563 -0.2838
  246MPD1    C1 3782   0.276   0.879   9.970 -0.3485  0.1978 -0.3930
  246MPD1    C2 3783   0.277   0.790   9.865 -0.7375  0.3942  0.2196
  246MPD1    C3 3784   0.174   0.783   9.771 -0.0904 -0.4549 -0.0242
  246MPD1    C4 3785   0.069   0.875   9.788 -0.0622 -0.0545  0.0759
  246MPD1    C5 3786   0.063   0.951   9.905  0.2973  0.4597 -0.4309
  246MPD1     H 3787   0.362   0.723   9.854 -1.2287  0.3099 -2.8663
  246MPD1    H1 3788   4.728   0.903   9.718 -0.1888  0.3407  0.3752
  246MPD1    H2 3789   0.163   1.023  10.080  0.4819 -0.7831  0.4064
  246MPD1    H3 3790   4.718   1.020   9.917 -0.7365 -0.9511  0.6832
  246MPD1     N 3791   0.179   0.696   9.662 -0.6184  0.4908  0.5943
  246MPD1    H5 3792   0.251   0.625   9.670 -2.9219 -1.8434  0.6743
  246MPD1    N1 3793   0.403   0.908  10.040  0.3785 -0.0302  0.1455
  246MPD1    H6 3794   0.464   0.828  10.027  0.1253 -0.4736  1.7348
  246MPD1    H7 3795   0.391   0.922  10.140 -2.0220 -0.3596 -0.0857
  247MPD1     C 3796   4.200   3.063  16.500  0.4838 -0.4527 -0.2995
  247MPD1    C1 3797   4.100   3.158  16.499 -0.2773  0.0739 -0.1513
  247MPD1    C2 3798   4.120   3.281  16.434  0.6004  0.2618 -0.1860
  247MPD1    C3 3799   4.251   3.312  16.385  0.2273  0.2954  0.5430
  247MPD1    C4 3800   4.355   3.224  16.403 -0.4380 -0.0013 -0.3317
  247MPD1    C5 3801   4.326   3.102  16.459 -0.9912  0.9827 -0.2637
  247MPD1     H 3802   4.044   3.357  16.426  0.6003  0.1500 -1.3311
  247MPD1    H1 3803   4.451   3.252  16.361 -0.4432 -1.4754 -1.3070
  247MPD1    H2 3804   4.186   2.969  16.552 -0.7274  0.8178  1.6751
  247MPD1    H3 3805   4.412   3.036  16.467 -0.8663  1.1996  0.1571
  247MPD1     N 3806   4.289   3.437  16.332 -0.2815 -0.0824 -0.1668
  247MPD1    H5 3807   4.382   3.444  16.293  0.0001  0.7391  0.6572
  247MPD1    N1 3808   3.982   3.135  16.562  0.6333 -0.6466  0.0072
  247MPD1    H6 3809   3.953   3.041  16.537 -1.7001  0.6845 -2.2714
  247MPD1    H7 3810   3.910   3.202  16.536  0.7111 -0.2798  0.7138
  248MPD1     C 3811   4.488   2.781   1.184  0.2453 -0.3348  0.1436
  248MPD1    C1 3812   4.527   2.905   1.221  0.1299  0.6116  0.1330
  248MPD1    C2 3813   4.486   3.012   1.138 -0.5695  0.1847  0.7620
  248MPD1    C3 3814   4.401   2.983   1.028  0.0953  0.4786 -0.0439
  248MPD1    C4 3815   4.369   2.854   0.995  0.1517 -0.4627 -1.1539
  248MPD1    C5 3816   4.413   2.759   1.070 -0.4178 -0.1310  0.2427
  248MPD1     H 3817   4.515   3.115   1.156 -0.0074  0.0082  0.8814
  248MPD1    H1 3818   4.310   2.821   0.910  0.2369  0.3187 -1.5191
  248MPD1    H2 3819   4.518   2.693   1.241  0.0214 -1.5757 -1.6273
  248MPD1    H3 3820   4.390   2.657   1.043 -3.6046  1.0099 -1.3553
  248MPD1     N 3821   4.357   3.098   0.966 -0.0401  0.0116  0.1250
  248MPD1    H5 3822   4.398   3.183   1.003  3.2169 -1.2161 -0.7570
  248MPD1    N1 3823   4.628   2.923   1.318  0.2936  0.3126  0.4584
  248MPD1    H6 3824   4.623   3.007   1.375 -1.8525 -0.4374  1.3622
  248MPD1    H7 3825   4.639   2.837   1.372  2.2426 -0.5586 -1.2917
  249MPD1     C 3826   1.404   1.756  11.181  0.3053  0.4808  0.2170
  249MPD1    C1 3827   1.502   1.847  11.201  0.2139 -0.3176  0.7575
  249MPD1    C2 3828   1.526   1.936  11.102  0.4767  0.2519 -0.1235
  249MPD1    C3 3829   1.468   1.928  10.982 -0.3369  0.8027  0.6777
  249MPD1    C4 3830   1.367   1.833  10.967 -0.1501  0.4657  0.0596
  249MPD1    C5 3831   1.333   1.751  11.068  0.2297 -0.4985  0.0962
  249MPD1     H 3832   1.597   2.015  11.124 -0.1011  0.7813 -0.1514
  249MPD1    H1 3833   1.303   1.828  10.879 -0.4238 -1.2854  0.3485
  249MPD1    H2 3834   1.378   1.685  11.259 -0.1053 -0.6950 -0.9950
  249MPD1    H3 3835   1.264   1.670  11.052  0.9084 -1.1754  0.6077
  249MPD1     N 3836   1.496   2.020  10.879 -0.0569  0.8983  0.7211
  249MPD1    H5 3837   1.542   2.105  10.910  0.4375  1.5848 -1.8289
  249MPD1    N1 3838   1.551   1.876  11.331  0.2880 -0.4915 -0.4631
  249MPD1    H6 3839   1.544   1.794  11.391 -2.3074  1.0918  1.3746
  249MPD1    H7 3840   1.647   1.911  11.322 -0.3381  1.1362 -0.8677
  250MPD2     C 3841   3.307   2.782  12.559 -0.9076  0.1686 -0.1479
  250MPD2    C1 3842   3.220   2.796  12.656 -0.5577 -0.6424  0.1137
  250MPD2    C2 3843   3.120   2.696  12.667 -0.2137 -0.1694 -0.0815
  250MPD2    C3 3844   3.125   2.582  12.597  0.5167  0.8777 -0.0002
  250MPD2    C4 3845   3.215   2.567  12.498 -0.4490 -0.7590 -0.5245
  250MPD2    C5 3846   3.301   2.668  12.475  0.2242 -0.3163 -0.3191
  250MPD2     H 3847   3.048   2.705  12.747  0.6588 -0.0501  0.6866
  250MPD2    H1 3848   3.209   2.483  12.429 -2.1115 -0.5653 -0.6123
  250MPD2    H2 3849   3.381   2.860  12.546  0.2799 -0.8023  0.8398
  250MPD2    H3 3850   3.380   2.659  12.401 -0.8855  2.6241 -1.8685
  250MPD2     N 3851   3.014   2.499  12.610  0.4709  0.5440 -0.3114
  250MPD2    H5 3852   2.947   2.535  12.677  0.8253  1.4865 -0.4644
  250MPD2    N1 3853   3.231   2.914  12.733 -0.6562  0.3119  0.3312
  250MPD2    H7 3854   3.314   2.967  12.709  0.5755 -1.6301  0.2539
  251TMC3    C1 3855   3.154   3.081  12.891 -0.7726  0.3123 -0.1943
  251TMC3    C2 3856   3.043   3.137  12.946 -0.6180 -0.2129 -0.2093
  251TMC3    C3 3857   3.053   3.244  13.030 -0.1472 -0.1092  0.0261
  251TMC3    C4 3858   3.285   3.121  12.919  0.4392  0.1642  1.1081
  251TMC3    C5 3859   3.290   3.238  12.993  0.6442  0.0241  0.0073
  251TMC3    C6 3860   3.181   3.295  13.056 -0.6146 -0.4712 -0.4492
  251TMC3     C 3861   3.145   2.946  12.835 -0.4367  0.2543 -0.2085
  251TMC3     O 3862   3.052   2.880  12.876  0.4810 -0.6588 -0.9108
  251TMC3     H 3863   2.943   3.107  12.916 -1.1004  1.4921 -0.3170
  251TMC3    H1 3864   3.368   3.069  12.873 -0.8549  1.0491 -2.2047
  251TMC3    H2 3865   3.200   3.389  13.106 -0.0806 -0.5098 -0.5868
  251TMC3    C7 3866   3.414   3.271  13.058 -0.5915  0.0561 -0.6453
  251TMC3    C8 3867   2.935   3.287  13.099 -0.4920 -1.2874 -0.1744
  251TMC3    O1 3868   3.409   3.291  13.179 -0.2044  0.2438  0.8361
  251TMC3    O2 3869   2.832   3.219  13.085 -0.0951 -0.5586 -0.9873
  252TMC3    C1 3870   2.011   3.538   9.469  0.0153  0.0862  0.3400
  252TMC3    C2 3871   2.134   3.593   9.491 -0.0928  0.4943  0.7681
  252TMC3    C3 3872   2.206   3.527   9.583  0.4572 -0.0410 -1.2279
  252TMC3    C4 3873   1.956   3.429   9.528  0.2621 -1.0927  0.1680
  252TMC3    C5 3874   2.032   3.367   9.621  0.0407  0.9081 -0.1800
  252TMC3    C6 3875   2.157   3.417   9.651  0.0310 -0.1883  0.3343
  252TMC3     C 3876   1.926   3.631   9.403 -0.1013  0.2795 -1.2655
  252TMC3     O 3877   1.954   3.751   9.407 -0.2020 -0.0406 -0.6999
  252TMC3     H 3878   2.164   3.675   9.427 -0.8709 -1.2412 -1.8024
  252TMC3    H1 3879   1.854   3.402   9.502  0.2467 -0.9783  0.1105
  252TMC3    H2 3880   2.220   3.371   9.726 -0.8765 -3.3276 -0.7839
  252TMC3    C7 3881   1.980   3.244   9.681  0.1597  0.5110 -1.1297
  252TMC3    C8 3882   2.341   3.575   9.607  0.3754 -0.0172  0.2743
  252TMC3    O1 3883   1.862   3.229   9.664 -0.4073  0.3293 -0.3638
  252TMC3    O2 3884   2.349   3.687   9.559 -0.0512 -0.2866 -0.8777
  253MPD2     C 3885   4.387   2.630  15.466  0.5324 -0.5880 -0.5472
  253MPD2    C1 3886   4.256   2.611  15.490 -0.1376 -0.0551 -0.0099
  253MPD2    C2 3887   4.217   2.597  15.624 -0.2192 -0.3179 -0.4707
  253MPD2    C3 3888   4.310   2.586  15.728  0.0014 -0.1428  0.3216
  253MPD2    C4 3889   4.437   2.602  15.700 -0.1211 -0.3197 -0.0255
  253MPD2    C5 3890   4.475   2.622  15.568 -0.0569  0.2242 -0.2987
  253MPD2     H 3891   4.112   2.595  15.649 -0.7427  1.0573 -2.5601
  253MPD2    H1 3892   4.513   2.577  15.772  0.4618  1.0892 -0.1444
  253MPD2    H2 3893   4.425   2.651  15.366 -0.2031 -0.3977 -0.7865
  253MPD2    H3 3894   4.583   2.627  15.556  0.3617 -2.7100  2.1083
  253MPD2     N 3895   4.270   2.572  15.859  0.2925  0.0721 -0.0784
  253MPD2    H5 3896   4.327   2.523  15.927  0.3652  2.4201  1.5378
  253MPD2    N1 3897   4.154   2.608  15.398  0.1050  0.2537 -0.0486
  253MPD2    H7 3898   4.065   2.582  15.438 -0.5610  2.4114 -0.1473
  254TMC3    C1 3899   4.098   2.539  16.028 -0.1671 -0.1774 -0.1263
  254TMC3    C2 3900   3.989   2.595  16.090 -0.5374 -0.7065 -0.8566
  254TMC3    C3 3901   3.949   2.523  16.199  0.5420 -0.6292 -0.1167
  254TMC3    C4 3902   4.152   2.413  16.055 -0.2455 -0.8140 -0.2707
  254TMC3    C5 3903   4.106   2.355  16.163  0.8828 -0.1361  0.3497
  254TMC3    C6 3904   4.011   2.410  16.244  0.0425  0.8652  0.2159
  254TMC3     C 3905   4.145   2.606  15.905 -0.5059 -0.1454 -0.6395
  254TMC3     O 3906   4.059   2.670  15.847 -0.2160  0.2251 -0.0439
  254TMC3     H 3907   3.958   2.694  16.058  0.7088  0.9953  3.1249
  254TMC3    H1 3908   4.221   2.365  15.987  1.1524  0.9713 -0.0966
  254TMC3    H2 3909   3.974   2.361  16.333 -0.6814  1.8533  0.4582
  254TMC3    C7 3910   4.177   2.245  16.228 -0.5801  0.1473 -0.6878
  254TMC3    C8 3911   3.832   2.570  16.275  1.5394  0.4564  0.5972
  254TMC3    O1 3912   4.117   2.177  16.313  0.6334 -0.2126 -0.4477
  254TMC3    O2 3913   3.824   2.540  16.391  0.5795  0.6009  0.1207
  255MPD2     C 3914   1.153   4.160   9.872 -0.3890  0.1647 -0.1257
  255MPD2    C1 3915   1.249   4.253   9.912  0.6202  0.5006  0.1249
  255MPD2    C2 3916   1.370   4.246   9.843  0.1198  0.3642 -0.5850
  255MPD2    C3 3917   1.384   4.154   9.735  0.2727 -0.1048 -0.9292
  255MPD2    C4 3918   1.280   4.074   9.691 -0.4643 -0.5734 -0.4858
  255MPD2    C5 3919   1.165   4.073   9.766  0.1279  0.0666 -0.0477
  255MPD2     H 3920   1.444   4.322   9.868 -1.3178  2.4773 -2.7155
  255MPD2    H1 3921   1.287   4.008   9.605  2.5588  0.2092 -0.8330
  255MPD2    H2 3922   1.057   4.146   9.920 -1.0847  0.0926 -1.5420
  255MPD2    H3 3923   1.081   4.010   9.741 -0.7407  0.9462  0.6201
  255MPD2     N 3924   1.504   4.163   9.668  0.0524 -0.6536  0.9317
  255MPD2    H5 3925   1.573   4.227   9.707  0.4617 -1.2016  1.1185
  255MPD2    N1 3926   1.229   4.341  10.020  0.1025 -0.8164 -0.1831
  255MPD2    H7 3927   1.138   4.345  10.064  0.1876  0.1581 -0.0964
  256TMC3    C1 3928   1.262   4.500  10.183 -0.3598  0.5869 -1.4919
  256TMC3    C2 3929   1.357   4.523  10.282  0.2433  0.4455  0.3573
  256TMC3    C3 3930   1.350   4.647  10.342  0.0093  0.2091  0.4951
  256TMC3    C4 3931   1.158   4.584  10.150 -0.5126  0.0452  0.5579
  256TMC3    C5 3932   1.165   4.706  10.210  0.3862 -0.2160  0.1175
  256TMC3    C6 3933   1.256   0.002  10.311 -0.4960  0.0393 -0.7493
  256TMC3     C 3934   1.322   4.424  10.075  0.3084  0.0995 -0.0361
  256TMC3     O 3935   1.443   4.436  10.054  0.0484 -0.5693 -0.3612
  256TMC3     H 3936   1.444   4.460  10.296  1.2917  2.0005  0.9301
  256TMC3    H1 3937   1.097   4.568  10.063 -1.0462  1.1400  0.7203
  256TMC3    H2 3938   1.262   0.099  10.360 -1.8312 -0.7172  0.9370
  256TMC3    C7 3939   1.131   0.083  10.121  0.0923  0.4287 -1.0092
  256TMC3    C8 3940   1.483   4.706  10.370  0.5801  0.3917 -0.3657
  256TMC3    O1 3941   1.093   0.060  10.009 -0.0302 -0.0854 -0.5033
  256TMC3    O2 3942   1.488   0.061  10.449  0.0118  0.0489  0.5998
  257MPD2     C 3943   1.507   2.534  12.993  0.4334 -0.0627 -0.1252
  257MPD2    C1 3944   1.557   2.452  12.893  0.1052  0.3664 -0.4035
  257MPD2    C2 3945   1.530   2.319  12.904  0.7253 -0.2509  0.3569
  257MPD2    C3 3946   1.468   2.264  13.020 -0.5263  0.0810 -0.5629
  257MPD2    C4 3947   1.448   2.348  13.129  0.7469  0.0290  0.9893
  257MPD2    C5 3948   1.456   2.481  13.113  0.6518 -0.1466 -0.8065
  257MPD2     H 3949   1.553   2.254  12.820  1.9006  1.0648 -0.3479
  257MPD2    H1 3950   1.411   2.303  13.220 -1.1131 -1.4557 -0.5006
  257MPD2    H2 3951   1.515   2.642  12.991  2.0651 -0.1111  3.4828
  257MPD2    H3 3952   1.433   2.556  13.188 -3.1319 -0.9516 -1.1627
  257MPD2     N 3953   1.457   2.122  13.029 -0.4532  0.3184 -0.5136
  257MPD2    H5 3954   1.488   2.067  12.949  1.1427  0.8065 -0.2344
  257MPD2    N1 3955   1.620   2.503  12.781 -0.3266 -0.5113 -0.1708
  257MPD2    H7 3956   1.634   2.426  12.717 -1.1634 -0.4666 -0.4134
  258TMC3    C1 3957   1.433   1.902  13.123 -0.5615 -0.7008  0.0154
  258TMC3    C2 3958   1.518   1.849  13.033 -0.7278  0.2254  0.2377
  258TMC3    C3 3959   1.566   1.725  13.051 -0.7102  0.5336 -0.5124
  258TMC3    C4 3960   1.403   1.835  13.240  0.6267 -0.4748  0.3590
  258TMC3    C5 3961   1.456   1.706  13.256 -0.0550  0.4995  0.0374
  258TMC3    C6 3962   1.544   1.653  13.163 -0.5841 -0.5855  0.0965
  258TMC3     C 3963   1.407   2.051  13.137  0.3421  0.0822  0.4951
  258TMC3     O 3964   1.332   2.084  13.228 -0.4135  0.3188  0.2066
  258TMC3     H 3965   1.556   1.899  12.945 -1.8416  0.3336 -0.1743
  258TMC3    H1 3966   1.337   1.885  13.309 -0.1689 -0.1040 -0.6693
  258TMC3    H2 3967   1.561   1.546  13.158 -1.1160 -0.5950 -1.6244
  258TMC3    C7 3968   1.454   1.646  13.390  0.4122  0.5820 -0.6271
  258TMC3    C8 3969   1.643   1.671  12.940 -0.0950  0.4133 -0.3029
  258TMC3    O1 3970   1.354   1.651  13.460  0.3161  0.6475  0.5369
  258TMC3    O2 3971   1.615   1.709  12.826  0.5857  0.2048  0.8592
  259MPD2     C 3972   1.191   3.999   1.150 -0.9369  0.0308  0.0305
  259MPD2    C1 3973   1.073   3.925   1.168 -0.0084  0.3432  0.0886
  259MPD2    C2 3974   0.981   3.929   1.060  0.3752 -0.3209  0.4289
  259MPD2    C3 3975   1.014   4.001   0.944 -1.1128 -0.2215 -0.0613
  259MPD2    C4 3976   1.129   4.075   0.933  0.3269 -0.1242 -0.0370
  259MPD2    C5 3977   1.220   4.060   1.036  0.2314  0.4276 -0.0430
  259MPD2     H 3978   0.885   3.878   1.064  0.4976 -0.4246  2.4950
  259MPD2    H1 3979   1.155   4.118   0.837  0.7611  0.2888  0.2664
  259MPD2    H2 3980   1.266   4.014   1.227 -0.0321 -0.0421 -0.8384
  259MPD2    H3 3981   1.314   4.113   1.029  0.0397  0.8239  0.3055
  259MPD2     N 3982   0.926   3.983   0.839 -0.1707  0.2007  0.7226
  259MPD2    H5 3983   0.860   3.907   0.849 -1.0660  0.8399 -0.3353
  259MPD2    N1 3984   1.051   3.853   1.287 -0.0364 -0.1956  0.5027
  259MPD2    H7 3985   1.127   3.859   1.354  0.3867  0.8722 -0.0767
  260TMC3    C1 3986   0.836   3.978   0.629  0.2107 -0.8122 -0.4618
  260TMC3    C2 3987   0.798   4.050   0.516 -0.4832 -0.7118  0.1810
  260TMC3    C3 3988   0.719   3.979   0.426 -0.3905  0.3090  0.0350
  260TMC3    C4 3989   0.828   3.841   0.635 -0.5276  0.3837 -0.3222
  260TMC3    C5 3990   0.754   3.780   0.533  0.3792  0.2753 -0.4526
  260TMC3    C6 3991   0.683   3.848   0.439 -0.0367 -0.0649 -0.5278
  260TMC3     C 3992   0.928   4.044   0.717 -0.2488 -0.7343  0.5999
  260TMC3     O 3993   0.977   4.152   0.682 -0.1327 -0.5512 -0.3626
  260TMC3     H 3994   0.810   4.156   0.498 -1.0681 -0.5951  0.4640
  260TMC3    H1 3995   0.891   3.786   0.704  0.0634 -0.8604 -1.8610
  260TMC3    H2 3996   0.616   3.789   0.377  0.0136  0.4055 -1.0344
  260TMC3    C7 3997   0.722   3.637   0.542 -0.0794 -0.1652 -0.1938
  260TMC3    C8 3998   0.735   4.010   0.286  0.2927 -0.3473 -0.2372
  260TMC3    O1 3999   0.690   3.578   0.441  0.3887  0.5399 -0.1228
  260TMC3    O2 4000   0.759   4.131   0.261 -0.0676 -0.5012  0.5687
  261MPD2     C 4001   2.747   2.410  11.922 -0.2213 -0.7695  0.6893
  261MPD2    C1 4002   2.660   2.478  12.004 -0.4898  0.2440  0.0794
  261MPD2    C2 4003   2.562   2.561  11.955  0.3918 -0.1045  0.1323
  261MPD2    C3 4004   2.546   2.566  11.816  0.2401  0.1441 -0.0148
  261MPD2    C4 4005   2.621   2.484  11.735 -0.2621 -0.2048  0.0984
  261MPD2    C5 4006   2.726   2.409  11.789 -0.1080 -0.2226 -0.3078
  261MPD2     H 4007   2.496   2.621  12.017  1.3705  0.1001  0.9690
  261MPD2    H1 4008   2.618   2.488  11.627 -0.3013  0.2057  0.1144
  261MPD2    H2 4009   2.826   2.352  11.969  0.1246 -0.9812 -0.1481
  261MPD2    H3 4010   2.781   2.343  11.724  1.7760  0.4820  0.5813
  261MPD2     N 4011   2.440   2.650  11.770  0.8220  0.0041  0.4037
  261MPD2    H5 4012   2.404   2.727  11.827 -2.1645 -0.7132 -0.5161
  261MPD2    N1 4013   2.675   2.450  12.140  0.1177 -0.1998  0.0622
  261MPD2    H7 4014   2.740   2.373  12.157  0.4219  0.4992  2.0505
  262TMC3    C1 4015   2.269   2.721  11.622  0.1182 -0.0184  0.3984
  262TMC3    C2 4016   2.234   2.818  11.701  0.0480  0.2208 -0.5448
  262TMC3    C3 4017   2.130   2.903  11.669  0.3105  0.9243 -0.6400
  262TMC3    C4 4018   2.203   2.711  11.501  0.0279 -0.2338  0.3330
  262TMC3    C5 4019   2.107   2.795  11.470 -0.2223 -0.3102  0.1126
  262TMC3    C6 4020   2.062   2.894  11.551  0.6289 -0.1624 -0.3606
  262TMC3     C 4021   2.381   2.633  11.649  0.1680 -0.1152  0.0151
  262TMC3     O 4022   2.400   2.554  11.555  0.2477  0.0015 -0.2312
  262TMC3     H 4023   2.264   2.815  11.806 -0.2237  0.0412 -0.4723
  262TMC3    H1 4024   2.250   2.653  11.422 -0.7752 -1.3358  0.6622
  262TMC3    H2 4025   2.013   2.984  11.514  0.2209  0.6005  2.0434
  262TMC3    C7 4026   2.118   2.829  11.332 -0.1974  0.6240  0.4581
  262TMC3    C8 4027   2.082   3.003  11.762  0.5346  0.3900 -0.5662
  262TMC3    O1 4028   2.078   2.739  11.260  0.3667  0.0345 -0.2688
  262TMC3    O2 4029   2.154   3.037  11.856  0.1312  0.1173 -0.2104
  263MPD2     C 4030   3.192   1.077  10.885 -0.1766 -0.3407  0.2618
  263MPD2    C1 4031   3.260   1.178  10.947 -0.1074 -0.7963  0.5356
  263MPD2    C2 4032   3.267   1.299  10.882  0.8072 -0.5332  0.2078
  263MPD2    C3 4033   3.226   1.309  10.755 -0.7401  0.4333 -0.7382
  263MPD2    C4 4034   3.178   1.199  10.689  0.3312  0.1681 -0.2405
  263MPD2    C5 4035   3.163   1.080  10.757 -0.4662  0.5569  0.3333
  263MPD2     H 4036   3.316   1.383  10.930 -1.1997  1.2630 -0.8961
  263MPD2    H1 4037   3.147   1.205  10.585  2.7154 -0.1922 -0.9654
  263MPD2    H2 4038   3.164   0.985  10.935 -0.3156 -0.2549  0.3423
  263MPD2    H3 4039   3.106   0.999  10.713 -1.2053  1.2654 -0.0277
  263MPD2     N 4040   3.242   1.434  10.690 -0.2538 -0.5348 -0.3175
  263MPD2    H5 4041   3.276   1.515  10.741 -1.2285 -0.9219  0.9683
  263MPD2    N1 4042   3.316   1.155  11.068  0.6235 -0.2496  0.1754
  263MPD2    H7 4043   3.315   1.060  11.103 -1.2296 -0.6010 -0.8248
  264TMC3    C1 4044   3.272   1.575  10.506  0.7484 -0.3566 -0.3666
  264TMC3    C2 4045   3.264   1.689  10.590 -0.4619 -0.2631  0.4033
  264TMC3    C3 4046   3.281   1.810  10.528  0.2200 -0.1950  0.4122
  264TMC3    C4 4047   3.288   1.587  10.366 -0.1295 -0.6225  0.0802
  264TMC3    C5 4048   3.308   1.713  10.320  0.1738  0.5629  0.2725
  264TMC3    C6 4049   3.302   1.827  10.396  0.4965  0.7604  0.1755
  264TMC3     C 4050   3.232   1.446  10.558  0.0961  0.0659  0.3095
  264TMC3     O 4051   3.233   1.360  10.469 -0.0455  0.2132  0.3054
  264TMC3     H 4052   3.246   1.677  10.696  3.1292  1.8658  1.2717
  264TMC3    H1 4053   3.306   1.500  10.304  1.4078 -0.2948  0.0670
  264TMC3    H2 4054   3.315   1.926  10.353 -2.4509  0.3195 -1.7271
  264TMC3    C7 4055   3.384   1.715  10.190 -0.4610  0.1440  0.2569
  264TMC3    C8 4056   3.312   1.927  10.605 -0.1531 -0.0881  0.1809
  264TMC3    O1 4057   3.487   1.647  10.184 -0.4049  0.4508 -0.2833
  264TMC3    O2 4058   3.372   2.012  10.542  0.0376  0.0783 -0.1703
  265MPD2     C 4059   0.685   1.785  15.351  0.2353 -0.7933  0.1867
  265MPD2    C1 4060   0.704   1.916  15.310 -0.7692  0.0953  0.3824
  265MPD2    C2 4061   0.793   1.942  15.213  0.6051  0.2277  0.6598
  265MPD2    C3 4062   0.873   1.839  15.157  0.0718 -0.2426 -1.1901
  265MPD2    C4 4063   0.845   1.707  15.190 -0.0061  0.2836 -0.4504
  265MPD2    C5 4064   0.758   1.685  15.289  0.9493  0.4281  0.5559
  265MPD2     H 4065   0.808   2.043  15.177  1.0602 -0.0603  0.0624
  265MPD2    H1 4066   0.905   1.633  15.139 -1.1045  0.0735 -1.4318
  265MPD2    H2 4067   0.615   1.757  15.428 -1.1509 -1.0701 -1.1750
  265MPD2    H3 4068   0.741   1.584  15.323  0.2688  0.7779  1.2610
  265MPD2     N 4069   0.972   1.860  15.063  0.0563  0.2989  0.3287
  265MPD2    H5 4070   1.005   1.781  15.008 -1.7730 -0.3207  0.1333
  265MPD2    N1 4071   0.637   2.028  15.360 -0.2387 -0.7384 -0.3159
  265MPD2    H7 4072   0.632   2.114  15.306  1.5276  1.4199  2.9416
  266TMC3    C1 4073   0.496   2.151  15.514  0.4622 -0.9337  0.3240
  266TMC3    C2 4074   0.444   2.151  15.643  0.2953 -0.3544 -0.1019
  266TMC3    C3 4075   0.353   2.242  15.680 -0.0613 -0.1992 -0.3573
  266TMC3    C4 4076   0.461   2.243  15.424  0.3050  0.3005 -0.2686
  266TMC3    C5 4077   0.365   2.332  15.461  0.4994  0.3600  0.3583
  266TMC3    C6 4078   0.314   2.332  15.589 -0.3178  0.2964  0.0722
  266TMC3     C 4079   0.576   2.029  15.486  0.3727 -0.5486  0.1938
  266TMC3     O 4080   0.598   1.948  15.571 -0.1159 -0.1624  0.4404
  266TMC3     H 4081   0.458   2.062  15.705 -1.5435 -0.0539  0.7327
  266TMC3    H1 4082   0.503   2.242  15.324 -2.2141 -1.9138 -1.3218
  266TMC3    H2 4083   0.252   2.418  15.612 -1.7778 -0.5057 -0.8442
  266TMC3    C7 4084   0.357   2.454  15.382 -0.5704  0.4362 -0.1750
  266TMC3    C8 4085   0.332   2.272  15.818  1.0954 -0.7220  0.5498
  266TMC3    O1 4086   0.466   2.475  15.322  0.3473 -0.5223  0.6503
  266TMC3    O2 4087   0.344   2.180  15.897  0.1425 -0.0422  0.0554
  267MPD2     C 4088   3.430   3.823   0.369  0.0804 -0.2731  0.6049
  267MPD2    C1 4089   3.356   3.878   0.474  0.0637  0.8817 -0.0450
  267MPD2    C2 4090   3.217   3.867   0.481 -0.3840 -0.1889  0.1507
  267MPD2    C3 4091   3.157   3.783   0.379  0.0716 -0.1750  0.2338
  267MPD2    C4 4092   3.234   3.726   0.280  0.2074  0.1472 -0.0147
  267MPD2    C5 4093   3.370   3.748   0.271  0.6014 -0.8776 -0.2685
  267MPD2     H 4094   3.152   3.916   0.553 -2.7207 -1.5831 -1.0061
  267MPD2    H1 4095   3.184   3.676   0.197  0.3565 -1.9103  1.1396
  267MPD2    H2 4096   3.534   3.843   0.347 -0.0247  0.2696  0.6120
  267MPD2    H3 4097   3.427   3.708   0.187  1.4344 -1.3125  0.5073
  267MPD2     N 4098   3.020   3.751   0.388  0.3290 -1.0060 -0.3325
  267MPD2    H5 4099   2.989   3.664   0.346 -0.1771 -0.8482 -0.2857
  267MPD2    N1 4100   3.434   3.956   0.566 -0.6057  0.0452  0.1054
  267MPD2    H7 4101   3.532   3.964   0.541 -0.2195  3.5730  2.7416
  268TMC3    C1 4102   3.487   4.068   0.766  0.3625  0.4684  0.1855
  268TMC3    C2 4103   3.554   4.165   0.700 -0.0469  0.4850  0.1734
  268TMC3    C3 4104   3.641   4.236   0.782  0.6023  0.5422 -0.3469
  268TMC3    C4 4105   3.482   4.050   0.896 -1.1241  0.1230 -0.0639
  268TMC3    C5 4106   3.562   4.136   0.973 -0.0858 -0.1245  0.6261
  268TMC3    C6 4107   3.654   4.215   0.917  0.3886  0.2755 -0.2842
  268TMC3     C 4108   3.393   3.990   0.687 -0.4013 -0.5820 -0.2114
  268TMC3     O 4109   3.294   3.943   0.740 -0.3821 -0.0369 -0.1259
  268TMC3     H 4110   3.561   4.174   0.592 -0.8804 -1.1056 -0.0030
  268TMC3    H1 4111   3.413   3.982   0.943 -1.1318 -0.8666 -1.5123
  268TMC3    H2 4112   3.715   4.283   0.976  0.3443 -0.9117  1.1332
  268TMC3    C7 4113   3.575   4.095   1.112 -0.5979 -0.5384  0.4329
  268TMC3    C8 4114   3.750   4.313   0.719 -0.1677  0.4386 -0.4152
  268TMC3    O1 4115   3.546   3.979   1.134  0.1149  0.1794  0.0839
  268TMC3    O2 4116   3.850   4.317   0.786 -0.0948  0.1800  0.1088
  269MPD2     C 4117   3.238   2.385  15.540  0.5517 -0.2039  0.3525
  269MPD2    C1 4118   3.103   2.385  15.543  1.2179 -0.3758  0.3615
  269MPD2    C2 4119   3.038   2.508  15.547 -0.4408 -0.2028  0.2874
  269MPD2    C3 4120   3.109   2.626  15.534 -0.1152  0.1830  0.1680
  269MPD2    C4 4121   3.245   2.627  15.512 -0.0818 -0.0239  0.1085
  269MPD2    C5 4122   3.311   2.504  15.524  0.1091 -0.0014 -0.2406
  269MPD2     H 4123   2.931   2.511  15.558 -0.3246  1.5261  0.8569
  269MPD2    H1 4124   3.312   2.711  15.498  1.6773 -1.5402 -0.7225
  269MPD2    H2 4125   3.295   2.293  15.536 -0.5765 -0.9546  1.5661
  269MPD2    H3 4126   3.419   2.506  15.515  0.1580 -0.8178  0.1973
  269MPD2     N 4127   3.025   2.745  15.530  0.1035  0.0037 -0.3039
  269MPD2    H5 4128   2.925   2.733  15.547 -0.2378  0.8438 -1.7357
  269MPD2    N1 4129   3.039   2.260  15.556  0.2375  0.0546  0.4987
  269MPD2    H7 4130   3.103   2.182  15.542  0.9269  0.6313  0.4327
  270TMC3    C1 4131   2.884   2.093  15.529 -0.1739  0.0168  0.0113
  270TMC3    C2 4132   2.785   2.074  15.438 -0.7847  0.1842  0.1838
  270TMC3    C3 4133   2.803   1.961  15.357  0.6777  0.0020 -0.4362
  270TMC3    C4 4134   3.002   2.025  15.546 -0.2722 -0.0193 -0.1236
  270TMC3    C5 4135   3.018   1.933  15.448  0.7562  0.0437  0.5963
  270TMC3    C6 4136   2.926   1.901  15.347  0.5189  0.5294  0.6409
  270TMC3     C 4137   2.904   2.229  15.571  0.1107 -0.0305 -0.1165
  270TMC3     O 4138   2.806   2.301  15.597  0.0374  0.2578 -0.0822
  270TMC3     H 4139   2.691   2.129  15.436 -0.4970  0.7268  2.1437
  270TMC3    H1 4140   3.076   2.041  15.623 -0.1270 -1.7290  0.1031
  270TMC3    H2 4141   2.933   1.803  15.300  1.9171  0.6769  0.5510
  270TMC3    C7 4142   3.138   1.855  15.459  0.7451 -0.5243 -0.4711
  270TMC3    C8 4143   2.719   1.967  15.237  0.0808  0.1401  0.4507
  270TMC3    O1 4144   3.182   1.867  15.572  0.1570 -0.2637 -0.0574
  270TMC3    O2 4145   2.608   2.017  15.244  0.0498 -0.2750 -0.3664
  271MPD2     C 4146   2.137   2.317  13.675 -0.0950 -0.5478 -0.2018
  271MPD2    C1 4147   2.092   2.327  13.802  0.0447  0.2765 -0.2246
  271MPD2    C2 4148   1.981   2.411  13.817  0.3611  0.4015  0.1939
  271MPD2    C3 4149   1.913   2.458  13.705 -0.2365  0.2850 -0.2995
  271MPD2    C4 4150   1.958   2.446  13.582 -0.1517  0.7710 -1.0375
  271MPD2    C5 4151   2.078   2.383  13.571  0.1361  0.2541 -0.0368
  271MPD2     H 4152   1.938   2.427  13.915 -0.6017  3.4022 -0.7075
  271MPD2    H1 4153   1.909   2.494  13.498  0.5295  1.8749 -0.8101
  271MPD2    H2 4154   2.228   2.260  13.658 -0.0113 -0.1917 -0.9546
  271MPD2    H3 4155   2.122   2.378  13.472 -0.8517 -0.4090 -0.4357
  271MPD2     N 4156   1.790   2.528  13.711 -0.1043  0.8822  0.3157
  271MPD2    H5 4157   1.738   2.535  13.624  0.1058 -0.3142  0.0878
  271MPD2    N1 4158   2.154   2.268  13.914 -0.5135  0.7920  0.2676
  271MPD2    H7 4159   2.119   2.292  14.007  0.3820 -2.8326  1.5364
  272TMC3    C1 4160   2.309   2.142  14.039  0.5271  0.7251  0.8548
  272TMC3    C2 4161   2.441   2.097  14.041 -0.8922  0.3329  0.0982
  272TMC3    C3 4162   2.506   2.079  14.158 -0.0687  0.2872 -1.2656
  272TMC3    C4 4163   2.247   2.166  14.162  0.1926  0.5166  0.9490
  272TMC3    C5 4164   2.319   2.154  14.283 -0.2674 -0.9224 -0.3269
  272TMC3    C6 4165   2.445   2.101  14.278  1.0444 -0.4136  0.2325
  272TMC3     C 4166   2.263   2.186  13.914  0.5394 -0.3353  0.0872
  272TMC3     O 4167   2.332   2.147  13.821  0.0443 -0.4590 -0.4273
  272TMC3     H 4168   2.499   2.087  13.950 -0.6208  0.2640  0.2785
  272TMC3    H1 4169   2.141   2.185  14.169  0.3159  1.7166 -0.5122
  272TMC3    H2 4170   2.510   2.106  14.365 -0.1057 -2.9783  1.2450
  272TMC3    C7 4171   2.254   2.175  14.406  0.1872 -0.0444  0.1337
  272TMC3    C8 4172   2.656   2.064  14.148 -0.0087 -0.0103  0.1003
  272TMC3    O1 4173   2.137   2.146  14.412  0.2600  0.7200 -0.0655
  272TMC3    O2 4174   2.709   2.081  14.036  0.2971  0.1233  0.2394
  273MPD2     C 4175   3.500   0.009  11.670  0.6861  0.1203 -0.6448
  273MPD2    C1 4176   3.615   0.039  11.609 -0.1614 -0.4993  0.2008
  273MPD2    C2 4177   3.617   0.049  11.475  0.2826  0.6626  0.3414
  273MPD2    C3 4178   3.503   0.036  11.397 -0.6789 -0.9375  0.5247
  273MPD2    C4 4179   3.382   0.002  11.456  0.2308 -0.1042 -0.6032
  273MPD2    C5 4180   3.389   4.722  11.592  0.0537 -0.1423 -0.3463
  273MPD2     H 4181   3.710   0.051  11.418  1.0450 -0.9580  1.5091
  273MPD2    H1 4182   3.283   0.006  11.412 -1.6356  0.6882  3.6429
  273MPD2    H2 4183   3.488   0.004  11.777  1.2780 -2.3570 -0.6939
  273MPD2    H3 4184   3.295   4.692  11.637 -1.3940  0.6404 -2.8506
  273MPD2     N 4185   3.498   0.055  11.255 -0.5288  0.4763 -0.3332
  273MPD2    H5 4186   3.412   0.027  11.208 -1.8299  0.9066  1.7344
  273MPD2    N1 4187   3.734   0.063  11.690 -0.2690  0.3705  0.3894
  273MPD2    H7 4188   3.724   0.018  11.780  1.6722 -0.1281  0.3534
  274TMC3    C1 4189   3.573   0.129  11.035  0.6478 -0.2824  0.3761
  274TMC3    C2 4190   3.446   0.158  10.992  0.3506 -0.2536  0.1261
  274TMC3    C3 4191   3.436   0.267  10.904 -0.6810  0.0573  0.6276
  274TMC3    C4 4192   3.686   0.197  10.987  0.0739  0.2819 -0.4182
  274TMC3    C5 4193   3.666   0.307  10.917  0.3932 -0.2120  0.4652
  274TMC3    C6 4194   3.542   0.342  10.863 -0.0238 -0.1407 -0.0193
  274TMC3     C 4195   3.594   0.117  11.181  0.3761 -0.3436  0.3131
  274TMC3     O 4196   3.695   0.166  11.223 -0.5981  0.0799 -0.5624
  274TMC3     H 4197   3.359   0.094  11.001  0.1557 -0.0292 -0.1879
  274TMC3    H1 4198   3.789   0.168  11.003 -0.1025  0.6735  1.3926
  274TMC3    H2 4199   3.526   0.450  10.861  2.3477  0.2537  2.2780
  274TMC3    C7 4200   3.761   0.419  10.950  0.5820 -0.2905 -0.6202
  274TMC3    C8 4201   3.310   0.284  10.836 -0.1897 -0.7372 -0.0181
  274TMC3    O1 4202   3.745   0.530  10.907 -0.1014 -0.1454  0.6164
  274TMC3    O2 4203   3.217   0.217  10.874  0.6079 -0.1527 -0.0040
  275MPD2     C 4204   3.557   3.469  14.286 -0.0467 -0.6095  0.1400
  275MPD2    C1 4205   3.489   3.504  14.399 -0.0958 -0.2112 -0.6921
  275MPD2    C2 4206   3.353   3.476  14.407 -0.0716  0.4249 -0.1123
  275MPD2    C3 4207   3.295   3.397  14.300  0.7634  0.5380 -0.2733
  275MPD2    C4 4208   3.371   3.361  14.188  0.3693  0.7168  0.1121
  275MPD2    C5 4209   3.503   3.386  14.189  0.0709  0.0105 -0.0744
  275MPD2     H 4210   3.303   3.498  14.500  2.3085  1.6638  0.8809
  275MPD2    H1 4211   3.324   3.308  14.106  0.0805  1.2041 -0.0422
  275MPD2    H2 4212   3.660   3.496  14.263  0.2890  0.3029  2.8109
  275MPD2    H3 4213   3.559   3.350  14.103  1.7847  0.7662  0.7336
  275MPD2     N 4214   3.164   3.352  14.300  0.7265 -0.4734 -0.0235
  275MPD2    H5 4215   3.154   3.281  14.228 -0.1355 -0.9715  0.5780
  275MPD2    N1 4216   3.554   3.569  14.510  0.1103 -0.0128 -0.0307
  275MPD2    H7 4217   3.495   3.574  14.592  0.6198 -3.0150  0.5323
  276TMC3    C1 4218   3.714   3.639  14.659 -0.0941  0.4056 -0.4707
  276TMC3    C2 4219   3.671   3.541  14.740 -0.5342  0.0456 -0.0422
  276TMC3    C3 4220   3.716   3.540  14.869 -0.1955  0.7110  0.4104
  276TMC3    C4 4221   3.807   3.728  14.695 -0.0503 -0.1784 -0.2706
  276TMC3    C5 4222   3.853   3.724  14.822 -0.4449  0.7646  0.4774
  276TMC3    C6 4223   3.814   3.627  14.913 -0.3531  0.8471 -0.1052
  276TMC3     C 4224   3.686   3.616  14.521  0.9575 -0.4865 -1.0280
  276TMC3     O 4225   3.766   3.638  14.433 -0.5174  0.3967 -0.4874
  276TMC3     H 4226   3.622   3.457  14.692 -1.2371  0.9085 -0.8271
  276TMC3    H1 4227   3.848   3.797  14.621  1.3931 -1.1830 -0.4110
  276TMC3    H2 4228   3.853   3.624  15.014 -0.1411  1.1976 -0.1753
  276TMC3    C7 4229   3.935   3.827  14.877  0.6110 -0.7544 -0.0807
  276TMC3    C8 4230   3.693   3.416  14.941 -0.4389  0.7144  0.0179
  276TMC3    O1 4231   3.905   3.871  14.990  0.2326  0.6614 -0.4004
  276TMC3    O2 4232   3.777   3.367  15.016 -0.5406 -0.6279 -0.1493
  277MPD2     C 4233   0.393   1.979  13.439 -0.5679 -0.2986 -0.2374
  277MPD2    C1 4234   0.269   2.034  13.439  0.3411 -0.0101  0.5309
  277MPD2    C2 4235   0.168   1.952  13.474 -0.2223  0.4383  0.0453
  277MPD2    C3 4236   0.187   1.824  13.523 -0.0357  0.0649 -0.5105
  277MPD2    C4 4237   0.317   1.778  13.513 -0.4394 -0.1687 -0.8156
  277MPD2    C5 4238   0.424   1.853  13.480 -0.3492  0.6580  0.1385
  277MPD2     H 4239   0.065   1.985  13.473 -0.1946  0.5868  2.1505
  277MPD2    H1 4240   0.348   1.681  13.552 -1.2549 -1.1203 -2.5067
  277MPD2    H2 4241   0.474   2.043  13.406  1.1626 -2.1021  0.4952
  277MPD2    H3 4242   0.519   1.802  13.494 -0.2329  0.8560  0.0679
  277MPD2     N 4243   0.082   1.757  13.584  0.0159 -0.2015  0.7250
  277MPD2    H5 4244   4.732   1.810  13.588  1.2214  1.9825 -1.8056
  277MPD2    N1 4245   0.255   2.166  13.388  0.2123 -0.9322  0.4081
  277MPD2    H7 4246   0.339   2.214  13.358 -0.7662 -0.1497 -1.1477
  278TMC3    C1 4247   4.684   1.582  13.667  0.0729  0.0650 -0.7399
  278TMC3    C2 4248   4.685   1.447  13.647 -0.2126  0.3994 -0.1462
  278TMC3    C3 4249   4.573   1.377  13.602 -0.7809 -0.1124  0.2397
  278TMC3    C4 4250   4.568   1.653  13.637  0.0342 -0.0089  0.8226
  278TMC3    C5 4251   4.461   1.581  13.603  0.2552 -0.2255  0.3299
  278TMC3    C6 4252   4.456   1.446  13.582  0.1984 -0.7148 -0.1844
  278TMC3     C 4253   0.078   1.636  13.637  0.0269  0.1502  0.3939
  278TMC3     O 4254   0.168   1.552  13.620 -0.3433  0.3541  0.8426
  278TMC3     H 4255   0.039   1.387  13.651  0.7304  1.6156 -3.3492
  278TMC3    H1 4256   4.557   1.758  13.665  0.3277  0.1354  0.3984
  278TMC3    H2 4257   4.365   1.391  13.560 -0.5975  0.6856 -0.3457
  278TMC3    C7 4258   4.335   1.653  13.599  0.4648  0.1135  0.6408
  278TMC3    C8 4259   4.595   1.274  13.503 -0.0163  0.1892 -1.0042
  278TMC3    O1 4260   4.341   1.776  13.611 -0.4801  0.1784 -0.0419
  278TMC3    O2 4261   4.533   1.285  13.397 -0.0069 -0.1317  0.1040
  279MPD2     C 4262   4.162   2.177   0.269 -0.8227 -0.5659 -0.4865
  279MPD2    C1 4263   4.277   2.243   0.310 -0.2704  0.2285 -0.2242
  279MPD2    C2 4264   4.380   2.265   0.217 -0.1640  0.5614 -0.5600
  279MPD2    C3 4265   4.364   2.213   0.090 -0.0161 -0.2354  0.8027
  279MPD2    C4 4266   4.250   2.136   0.056  0.1128 -0.1689 -0.5713
  279MPD2    C5 4267   4.145   2.125   0.146  0.3340 -0.1344  0.3520
  279MPD2     H 4268   4.467   2.323   0.244 -1.3236  0.1795  4.0405
  279MPD2    H1 4269   4.249   2.104  17.697 -0.9671  0.2802 -0.7036
  279MPD2    H2 4270   4.080   2.167   0.339 -0.0033 -0.4422  0.5060
  279MPD2    H3 4271   4.051   2.081   0.115  0.1252 -0.2958  1.2194
  279MPD2     N 4272   4.454   2.237  17.730 -0.0214  0.5654  0.1615
  279MPD2    H5 4273   4.424   2.208  17.637 -0.2458 -0.5060  0.5658
  279MPD2    N1 4274   4.293   2.287   0.443 -0.7196  0.8012 -0.5542
  279MPD2    H7 4275   4.208   2.283   0.498 -1.1023  0.9493 -1.1327
  280TMC3    C1 4276   4.381   2.402   0.625 -0.6697 -0.2072 -0.1264
  280TMC3    C2 4277   4.250   2.401   0.660 -0.0187 -0.6764  0.3359
  280TMC3    C3 4278   4.188   2.518   0.708 -0.0724 -0.4908  0.0984
  280TMC3    C4 4279   4.454   2.519   0.631 -0.0646  0.2489  0.4834
  280TMC3    C5 4280   4.386   2.638   0.661  0.1613 -0.0174 -0.0022
  280TMC3    C6 4281   4.253   2.641   0.700 -0.5667 -0.3116 -0.1710
  280TMC3     C 4282   4.412   2.327   0.505  0.4376 -0.0188 -0.1441
  280TMC3     O 4283   4.523   2.336   0.460  0.2177 -0.0321  0.1476
  280TMC3     H 4284   4.201   2.306   0.677 -0.4444 -0.4254  0.5213
  280TMC3    H1 4285   4.555   2.522   0.592 -0.7072  0.7933 -1.1707
  280TMC3    H2 4286   4.197   2.729   0.727  0.3546  0.9920 -2.4791
  280TMC3    C7 4287   4.456   2.757   0.628  0.2712  0.2425  0.2278
  280TMC3    C8 4288   4.094   2.513   0.811 -0.0445  0.7377 -0.0260
  280TMC3    O1 4289   4.568   2.766   0.674  0.1419 -0.6641 -0.3254
  280TMC3    O2 4290   4.093   2.606   0.886 -0.3244 -0.2674 -0.3760
  281TMC3    C1 4291   3.267   2.915  13.264 -0.3894  0.3854 -0.1261
  281TMC3    C2 4292   3.371   2.955  13.352 -0.6206 -0.3432  0.7319
  281TMC3    C3 4293   3.495   2.913  13.309  0.4335  0.4094 -0.8126
  281TMC3    C4 4294   3.279   2.818  13.165 -0.6920  0.1877 -0.5244
  281TMC3    C5 4295   3.406   2.776  13.137 -0.9961  0.1414  0.5442
  281TMC3    C6 4296   3.518   2.821  13.209 -0.1064 -0.2395  0.1366
  281TMC3     C 4297   3.129   2.935  13.297 -0.7985 -0.4934  0.8112
  281TMC3     O 4298   3.051   2.855  13.242 -0.7643  0.2684  0.4475
  281TMC3     H 4299   3.358   3.002  13.449 -0.1244  0.0511  0.6059
  281TMC3    H1 4300   3.200   2.787  13.098 -0.8858  0.2299 -0.3195
  281TMC3    H2 4301   3.616   2.792  13.174  0.2844  0.0139  0.9991
  281TMC3    C7 4302   3.420   2.695  13.023 -0.0145 -0.3123  0.5718
  281TMC3    C8 4303   3.616   2.957  13.383 -0.0980  0.5074  0.5815
  281TMC3    O1 4304   3.527   2.687  12.966 -0.8903 -0.1146 -0.6888
  281TMC3    O2 4305   3.612   2.923  13.500 -0.3985 -0.7287  0.8658
  282MPD2     C 4306   0.147   0.050  15.106  0.4361  0.1289  0.3877
  282MPD2    C1 4307   0.061   4.708  15.177  0.0004 -0.0666 -0.7182
  282MPD2    C2 4308   4.717   4.613  15.118  0.3770  0.0145  0.7463
  282MPD2    C3 4309   4.722   4.608  14.977  0.2772 -0.2948 -0.0811
  282MPD2    C4 4310   0.075   4.683  14.908  0.0668  0.4994  0.1428
  282MPD2    C5 4311   0.153   0.037  14.971  0.7804 -0.3454  0.3133
  282MPD2     H 4312   4.646   4.548  15.169  0.7986 -2.3166 -1.6556
  282MPD2    H1 4313   0.060   4.686  14.801  2.5533 -0.6206 -0.2220
  282MPD2    H2 4314   0.227   0.113  15.143  0.5113 -0.4899  1.2740
  282MPD2    H3 4315   0.219   0.103  14.916  1.3903  0.4676  2.0373
  282MPD2     N 4316   4.622   4.526  14.915  0.6515 -0.2077  0.7128
  282MPD2    H5 4317   4.543   4.497  14.973  0.3604  0.7334  0.8009
  282MPD2    N1 4318   0.048   4.721  15.319 -0.1727  0.7393 -0.3773
  282MPD2    H7 4319   4.721   4.659  15.369 -0.1764 -0.1920 -1.5416
  283TMC3    C1 4320   0.118   0.066  15.532 -0.5198 -0.2702  0.2867
  283TMC3    C2 4321   0.191   0.161  15.599 -0.0548  0.5369 -0.2092
  283TMC3    C3 4322   0.193   0.161  15.735 -0.4271 -0.7453  0.2057
  283TMC3    C4 4323   0.051   4.706  15.602 -0.2468  0.1422  0.7792
  283TMC3    C5 4324   0.057   4.710  15.733  0.5595 -1.1908 -0.0916
  283TMC3    C6 4325   0.132   0.061  15.802  0.2676  0.0588  0.4464
  283TMC3     C 4326   0.135   0.069  15.392  0.4740 -0.2835 -0.5571
  283TMC3     O 4327   0.212   0.155  15.353  0.5344 -0.0622  0.3830
  283TMC3     H 4328   0.216   0.251  15.543 -0.0560  0.1069 -0.9059
  283TMC3    H1 4329   4.711   4.655  15.545  1.1008 -3.2905  2.0337
  283TMC3    H2 4330   0.154   0.045  15.906 -0.8672  3.0719  1.1528
  283TMC3    C7 4331   4.714   4.610  15.804  0.2855 -0.1038  0.0318
  283TMC3    C8 4332   0.305   0.227  15.800  0.5045 -0.1710 -0.2627
  283TMC3    O1 4333   4.694   4.630  15.925  0.3358  0.1904  0.7796
  283TMC3    O2 4334   0.294   0.246  15.924  0.0112  0.0642 -0.3820
  284MPD2     C 4335   3.627   3.427  11.828  0.1569 -0.4624 -0.4725
  284MPD2    C1 4336   3.542   3.361  11.745  0.1255  0.4681  0.7109
  284MPD2    C2 4337   3.466   3.257  11.802 -0.1822 -0.5130  0.2095
  284MPD2    C3 4338   3.483   3.216  11.934  0.1815 -0.5103  0.0573
  284MPD2    C4 4339   3.576   3.288  12.009 -0.7310 -0.5093 -0.4555
  284MPD2    C5 4340   3.639   3.397  11.960  0.1098 -0.5971  0.0222
  284MPD2     H 4341   3.393   3.214  11.735  0.8399 -1.2486 -0.4410
  284MPD2    H1 4342   3.598   3.262  12.112 -0.6893 -0.6695 -0.5057
  284MPD2    H2 4343   3.687   3.508  11.790  1.2113 -0.2887  1.5813
  284MPD2    H3 4344   3.708   3.459  12.014 -0.7830  1.2585 -0.9636
  284MPD2     N 4345   3.425   3.093  11.972  0.1470  0.6507  0.3455
  284MPD2    H5 4346   3.369   3.060  11.895  0.6926 -3.2797  1.6213
  284MPD2    N1 4347   3.522   3.398  11.606 -0.4617  0.1961  0.1715
  284MPD2    H7 4348   3.455   3.347  11.549  3.4656 -2.6989 -1.8714
  285TMC3    C1 4349   3.542   3.519  11.410  0.4065  0.8209  0.4342
  285TMC3    C2 4350   3.545   3.413  11.330 -0.0579 -0.0258 -0.2143
  285TMC3    C3 4351   3.534   3.437  11.194  0.0764 -1.3284 -0.1939
  285TMC3    C4 4352   3.565   3.643  11.357  0.5258 -0.1952  0.3995
  285TMC3    C5 4353   3.572   3.671  11.229 -0.4005  0.6998  0.7157
  285TMC3    C6 4354   3.560   3.562  11.136  0.2467  0.2284 -0.8352
  285TMC3     C 4355   3.583   3.509  11.552 -0.1771  0.2939  0.8165
  285TMC3     O 4356   3.643   3.606  11.595  0.1288  0.0852 -0.8210
  285TMC3     H 4357   3.529   3.314  11.372 -0.2876  0.5865  1.1485
  285TMC3    H1 4358   3.557   3.727  11.425  0.8270 -0.7763  1.1398
  285TMC3    H2 4359   3.558   3.575  11.028 -1.5719 -1.4453 -0.9909
  285TMC3    C7 4360   3.602   3.806  11.191  0.1373  0.0091 -0.5568
  285TMC3    C8 4361   3.558   3.322  11.106  0.1379  0.7189 -0.1416
  285TMC3    O1 4362   3.680   3.868  11.259  0.5284  0.0198  0.1107
  285TMC3    O2 4363   3.560   3.209  11.155  0.4574  0.1504 -0.4289
  286MPD2     C 4364   4.194   2.309   1.891 -0.1905  0.4826  0.2146
  286MPD2    C1 4365   4.135   2.328   1.769 -0.0274 -0.5102 -0.7902
  286MPD2    C2 4366   4.172   2.266   1.646  0.6045  0.0918 -0.4311
  286MPD2    C3 4367   4.283   2.185   1.658 -0.0525  0.5770  0.3493
  286MPD2    C4 4368   4.344   2.175   1.777  0.1768 -0.1210  0.0444
  286MPD2    C5 4369   4.302   2.227   1.897  0.3540 -0.4084  0.1024
  286MPD2     H 4370   4.120   2.296   1.556  0.6569  1.3545 -0.0359
  286MPD2    H1 4371   4.426   2.105   1.785 -0.5604 -0.7981  1.7377
  286MPD2    H2 4372   4.158   2.357   1.981  0.1943  0.2950  0.4683
  286MPD2    H3 4373   4.339   2.198   1.995  0.0559 -2.5409 -0.4164
  286MPD2     N 4374   4.336   2.103   1.555  0.5322 -0.4213 -0.4466
  286MPD2    H5 4375   4.414   2.043   1.578  0.5913 -1.4145 -3.2017
  286MPD2    N1 4376   4.027   2.420   1.759  0.1776 -0.1169 -0.5121
  286MPD2    H7 4377   3.993   2.434   1.664  1.7550  1.4890 -0.8433
  287TMC3    C1 4378   4.350   1.983   1.349  0.7526  0.7006  0.6707
  287TMC3    C2 4379   4.286   1.936   1.242 -0.4793 -0.0884  0.0644
  287TMC3    C3 4380   4.342   1.835   1.172 -0.1022  0.6004 -0.5694
  287TMC3    C4 4381   4.472   1.941   1.377 -0.0054 -0.1887  0.0276
  287TMC3    C5 4382   4.513   1.823   1.321  0.4785 -0.0071  0.4780
  287TMC3    C6 4383   4.446   1.764   1.220  0.0784  0.2191  0.3279
  287TMC3     C 4384   4.286   2.093   1.424  0.5793  0.2042  0.2674
  287TMC3     O 4385   4.204   2.158   1.363  0.6465 -0.3870  0.0364
  287TMC3     H 4386   4.192   1.979   1.210 -0.0635  0.6386 -0.1622
  287TMC3    H1 4387   4.534   1.996   1.448 -1.1338  1.3208 -0.1572
  287TMC3    H2 4388   4.503   1.700   1.154  1.4488 -0.3775  2.0685
  287TMC3    C7 4389   4.607   1.748   1.402 -0.3960 -0.2391 -0.0540
  287TMC3    C8 4390   4.266   1.760   1.073  0.2108 -0.0394 -0.1961
  287TMC3    O1 4391   4.653   1.804   1.501  0.3913 -0.2676  0.6598
  287TMC3    O2 4392   4.313   1.651   1.046  0.1308  0.1536 -0.1925
  288TMC3    C1 4393   1.153   2.056  14.147  0.4176  0.0329  0.1919
  288TMC3    C2 4394   1.067   2.013  14.240 -0.3209 -0.3421 -0.4090
  288TMC3    C3 4395   0.948   2.071  14.267 -0.4625  0.6778 -0.2843
  288TMC3    C4 4396   1.123   2.160  14.062  0.4111  0.4822 -0.4556
  288TMC3    C5 4397   0.997   2.220  14.084  0.2748  0.0065  0.0220
  288TMC3    C6 4398   0.911   2.179  14.187 -0.2750  0.1362 -0.7163
  288TMC3     C 4399   1.262   1.969  14.103 -0.2987 -0.1565  0.1025
  288TMC3     O 4400   1.306   1.896  14.191 -0.0012 -0.3217  0.3241
  288TMC3     H 4401   1.097   1.944  14.318  0.1114  0.9229  0.5327
  288TMC3    H1 4402   1.199   2.213  14.005  1.9824 -1.6214 -0.2992
  288TMC3    H2 4403   0.821   2.239  14.194  0.8157  1.5313  1.4605
  288TMC3    C7 4404   0.988   2.359  14.049 -0.0324  0.5357 -0.1189
  288TMC3    C8 4405   0.924   2.101  14.407 -0.8758  0.4499  0.2442
  288TMC3    O1 4406   1.028   2.400  13.940  0.3613 -0.3718 -0.1111
  288TMC3    O2 4407   0.958   2.215  14.442  0.2499 -0.7120  0.1178
  289MPD2     C 4408   1.097   0.979  14.291  0.6644 -0.0535 -0.3388
  289MPD2    C1 4409   1.078   1.082  14.203 -0.5498  0.7811 -0.4078
  289MPD2    C2 4410   0.949   1.126  14.190  0.0603 -0.3188  0.2380
  289MPD2    C3 4411   0.842   1.058  14.236 -0.5182 -0.1327 -0.3702
  289MPD2    C4 4412   0.863   0.951  14.323  0.5486  0.4077  0.9160
  289MPD2    C5 4413   0.991   0.909  14.342  0.2036 -0.0288 -0.1307
  289MPD2     H 4414   0.933   1.214  14.129 -1.4210 -2.7053 -2.8073
  289MPD2    H1 4415   0.781   0.894  14.365  0.3454  0.6579  0.8560
  289MPD2    H2 4416   1.197   0.938  14.290  1.0276  0.8760 -1.8828
  289MPD2    H3 4417   1.012   0.812  14.386 -0.6402 -0.3528 -0.4503
  289MPD2     N 4418   0.704   1.099  14.235  0.9140  0.2749  0.3329
  289MPD2    H5 4419   0.635   1.039  14.279 -0.8043  1.4749 -0.7216
  289MPD2    N1 4420   1.185   1.132  14.131  0.2783 -0.3054  0.0841
  289MPD2    H7 4421   1.278   1.107  14.164  0.2502  0.2924  0.6277
  290TMC3    C1 4422   0.515   1.237  14.187  0.5534 -0.0862 -0.2422
  290TMC3    C2 4423   0.474   1.363  14.162  0.1402  0.2548 -0.4139
  290TMC3    C3 4424   0.342   1.382  14.126  0.1224 -0.8088 -0.5877
  290TMC3    C4 4425   0.433   1.129  14.162  0.4464 -0.3367  0.2430
  290TMC3    C5 4426   0.313   1.152  14.107 -0.0903  0.2742  0.1198
  290TMC3    C6 4427   0.265   1.280  14.090  0.2692  0.1289 -0.1529
  290TMC3     C 4428   0.657   1.214  14.174  0.1172 -0.4723 -0.0425
  290TMC3     O 4429   0.722   1.306  14.121  0.2071 -0.1964 -0.2976
  290TMC3     H 4430   0.542   1.447  14.173 -2.2831  2.4201 -2.0634
  290TMC3    H1 4431   0.474   1.029  14.162  0.4724 -0.3268 -1.3044
  290TMC3    H2 4432   0.166   1.307  14.054  0.0010 -2.2640 -1.1652
  290TMC3    C7 4433   0.220   1.044  14.106 -0.2402  0.5083 -0.1170
  290TMC3    C8 4434   0.317   1.499  14.053 -0.0058 -0.6467  0.4650
  290TMC3    O1 4435   0.108   1.074  14.063 -0.2653 -0.2817 -0.3267
  290TMC3    O2 4436   0.250   1.492  13.953 -0.0495  0.1378 -0.7302
  291MPD2     C 4437   4.703   0.949   0.153 -0.5933  0.8079  0.1968
  291MPD2    C1 4438   0.032   0.908   0.273  0.2682  0.0603 -0.4494
  291MPD2    C2 4439   0.043   1.010   0.370  0.3407  1.0034 -0.5792
  291MPD2    C3 4440   0.006   1.142   0.350  0.1716  0.0271  0.7856
  291MPD2    C4 4441   4.687   1.176   0.232  0.2277 -0.4173  0.3629
  291MPD2    C5 4442   4.663   1.083   0.135 -1.2519  0.1459 -0.2578
  291MPD2     H 4443   0.096   0.992   0.463  2.1159 -0.8156 -1.9338
  291MPD2    H1 4444   4.665   1.277   0.197 -1.3187 -1.7958 -2.6624
  291MPD2    H2 4445   4.687   0.885   0.067  0.7658 -0.3580  0.8199
  291MPD2    H3 4446   4.638   1.116   0.035 -0.3108 -0.5503 -0.7282
  291MPD2     N 4447   0.039   1.244   0.441 -1.2700 -0.2346  0.0024
  291MPD2    H5 4448   0.025   1.339   0.407  3.1884 -0.1852 -1.6539
  291MPD2    N1 4449   0.081   0.777   0.297 -0.3798 -0.2195  0.3400
  291MPD2    H7 4450   0.144   0.768   0.377 -1.8391  0.4522  1.5706
  292TMC3    C1 4451   0.123   0.546   0.261  1.0269 -0.3541  0.5577
  292TMC3    C2 4452   0.237   0.560   0.340 -0.0871 -0.1085  0.1078
  292TMC3    C3 4453   0.292   0.440   0.375  0.0529  0.2832  0.3871
  292TMC3    C4 4454   0.067   0.424   0.224 -0.1371  0.0657  0.3364
  292TMC3    C5 4455   0.130   0.312   0.266 -0.8149 -0.0661  0.3346
  292TMC3    C6 4456   0.246   0.318   0.341 -0.9016  0.1842 -0.1561
  292TMC3     C 4457   0.055   0.669   0.213  0.0841  0.2902  0.4616
  292TMC3     O 4458   4.691   0.665   0.141  0.0285 -0.5785 -0.8574
  292TMC3     H 4459   0.292   0.652   0.349 -0.4440  0.0297  0.8749
  292TMC3    H1 4460   4.712   0.428   0.165  1.7697 -1.6158 -2.7370
  292TMC3    H2 4461   0.297   0.225   0.366  1.4045  1.6163  0.4070
  292TMC3    C7 4462   0.097   0.189   0.206 -0.4346 -0.2132 -0.4578
  292TMC3    C8 4463   0.398   0.443   0.465  0.3008  0.4576  0.3928
  292TMC3    O1 4464   0.183   0.106   0.185 -0.2448 -0.1803 -0.2424
  292TMC3    O2 4465   0.472   0.538   0.474 -0.7591  0.4594 -0.4017
  293MPD2     C 4466   2.095   2.335  12.263 -0.3096 -0.3921 -0.8659
  293MPD2    C1 4467   1.978   2.281  12.301 -0.2964 -0.0041  0.0443
  293MPD2    C2 4468   1.943   2.284  12.437 -0.2245 -0.3488 -0.7842
  293MPD2    C3 4469   2.024   2.349  12.519 -0.0691  0.0028 -0.3449
  293MPD2    C4 4470   2.137   2.414  12.479  0.5609 -0.0015 -0.3296
  293MPD2    C5 4471   2.174   2.408  12.345 -0.9537  0.2285  0.3733
  293MPD2     H 4472   1.853   2.234  12.472  0.0999  0.3111  1.0030
  293MPD2    H1 4473   2.201   2.465  12.551 -1.4340  2.2802 -0.1736
  293MPD2    H2 4474   2.119   2.333  12.157  0.4632 -1.2566 -0.6714
  293MPD2    H3 4475   2.255   2.466  12.301 -0.6433  0.1082  0.7928
  293MPD2     N 4476   1.972   2.354  12.653 -0.2058  0.1848 -0.3720
  293MPD2    H5 4477   1.899   2.291  12.684 -1.1147  1.1135 -0.6306
  293MPD2    N1 4478   1.906   2.202  12.207  0.1396  0.3263  0.6668
  293MPD2    H7 4479   1.945   2.189  12.114 -0.2352 -0.2656  0.5948
  294TMC3    C1 4480   1.727   2.086  12.100 -0.0586  0.3663 -0.3527
  294TMC3    C2 4481   1.604   2.032  12.108  0.4544 -0.3926 -0.1224
  294TMC3    C3 4482   1.553   1.962  12.000  0.3251 -0.6764 -0.3072
  294TMC3    C4 4483   1.808   2.062  11.990  0.3730 -0.3023 -0.1872
  294TMC3    C5 4484   1.748   1.996  11.879  0.5672 -0.1850 -0.1101
  294TMC3    C6 4485   1.619   1.946  11.879 -0.0032 -0.4113 -0.2409
  294TMC3     C 4486   1.781   2.151  12.223 -0.3492  0.4725  0.5845
  294TMC3     O 4487   1.699   2.153  12.314 -0.4809  0.0550 -0.0003
  294TMC3     H 4488   1.550   2.048  12.201  2.4102  0.3691  0.8670
  294TMC3    H1 4489   1.909   2.100  11.979 -0.2451  1.1756 -0.7426
  294TMC3    H2 4490   1.572   1.912  11.788  0.1515  1.2609 -0.9533
  294TMC3    C7 4491   1.818   1.990  11.751 -0.5719 -0.4459  0.4472
  294TMC3    C8 4492   1.424   1.901  12.023 -0.4801  0.4856  0.8425
  294TMC3    O1 4493   1.904   2.068  11.732  0.2433 -0.6101  0.3024
  294TMC3    O2 4494   1.350   1.966  12.093  0.6192  0.1746  0.2619
  295MPD2     C 4495   3.084   1.249   0.297 -0.0295 -0.7866  0.1931
  295MPD2    C1 4496   2.988   1.272   0.202 -0.6296  0.2353  0.6390
  295MPD2    C2 4497   2.856   1.228   0.226  0.2028  0.3164  0.2658
  295MPD2    C3 4498   2.830   1.176   0.349  0.0774 -0.0435  0.8886
  295MPD2    C4 4499   2.927   1.153   0.439  0.7124  0.3089 -0.5741
  295MPD2    C5 4500   3.055   1.197   0.416 -0.5321 -0.2521  0.5160
  295MPD2     H 4501   2.779   1.241   0.151  0.1506  0.5265  0.3553
  295MPD2    H1 4502   2.892   1.111   0.533  1.1108  1.3889  0.0624
  295MPD2    H2 4503   3.185   1.288   0.288  0.7559 -2.5606  1.4065
  295MPD2    H3 4504   3.128   1.206   0.497  0.9252 -0.2451 -0.7995
  295MPD2     N 4505   2.708   1.113   0.379 -0.3460 -0.7750 -0.3509
  295MPD2    H5 4506   2.697   1.066   0.468 -0.0549 -0.0982  0.0356
  295MPD2    N1 4507   3.021   1.330   0.080  0.0462  0.3903 -0.2218
  295MPD2    H7 4508   2.951   1.317   0.007  0.4959  1.1606 -0.7868
  296TMC3    C1 4509   2.483   1.094   0.401 -0.6631  0.2999 -0.2105
  296TMC3    C2 4510   2.366   1.163   0.416  0.6633 -0.3316 -0.5330
  296TMC3    C3 4511   2.259   1.107   0.476  0.4144 -0.5664  0.2195
  296TMC3    C4 4512   2.500   0.969   0.453  0.1954 -0.4037  0.3732
  296TMC3    C5 4513   2.391   0.912   0.513  1.1145 -0.1972  0.2111
  296TMC3    C6 4514   2.272   0.976   0.523 -0.5715 -0.0610  0.3358
  296TMC3     C 4515   2.590   1.158   0.325 -0.0106 -0.3680  0.7095
  296TMC3     O 4516   2.575   1.251   0.248 -0.4812 -0.6387  0.1622
  296TMC3     H 4517   2.370   1.260   0.368  1.7351  0.8974  2.0280
  296TMC3    H1 4518   2.584   0.905   0.428  0.2198 -0.1455 -0.2017
  296TMC3    H2 4519   2.199   0.934   0.592  0.5962  1.2042  2.3380
  296TMC3    C7 4520   2.403   0.772   0.539  0.2505 -1.0421  0.3273
  296TMC3    C8 4521   2.136   1.173   0.509  0.2747  0.1311  0.1366
  296TMC3    O1 4522   2.471   0.709   0.458 -0.3623 -0.1905  0.5177
  296TMC3    O2 4523   2.046   1.102   0.544 -0.2608  0.9554 -0.9908
  297MPD2     C 4524   4.271   2.779  16.248 -0.1029  0.3800 -0.6605
  297MPD2    C1 4525   4.254   2.857  16.134 -0.3172  0.4022 -0.3138
  297MPD2    C2 4526   4.352   2.863  16.041 -0.3237  0.3189 -0.0990
  297MPD2    C3 4527   4.473   2.790  16.055 -1.1126  0.5056 -0.1632
  297MPD2    C4 4528   4.483   2.703  16.162  0.3621 -0.1156 -0.4614
  297MPD2    C5 4529   4.378   2.693  16.257  0.3257  0.8486  0.1695
  297MPD2     H 4530   4.343   2.929  15.956  1.5728 -0.2322 -0.7190
  297MPD2    H1 4531   4.579   2.655  16.177 -0.8392 -1.3227  3.3227
  297MPD2    H2 4532   4.210   2.781  16.338 -2.2504 -0.1606 -2.1082
  297MPD2    H3 4533   4.393   2.638  16.349  1.3526  1.3297  0.2919
  297MPD2     N 4534   4.570   2.799  15.953 -0.2677 -0.3480  0.7818
  297MPD2    H5 4535   4.562   2.864  15.875  0.3321  1.1194  1.9461
  297MPD2    N1 4536   4.135   2.934  16.116  0.1339  0.0328  0.5422
  297MPD2    H7 4537   4.130   2.995  16.036  1.1660  0.1997  0.6032
  298TMC3    C1 4538   3.926   3.029  16.156 -0.3429 -0.7133  0.4757
  298TMC3    C2 4539   3.929   3.069  16.022  0.2736 -0.2418 -0.3796
  298TMC3    C3 4540   3.848   3.174  15.984 -0.4932 -0.5809 -0.2894
  298TMC3    C4 4541   3.847   3.093  16.250  0.0908  0.1803 -0.4618
  298TMC3    C5 4542   3.776   3.200  16.209 -0.4056 -0.1066  0.4393
  298TMC3    C6 4543   3.774   3.242  16.080 -0.0497  0.7325 -0.7082
  298TMC3     C 4544   4.029   2.944  16.208 -0.4390  0.4065 -0.6533
  298TMC3     O 4545   4.015   2.884  16.310  0.0921 -0.4032 -0.0271
  298TMC3     H 4546   3.975   3.000  15.953 -1.1410  0.1503 -1.7111
  298TMC3    H1 4547   3.840   3.061  16.353 -2.2106  0.6437 -0.4672
  298TMC3    H2 4548   3.728   3.335  16.049 -2.6415  0.4029  2.2164
  298TMC3    C7 4549   3.717   3.279  16.311  0.1888 -0.2249  0.7591
  298TMC3    C8 4550   3.829   3.208  15.842 -0.0449 -0.5835  0.4440
  298TMC3    O1 4551   3.768   3.278  16.423 -0.0922 -0.1671 -0.6408
  298TMC3    O2 4552   3.791   3.323  15.816  0.2056 -0.3882 -0.4927
  299MPD2     C 4553   0.110   1.964  10.219  0.4132 -0.3547 -0.0747
  299MPD2    C1 4554   0.084   2.095  10.184  0.4595 -0.6789 -0.8425
  299MPD2    C2 4555   4.713   2.130  10.104 -0.0567 -0.1372  0.1568
  299MPD2    C3 4556   4.640   2.026  10.048 -0.5088 -0.8034 -0.2051
  299MPD2    C4 4557   4.668   1.895  10.078 -0.2309  0.8295  0.4381
  299MPD2    C5 4558   0.036   1.869  10.168 -0.4390  0.1022  0.2422
  299MPD2     H 4559   4.703   2.235  10.079  1.2550  0.1738  0.9796
  299MPD2    H1 4560   4.625   1.809  10.027  1.4424  0.4798 -0.3881
  299MPD2    H2 4561   0.191   1.932  10.284 -0.0179 -1.3833 -0.0486
  299MPD2    H3 4562   0.058   1.765  10.191 -1.4545 -0.0587  0.5207
  299MPD2     N 4563   4.525   2.047   9.960  0.4355  1.0284 -0.0894
  299MPD2    H5 4564   4.483   1.959   9.930  0.3399  0.2300  2.3878
  299MPD2    N1 4565   0.171   2.195  10.243  0.0468  0.3246  0.4478
  299MPD2    H7 4566   0.233   2.160  10.316  2.2670  1.9900 -0.6167
  300TMC3    C1 4567   4.359   2.181   9.852  0.0006 -0.0941 -0.1984
  300TMC3    C2 4568   4.332   2.301   9.795  0.6555  0.4267 -0.1051
  300TMC3    C3 4569   4.204   2.345   9.802  0.3122 -0.0969 -0.7097
  300TMC3    C4 4570   4.263   2.115   9.924  0.4763 -0.6394  0.4063
  300TMC3    C5 4571   4.135   2.167   9.941  0.6996 -1.0058  0.1565
  300TMC3    C6 4572   4.100   2.286   9.869  0.1130  0.0177 -0.6946
  300TMC3     C 4573   4.494   2.173   9.907  0.1564 -0.0797 -1.0595
  300TMC3     O 4574   4.551   2.280   9.915  0.2833  0.0594  0.1217
  300TMC3     H 4575   4.399   2.343   9.721  0.1512  1.1486 -0.1402
  300TMC3    H1 4576   4.286   2.031   9.989  0.0283 -0.9045  0.2232
  300TMC3    H2 4577   4.002   2.332   9.878 -0.4706 -1.4519  0.6680
  300TMC3    C7 4578   4.035   2.097  10.014  0.1447  0.4137 -0.2159
  300TMC3    C8 4579   4.188   2.484   9.770 -0.3028 -0.0286  0.0646
  300TMC3    O1 4580   4.028   1.978  10.031 -0.2778  0.3493  0.1424
  300TMC3    O2 4581   4.230   2.523   9.663 -0.3691  1.3335  0.3773
  301MPD2     C 4582   2.253   3.735   1.731 -0.5252  0.6356 -0.1734
  301MPD2    C1 4583   2.159   3.677   1.657  0.0437 -0.3907  0.8118
  301MPD2    C2 4584   2.184   3.553   1.591  0.8796 -0.4541 -0.4203
  301MPD2    C3 4585   2.305   3.489   1.609 -0.1844  0.6309 -0.8501
  301MPD2    C4 4586   2.398   3.548   1.689  0.5377  0.3321  0.1913
  301MPD2    C5 4587   2.369   3.667   1.753 -0.3352 -0.2857  0.1824
  301MPD2     H 4588   2.099   3.506   1.543 -1.3910  2.2000  1.0228
  301MPD2    H1 4589   2.487   3.488   1.709  0.2330  0.3565  1.6334
  301MPD2    H2 4590   2.242   3.828   1.785  0.3973 -0.7710  2.4844
  301MPD2    H3 4591   2.428   3.712   1.832  2.3439 -1.5148 -1.1050
  301MPD2     N 4592   2.333   3.363   1.553 -0.6668 -0.3901  0.3341
  301MPD2    H5 4593   2.410   3.311   1.593 -0.3383 -0.5536 -0.5241
  301MPD2    N1 4594   2.035   3.731   1.642 -0.2697 -0.8253 -0.6414
  301MPD2    H7 4595   1.963   3.670   1.604 -0.4524 -2.4819  2.2773
  302TMC3    C1 4596   2.287   3.179   1.408 -0.3377 -0.8724 -0.2098
  302TMC3    C2 4597   2.346   3.095   1.492 -0.1492 -0.0841 -0.4884
  302TMC3    C3 4598   2.369   2.971   1.443 -0.1146  0.1921  0.9218
  302TMC3    C4 4599   2.245   3.144   1.283 -0.0693 -0.1691  0.0700
  302TMC3    C5 4600   2.257   3.010   1.242  0.6868  0.1823  0.1657
  302TMC3    C6 4601   2.328   2.920   1.317  0.6968 -0.1693  0.4351
  302TMC3     C 4602   2.252   3.309   1.452 -0.1042 -0.5716 -0.4285
  302TMC3     O 4603   2.173   3.366   1.374 -0.4106  0.5883 -0.4387
  302TMC3     H 4604   2.375   3.126   1.592 -0.0641 -0.0344 -0.5281
  302TMC3    H1 4605   2.216   3.217   1.209 -0.1503 -0.8918 -0.6061
  302TMC3    H2 4606   2.341   2.821   1.276  1.5569  0.3191 -0.4797
  302TMC3    C7 4607   2.191   2.976   1.116 -0.0540  0.8607 -0.5782
  302TMC3    C8 4608   2.466   2.895   1.521  0.2859 -0.0360 -0.4022
  302TMC3    O1 4609   2.238   2.882   1.053  0.6204  0.3828 -0.6786
  302TMC3    O2 4610   2.530   2.961   1.598 -0.3073  0.0201  0.0237
  303MPD2     C 4611   2.129   1.110  10.473 -1.6377 -0.2246 -0.5584
  303MPD2    C1 4612   1.996   1.155  10.481 -0.1962  0.3546 -1.3087
  303MPD2    C2 4613   1.952   1.264  10.419  0.0736  0.2881 -0.5309
  303MPD2    C3 4614   2.028   1.333  10.331 -0.3393  0.5099 -0.4374
  303MPD2    C4 4615   2.157   1.285  10.308  0.1031  0.0839 -0.5630
  303MPD2    C5 4616   2.203   1.179  10.380 -0.7885  0.0933  0.9262
  303MPD2     H 4617   1.847   1.292  10.423  0.4048  1.0678  2.4977
  303MPD2    H1 4618   2.223   1.326  10.233  1.4077  0.2783  0.7038
  303MPD2    H2 4619   2.178   1.038  10.537 -1.2119  0.4401 -0.1340
  303MPD2    H3 4620   2.304   1.147  10.357 -1.3143 -1.1749  0.3227
  303MPD2     N 4621   1.982   1.447  10.252 -0.2640 -0.5326  0.1184
  303MPD2    H5 4622   2.045   1.474  10.177 -0.1309  1.4655  0.9456
  303MPD2    N1 4623   1.912   1.071  10.566  0.1491  0.2612 -0.0950
  303MPD2    H7 4624   1.942   0.977  10.589 -1.7711 -0.8833 -2.2701
  304TMC3    C1 4625   1.710   0.983  10.654  0.2142  0.0036  0.3245
  304TMC3    C2 4626   1.611   0.997  10.744 -0.4064 -0.2639 -0.0590
  304TMC3    C3 4627   1.525   0.889  10.758 -0.0262  0.4816  0.7738
  304TMC3    C4 4628   1.732   0.866  10.586 -0.2855  0.1014 -0.3544
  304TMC3    C5 4629   1.639   0.767  10.595  0.8398 -0.3531 -1.0845
  304TMC3    C6 4630   1.540   0.775  10.686 -0.2544  0.3310 -0.0878
  304TMC3     C 4631   1.784   1.098  10.604  0.8178 -0.0281 -1.6199
  304TMC3     O 4632   1.723   1.204  10.602  0.2755 -0.1733  0.3910
  304TMC3     H 4633   1.587   1.094  10.786 -0.9305 -0.6073  0.4401
  304TMC3    H1 4634   1.790   0.883  10.496 -0.0777  1.9424  0.1284
  304TMC3    H2 4635   1.463   0.700  10.695 -1.4721  1.6837  0.6774
  304TMC3    C7 4636   1.584   0.742  10.460 -0.0520  0.1632  0.4584
  304TMC3    C8 4637   1.385   0.933  10.755  0.2117 -0.0043 -0.1082
  304TMC3    O1 4638   1.671   0.742  10.372 -0.0331  0.0593 -0.3643
  304TMC3    O2 4639   1.322   0.877  10.668 -0.2287  0.6977 -0.5686
  305MPD2     C 4640   4.632   3.860  13.767  0.7476 -0.3763 -0.1396
  305MPD2    C1 4641   0.013   3.912  13.718  0.8486 -0.0658  0.1965
  305MPD2    C2 4642   0.057   3.866  13.598  0.4944  0.5442  0.1786
  305MPD2    C3 4643   4.721   3.774  13.520  0.2682 -0.7657  0.1995
  305MPD2    C4 4644   4.602   3.732  13.573  0.1811  0.6736  0.6561
  305MPD2    C5 4645   4.557   3.776  13.696  0.1290 -0.5957  0.5945
  305MPD2     H 4646   0.154   3.903  13.566 -0.2307  1.6417 -0.7581
  305MPD2    H1 4647   4.547   3.660  13.514  1.3861  1.3226 -1.2358
  305MPD2    H2 4648   4.584   3.896  13.857 -1.9781 -0.3637 -1.6016
  305MPD2    H3 4649   4.466   3.737  13.740 -0.4876 -3.2872 -3.0921
  305MPD2     N 4650   0.024   3.727  13.395  0.2909  0.3625  0.5106
  305MPD2    H5 4651   4.695   3.668  13.345 -1.8633  1.0418  2.5257
  305MPD2    N1 4652   0.089   3.989  13.808 -0.0959  0.5007 -0.6501
  305MPD2    H7 4653   0.043   4.009  13.896  0.0595 -0.4925 -0.3353
  306TMC3    C1 4654   0.273   4.072  13.913  0.6736 -0.3349  0.4921
  306TMC3    C2 4655   0.407   4.062  13.911 -0.5972  0.3304  0.0725
  306TMC3    C3 4656   0.465   4.079  14.030  0.1974 -0.0040  0.4609
  306TMC3    C4 4657   0.199   4.121  14.018  0.4841 -0.2975  0.4425
  306TMC3    C5 4658   0.267   4.141  14.138  0.9148  0.0386  0.3170
  306TMC3    C6 4659   0.403   4.114  14.144  0.8895 -0.1137 -1.0906
  306TMC3     C 4660   0.220   4.027  13.789  0.4439 -0.2406  0.1821
  306TMC3     O 4661   0.287   4.023  13.687 -0.0780  1.1377  0.0958
  306TMC3     H 4662   0.456   4.033  13.819  0.8230 -0.8015  1.1903
  306TMC3    H1 4663   0.091   4.126  14.010  0.5235 -0.4942 -0.2555
  306TMC3    H2 4664   0.455   4.137  14.237  0.8931 -1.5087 -0.7532
  306TMC3    C7 4665   0.189   4.141  14.254  0.1459  0.1287 -0.3648
  306TMC3    C8 4666   0.610   4.067  14.042  0.5261 -1.0410  0.8561
  306TMC3    O1 4667   0.080   4.093  14.235 -0.4882 -0.1076 -0.0820
  306TMC3    O2 4668   0.677   4.128  14.124 -0.1104 -0.2714  0.0127
  307MPD2     C 4669   3.465   2.922   0.710 -0.6642  0.4631 -0.3496
  307MPD2    C1 4670   3.380   2.992   0.788  0.4250  0.5278 -0.2266
  307MPD2    C2 4671   3.283   2.917   0.857 -0.4419  0.5869 -0.2366
  307MPD2    C3 4672   3.273   2.780   0.855  0.2523  0.0478 -0.2350
  307MPD2    C4 4673   3.363   2.709   0.773  0.0495  0.3291 -0.0211
  307MPD2    C5 4674   3.462   2.783   0.711  0.1670  0.1612  0.0140
  307MPD2     H 4675   3.203   2.969   0.908 -2.2100  1.1440 -3.5571
  307MPD2    H1 4676   3.373   2.601   0.768 -0.0582  0.4157 -2.4035
  307MPD2    H2 4677   3.530   2.972   0.639  1.4744 -1.0276  0.5746
  307MPD2    H3 4678   3.544   2.734   0.660 -0.7514 -2.2934  0.9106
  307MPD2     N 4679   3.169   2.720   0.934 -0.0190 -0.6887  0.2234
  307MPD2    H5 4680   3.107   2.779   0.988 -0.4179  0.2530 -1.2757
  307MPD2    N1 4681   3.382   3.135   0.808 -0.2117 -0.0735  0.3284
  307MPD2    H7 4682   3.327   3.168   0.886 -1.5263  1.8658 -1.4358
  308TMC3    C1 4683   2.778   2.515   0.926  0.1498 -0.3667  0.2845
  308TMC3    C2 4684   2.731   2.622   0.999 -0.1213  0.1341 -0.1368
  308TMC3    C3 4685   2.824   2.690   1.071 -0.2636 -0.7504  0.2760
  308TMC3    C4 4686   2.914   2.489   0.916 -0.1789 -0.5511 -0.0097
  308TMC3    C5 4687   3.005   2.567   0.987  0.9647 -0.4756  0.0391
  308TMC3    C6 4688   2.955   2.660   1.073 -0.3868  0.2928 -0.2950
  308TMC3     C 4689   2.699   2.439   0.837  0.0157 -0.1108  0.3934
  308TMC3     O 4690   2.752   2.335   0.801 -0.4117 -0.0868 -0.1863
  308TMC3     H 4691   2.629   2.656   1.011 -0.1769  0.2006 -0.7810
  308TMC3    H1 4692   2.958   2.417   0.849  1.5582 -1.9592  2.6415
  308TMC3    H2 4693   3.027   2.718   1.131  0.3650 -1.3022  0.3720
  308TMC3    C7 4694   3.138   2.589   0.932  0.5761 -0.5200 -0.5703
  308TMC3    C8 4695   2.793   2.791   1.164 -0.5388  0.4376  0.5464
  308TMC3    O1 4696   3.197   2.492   0.882 -0.2155  0.6169 -0.0927
  308TMC3    O2 4697   2.850   2.798   1.274 -0.3140  0.2791 -0.4614
  309MPD2     C 4698   2.138   2.582  17.232 -0.6613  0.2238 -0.4294
  309MPD2    C1 4699   2.083   2.649  17.128 -0.6804 -0.2382 -0.0640
  309MPD2    C2 4700   1.974   2.736  17.154  0.1142 -0.4745  0.2420
  309MPD2    C3 4701   1.941   2.775  17.282  0.3466  0.2408  0.2812
  309MPD2    C4 4702   2.001   2.706  17.384  0.3352  0.2494  0.3942
  309MPD2    C5 4703   2.094   2.606  17.362 -0.3327  0.1723  0.5713
  309MPD2     H 4704   1.923   2.789  17.075 -0.6916 -1.0996  0.3353
  309MPD2    H1 4705   1.965   2.721  17.485 -0.8572 -0.5167  0.0836
  309MPD2    H2 4706   2.201   2.497  17.215 -0.7623  0.6580 -2.8944
  309MPD2    H3 4707   2.134   2.550  17.446 -0.4064 -1.6558 -0.6165
  309MPD2     N 4708   1.838   2.865  17.321 -0.0057  0.6699 -0.2271
  309MPD2    H5 4709   1.823   2.897  17.417  2.3889 -0.8863  0.6551
  309MPD2    N1 4710   2.125   2.624  16.996  0.3891 -0.2447 -0.2531
  309MPD2    H7 4711   2.085   2.689  16.928 -1.2370 -1.1371 -0.1575
  310TMC3    C1 4712   2.268   2.531  16.819 -0.3095  0.3870 -0.2136
  310TMC3    C2 4713   2.167   2.579  16.744 -0.0615 -0.3160 -0.4034
  310TMC3    C3 4714   2.191   2.611  16.615 -0.3039 -0.3165 -0.1442
  310TMC3    C4 4715   2.397   2.527  16.772  0.1753 -0.2317 -0.1134
  310TMC3    C5 4716   2.420   2.566  16.643 -0.0613 -0.0399  0.5291
  310TMC3    C6 4717   2.316   2.607  16.564 -0.3553 -0.9964 -0.1667
  310TMC3     C 4718   2.239   2.546  16.961  0.0217  0.1145 -1.0343
  310TMC3     O 4719   2.332   2.523  17.037  0.6070  0.4488 -0.0174
  310TMC3     H 4720   2.067   2.560  16.783  0.6197  1.7457  2.3636
  310TMC3    H1 4721   2.476   2.491  16.838 -0.9651 -1.2584  0.6833
  310TMC3    H2 4722   2.333   2.627  16.459 -1.1132 -0.6993 -0.2386
  310TMC3    C7 4723   2.537   2.510  16.577  0.6985  0.4521  0.1346
  310TMC3    C8 4724   2.080   2.629  16.520 -0.1519  0.9850  0.4268
  310TMC3    O1 4725   2.546   2.526  16.459  0.0315 -0.1326  0.3140
  310TMC3    O2 4726   2.117   2.623  16.399  0.7957  0.4248 -0.3472
  311MPD2     C 4727   4.152   3.466  12.458 -0.0242 -0.1682  0.1489
  311MPD2    C1 4728   4.177   3.579  12.529  0.0872 -0.5401  0.0854
  311MPD2    C2 4729   4.090   3.613  12.626  0.1417 -0.8394  0.0651
  311MPD2    C3 4730   3.987   3.531  12.664 -0.1445  0.3343  0.7412
  311MPD2    C4 4731   3.968   3.406  12.601 -0.5638  0.2930 -0.0595
  311MPD2    C5 4732   4.052   3.376  12.492  0.1009 -0.3898 -0.1452
  311MPD2     H 4733   4.102   3.707  12.678  0.5783 -1.9478  1.9992
  311MPD2    H1 4734   3.889   3.337  12.628 -0.6707  0.2625 -0.4546
  311MPD2    H2 4735   4.205   3.441  12.367  1.7082  2.4709  0.4162
  311MPD2    H3 4736   4.043   3.285  12.433  0.6074 -0.1020 -0.6616
  311MPD2     N 4737   3.903   3.573  12.762 -0.6669 -0.0959 -0.0869
  311MPD2    H5 4738   3.928   3.665  12.798 -2.8176  0.0330  1.0768
  311MPD2    N1 4739   4.282   3.664  12.493 -0.1314 -0.6320 -0.3116
  311MPD2    H7 4740   4.286   3.749  12.548  0.4224 -1.3733  0.7861
  312TMC3    C1 4741   3.722   3.582  12.913  0.1784 -0.0156  0.1451
  312TMC3    C2 4742   3.585   3.577  12.915 -0.3199  0.8072 -0.7537
  312TMC3    C3 4743   3.526   3.652  13.013 -0.1644  0.3077  0.3523
  312TMC3    C4 4744   3.795   3.650  13.000  1.0864 -0.0825 -0.3112
  312TMC3    C5 4745   3.729   3.725  13.097 -0.1305 -0.1155  0.1631
  312TMC3    C6 4746   3.592   3.733  13.096 -0.5127  0.5963  0.7414
  312TMC3     C 4747   3.784   3.518  12.804  0.7139 -1.2769 -0.7584
  312TMC3     O 4748   3.733   3.412  12.766 -0.3278  0.2953 -0.0478
  312TMC3     H 4749   3.537   3.518  12.838 -0.2175  0.9401 -0.9161
  312TMC3    H1 4750   3.902   3.635  12.999  1.2574  0.8938  2.4912
  312TMC3    H2 4751   3.543   3.793  13.172  0.1976  1.7441  0.2932
  312TMC3    C7 4752   3.810   3.801  13.185 -0.8032 -0.4721 -0.3830
  312TMC3    C8 4753   3.383   3.658  12.993  0.1821 -0.1753 -0.0331
  312TMC3    O1 4754   3.923   3.825  13.146 -0.7195  0.4130 -0.4267
  312TMC3    O2 4755   3.332   3.555  12.952  0.3140  0.2134 -0.4377
  313MPD2     C 4756   3.004   2.623  11.030 -0.1240 -0.0506  0.2159
  313MPD2    C1 4757   3.094   2.719  10.993  0.3590 -0.1729  0.6352
  313MPD2    C2 4758   3.189   2.686  10.899  0.4504  0.1427  0.0680
  313MPD2    C3 4759   3.182   2.569  10.827  0.1763 -0.4544  0.1675
  313MPD2    C4 4760   3.101   2.468  10.875 -0.2939 -1.0709  0.7245
  313MPD2    C5 4761   3.014   2.493  10.980 -0.5482 -0.0033  0.2828
  313MPD2     H 4762   3.256   2.764  10.864  2.0404 -1.5099 -0.5605
  313MPD2    H1 4763   3.104   2.366  10.838  0.3212 -0.7940  0.0354
  313MPD2    H2 4764   2.932   2.642  11.109 -1.8933 -0.2188 -1.3776
  313MPD2    H3 4765   2.950   2.413  11.016 -1.5137  0.0041 -1.4067
  313MPD2     N 4766   3.239   2.563  10.701 -0.3517  0.0872  0.4911
  313MPD2    H5 4767   3.302   2.636  10.668 -2.1608  1.2550 -0.3865
  313MPD2    N1 4768   3.078   2.840  11.060 -0.7540 -0.4944 -0.5230
  313MPD2    H7 4769   2.998   2.841  11.123  0.8839  0.6484  1.5368
  314TMC3    C1 4770   3.040   3.079  11.029 -0.3115 -0.4076 -0.1280
  314TMC3    C2 4771   3.106   3.195  11.010 -0.4363 -0.5104 -0.4852
  314TMC3    C3 4772   3.051   3.301  10.946  0.5143  0.7297  0.6602
  314TMC3    C4 4773   2.910   3.061  10.990  0.6369 -0.8675 -0.2331
  314TMC3    C5 4774   2.864   3.162  10.907 -0.0153 -0.2593  0.1382
  314TMC3    C6 4775   2.929   3.285  10.891  1.0033  0.5728 -0.7383
  314TMC3     C 4776   3.123   2.961  11.008 -1.1090 -0.0753 -0.8262
  314TMC3     O 4777   3.212   2.977  10.924  0.4786 -0.8827 -0.0159
  314TMC3     H 4778   3.211   3.195  11.038 -0.1984  0.0748 -1.3870
  314TMC3    H1 4779   2.869   2.962  10.976  0.1737 -0.4779 -1.7157
  314TMC3    H2 4780   2.869   3.360  10.841 -0.8485  0.7689  1.7111
  314TMC3    C7 4781   2.767   3.121  10.812  0.0188 -0.2383 -0.2996
  314TMC3    C8 4782   3.131   3.419  10.920 -0.5841 -0.1140  0.2189
  314TMC3    O1 4783   2.653   3.103  10.848 -0.4852 -0.1573  0.2505
  314TMC3    O2 4784   3.248   3.416  10.954 -0.2543  0.1717 -0.0379
  315MPD2     C 4785   3.958   3.462   0.576  0.6401 -0.5458 -0.4529
  315MPD2    C1 4786   3.944   3.333   0.527 -0.2765  1.2050 -0.1357
  315MPD2    C2 4787   3.941   3.310   0.395 -0.2292 -0.1090 -0.2741
  315MPD2    C3 4788   3.974   3.410   0.304  0.8840 -0.3321 -0.3674
  315MPD2    C4 4789   3.999   3.536   0.355 -0.2060  0.1412 -0.1577
  315MPD2    C5 4790   3.989   3.565   0.492  0.0079 -0.4083 -0.4347
  315MPD2     H 4791   3.950   3.207   0.361  0.7670 -0.0902 -0.0776
  315MPD2    H1 4792   4.026   3.616   0.287  0.3280  0.4764  0.4557
  315MPD2    H2 4793   3.954   3.485   0.682 -0.6913  1.0003 -0.8411
  315MPD2    H3 4794   4.003   3.666   0.528 -0.7302 -0.2827 -0.5063
  315MPD2     N 4795   4.001   3.367   0.172  0.3331 -0.4355 -0.0125
  315MPD2    H5 4796   4.003   3.267   0.157 -0.0418 -0.3027 -0.9620
  315MPD2    N1 4797   3.920   3.224   0.614  0.0865  0.2414 -0.7072
  315MPD2    H7 4798   3.908   3.135   0.565  1.8282  0.0063 -0.7104
  316TMC3    C1 4799   4.117   3.358  17.728  0.3801  0.3219 -0.5856
  316TMC3    C2 4800   4.205   3.273   0.040 -0.5267 -0.1547 -0.3456
  316TMC3    C3 4801   4.292   3.210  17.700 -0.0576 -0.3043 -0.1030
  316TMC3    C4 4802   4.133   3.399  17.594  0.1117  0.0049 -0.3897
  316TMC3    C5 4803   4.229   3.335  17.519 -0.3082 -0.3262  0.1732
  316TMC3    C6 4804   4.309   3.237  17.574  0.8665  0.2103  0.3166
  316TMC3     C 4805   4.046   3.445   0.073  0.2638 -0.6517 -0.3156
  316TMC3     O 4806   4.050   3.565   0.063  0.2638 -0.0025  0.0830
  316TMC3     H 4807   4.220   3.265   0.147  0.4441  0.2661 -0.4505
  316TMC3    H1 4808   4.070   3.476  17.551 -1.6091 -1.3369 -0.2961
  316TMC3    H2 4809   4.384   3.193  17.509 -1.1088  2.2533 -3.3567
  316TMC3    C7 4810   4.258   3.377  17.385 -0.1946 -0.4010 -0.4357
  316TMC3    C8 4811   4.402   3.147   0.021  0.1276  0.5123  0.1243
  316TMC3    O1 4812   4.377   3.368  17.357  0.8313  0.0382 -0.4355
  316TMC3    O2 4813   4.516   3.183  17.731  0.2666  0.3412  0.0657
  317MPD2     C 4814   0.349   1.324  12.625 -0.9621  0.1949  0.2964
  317MPD2    C1 4815   0.368   1.187  12.626 -0.2167  0.1280 -0.2344
  317MPD2    C2 4816   0.416   1.129  12.745 -0.6459 -0.1405  0.2697
  317MPD2    C3 4817   0.438   1.198  12.858 -0.5306  0.0211  0.8880
  317MPD2    C4 4818   0.420   1.331  12.858 -0.1931  1.0838 -0.8478
  317MPD2    C5 4819   0.374   1.398  12.741 -0.1961 -0.1626  0.1904
  317MPD2     H 4820   0.454   1.027  12.748 -0.0183  0.1178  1.0864
  317MPD2    H1 4821   0.438   1.387  12.949  1.2355  0.4912 -0.7618
  317MPD2    H2 4822   0.326   1.384  12.538  0.4487 -0.4077 -0.5037
  317MPD2    H3 4823   0.363   1.506  12.750  0.7580 -0.0282 -0.2376
  317MPD2     N 4824   0.490   1.134  12.967 -0.2738 -0.2578  0.1269
  317MPD2    H5 4825   0.516   1.197  13.042 -1.5041  1.3077 -0.7453
  317MPD2    N1 4826   0.350   1.109  12.506  0.5835  0.5667  0.1177
  317MPD2    H7 4827   0.366   1.009  12.520 -1.1238  0.4116  0.9834
  318TMC3    C1 4828   0.526   0.992  13.138 -0.0405 -0.4963  0.1715
  318TMC3    C2 4829   0.440   0.905  13.200  0.1601  0.9098  0.0176
  318TMC3    C3 4830   0.486   0.834  13.305  0.5061  0.0584  0.7987
  318TMC3    C4 4831   0.657   0.995  13.172 -0.0524  0.0096  0.8845
  318TMC3    C5 4832   0.695   0.917  13.272 -0.4762 -0.6390 -0.0138
  318TMC3    C6 4833   0.614   0.844  13.349 -0.3636 -0.4935  0.6278
  318TMC3     C 4834   0.489   1.000  12.997 -0.0819 -0.2283  0.3053
  318TMC3     O 4835   0.482   0.896  12.926 -0.5818  0.0535 -0.1306
  318TMC3     H 4836   0.335   0.920  13.176 -0.2530  1.5338  2.1748
  318TMC3    H1 4837   0.733   1.034  13.105 -0.1315 -0.6890  0.3953
  318TMC3    H2 4838   0.655   0.788  13.432 -0.4450 -0.4605  0.6897
  318TMC3    C7 4839   0.837   0.932  13.310 -0.6119 -0.1694  0.3510
  318TMC3    C8 4840   0.418   0.713  13.335 -1.0270 -0.1912 -0.7284
  318TMC3    O1 4841   0.879   1.046  13.292 -0.0799 -0.1441 -0.1736
  318TMC3    O2 4842   0.433   0.668  13.449  0.4032 -0.1995  0.0605
  319MPD2     C 4843   1.445   1.932  17.073  0.0251  0.1051 -0.1662
  319MPD2    C1 4844   1.548   1.842  17.065 -0.1171 -0.1260  0.2823
  319MPD2    C2 4845   1.574   1.782  16.948 -0.1671 -0.0179  0.2870
  319MPD2    C3 4846   1.490   1.806  16.834  0.5197 -0.8896 -0.8339
  319MPD2    C4 4847   1.396   1.905  16.845 -0.0777 -0.0021 -0.6001
  319MPD2    C5 4848   1.376   1.969  16.960 -0.2843  0.9909  0.6313
  319MPD2     H 4849   1.646   1.701  16.954  1.3300  1.2795 -0.2573
  319MPD2    H1 4850   1.342   1.938  16.757 -1.0670  1.2922  0.4923
  319MPD2    H2 4851   1.420   1.986  17.163 -0.5698 -1.6506  0.7253
  319MPD2    H3 4852   1.308   2.053  16.971  2.1499  2.8357  1.4002
  319MPD2     N 4853   1.490   1.729  16.714  0.0681 -0.0279  0.3055
  319MPD2    H5 4854   1.434   1.765  16.637  0.5303 -0.3752 -0.1928
  319MPD2    N1 4855   1.636   1.814  17.179  0.0176  0.5809 -0.1276
  319MPD2    H7 4856   1.708   1.743  17.171 -0.0268  0.5526 -0.2814
  320TMC3    C1 4857   1.527   1.542  16.570  0.2635 -0.5612 -0.0978
  320TMC3    C2 4858   1.487   1.628  16.470 -0.4419 -0.3051 -0.0357
  320TMC3    C3 4859   1.403   1.572  16.378 -0.0173 -0.4560 -0.3590
  320TMC3    C4 4860   1.505   1.403  16.578  0.0388  0.3019  0.6037
  320TMC3    C5 4861   1.427   1.355  16.483 -0.3191  0.1314 -0.7023
  320TMC3    C6 4862   1.376   1.438  16.384 -0.4534 -0.1617  0.0071
  320TMC3     C 4863   1.548   1.604  16.699  0.0551 -0.0396  0.3083
  320TMC3     O 4864   1.607   1.534  16.782  0.0889 -0.1003  0.7665
  320TMC3     H 4865   1.520   1.731  16.456 -0.4710 -0.2222  0.5138
  320TMC3    H1 4866   1.557   1.351  16.658  0.1891 -1.9087 -0.9489
  320TMC3    H2 4867   1.335   1.379  16.303 -2.3656 -0.3105  1.0848
  320TMC3    C7 4868   1.361   1.230  16.507  0.3336 -0.1130 -0.2320
  320TMC3    C8 4869   1.345   1.657  16.276  0.9976 -0.0455  0.6452
  320TMC3    O1 4870   1.307   1.180  16.405 -0.1394 -0.0345  0.1614
  320TMC3    O2 4871   1.351   1.777  16.296 -0.5670  0.1189 -0.0477
  321TMC3    C1 4872   1.726   1.821  17.393 -0.1020  0.7755 -0.5306
  321TMC3    C2 4873   1.851   1.820  17.333 -0.7455  0.6078  1.1621
  321TMC3    C3 4874   1.961   1.818  17.412  0.8285  0.4393  0.0936
  321TMC3    C4 4875   1.712   1.847  17.527  0.5182 -0.3257 -0.0055
  321TMC3    C5 4876   1.823   1.850  17.604  0.3900 -1.3202 -0.1023
  321TMC3    C6 4877   1.947   1.825  17.551 -0.6700 -0.0712 -0.5424
  321TMC3     C 4878   1.608   1.850  17.309  0.2766  0.0034 -0.0691
  321TMC3     O 4879   1.526   1.920  17.365  0.1483 -0.4480  0.0095
  321TMC3     H 4880   1.861   1.800  17.227 -1.5853  0.1316  1.1777
  321TMC3    H1 4881   1.608   1.851  17.559  0.2497  0.4563 -0.9544
  321TMC3    H2 4882   2.026   1.830  17.625 -0.9707 -0.9416 -0.1540
  321TMC3    C7 4883   1.808   1.978  17.676 -0.5506  0.0550  0.0130
  321TMC3    C8 4884   2.073   1.902  17.381 -0.2517 -0.1911 -0.1901
  321TMC3    O1 4885   1.695   2.020  17.708 -0.0785 -0.1131  0.1378
  321TMC3    O2 4886   2.143   1.932  17.479 -0.3595 -0.6698 -0.3368
  322MPD2     C 4887   0.122   3.339  13.323 -0.2194  0.0715 -0.4365
  322MPD2    C1 4888   0.150   3.317  13.458 -0.0532  0.4366 -0.1499
  322MPD2    C2 4889   0.194   3.188  13.498  0.6860 -0.1781  0.1654
  322MPD2    C3 4890   0.213   3.084  13.409 -0.2609 -0.0693 -0.4281
  322MPD2    C4 4891   0.182   3.109  13.277  0.4398  0.4077 -0.8260
  322MPD2    C5 4892   0.132   3.233  13.232 -0.5555 -0.5063  0.0979
  322MPD2     H 4893   0.232   3.174  13.598  0.6232  0.4819  0.2803
  322MPD2    H1 4894   0.191   3.036  13.196  0.3811 -1.3611  0.7624
  322MPD2    H2 4895   0.083   3.433  13.286 -0.9389 -0.3906 -0.8572
  322MPD2    H3 4896   0.120   3.245  13.125 -2.7628 -0.6869  0.3263
  322MPD2     N 4897   0.264   2.957  13.457  0.3199 -0.0378 -0.5051
  322MPD2    H5 4898   0.279   2.954  13.557 -1.1073  0.7765 -0.2754
  322MPD2    N1 4899   0.131   3.429  13.542 -0.2358 -0.7287  0.5193
  322MPD2    H7 4900   0.126   3.523  13.503  0.0722 -1.1244 -0.4669
  323TMC3    C1 4901   0.187   3.545  13.743 -0.4257 -0.7599 -0.0818
  323TMC3    C2 4902   0.260   3.637  13.676  0.5433 -0.9666 -0.8338
  323TMC3    C3 4903   0.335   3.723  13.753  0.0289  0.3984 -0.6399
  323TMC3    C4 4904   0.188   3.540  13.879 -0.3463 -0.5716  0.5075
  323TMC3    C5 4905   0.262   3.626  13.950 -0.1731  0.0648  0.1093
  323TMC3    C6 4906   0.342   3.716  13.889 -0.6511 -0.7115  0.2841
  323TMC3     C 4907   0.147   3.422  13.680  0.1897 -0.2841 -0.1756
  323TMC3     O 4908   0.131   3.324  13.750 -0.0839  0.2098  0.5442
  323TMC3     H 4909   0.268   3.643  13.569 -2.0451  2.8189 -0.8013
  323TMC3    H1 4910   0.136   3.465  13.937 -2.4349 -0.3433 -1.0581
  323TMC3    H2 4911   0.411   3.776  13.946 -1.1223 -0.1570  0.2780
  323TMC3    C7 4912   0.287   3.591  14.082 -0.0580 -0.0812 -0.1587
  323TMC3    C8 4913   0.463   3.771  13.700  0.3105  0.3375 -0.3333
  323TMC3    O1 4914   0.319   3.477  14.116 -0.2933 -0.1714  0.1351
  323TMC3    O2 4915   0.547   3.808  13.779  0.3781  0.0485  0.2222
  324MPD2     C 4916   1.556   4.411  14.630 -0.5670  0.0841 -0.4178
  324MPD2    C1 4917   1.588   4.517  14.553 -0.5638  0.5791  0.4698
  324MPD2    C2 4918   1.482   4.578  14.486  0.3016  0.5598  0.9321
  324MPD2    C3 4919   1.347   4.532  14.504 -0.5417  0.5861  0.1305
  324MPD2    C4 4920   1.320   4.428  14.595  0.6579  0.3900  0.0684
  324MPD2    C5 4921   1.428   4.369  14.652  0.8004 -0.7732 -0.1607
  324MPD2     H 4922   1.503   4.659  14.418 -0.2186  0.2676  0.4175
  324MPD2    H1 4923   1.221   4.385  14.607  0.6909  0.8801  1.9929
  324MPD2    H2 4924   1.628   4.354  14.689  0.6019  1.1657 -0.7854
  324MPD2    H3 4925   1.410   4.281  14.713  0.7657 -1.0373 -0.5491
  324MPD2     N 4926   1.230   4.593  14.445 -0.0351  0.2279  1.1176
  324MPD2    H5 4927   1.138   4.558  14.471  0.1446 -1.2956 -0.2601
  324MPD2    N1 4928   1.719   4.570  14.535  0.0331 -0.0560  0.1450
  324MPD2    H7 4929   1.724   4.641  14.462  0.2461 -0.2529 -0.0297
  325TMC3    C1 4930   1.105   4.709  14.282 -0.1468  0.5548 -0.1737
  325TMC3    C2 4931   1.009   4.605  14.286 -0.8925  0.0423  0.3809
  325TMC3    C3 4932   0.919   4.618  14.185 -0.3202 -0.7290  0.3851
  325TMC3    C4 4933   1.110   0.074  14.181  0.0013  0.4345  0.0338
  325TMC3    C5 4934   1.019   0.074  14.083  0.2801  0.0726  0.1018
  325TMC3    C6 4935   0.923   4.710  14.082  0.2519 -0.2589  0.2522
  325TMC3     C 4936   1.223   4.703  14.360  0.2001 -0.4735 -0.1926
  325TMC3     O 4937   1.304   0.050  14.338  0.6331  0.4068  0.7795
  325TMC3     H 4938   1.034   4.510  14.332 -1.7135  0.1741  1.1016
  325TMC3    H1 4939   1.182   0.153  14.197  0.2621  0.5058 -1.4643
  325TMC3    H2 4940   0.846   4.708  14.005  0.1858 -3.1867  0.3766
  325TMC3    C7 4941   1.016   0.176  13.982  0.1999  0.0504  0.4383
  325TMC3    C8 4942   0.825   4.508  14.155  0.0286  0.0227  0.1697
  325TMC3    O1 4943   0.921   0.178  13.904 -0.0882  0.1296  0.5623
  325TMC3    O2 4944   0.879   4.402  14.126  0.8383 -0.1667 -0.5456
  326MPD2     C 4945   3.276   0.673  10.952  0.1695 -0.2041 -0.2415
  326MPD2    C1 4946   3.210   0.709  10.836 -0.0472  0.5387  0.2143
  326MPD2    C2 4947   3.286   0.775  10.738 -0.5146 -0.6565  0.1975
  326MPD2    C3 4948   3.419   0.809  10.755 -0.3532  0.4768  0.1243
  326MPD2    C4 4949   3.471   0.772  10.876 -0.0031 -0.2337  0.1399
  326MPD2    C5 4950   3.401   0.715  10.973  0.0581  0.0442 -0.0559
  326MPD2     H 4951   3.242   0.781  10.639  2.8792  1.2382 -1.1919
  326MPD2    H1 4952   3.569   0.801  10.910  0.6302 -1.1809 -0.8819
  326MPD2    H2 4953   3.224   0.630  11.038  1.2042  0.5611  0.7633
  326MPD2    H3 4954   3.456   0.691  11.064 -0.9031  0.1317  0.5445
  326MPD2     N 4955   3.503   0.887  10.671 -0.1889 -0.0014  0.3188
  326MPD2    H5 4956   3.582   0.926  10.720  1.3061 -0.9450 -1.3225
  326MPD2    N1 4957   3.070   0.698  10.814 -0.0181 -0.1300  0.4380
  326MPD2    H7 4958   3.025   0.730  10.728 -1.1271 -4.1805 -0.4766
  327TMC3    C1 4959   2.845   0.609  10.842 -0.0776  0.8925 -0.4214
  327TMC3    C2 4960   2.793   0.690  10.746  0.0458 -0.6175 -0.0412
  327TMC3    C3 4961   2.701   0.640  10.653  0.3961 -0.7847  0.1670
  327TMC3    C4 4962   2.811   0.477  10.844 -0.1991  0.1262 -0.0777
  327TMC3    C5 4963   2.726   0.420  10.749  0.2970  0.4246  0.8295
  327TMC3    C6 4964   2.673   0.503  10.650  0.0068  0.4220  0.2554
  327TMC3     C 4965   2.982   0.629  10.894 -0.6588  0.1730  0.0848
  327TMC3     O 4966   3.013   0.565  10.996 -0.1233 -0.8968  0.6439
  327TMC3     H 4967   2.836   0.789  10.740  1.0732 -1.1194 -1.0123
  327TMC3    H1 4968   2.869   0.413  10.909 -0.6223 -0.2782 -0.0977
  327TMC3    H2 4969   2.599   0.457  10.586 -0.5045  2.4781 -0.6346
  327TMC3    C7 4970   2.798   0.308  10.683  0.0964 -0.1875 -0.4039
  327TMC3    C8 4971   2.647   0.723  10.552 -0.1098 -0.9118  0.0431
  327TMC3    O1 4972   2.852   0.225  10.757  0.3847 -0.2799 -0.3565
  327TMC3    O2 4973   2.698   0.833  10.537 -0.2361 -0.5493  0.3558
  328MPD2     C 4974   1.178   1.159  17.421 -0.3399  0.0858  0.0288
  328MPD2    C1 4975   1.080   1.077  17.466  0.5167  0.2563  0.2466
  328MPD2    C2 4976   0.983   1.038  17.374 -0.3337  0.1815  0.0325
  328MPD2    C3 4977   0.986   1.080  17.245 -0.1539  0.0429 -0.7833
  328MPD2    C4 4978   1.089   1.157  17.199  0.1581  0.1085 -0.1059
  328MPD2    C5 4979   1.188   1.198  17.289  0.8294 -0.8777  0.7743
  328MPD2     H 4980   0.901   0.981  17.418 -0.9998  1.6632  0.7356
  328MPD2    H1 4981   1.092   1.185  17.094  0.6075  0.0155 -0.1167
  328MPD2    H2 4982   1.262   1.197  17.479  0.9775  2.1657 -3.2164
  328MPD2    H3 4983   1.268   1.260  17.250  0.0260 -1.4359 -1.7526
  328MPD2     N 4984   0.895   1.034  17.145 -0.1365 -0.0467  0.4610
  328MPD2    H5 4985   0.906   1.071  17.051 -1.0747  0.1832  0.4457
  328MPD2    N1 4986   1.087   1.044  17.604 -0.3881  0.1783 -0.5579
  328MPD2    H7 4987   1.141   1.097  17.671 -0.8737  0.9904 -0.8103
  329TMC3    C1 4988   1.047   0.926   0.060  0.0120 -0.3969 -0.2649
  329TMC3    C2 4989   1.013   1.041   0.128 -0.1160  0.8501 -0.3319
  329TMC3    C3 4990   0.960   1.033   0.258 -0.3199  0.3390 -0.2263
  329TMC3    C4 4991   1.020   0.806   0.110 -0.1206  0.0155 -0.4439
  329TMC3    C5 4992   0.952   0.796   0.230  0.2270 -0.1601 -0.6844
  329TMC3    C6 4993   0.930   0.908   0.305 -0.2115  1.0086 -0.3381
  329TMC3     C 4994   1.009   0.942  17.665 -0.6075  0.4428 -0.3767
  329TMC3     O 4995   0.940   0.861  17.605  0.8645 -0.2561 -0.0305
  329TMC3     H 4996   1.032   1.140   0.090 -1.2987  0.7088 -1.2811
  329TMC3    H1 4997   1.040   0.718   0.050 -0.5715 -1.2455  1.2618
  329TMC3    H2 4998   0.874   0.904   0.398  1.0451 -0.5679  0.3373
  329TMC3    C7 4999   0.878   0.680   0.266  1.0466  0.3043  0.2815
  329TMC3    C8 5000   0.977   1.153   0.341 -0.1831  0.6418  0.1567
  329TMC3    O1 5001   0.775   0.691   0.333 -0.8065  0.2288 -0.4547
  329TMC3    O2 5002   1.062   1.237   0.311 -0.3326  0.4006  0.1537
  330TMC3    C1 5003   3.169   4.552   9.830 -0.1405 -0.1842 -0.7514
  330TMC3    C2 5004   3.061   4.509   9.907 -0.0326 -0.2886 -0.4061
  330TMC3    C3 5005   3.061   4.528  10.045  0.5738  0.4338  0.1024
  330TMC3    C4 5006   3.283   4.591   9.901  0.1672 -0.6094 -0.5302
  330TMC3    C5 5007   3.279   4.601  10.040 -0.1287 -0.2409  0.8636
  330TMC3    C6 5008   3.171   4.569  10.116  0.5186 -0.3738 -0.3801
  330TMC3     C 5009   3.182   4.502   9.689 -0.1348 -0.5131 -0.6479
  330TMC3     O 5010   3.290   4.535   9.640  0.4892  0.2617  0.2100
  330TMC3     H 5011   2.966   4.500   9.856 -0.3312 -1.6678  0.3750
  330TMC3    H1 5012   3.367   4.618   9.838 -0.6217  1.1794 -0.8370
  330TMC3    H2 5013   3.165   4.583  10.223 -1.8729 -1.6406 -0.3504
  330TMC3    C7 5014   3.379   4.679  10.120 -0.4798  0.2587  0.5045
  330TMC3    C8 5015   2.960   4.457  10.117 -0.3050 -0.0614  0.6781
  330TMC3    O1 5016   3.380   4.674  10.241 -0.2176  0.6171 -0.3198
  330TMC3    O2 5017   2.932   4.510  10.224 -0.2972  0.3494  0.2734
  331MPD2     C 5018   1.839   4.507  12.822 -0.0658 -0.2608 -0.1573
  331MPD2    C1 5019   1.894   4.514  12.695 -0.3318 -0.2915 -0.4079
  331MPD2    C2 5020   1.872   4.402  12.617  0.5495  0.0183  0.5875
  331MPD2    C3 5021   1.787   4.300  12.648  0.0195  0.2420  0.2038
  331MPD2    C4 5022   1.725   4.308  12.771 -0.0033 -0.7938 -0.6312
  331MPD2    C5 5023   1.756   4.410  12.862  0.0879 -0.8945  0.4463
  331MPD2     H 5024   1.936   4.383  12.532 -1.1641  0.4984 -0.8189
  331MPD2    H1 5025   1.661   4.226  12.804  0.2753 -0.4704  0.7346
  331MPD2    H2 5026   1.866   4.588  12.888  2.8457 -0.8099 -0.6597
  331MPD2    H3 5027   1.693   4.409  12.950  0.9070  0.2439  1.0309
  331MPD2     N 5028   1.773   4.197  12.553 -0.5476 -0.3748  0.6214
  331MPD2    H5 5029   1.831   4.213  12.472 -2.5686  0.4018 -0.6669
  331MPD2    N1 5030   1.994   4.608  12.671  0.4297 -0.9645  1.0603
  331MPD2    H7 5031   2.039   4.649  12.752  0.0303 -0.6603  1.1329
  332TMC3    C1 5032   1.727   3.992  12.449  0.1801  0.0463  0.1519
  332TMC3    C2 5033   1.691   4.047  12.323 -0.1820 -0.6305 -0.0432
  332TMC3    C3 5034   1.652   3.954  12.228  1.0673 -0.4615  0.2915
  332TMC3    C4 5035   1.751   3.865  12.471  0.5201  0.5465  0.1596
  332TMC3    C5 5036   1.723   3.780  12.368  0.6718 -0.3485  0.1371
  332TMC3    C6 5037   1.676   3.817  12.243  0.7214 -0.0324  0.1600
  332TMC3     C 5038   1.718   4.076  12.569 -0.0762 -1.1841  0.2466
  332TMC3     O 5039   1.665   4.023  12.664 -0.2427  0.4715 -0.1832
  332TMC3     H 5040   1.677   4.154  12.318  0.6532 -0.6981 -4.3799
  332TMC3    H1 5041   1.773   3.826  12.570  2.0105 -1.4563 -0.9453
  332TMC3    H2 5042   1.667   3.751  12.158  1.8925  0.3225 -0.2413
  332TMC3    C7 5043   1.759   3.642  12.370 -0.4116  0.0036  0.1634
  332TMC3    C8 5044   1.620   4.007  12.096 -0.3906 -0.4385  0.3836
  332TMC3    O1 5045   1.693   3.562  12.304 -0.0082  0.6306 -0.7623
  332TMC3    O2 5046   1.643   4.122  12.072 -0.3056  0.2297 -0.2555
  333MPD2     C 5047   1.192   4.066  10.646  1.0179  0.2347  0.6165
  333MPD2    C1 5048   1.318   4.009  10.654  0.3000  0.0149  0.5735
  333MPD2    C2 5049   1.349   3.918  10.759  0.0961  0.2270  0.2247
  333MPD2    C3 5050   1.246   3.878  10.842  0.2140 -0.3700 -0.1308
  333MPD2    C4 5051   1.121   3.938  10.831  0.7055  0.1703  0.0687
  333MPD2    C5 5052   1.088   4.021  10.730 -0.3308  0.1621  0.9807
  333MPD2     H 5053   1.446   3.875  10.777 -0.0781  1.2978  3.6956
  333MPD2    H1 5054   1.030   3.910  10.885  0.1769  4.7286  1.5537
  333MPD2    H2 5055   1.164   4.133  10.565 -1.0517 -0.5660  0.6720
  333MPD2    H3 5056   0.989   4.062  10.716  0.7135  2.6367  0.9048
  333MPD2     N 5057   1.270   3.784  10.942 -0.0060  0.1064 -0.2074
  333MPD2    H5 5058   1.359   3.735  10.952  0.1109 -0.1057 -2.4009
  333MPD2    N1 5059   1.416   4.051  10.556  0.4445 -0.1222  0.0715
  333MPD2    H7 5060   1.387   4.125  10.494  2.3746 -1.6064 -2.5832
  334TMC3    C1 5061   1.620   4.053  10.435 -0.1209 -0.5057 -0.3783
  334TMC3    C2 5062   1.716   3.971  10.375  0.4966 -0.4377  0.4046
  334TMC3    C3 5063   1.828   4.034  10.331  0.1419 -0.1290 -0.4040
  334TMC3    C4 5064   1.635   4.189  10.443 -0.5107 -0.0800  0.1729
  334TMC3    C5 5065   1.756   4.245  10.399 -0.6172  0.4456  0.9190
  334TMC3    C6 5066   1.847   4.168  10.343 -0.1264  0.7503  0.0646
  334TMC3     C 5067   1.541   3.988  10.532  0.5613 -0.5188  0.3618
  334TMC3     O 5068   1.579   3.880  10.573 -0.0715 -0.1403  0.1312
  334TMC3     H 5069   1.703   3.863  10.373  0.8948 -0.4395 -1.9630
  334TMC3    H1 5070   1.562   4.250  10.496 -2.3375 -0.7637 -1.5474
  334TMC3    H2 5071   1.940   4.205  10.302  0.8576  0.3433  1.8868
  334TMC3    C7 5072   1.791   4.385  10.432 -0.5788  0.6765 -0.0064
  334TMC3    C8 5073   1.938   3.952  10.291 -0.4820  0.7761  0.1343
  334TMC3    O1 5074   1.737   4.443  10.526 -0.2556 -0.3233  0.1924
  334TMC3    O2 5075   1.908   3.837  10.261  0.4404 -0.2634  0.2836
  335TMC3    C1 5076   1.777   1.002  17.354 -0.7891  0.3500  0.6966
  335TMC3    C2 5077   1.797   0.870  17.326  0.0032 -0.4307  0.3416
  335TMC3    C3 5078   1.887   0.847  17.231  0.4544 -0.0570 -0.9492
  335TMC3    C4 5079   1.839   1.109  17.294  1.2430 -0.1853  0.3134
  335TMC3    C5 5080   1.933   1.072  17.208  0.7306  0.0288  0.9735
  335TMC3    C6 5081   1.949   0.947  17.161 -0.5503 -0.5741 -0.0455
  335TMC3     C 5082   1.691   1.049  17.460 -0.1021  0.4746  0.2581
  335TMC3     O 5083   1.662   1.165  17.472 -0.2598 -0.3876  0.3032
  335TMC3     H 5084   1.748   0.789  17.379 -0.6765 -0.7325 -0.7669
  335TMC3    H1 5085   1.824   1.215  17.313  1.5114  0.3591 -2.4809
  335TMC3    H2 5086   2.040   0.923  17.108  0.1717  1.1301  0.3962
  335TMC3    C7 5087   2.045   1.166  17.181 -0.1527 -0.5845 -0.3357
  335TMC3    C8 5088   1.894   0.712  17.176  0.2285 -0.1061 -0.6289
  335TMC3    O1 5089   2.113   1.150  17.081  0.0562 -0.0076  0.1658
  335TMC3    O2 5090   1.977   0.696  17.093  0.4718 -0.1455  0.3513
  336MPD2     C 5091   1.201   3.162  16.367 -0.8218 -0.0652 -0.4435
  336MPD2    C1 5092   1.203   3.132  16.235  0.3862 -0.6678 -0.0922
  336MPD2    C2 5093   1.256   3.003  16.201  0.2605 -0.0287  0.8275
  336MPD2    C3 5094   1.297   2.905  16.289 -0.0413 -0.4296  0.2265
  336MPD2    C4 5095   1.303   2.946  16.421 -0.6223  0.4559 -0.4044
  336MPD2    C5 5096   1.249   3.069  16.457  0.7522  0.7106  0.2812
  336MPD2     H 5097   1.258   2.982  16.095 -0.5741 -0.8424  0.9759
  336MPD2    H1 5098   1.340   2.880  16.498  1.2613 -0.8402 -2.4370
  336MPD2    H2 5099   1.154   3.251  16.406 -0.2159  0.1356 -0.1644
  336MPD2    H3 5100   1.243   3.099  16.561  0.8832  3.2331 -0.4439
  336MPD2     N 5101   1.352   2.778  16.256 -0.2222  0.3134 -0.3174
  336MPD2    H5 5102   1.375   2.714  16.332 -0.2474  2.3705  1.4252
  336MPD2    N1 5103   1.159   3.219  16.129 -0.1784 -0.3240 -0.3100
  336MPD2    H7 5104   1.177   3.191  16.034 -1.1006  0.1369 -0.6292
  337TMC3    C1 5105   1.056   3.411  16.034  0.0052 -0.6456  0.4824
  337TMC3    C2 5106   0.929   3.454  16.005  0.1561 -0.7675  0.1843
  337TMC3    C3 5107   0.892   3.486  15.877 -0.0879  0.1502 -0.3340
  337TMC3    C4 5108   1.143   3.409  15.929  0.0903  0.4516 -0.1095
  337TMC3    C5 5109   1.105   3.443  15.797  1.2753  0.0635 -0.1691
  337TMC3    C6 5110   0.977   3.485  15.764  0.2683  0.4580 -0.0338
  337TMC3     C 5111   1.084   3.336  16.154 -0.2697 -0.2775 -0.2464
  337TMC3     O 5112   1.051   3.380  16.261  0.4452  0.5664  0.2518
  337TMC3     H 5113   0.859   3.461  16.088  1.5667  0.7756  1.2387
  337TMC3    H1 5114   1.243   3.375  15.954 -0.4296  2.3996  4.5652
  337TMC3    H2 5115   0.955   3.517  15.663 -0.6401 -1.4648 -0.4473
  337TMC3    C7 5116   1.191   3.435  15.683 -0.1305  0.0238  0.3450
  337TMC3    C8 5117   0.763   3.542  15.855  0.4425  0.1255 -0.4556
  337TMC3    O1 5118   1.156   3.470  15.571  0.1672  0.0971  0.6075
  337TMC3    O2 5119   0.714   3.618  15.944 -0.4156 -0.0494 -0.3003
  338MPD2     C 5120   1.655   2.932   1.060 -0.6718 -0.1778 -1.0522
  338MPD2    C1 5121   1.584   2.931   0.941  0.8290 -0.2773 -0.0038
  338MPD2    C2 5122   1.451   2.959   0.943 -1.0745 -0.0355  0.5758
  338MPD2    C3 5123   1.383   3.000   1.065 -0.0506 -0.0805  0.2251
  338MPD2    C4 5124   1.453   3.001   1.182 -0.3993 -0.2545  0.0674
  338MPD2    C5 5125   1.590   2.979   1.172  0.6487 -0.0131  0.3183
  338MPD2     H 5126   1.390   2.954   0.853 -0.0126  1.9887 -0.2639
  338MPD2    H1 5127   1.403   3.029   1.274  0.2827  0.4994  0.2033
  338MPD2    H2 5128   1.763   2.922   1.060 -0.7654 -1.1174 -1.6585
  338MPD2    H3 5129   1.640   2.998   1.266  0.9186  0.1466  0.1429
  338MPD2     N 5130   1.244   3.034   1.063 -0.6718 -0.0789 -0.3900
  338MPD2    H5 5131   1.209   3.032   0.968 -1.4013  0.2802 -0.1268
  338MPD2    N1 5132   1.643   2.883   0.819  0.2261  0.2302  0.3354
  338MPD2    H7 5133   1.587   2.895   0.735 -3.2270  0.6351  2.6988
  339TMC3    C1 5134   1.024   3.059   1.126 -0.5356 -0.1772  0.2320
  339TMC3    C2 5135   0.936   2.966   1.183 -0.1652 -0.3374  0.6231
  339TMC3    C3 5136   0.849   2.913   1.089 -0.1838 -0.7180  0.4542
  339TMC3    C4 5137   1.011   3.121   1.004 -0.8365  0.0848 -0.2093
  339TMC3    C5 5138   0.903   3.076   0.925  0.1121 -0.0243  0.1670
  339TMC3    C6 5139   0.824   2.965   0.960 -0.4062 -0.1082  0.5955
  339TMC3     C 5140   1.164   3.056   1.171 -0.2837  0.2137 -0.9105
  339TMC3     O 5141   1.179   3.046   1.291 -0.5998  0.0454  0.3703
  339TMC3     H 5142   0.940   2.925   1.284 -0.8898 -0.5464  0.5670
  339TMC3    H1 5143   1.079   3.198   0.968  0.4098 -2.0157 -2.3792
  339TMC3    H2 5144   0.754   2.912   0.896 -2.1627  0.5262  2.0071
  339TMC3    C7 5145   0.931   3.092   0.783  0.9047 -0.2903  0.7746
  339TMC3    C8 5146   0.783   2.782   1.110  1.1293  0.1172 -0.8608
  339TMC3    O1 5147   0.972   3.204   0.744 -0.3638  0.0679  0.5518
  339TMC3    O2 5148   0.748   2.713   1.016  0.3013  0.0924  0.4532
  340MPD2     C 5149   1.170   0.569   9.971 -0.6180  0.1578  0.4398
  340MPD2    C1 5150   1.196   0.453   9.907 -0.0116  0.2833  0.4708
  340MPD2    C2 5151   1.201   0.333   9.973 -0.1144 -0.4153  0.5539
  340MPD2    C3 5152   1.166   0.324  10.105  0.7351  0.1079  0.3299
  340MPD2    C4 5153   1.125   0.441  10.170 -0.5206  0.3845 -0.2587
  340MPD2    C5 5154   1.133   0.563  10.107 -0.1772  0.3478 -0.0669
  340MPD2     H 5155   1.224   0.239   9.923  0.5150  0.0381 -0.0073
  340MPD2    H1 5156   1.089   0.442  10.272  0.9835 -0.0274  0.2705
  340MPD2    H2 5157   1.159   0.663   9.919 -2.3393 -0.8606 -1.0292
  340MPD2    H3 5158   1.098   0.648  10.164 -1.2263  0.2735 -0.5988
  340MPD2     N 5159   1.147   0.204  10.177  0.4197 -0.1007 -0.4489
  340MPD2    H5 5160   1.135   0.208  10.278 -1.1342  1.9537 -0.7262
  340MPD2    N1 5161   1.204   0.466   9.762 -0.0261 -1.0072  0.3836
  340MPD2    H7 5162   1.157   0.546   9.721 -1.8616 -1.0864  2.3156
  341TMC3    C1 5163   1.227   0.399   9.541  0.1093 -0.1916 -0.1808
  341TMC3    C2 5164   1.157   0.299   9.489 -0.3318  0.5054 -0.1076
  341TMC3    C3 5165   1.198   0.224   9.381  0.3140 -0.1246  0.4061
  341TMC3    C4 5166   1.352   0.429   9.484  0.1716  0.2534 -0.5792
  341TMC3    C5 5167   1.384   0.359   9.373 -0.5127  0.4363 -0.5285
  341TMC3    C6 5168   1.311   0.257   9.314 -0.0252  0.0417 -0.0632
  341TMC3     C 5169   1.241   0.365   9.676 -0.3364  0.3097  0.7687
  341TMC3     O 5170   1.271   0.248   9.698  0.0985  0.4338 -0.2829
  341TMC3     H 5171   1.059   0.264   9.519  0.1577  2.1385  3.3618
  341TMC3    H1 5172   1.426   0.488   9.538  0.4334 -1.5026  0.9844
  341TMC3    H2 5173   1.344   0.190   9.235  0.2397 -0.8870  0.8381
  341TMC3    C7 5174   1.494   0.404   9.293 -0.0147  0.8361 -0.7927
  341TMC3    C8 5175   1.182   0.081   9.386  0.4525 -0.3964  0.7847
  341TMC3    O1 5176   1.529   0.328   9.204 -0.7553  0.6439 -0.0990
  341TMC3    O2 5177   1.203   0.019   9.285  0.2052 -0.0022 -0.2753
  342MPD2     C 5178   0.069   3.555   0.222  0.3021 -0.5996  0.0871
  342MPD2    C1 5179   0.124   3.565   0.103  0.6583  0.5835  0.3522
  342MPD2    C2 5180   0.147   3.689   0.046 -0.3900 -0.0031  0.6489
  342MPD2    C3 5181   0.103   3.805   0.106  0.5715  0.4692  0.3619
  342MPD2    C4 5182   0.046   3.795   0.226  0.2842  0.9895 -0.5339
  342MPD2    C5 5183   0.025   3.670   0.286 -0.5786  0.0950  0.8364
  342MPD2     H 5184   0.208   3.682  17.702 -0.4834 -0.6780  0.6415
  342MPD2    H1 5185   4.734   3.881   0.269  0.5293  0.5775  0.5668
  342MPD2    H2 5186   0.048   3.466   0.279 -3.2911  0.2325  0.0819
  342MPD2    H3 5187   4.699   3.670   0.374 -1.5036 -0.7766  0.1888
  342MPD2     N 5188   0.116   3.933   0.046  0.3510 -0.9373 -0.2168
  342MPD2    H5 5189   0.103   4.014   0.106 -0.1613 -1.1855  0.0137
  342MPD2    N1 5190   0.156   3.442   0.041 -0.6428 -0.2990  0.5684
  342MPD2    H7 5191   0.207   3.453  17.698 -0.7814  2.6139  0.8424
  343TMC3    C1 5192   0.172   3.213  17.729  0.2419  0.7456 -0.4941
  343TMC3    C2 5193   0.248   3.239  17.617 -0.2028  0.1953  0.2579
  343TMC3    C3 5194   0.252   3.150  17.515 -0.9178 -0.9269  0.1980
  343TMC3    C4 5195   0.085   3.107  17.732  0.4469 -0.6545  0.6492
  343TMC3    C5 5196   0.092   3.026  17.622 -0.0457 -0.3865 -0.4635
  343TMC3    C6 5197   0.171   3.040  17.514  1.1888  0.4071 -0.4630
  343TMC3     C 5198   0.142   3.310   0.085  0.3230 -0.0743 -0.9803
  343TMC3     O 5199   0.087   3.274   0.190  0.2882 -1.1191  0.3753
  343TMC3     H 5200   0.314   3.325  17.617 -1.6805  1.3240  1.1223
  343TMC3    H1 5201   0.010   3.087   0.064 -2.1303  0.8926 -1.4836
  343TMC3    H2 5202   0.186   2.956  17.448 -0.0837  0.4387 -0.7996
  343TMC3    C7 5203   0.021   2.904  17.638 -0.4320  0.1393  0.4912
  343TMC3    C8 5204   0.369   3.141  17.428 -0.2193 -0.0334 -0.0849
  343TMC3    O1 5205   4.693   2.858  17.543 -0.1770  0.0579 -0.1030
  343TMC3    O2 5206   0.443   3.236  17.437 -0.0882  0.4278  0.2862
  344MPD2     C 5207   0.794   2.689  10.068  0.1104  0.5169  0.5019
  344MPD2    C1 5208   0.676   2.759  10.091  0.5747  0.4482  0.3880
  344MPD2    C2 5209   0.657   2.885  10.038  0.0454 -0.1265 -1.0813
  344MPD2    C3 5210   0.760   2.946   9.964  0.1314  0.1040  1.0634
  344MPD2    C4 5211   0.879   2.878   9.939  0.0484  0.5985  0.2533
  344MPD2    C5 5212   0.895   2.755  10.000  0.0417  0.4860 -0.9784
  344MPD2     H 5213   0.566   2.939  10.062 -0.0499 -0.3917 -0.8310
  344MPD2    H1 5214   0.957   2.907   9.870  1.1694  1.4022  1.8927
  344MPD2    H2 5215   0.812   2.588  10.103 -1.4319 -0.1117 -0.5151
  344MPD2    H3 5216   0.993   2.708   9.999 -0.8280 -1.3628  0.9811
  344MPD2     N 5217   0.740   3.066   9.887  0.4146  0.4524 -0.4129
  344MPD2    H5 5218   0.828   3.096   9.847  1.6075  0.1748  1.9896
  344MPD2    N1 5219   0.563   2.697  10.161 -0.3243  0.3253  0.4377
  344MPD2    H7 5220   0.468   2.730  10.149 -0.1011  0.6969 -0.3189
  345TMC3    C1 5221   0.646   3.256   9.778  1.0293 -0.3894  0.5307
  345TMC3    C2 5222   0.766   3.276   9.715 -0.8787  0.2194 -0.7631
  345TMC3    C3 5223   0.781   3.398   9.656 -0.0014  0.9863 -0.2911
  345TMC3    C4 5224   0.564   3.362   9.812  0.1918 -0.0430 -0.4039
  345TMC3    C5 5225   0.598   3.490   9.766  0.0561 -0.9846  0.3989
  345TMC3    C6 5226   0.702   3.511   9.682 -0.1310 -0.3105 -0.3878
  345TMC3     C 5227   0.620   3.134   9.857 -0.1090 -0.2234  0.2162
  345TMC3     O 5228   0.509   3.107   9.893  1.2215 -0.3632 -0.2499
  345TMC3     H 5229   0.826   3.188   9.696 -1.1170 -0.2318  0.5517
  345TMC3    H1 5230   0.483   3.346   9.882 -0.9117  0.4614 -1.5642
  345TMC3    H2 5231   0.716   3.607   9.634 -1.1616  0.8184  1.5863
  345TMC3    C7 5232   0.505   3.600   9.780 -0.5538  0.0549  0.1244
  345TMC3    C8 5233   0.907   3.419   9.587 -0.4660 -0.0456 -0.2278
  345TMC3    O1 5234   0.543   3.710   9.761 -0.3956 -0.2122  0.2344
  345TMC3    O2 5235   0.958   3.339   9.511  0.1107 -0.6147 -0.1459
  346MPD2     C 5236   0.831   0.258  14.317 -0.7295  0.4579 -0.0859
  346MPD2    C1 5237   0.835   0.335  14.208  0.1070  0.4910 -0.1964
  346MPD2    C2 5238   0.946   0.427  14.196  0.3986 -0.0798 -0.2061
  346MPD2    C3 5239   1.029   0.460  14.303  0.3003 -0.1036 -0.1836
  346MPD2    C4 5240   1.020   0.374  14.411  0.0138 -0.0946 -0.3308
  346MPD2    C5 5241   0.916   0.285  14.421  0.3041 -1.1421 -0.2263
  346MPD2     H 5242   0.966   0.471  14.099 -2.7699  1.4587 -0.1522
  346MPD2    H1 5243   1.076   0.395  14.501 -1.2093  0.3333  0.3292
  346MPD2    H2 5244   0.759   0.177  14.327 -0.5665  0.1879 -1.0918
  346MPD2    H3 5245   0.919   0.234  14.517  0.0454  0.7673  0.7981
  346MPD2     N 5246   1.131   0.556  14.285 -0.1720  0.1704  0.1304
  346MPD2    H5 5247   1.134   0.594  14.191 -0.4769  1.3597  0.5936
  346MPD2    N1 5248   0.740   0.325  14.104  0.0923 -0.2327  0.4804
  346MPD2    H7 5249   0.732   0.406  14.044  0.3420 -1.6437 -1.4258
  347TMC3    C1 5250   1.316   0.694  14.340  0.6016 -0.2575  0.0851
  347TMC3    C2 5251   1.325   0.727  14.204  0.0444 -0.9440 -0.8235
  347TMC3    C3 5252   1.444   0.740  14.143  0.0251  0.3568 -0.9593
  347TMC3    C4 5253   1.425   0.682  14.409 -0.0437 -0.6925 -0.0075
  347TMC3    C5 5254   1.547   0.698  14.350  0.2705  0.0813 -0.1146
  347TMC3    C6 5255   1.556   0.716  14.219 -0.2917 -0.3746  0.8909
  347TMC3     C 5256   1.215   0.600  14.387  0.0217  0.4957  0.0996
  347TMC3     O 5257   1.202   0.576  14.508 -0.2338 -0.2495 -0.5483
  347TMC3     H 5258   1.230   0.738  14.152 -0.4897 -0.5290  0.2233
  347TMC3    H1 5259   1.422   0.680  14.518 -1.1697  2.6701  0.0090
  347TMC3    H2 5260   1.651   0.736  14.171 -0.2206  0.9778  1.5862
  347TMC3    C7 5261   1.669   0.704  14.429  0.3982  0.4725  0.0868
  347TMC3    C8 5262   1.448   0.646  14.031 -0.1860 -1.6743 -0.0893
  347TMC3    O1 5263   1.763   0.768  14.387 -0.0358 -0.3917  0.1913
  347TMC3    O2 5264   1.503   0.543  14.067 -0.4852 -0.1540  0.4159
  348MPD2     C 5265   3.738   4.318  12.033  0.1813  0.7356 -1.1889
  348MPD2    C1 5266   3.849   4.319  11.950 -0.2479 -0.5067 -0.9967
  348MPD2    C2 5267   3.830   4.352  11.817 -0.5037 -1.3252  0.3890
  348MPD2    C3 5268   3.708   4.378  11.765  0.2047 -0.0417  0.2383
  348MPD2    C4 5269   3.602   4.386  11.849 -0.2441 -0.1040  0.4206
  348MPD2    C5 5270   3.618   4.359  11.987 -0.0607  0.5615  0.7160
  348MPD2     H 5271   3.913   4.355  11.747 -1.2950 -1.1227 -0.5264
  348MPD2    H1 5272   3.501   4.420  11.828 -0.0600  0.1425 -0.0780
  348MPD2    H2 5273   3.751   4.281  12.134 -0.0356 -0.6774 -1.6762
  348MPD2    H3 5274   3.543   4.369  12.064 -0.9423 -3.0619  0.3426
  348MPD2     N 5275   3.697   4.409  11.626 -0.8241  0.1232 -0.1868
  348MPD2    H5 5276   3.785   4.412  11.574  1.4343  1.9498  3.7117
  348MPD2    N1 5277   3.978   4.274  11.986  0.6220  0.1120 -0.0198
  348MPD2    H7 5278   4.052   4.271  11.917 -0.3248 -0.6366 -1.0126
  349TMC3    C1 5279   4.151   4.178  12.086  0.2128  0.0386  0.1576
  349TMC3    C2 5280   4.188   4.051  12.118  0.1536 -0.3305  0.9146
  349TMC3    C3 5281   4.301   4.011  12.052 -1.1433 -0.1767  0.5174
  349TMC3    C4 5282   4.221   4.258  11.999 -0.5229 -0.1229  0.3173
  349TMC3    C5 5283   4.326   4.204  11.933 -0.0432 -0.0321  0.0372
  349TMC3    C6 5284   4.361   4.077  11.954  0.4442  0.4602  0.6714
  349TMC3     C 5285   4.017   4.221  12.109  0.0587 -0.1949 -0.0924
  349TMC3     O 5286   3.943   4.184  12.202 -0.0286  0.0955 -0.0085
  349TMC3     H 5287   4.112   3.979  12.147  1.0276 -1.6008  0.0803
  349TMC3    H1 5288   4.199   4.363  11.989  1.8950  0.4796  1.3996
  349TMC3    H2 5289   4.449   4.042  11.902  1.4845 -1.6884  3.8387
  349TMC3    C7 5290   4.329   4.235  11.790 -0.2253 -0.4468  0.0543
  349TMC3    C8 5291   4.322   3.867  12.070 -0.4167 -0.2520 -0.3217
  349TMC3    O1 5292   4.309   4.144  11.712  0.2385 -0.4546 -0.3652
  349TMC3    O2 5293   4.270   3.814  12.166 -0.0690 -0.3269 -0.5020
  350MPD2     C 5294   2.684   2.535  10.172  0.2815  0.2823 -0.0489
  350MPD2    C1 5295   2.757   2.423  10.140 -0.7928  0.5082  0.4976
  350MPD2    C2 5296   2.896   2.432  10.127  0.6700  0.8684 -0.4306
  350MPD2    C3 5297   2.966   2.545  10.159  0.1079 -0.5270 -0.5124
  350MPD2    C4 5298   2.891   2.656  10.209  0.6353  0.2224 -0.6898
  350MPD2    C5 5299   2.755   2.647  10.199  0.6683 -0.7446 -0.1177
  350MPD2     H 5300   2.954   2.343  10.109 -0.7518 -0.3457  0.9614
  350MPD2    H1 5301   2.933   2.742  10.259  1.1004  0.4585 -1.4782
  350MPD2    H2 5302   2.577   2.534  10.186  0.3521  0.7552  0.5126
  350MPD2    H3 5303   2.697   2.732  10.234  1.8702  0.3027 -0.6315
  350MPD2     N 5304   3.105   2.526  10.177 -0.2480  0.3652  0.1340
  350MPD2    H5 5305   3.131   2.429  10.165 -0.8895  0.3670 -1.3637
  350MPD2    N1 5306   2.696   2.293  10.113 -0.1073  0.3516 -0.3667
  350MPD2    H7 5307   2.759   2.213  10.109 -1.3694 -0.7298  1.1534
  351TMC3    C1 5308   2.524   2.141  10.083 -0.4094 -0.3411  0.0737
  351TMC3    C2 5309   2.598   2.054  10.006 -0.1305 -0.3116 -0.3531
  351TMC3    C3 5310   2.545   1.926   9.976 -0.3134 -0.2589 -0.7001
  351TMC3    C4 5311   2.405   2.101  10.134 -0.8013  0.3875 -0.8326
  351TMC3    C5 5312   2.354   1.974  10.097  0.1283 -0.2696 -0.1590
  351TMC3    C6 5313   2.422   1.878  10.029 -0.9826 -0.0067 -0.5812
  351TMC3     C 5314   2.562   2.277  10.100 -0.0853  0.1779  0.6451
  351TMC3     O 5315   2.469   2.357  10.108 -0.3528 -0.4782  0.1789
  351TMC3     H 5316   2.689   2.083   9.955  0.0362  0.6466  0.4810
  351TMC3    H1 5317   2.353   2.158  10.210 -0.7336  0.1085 -0.5782
  351TMC3    H2 5318   2.373   1.787   9.995 -1.3476 -1.1634  3.0645
  351TMC3    C7 5319   2.259   1.929  10.197 -0.3447  0.8594 -0.1133
  351TMC3    C8 5320   2.620   1.837   9.889 -0.3402 -0.8151 -0.7393
  351TMC3    O1 5321   2.173   2.012  10.232 -0.5522  0.0827  0.6817
  351TMC3    O2 5322   2.740   1.856   9.864  0.0441 -0.3477 -0.1879
  352MPD2     C 5323   1.822   4.545   1.162 -0.3311  0.5094  0.5739
  352MPD2    C1 5324   1.739   4.565   1.273 -0.0110 -0.1122 -0.2449
  352MPD2    C2 5325   1.736   4.470   1.370  0.5700  0.3604 -0.6833
  352MPD2    C3 5326   1.822   4.364   1.361  0.1804 -0.8935  0.0785
  352MPD2    C4 5327   1.911   4.348   1.261  0.1639 -0.6269 -0.0819
  352MPD2    C5 5328   1.908   4.435   1.154 -1.2921 -0.2432  0.0028
  352MPD2     H 5329   1.674   4.479   1.458  0.0902  0.5400 -1.0420
  352MPD2    H1 5330   1.974   4.260   1.254  2.1023  0.7863 -0.5573
  352MPD2    H2 5331   1.821   4.621   1.084 -0.3525 -0.6189 -0.5281
  352MPD2    H3 5332   1.965   4.408   1.066 -1.7396 -0.1219 -0.3209
  352MPD2     N 5333   1.815   4.262   1.450 -0.0849  0.2526 -0.0208
  352MPD2    H5 5334   1.868   4.178   1.430 -0.6976  0.1406 -1.2108
  352MPD2    N1 5335   1.653   4.675   1.272 -0.2637 -0.3295 -0.2606
  352MPD2    H7 5336   1.648   4.714   1.178  3.8703 -0.6831 -0.6241
  353TMC3    C1 5337   1.736   4.094   1.591 -0.0107 -0.2509  0.1297
  353TMC3    C2 5338   1.862   4.049   1.618  0.0134  0.1540 -0.8777
  353TMC3    C3 5339   1.873   3.915   1.628  0.0711  0.5230  0.0782
  353TMC3    C4 5340   1.631   4.013   1.562  0.7865 -0.1170 -0.1035
  353TMC3    C5 5341   1.649   3.885   1.575 -0.7569  0.0795 -0.1981
  353TMC3    C6 5342   1.767   3.827   1.610  0.1992  0.1212  0.0963
  353TMC3     C 5343   1.721   4.232   1.540 -0.4726 -0.2482  0.1621
  353TMC3     O 5344   1.610   4.281   1.563  0.2119 -0.0120  0.5634
  353TMC3     H 5345   1.940   4.121   1.643  3.0099 -4.0597  2.0604
  353TMC3    H1 5346   1.538   4.060   1.531 -0.1303 -2.7917 -1.4521
  353TMC3    H2 5347   1.787   3.720   1.614 -0.9813 -0.0006  2.8441
  353TMC3    C7 5348   1.544   3.807   1.509 -0.1359 -0.2895 -0.3777
  353TMC3    C8 5349   2.000   3.864   1.676 -0.2187  0.6659  0.2074
  353TMC3    O1 5350   1.481   3.857   1.421  0.2015  0.1830 -0.1861
  353TMC3    O2 5351   2.078   3.948   1.721  0.6438 -0.1486 -0.5451
  354TMC3    C1 5352   3.014   0.931  13.238 -0.0773 -0.3873 -0.1934
  354TMC3    C2 5353   3.031   1.061  13.199  0.7365  0.1085  0.1211
  354TMC3    C3 5354   3.063   1.082  13.070 -0.0584 -0.1313 -0.1424
  354TMC3    C4 5355   3.019   0.825  13.151 -0.7087  0.2364  1.1431
  354TMC3    C5 5356   3.061   0.851  13.024 -0.4589  0.7153  0.4843
  354TMC3    C6 5357   3.089   0.974  12.979 -0.3391 -0.2847 -0.6357
  354TMC3     C 5358   2.996   0.898  13.376  0.0076 -0.4647 -0.3377
  354TMC3     O 5359   2.950   0.782  13.404 -0.3277 -0.2717 -0.4730
  354TMC3     H 5360   3.012   1.140  13.271  0.2827  0.6619 -0.6091
  354TMC3    H1 5361   3.034   0.726  13.193 -0.0570 -0.4431 -0.6821
  354TMC3    H2 5362   3.102   0.990  12.873 -2.5248 -1.9595 -1.1442
  354TMC3    C7 5363   3.128   0.745  12.956  0.5057  0.6123 -0.0430
  354TMC3    C8 5364   3.037   1.219  13.017  1.1452  0.0591 -0.4652
  354TMC3    O1 5365   3.098   0.630  12.986 -0.5896  0.7442 -0.4093
  354TMC3    O2 5366   2.935   1.278  13.056  0.5962  0.5244  0.1857
  355MPD2     C 5367   3.260   1.705  11.666  0.1115 -0.4475  0.4134
  355MPD2    C1 5368   3.308   1.722  11.540  0.1973  0.6627  0.2812
  355MPD2    C2 5369   3.441   1.750  11.524 -0.3689 -0.5610 -0.5184
  355MPD2    C3 5370   3.520   1.786  11.631 -0.1908 -0.2415  0.2422
  355MPD2    C4 5371   3.474   1.760  11.758 -0.5770  0.6991 -0.9680
  355MPD2    C5 5372   3.341   1.727  11.768 -0.0335 -0.6373  0.2053
  355MPD2     H 5373   3.490   1.751  11.427  0.1551 -1.5542 -0.2563
  355MPD2    H1 5374   3.526   1.770  11.853 -1.3775  1.6330 -0.6223
  355MPD2    H2 5375   3.160   1.665  11.682 -0.7309  1.1288 -0.8364
  355MPD2    H3 5376   3.304   1.697  11.866 -2.2372 -0.7112 -0.6664
  355MPD2     N 5377   3.647   1.838  11.623  0.3017 -0.0196 -0.2042
  355MPD2    H5 5378   3.701   1.848  11.708  2.5217  1.1077 -1.7356
  355MPD2    N1 5379   3.218   1.684  11.440 -0.4250  0.2262 -0.2274
  355MPD2    H7 5380   3.133   1.646  11.481 -0.6670  2.1463  1.0799
  356TMC3    C1 5381   3.844   1.937  11.528 -0.4699 -0.3343 -0.0666
  356TMC3    C2 5382   3.928   1.945  11.419 -0.9715 -0.1155 -0.2981
  356TMC3    C3 5383   4.034   2.027  11.410 -0.3530  0.4079 -0.4316
  356TMC3    C4 5384   3.856   2.031  11.631  0.3083 -0.0195 -0.0765
  356TMC3    C5 5385   3.962   2.117  11.621  0.0188 -0.5773 -0.2637
  356TMC3    C6 5386   4.055   2.111  11.519 -0.2146 -0.6578 -0.9542
  356TMC3     C 5387   3.708   1.883  11.504 -0.0242 -0.0551  0.6145
  356TMC3     O 5388   3.665   1.907  11.394  0.4490  1.0667  0.2809
  356TMC3     H 5389   3.907   1.883  11.332 -1.2360 -0.2658 -0.1282
  356TMC3    H1 5390   3.798   2.032  11.722  1.0812 -2.7323  0.4273
  356TMC3    H2 5391   4.150   2.164  11.523 -0.7566  0.4588 -2.9603
  356TMC3    C7 5392   3.981   2.198  11.731  0.0166  0.6598  0.5171
  356TMC3    C8 5393   4.123   2.026  11.298 -0.6084  0.3044  0.3235
  356TMC3    O1 5394   3.897   2.197  11.822 -0.1345 -0.5147 -0.0802
  356TMC3    O2 5395   4.118   1.927  11.227  0.1699 -0.1311 -0.5781
  357MPD2     C 5396   3.103   1.790   1.240  0.2388 -0.6265  0.0940
  357MPD2    C1 5397   3.236   1.824   1.261 -0.3999 -0.2166  0.3706
  357MPD2    C2 5398   3.266   1.892   1.377 -0.7134  0.3248  0.3983
  357MPD2    C3 5399   3.175   1.920   1.478 -0.2238  0.9982  0.1988
  357MPD2    C4 5400   3.041   1.895   1.443  0.4477 -0.2845 -0.1722
  357MPD2    C5 5401   3.007   1.831   1.328  0.5593  0.6583  0.5266
  357MPD2     H 5402   3.368   1.929   1.389  0.3725 -2.3628 -0.6114
  357MPD2    H1 5403   2.966   1.943   1.505  1.2976 -1.4486  1.7604
  357MPD2    H2 5404   3.079   1.736   1.149  0.6132  0.2817 -0.5329
  357MPD2    H3 5405   2.902   1.820   1.306  0.2086  1.4582  1.8121
  357MPD2     N 5406   3.198   1.974   1.604 -0.2837  0.3223  0.5551
  357MPD2    H5 5407   3.119   1.991   1.665  0.8876 -1.4544  2.5934
  357MPD2    N1 5408   3.332   1.797   1.163 -0.2975  0.0740 -0.4293
  357MPD2    H7 5409   3.304   1.731   1.091 -1.6933  0.6580 -0.4142
  358TMC3    C1 5410   3.537   1.761   1.069  0.1050  0.1848 -0.1405
  358TMC3    C2 5411   3.482   1.657   0.996  0.1700 -0.4061  0.1011
  358TMC3    C3 5412   3.537   1.535   0.994  0.0262 -0.8427  0.1983
  358TMC3    C4 5413   3.661   1.735   1.129  0.0143 -0.3160  0.0764
  358TMC3    C5 5414   3.707   1.605   1.136 -0.2937 -0.2059  0.0213
  358TMC3    C6 5415   3.648   1.505   1.070 -0.2450 -0.4419  0.4240
  358TMC3     C 5416   3.456   1.850   1.154 -0.1062  0.6969  0.4073
  358TMC3     O 5417   3.514   1.934   1.221 -0.5809 -0.4906  0.2912
  358TMC3     H 5418   3.386   1.669   0.946 -1.4756 -2.3082  2.8304
  358TMC3    H1 5419   3.715   1.815   1.178  0.9032  0.8496 -2.7926
  358TMC3    H2 5420   3.698   1.413   1.042 -2.1197 -0.7303 -1.9866
  358TMC3    C7 5421   3.835   1.575   1.197 -0.4243 -0.2138 -0.2171
  358TMC3    C8 5422   3.486   1.440   0.905 -0.9684  0.1367 -0.5954
  358TMC3    O1 5423   3.877   1.459   1.179  0.0178  0.5708 -0.3916
  358TMC3    O2 5424   3.467   1.483   0.793  0.1007  0.2095 -0.1253
  359MPD2     C 5425   4.051   4.525  12.271  0.0387 -0.0941  0.9468
  359MPD2    C1 5426   3.947   4.579  12.204 -0.3151  0.7969 -0.0787
  359MPD2    C2 5427   3.821   4.567  12.254  0.4228  0.1242 -0.1083
  359MPD2    C3 5428   3.800   4.512  12.382  0.2872  0.0714 -0.4072
  359MPD2    C4 5429   3.909   4.472  12.456  0.2450  0.0644 -0.7475
  359MPD2    C5 5430   4.033   4.467  12.394  0.5381  0.3213 -0.5062
  359MPD2     H 5431   3.738   4.611  12.200  0.5226 -1.4113 -1.4843
  359MPD2    H1 5432   3.893   4.423  12.552 -1.1228  2.0279  0.0301
  359MPD2    H2 5433   4.152   4.507  12.238 -0.8175 -0.3663 -1.4905
  359MPD2    H3 5434   4.121   4.418  12.434  0.2248 -2.7594 -3.6723
  359MPD2     N 5435   3.674   4.504  12.442  0.3773 -0.4455 -0.1726
  359MPD2    H5 5436   3.676   4.441  12.522 -1.9501  0.4830  0.6444
  359MPD2    N1 5437   3.960   4.638  12.072 -0.6141  0.0543  0.7502
  359MPD2    H7 5438   3.880   4.680  12.027  0.3616  1.7709  0.5943
  360TMC3    C1 5439   4.075   4.715  11.882  0.1467  0.3077 -0.1732
  360TMC3    C2 5440   4.195   0.047  11.849  0.4967 -0.3055 -0.1904
  360TMC3    C3 5441   4.187   0.148  11.758 -0.1423 -0.6517 -0.6937
  360TMC3    C4 5442   3.950   0.007  11.818  0.0511  0.1376  0.4062
  360TMC3    C5 5443   3.960   0.114  11.730  0.7060 -0.1190 -0.1040
  360TMC3    C6 5444   4.070   0.186  11.703 -0.6374 -0.2310  0.0068
  360TMC3     C 5445   4.081   4.636  12.003  0.8649 -0.1384  0.0758
  360TMC3     O 5446   4.193   4.600  12.037 -0.2717  0.0167 -0.2711
  360TMC3     H 5447   4.289   0.029  11.900  1.4554  0.9147 -1.5571
  360TMC3    H1 5448   3.873   4.668  11.814  0.3610 -0.0437 -1.8943
  360TMC3    H2 5449   4.065   0.251  11.616 -1.3878  0.3178  0.4636
  360TMC3    C7 5450   3.847   0.124  11.643 -0.2584 -0.2499 -0.3855
  360TMC3    C8 5451   4.307   0.211  11.719 -0.1037  0.1732 -0.4199
  360TMC3    O1 5452   3.866   0.192  11.539 -0.1700 -0.9412 -0.2086
  360TMC3    O2 5453   4.413   0.156  11.749 -0.1913  0.0720  0.1024
  361MPD2     C 5454   0.507   4.558  16.979  0.0162  0.4620  0.6893
  361MPD2    C1 5455   0.504   4.450  16.894 -0.0567 -0.0196 -0.4452
  361MPD2    C2 5456   0.593   4.341  16.918 -0.7269 -0.4398 -0.4294
  361MPD2    C3 5457   0.673   4.345  17.036 -0.3059 -0.8511 -0.0502
  361MPD2    C4 5458   0.670   4.458  17.108 -0.4262 -0.3721  0.6793
  361MPD2    C5 5459   0.593   4.565  17.086 -0.2009 -0.5003  0.4873
  361MPD2     H 5460   0.593   4.251  16.858  1.0149 -1.0002  0.4064
  361MPD2    H1 5461   0.725   4.471  17.200 -0.3823 -1.2410  0.7733
  361MPD2    H2 5462   0.446   4.647  16.964  1.0236  1.0588  0.1459
  361MPD2    H3 5463   0.602   4.640  17.164 -0.5359 -0.1380  0.1798
  361MPD2     N 5464   0.753   4.232  17.075 -0.1161 -0.8901 -0.0232
  361MPD2    H5 5465   0.759   4.148  17.019  0.4632  0.4543 -2.0244
  361MPD2    N1 5466   0.409   4.431  16.794 -0.0555 -0.2013 -0.2077
  361MPD2    H7 5467   0.407   4.341  16.747  0.9138 -1.3838  2.0518
  362TMC3    C1 5468   0.232   4.475  16.649 -0.5868  0.0390 -0.1633
  362TMC3    C2 5469   0.144   4.395  16.718 -0.3897 -0.4761 -0.6173
  362TMC3    C3 5470   0.013   4.395  16.669 -0.1981  0.3995 -0.2569
  362TMC3    C4 5471   0.201   4.531  16.533  0.3289  0.2779 -0.1927
  362TMC3    C5 5472   0.077   4.519  16.488  0.9407 -0.5908  0.3640
  362TMC3    C6 5473   4.718   4.459  16.557 -0.3305 -0.4739 -0.4692
  362TMC3     C 5474   0.335   4.530  16.730 -0.3614  0.9962  0.6363
  362TMC3     O 5475   0.337   4.654  16.734 -0.1247  0.0671  0.5132
  362TMC3     H 5476   0.172   4.359  16.816  1.1647 -0.2740 -0.9809
  362TMC3    H1 5477   0.273   4.602  16.495  1.6275 -1.2230 -0.5397
  362TMC3    H2 5478   4.615   4.469  16.525 -0.3295  0.9648 -0.0279
  362TMC3    C7 5479   0.033   4.632  16.416  0.2728 -0.0618  0.4292
  362TMC3    C8 5480   4.635   4.383  16.758 -0.2798  0.0152  0.3478
  362TMC3    O1 5481   0.105   4.732  16.425  0.5284 -0.2893 -0.2553
  362TMC3    O2 5482   4.528   4.345  16.711 -0.3942 -0.1544 -0.8736
  363TMC3    C1 5483   3.487   1.902   9.512  0.5615 -0.4616 -0.1711
  363TMC3    C2 5484   3.456   1.798   9.592 -0.3652  0.2424 -0.1477
  363TMC3    C3 5485   3.329   1.783   9.634 -0.3970  0.0189  0.8877
  363TMC3    C4 5486   3.387   1.996   9.485 -0.0095  0.1110  0.4380
  363TMC3    C5 5487   3.258   1.980   9.538 -0.0550 -1.0098  0.0907
  363TMC3    C6 5488   3.232   1.878   9.627 -0.6348  0.6870  0.6143
  363TMC3     C 5489   3.620   1.917   9.448  0.9624 -0.1838  0.1233
  363TMC3     O 5490   3.641   2.029   9.407  0.2871 -0.2343  0.1843
  363TMC3     H 5491   3.536   1.728   9.617 -0.9851  0.1578  1.6334
  363TMC3    H1 5492   3.395   2.076   9.413  1.3366 -0.0559  0.4010
  363TMC3    H2 5493   3.133   1.865   9.671 -1.6166 -0.7588 -2.0876
  363TMC3    C7 5494   3.147   2.059   9.492 -0.1106 -0.2522 -0.1018
  363TMC3    C8 5495   3.303   1.686   9.738 -1.1838  0.6454 -0.6748
  363TMC3    O1 5496   3.183   2.162   9.430 -0.0484  0.4933 -0.2083
  363TMC3    O2 5497   3.213   1.716   9.814 -0.3455 -0.1497 -0.1572
  364MPD2     C 5498   2.366   0.804  10.133  0.1292 -0.0029 -0.3402
  364MPD2    C1 5499   2.465   0.883  10.184 -0.8668 -0.7275  0.0336
  364MPD2    C2 5500   2.533   0.845  10.300 -0.7765  0.3491 -0.3534
  364MPD2    C3 5501   2.492   0.730  10.369 -0.0143 -0.4170  0.3217
  364MPD2    C4 5502   2.383   0.660  10.315  0.4194 -0.2460 -0.1471
  364MPD2    C5 5503   2.317   0.694  10.204 -1.0474  0.0754  0.5029
  364MPD2     H 5504   2.631   0.889  10.316 -0.8977  0.4575  0.0703
  364MPD2    H1 5505   2.346   0.568  10.361  1.7056 -0.0072  1.3857
  364MPD2    H2 5506   2.312   0.841  10.047 -1.7091 -1.3912  0.2161
  364MPD2    H3 5507   2.235   0.637  10.162 -0.6578  1.5606 -2.2754
  364MPD2     N 5508   2.547   0.668  10.485 -0.6308  0.5280  0.0391
  364MPD2    H5 5509   2.504   0.583  10.521 -1.9079  1.3159  0.3385
  364MPD2    N1 5510   2.503   0.999  10.115  0.4342 -0.0986  0.3499
  364MPD2    H7 5511   2.470   1.003  10.019  0.9092  0.1623  0.2000
  365TMC3    C1 5512   2.599   1.207  10.048 -0.2523 -0.9306  0.4643
  365TMC3    C2 5513   2.658   1.153   9.930  0.1480 -0.6881  0.5581
  365TMC3    C3 5514   2.767   1.206   9.866 -0.1659 -0.1472  0.3322
  365TMC3    C4 5515   2.653   1.320  10.091 -0.5359 -0.6033  1.3153
  365TMC3    C5 5516   2.762   1.372  10.028  1.1130 -0.5802  0.9956
  365TMC3    C6 5517   2.825   1.322   9.916 -0.2130  0.3092  0.3701
  365TMC3     C 5518   2.574   1.109  10.155  0.2264 -0.0835 -0.3412
  365TMC3     O 5519   2.604   1.134  10.272  0.5167 -0.0574 -0.3189
  365TMC3     H 5520   2.616   1.057   9.902  0.9914 -0.3162 -1.9536
  365TMC3    H1 5521   2.608   1.371  10.176  1.3497  2.7020  0.3328
  365TMC3    H2 5522   2.913   1.367   9.872 -0.0336 -0.6075 -0.2335
  365TMC3    C7 5523   2.853   1.455  10.109  0.4782  0.3118  0.1916
  365TMC3    C8 5524   2.809   1.149   9.741  0.7550 -0.3009  0.3179
  365TMC3    O1 5525   2.926   1.537  10.052  0.7825 -0.1582  0.2744
  365TMC3    O2 5526   2.906   1.210   9.697  0.2814  0.3304 -0.1195
  366MPD2     C 5527   1.198   2.479  14.747  0.0728 -0.0916  0.8758
  366MPD2    C1 5528   1.217   2.450  14.885 -0.4144 -0.2187  0.1194
  366MPD2    C2 5529   1.341   2.466  14.933 -0.1363 -0.1143 -0.8643
  366MPD2    C3 5530   1.443   2.519  14.851  0.3197 -0.5638  0.0066
  366MPD2    C4 5531   1.429   2.534  14.717 -0.6411 -0.4260 -0.2862
  366MPD2    C5 5532   1.300   2.516  14.663 -0.0738 -0.7432 -0.3001
  366MPD2     H 5533   1.360   2.451  15.038  1.1827 -0.7709 -1.1962
  366MPD2    H1 5534   1.506   2.583  14.658  1.0477 -1.0304  1.4285
  366MPD2    H2 5535   1.099   2.498  14.708 -0.0498  0.0817  1.2722
  366MPD2    H3 5536   1.280   2.539  14.559  0.2499  1.4135  0.1264
  366MPD2     N 5537   1.545   2.569  14.925  0.1872 -0.0625 -0.1746
  366MPD2    H5 5538   1.533   2.549  15.023  0.6023  0.5536  0.0004
  366MPD2    N1 5539   1.111   2.425  14.979  0.0882  0.0407  0.0940
  366MPD2    H7 5540   1.142   2.398  15.072  2.3551  2.4165  0.0263
  367TMC3    C1 5541   0.901   2.463  15.084  0.3564 -0.1216 -0.8264
  367TMC3    C2 5542   0.970   2.496  15.195  0.2353 -0.2527 -0.2701
  367TMC3    C3 5543   0.934   2.609  15.261 -0.1657  0.4418 -0.0042
  367TMC3    C4 5544   0.781   2.518  15.061  0.0398 -0.2070  0.6542
  367TMC3    C5 5545   0.734   2.621  15.146 -0.1104 -1.0201  0.2771
  367TMC3    C6 5546   0.815   2.674  15.241  0.9521 -0.2488  0.0668
  367TMC3     C 5547   0.974   2.437  14.956  0.0317  0.6768 -0.8255
  367TMC3     O 5548   0.913   2.449  14.851 -0.1663  0.0461 -0.1596
  367TMC3     H 5549   1.069   2.454  15.210  0.3480 -0.1511 -0.7342
  367TMC3    H1 5550   0.724   2.494  14.972  2.3765 -0.4026 -0.8163
  367TMC3    H2 5551   0.780   2.751  15.308  3.6712  1.5470 -0.5481
  367TMC3    C7 5552   0.626   2.712  15.101  0.5910  0.3814 -0.6342
  367TMC3    C8 5553   1.041   2.681  15.327 -0.3998 -0.4748 -0.6131
  367TMC3    O1 5554   0.603   2.805  15.179 -0.2090 -0.0248  0.1902
  367TMC3    O2 5555   1.137   2.611  15.350 -0.2162 -0.3950 -0.3758
  368MPD2     C 5556   1.847   4.281  13.324  0.6539 -0.2939 -0.4818
  368MPD2    C1 5557   1.870   4.403  13.257  0.0081 -0.2062 -0.3728
  368MPD2    C2 5558   1.974   4.411  13.175  0.6034  0.6274 -0.3357
  368MPD2    C3 5559   2.061   4.304  13.161  1.0844  0.2770  0.2453
  368MPD2    C4 5560   2.044   4.186  13.225 -0.8685 -0.1163 -0.2637
  368MPD2    C5 5561   1.935   4.176  13.315 -0.4129  0.6953  0.5677
  368MPD2     H 5562   1.994   4.510  13.135 -0.5326  0.5352 -1.1285
  368MPD2    H1 5563   2.112   4.102  13.212 -2.2301 -1.1406 -0.7967
  368MPD2    H2 5564   1.767   4.270  13.397 -0.5276 -0.7093 -1.8495
  368MPD2    H3 5565   1.918   4.082  13.368  0.2498 -0.0876 -0.6010
  368MPD2     N 5566   2.180   4.319  13.075  0.1674 -0.2599 -0.3956
  368MPD2    H5 5567   2.257   4.252  13.076 -1.5348 -2.1931  1.6432
  368MPD2    N1 5568   1.774   4.506  13.274 -0.4599  0.6081 -0.0339
  368MPD2    H7 5569   1.697   4.486  13.337  0.0758 -0.5633  0.2664
  369TMC3    C1 5570   1.654   4.697  13.189  1.1066  0.3679  0.0056
  369TMC3    C2 5571   1.672   0.092  13.156  0.0799  0.0238 -0.1922
  369TMC3    C3 5572   1.582   0.157  13.065  0.3481 -0.5417  0.1522
  369TMC3    C4 5573   1.543   4.624  13.153  0.3446  0.2352  0.0847
  369TMC3    C5 5574   1.458   4.702  13.068  1.0910  0.2046 -0.2053
  369TMC3    C6 5575   1.474   0.094  13.019  0.7726 -0.0946 -0.4968
  369TMC3     C 5576   1.779   4.627  13.211  0.1562 -0.0871 -0.1717
  369TMC3     O 5577   1.873   4.696  13.177  0.0421  0.0933  0.3995
  369TMC3     H 5578   1.771   0.133  13.175  0.9803 -2.3126  0.1584
  369TMC3    H1 5579   1.534   4.517  13.164 -2.5462  0.3807 -0.9186
  369TMC3    H2 5580   1.404   0.146  12.955  0.9554  2.4596  1.3975
  369TMC3    C7 5581   1.320   4.654  13.073 -0.4350 -0.0582  0.1288
  369TMC3    C8 5582   1.633   0.269  12.976 -0.0136 -0.2162 -0.8645
  369TMC3    O1 5583   1.323   4.540  13.111 -0.3991  0.3831  0.0700
  369TMC3    O2 5584   1.583   0.283  12.866  0.0464  0.4458  0.1875
  370TMC3    C1 5585   1.791   4.549  16.643 -0.1206  0.5246  0.3065
  370TMC3    C2 5586   1.736   4.487  16.753 -0.0854  0.1619  0.0409
  370TMC3    C3 5587   1.644   4.391  16.722 -0.1437  0.1969  0.5782
  370TMC3    C4 5588   1.775   4.506  16.514  0.1418 -0.0402 -0.6088
  370TMC3    C5 5589   1.700   4.394  16.493 -0.9908 -0.3029 -0.6169
  370TMC3    C6 5590   1.636   4.335  16.596 -0.6697  0.3006  0.1395
  370TMC3     C 5591   1.854   4.676  16.655  0.3908  0.1717  0.3872
  370TMC3     O 5592   1.904   4.701  16.766 -0.4483  0.4081  0.1371
  370TMC3     H 5593   1.749   4.547  16.843 -2.2193 -0.5565  0.8233
  370TMC3    H1 5594   1.828   4.542  16.427  0.6746  0.0080 -0.2704
  370TMC3    H2 5595   1.578   4.246  16.576 -0.6262  0.3250 -0.0955
  370TMC3    C7 5596   1.701   4.335  16.360  0.6471  1.3172 -0.5809
  370TMC3    C8 5597   1.588   4.307  16.825  0.2249  1.1194  0.6841
  370TMC3    O1 5598   1.695   4.403  16.257  0.7482 -0.2731  0.6032
  370TMC3    O2 5599   1.549   4.199  16.783  0.5619 -0.0174  0.1347
  371TMC3    C1 5600   2.980   2.976  15.534  0.1273  0.1605  0.6864
  371TMC3    C2 5601   2.908   2.972  15.645  0.1475  0.8964  0.0420
  371TMC3    C3 5602   2.844   3.091  15.681  0.0033  0.7567  0.1140
  371TMC3    C4 5603   3.005   3.086  15.457  0.0739  0.1469  0.2701
  371TMC3    C5 5604   2.938   3.194  15.495  0.1151  0.1673 -0.8411
  371TMC3    C6 5605   2.854   3.197  15.599 -0.0510 -1.0588 -0.4857
  371TMC3     C 5606   3.064   2.868  15.492  0.3264  0.9009  0.0859
  371TMC3     O 5607   3.167   2.897  15.440  0.3387 -0.6272 -0.8814
  371TMC3     H 5608   2.932   2.892  15.714 -0.1364  1.3360  0.6532
  371TMC3    H1 5609   3.067   3.085  15.369 -1.6022  0.4276 -0.9095
  371TMC3    H2 5610   2.815   3.290  15.638 -0.3467 -1.2223 -0.3934
  371TMC3    C7 5611   2.971   3.317  15.423  0.2600  0.2882 -0.0985
  371TMC3    C8 5612   2.841   3.107  15.827  0.6968  0.3298 -0.1712
  371TMC3    O1 5613   2.870   3.385  15.410  0.0802  0.1421  0.0626
  371TMC3    O2 5614   2.926   3.042  15.886  0.0007 -0.0272  0.1237
  372MPD2     C 5615   2.467   0.056  13.064  0.4139 -0.5519  0.7761
  372MPD2    C1 5616   2.538   4.731  13.166 -0.1033 -0.1047  0.1074
  372MPD2    C2 5617   2.471   4.664  13.265 -0.3705 -0.3916 -0.0819
  372MPD2    C3 5618   2.332   4.665  13.269 -0.9552 -0.6258  0.4930
  372MPD2    C4 5619   2.260   4.725  13.165  0.1046 -0.6227 -0.2476
  372MPD2    C5 5620   2.327   0.044  13.057  0.5080 -0.1298 -0.8087
  372MPD2     H 5621   2.532   4.612  13.338 -2.1751 -0.2179  1.5511
  372MPD2    H1 5622   2.152   4.716  13.163 -0.0787  1.5364  0.6683
  372MPD2    H2 5623   2.517   0.110  12.984 -1.1970 -3.1115 -1.9573
  372MPD2    H3 5624   2.270   0.096  12.981 -0.3490 -2.3770 -1.7027
  372MPD2     N 5625   2.276   4.580  13.371 -0.2429  0.2625 -0.2424
  372MPD2    H5 5626   2.339   4.515  13.417 -2.1500 -0.1574  1.7627
  372MPD2    N1 5627   2.680   4.731  13.165  0.7160  0.6358 -0.6475
  372MPD2    H7 5628   2.724   4.685  13.244 -1.1798  0.6102  0.3718
  373TMC3    C1 5629   2.133   4.495  13.529  0.6150 -0.2653  0.2510
  373TMC3    C2 5630   2.038   4.523  13.621  0.8140  0.4923  0.4317
  373TMC3    C3 5631   1.983   4.427  13.704  0.1540  0.6876 -0.0101
  373TMC3    C4 5632   2.170   4.365  13.506 -0.0492  0.4491 -0.1296
  373TMC3    C5 5633   2.122   4.273  13.589 -0.3816 -0.0138 -0.1667
  373TMC3    C6 5634   2.021   4.298  13.681  0.3640 -0.5596  0.5482
  373TMC3     C 5635   2.153   4.593  13.422  0.5869 -0.3384  0.7520
  373TMC3     O 5636   2.085   4.693  13.411  0.1633  0.3465  0.5711
  373TMC3     H 5637   1.996   4.623  13.625 -1.2539 -0.3105 -1.3429
  373TMC3    H1 5638   2.229   4.341  13.418  0.1017 -0.2031  0.1564
  373TMC3    H2 5639   2.005   4.222  13.757  0.8621 -0.1750  1.0385
  373TMC3    C7 5640   2.185   4.144  13.605 -0.3665  0.3877  0.1749
  373TMC3    C8 5641   1.966   4.466  13.845 -0.5809  0.1096 -0.3828
  373TMC3    O1 5642   2.287   4.137  13.535 -0.1250 -0.0357 -0.0631
  373TMC3    O2 5643   2.021   4.572  13.868  0.5712  0.6671  0.2635
  374TMC3    C1 5644   2.588   4.558   9.633 -0.0049  0.8619  0.2307
  374TMC3    C2 5645   2.675   4.656   9.643 -0.1141 -0.8519  0.4771
  374TMC3    C3 5646   2.775   4.672   9.553 -0.2248 -0.5865  0.9642
  374TMC3    C4 5647   2.579   4.484   9.520  0.0020  0.6898  0.4561
  374TMC3    C5 5648   2.675   4.504   9.421 -0.2397 -1.0013  0.0621
  374TMC3    C6 5649   2.775   4.596   9.437 -0.0650 -0.4644  0.1238
  374TMC3     C 5650   2.497   4.541   9.734 -0.4156  0.6273  0.0517
  374TMC3     O 5651   2.501   4.617   9.829  0.2958 -0.4089  0.4360
  374TMC3     H 5652   2.664   4.728   9.724 -2.6278 -0.5020 -0.1883
  374TMC3    H1 5653   2.508   4.406   9.495 -0.5179  0.6449  2.0788
  374TMC3    H2 5654   2.844   4.615   9.356 -1.1892 -0.9856 -0.9687
  374TMC3    C7 5655   2.652   4.442   9.293 -0.4812 -0.1568  0.1098
  374TMC3    C8 5656   2.903   4.736   9.578  0.2048  0.0171  0.8173
  374TMC3    O1 5657   2.540   4.397   9.276  0.1578  0.0588  0.0797
  374TMC3    O2 5658   2.984   0.000   9.485  0.4438  0.0399  0.4102
  375MPD2     C 5659   3.296   1.455  16.852 -0.1509  0.3269  0.2636
  375MPD2    C1 5660   3.211   1.368  16.788  0.6187 -0.3001 -0.0732
  375MPD2    C2 5661   3.266   1.263  16.725  0.3613 -0.1790  0.2203
  375MPD2    C3 5662   3.403   1.237  16.705 -0.8076 -0.6000  0.5108
  375MPD2    C4 5663   3.483   1.333  16.754 -0.0900  0.1717  0.1819
  375MPD2    C5 5664   3.428   1.433  16.830  0.3699  0.7227  0.5218
  375MPD2     H 5665   3.192   1.200  16.678 -0.8361  1.9673 -0.7233
  375MPD2    H1 5666   3.591   1.329  16.745 -0.0759  1.5342 -0.3177
  375MPD2    H2 5667   3.257   1.534  16.916 -0.8906 -0.0618  0.2944
  375MPD2    H3 5668   3.501   1.496  16.880  1.3032 -0.3315  0.4914
  375MPD2     N 5669   3.466   1.120  16.645 -0.3016  0.2753  0.2747
  375MPD2    H5 5670   3.567   1.118  16.641 -0.3549 -0.5396 -0.5703
  375MPD2    N1 5671   3.076   1.400  16.765 -0.1579  0.0956  0.5102
  375MPD2    H7 5672   3.025   1.334  16.707  2.6391 -0.4946 -1.2697
  376TMC3    C1 5673   3.454   0.903  16.530  0.8779  0.3486  0.0213
  376TMC3    C2 5674   3.593   0.893  16.543  0.0723 -1.1588 -0.1490
  376TMC3    C3 5675   3.660   0.823  16.445 -0.2831  0.7154 -0.1380
  376TMC3    C4 5676   3.386   0.849  16.424 -0.3764 -0.7031 -0.5144
  376TMC3    C5 5677   3.458   0.775  16.329  0.1086  0.5367 -0.0103
  376TMC3    C6 5678   3.595   0.764  16.337 -0.0745 -1.1005  0.1968
  376TMC3     C 5679   3.393   1.011  16.607 -0.3682  0.7391 -0.1544
  376TMC3     O 5680   3.274   0.986  16.632 -0.1334  0.2077 -0.0601
  376TMC3     H 5681   3.652   0.922  16.630 -1.1477 -0.8318  0.5733
  376TMC3    H1 5682   3.279   0.863  16.416 -0.4329 -1.4518 -1.0116
  376TMC3    H2 5683   3.652   0.721  16.256 -1.9159 -2.3179 -0.4372
  376TMC3    C7 5684   3.402   0.755  16.198  0.3059 -0.2970  0.9731
  376TMC3    C8 5685   3.802   0.860  16.417 -0.0769  0.0111 -0.3809
  376TMC3    O1 5686   3.427   0.661  16.130  0.6971 -0.6120  0.3382
  376TMC3    O2 5687   3.848   0.970  16.461 -0.1461  0.7812 -0.1224
  377MPD2     C 5688   1.413   4.624  12.685 -0.0906  0.6883 -0.7125
  377MPD2    C1 5689   1.336   4.736  12.683 -0.0664 -0.0213  0.0698
  377MPD2    C2 5690   1.197   4.715  12.701  0.1564  0.3025  0.2103
  377MPD2    C3 5691   1.144   4.588  12.723 -0.6017  0.5021  0.3620
  377MPD2    C4 5692   1.238   4.477  12.719 -0.5388  0.8277 -0.9942
  377MPD2    C5 5693   1.368   4.497  12.701 -0.3205 -0.2304 -0.6692
  377MPD2     H 5694   1.134   0.067  12.708  0.3666  0.4995 -0.4254
  377MPD2    H1 5695   1.197   4.381  12.747 -0.2677  0.8594 -0.4759
  377MPD2    H2 5696   1.519   4.621  12.662 -0.5598 -0.7096 -2.7018
  377MPD2    H3 5697   1.441   4.417  12.696 -0.9750 -0.7464 -1.9532
  377MPD2     N 5698   1.007   4.558  12.746  0.1758 -0.7878 -0.1546
  377MPD2    H5 5699   0.977   4.461  12.755  0.6576 -0.7859  1.4589
  377MPD2    N1 5700   1.388   0.126  12.659 -0.4917 -0.1635  0.9923
  377MPD2    H7 5701   1.475   0.115  12.608 -2.6423  1.1206 -2.9728
  378TMC3    C1 5702   1.350   0.417  12.362  0.6565 -0.4697  0.1988
  378TMC3    C2 5703   1.310   0.399  12.494  0.2267 -0.7716 -0.1705
  378TMC3    C3 5704   1.390   0.346  12.590 -0.9567  0.1995 -0.1505
  378TMC3    C4 5705   1.480   0.408  12.321 -0.0037  0.5066 -0.5474
  378TMC3    C5 5706   1.564   0.367  12.426  0.1327 -0.6816  0.1005
  378TMC3    C6 5707   1.517   0.322  12.550  0.1348  0.0638  0.7525
  378TMC3     C 5708   1.246   0.365  12.268 -0.9313 -0.2685  0.2805
  378TMC3     O 5709   1.151   0.300  12.313 -0.1106 -0.4233  0.8784
  378TMC3     H 5710   1.212   0.437  12.520 -0.6640 -3.0102 -0.3529
  378TMC3    H1 5711   1.519   0.439  12.225 -1.5720  1.6189 -0.8228
  378TMC3    H2 5712   1.585   0.298  12.631 -0.4748  1.2856  1.6138
  378TMC3    C7 5713   1.703   0.343  12.408 -0.2062  0.5717 -0.1205
  378TMC3    C8 5714   1.324   0.243  12.660  0.0236 -0.5669  1.0476
  378TMC3    O1 5715   1.777   0.346  12.508  0.1045  0.3296  0.0385
  378TMC3    O2 5716   1.217   0.267  12.708  0.2922  0.2726 -0.3066
  379MPD2     C 5717   1.694   2.939  16.378  0.4988 -0.0727  0.4089
  379MPD2    C1 5718   1.782   2.872  16.296  0.8979  0.0179 -0.2109
  379MPD2    C2 5719   1.879   2.789  16.360 -0.0077  0.2210 -0.3020
  379MPD2    C3 5720   1.890   2.791  16.497  0.0165 -0.6365 -0.3881
  379MPD2    C4 5721   1.807   2.869  16.574 -1.2118  0.6020  0.8291
  379MPD2    C5 5722   1.710   2.940  16.511  0.3051 -0.6729 -0.0951
  379MPD2     H 5723   1.945   2.731  16.296 -1.5343  0.8791 -2.4925
  379MPD2    H1 5724   1.824   2.880  16.680  0.2273 -1.2551  0.7909
  379MPD2    H2 5725   1.618   3.002  16.334  0.1238  0.8007  2.2903
  379MPD2    H3 5726   1.637   3.000  16.565 -0.5089 -1.9125  0.1771
  379MPD2     N 5727   1.980   2.709  16.572  0.1632 -0.6326  0.1095
  379MPD2    H5 5728   1.984   2.733  16.671 -0.4560 -0.8608  0.1932
  379MPD2    N1 5729   1.754   2.875  16.160 -0.3194  0.0105 -0.3118
  379MPD2    H7 5730   1.696   2.953  16.130  1.0781  1.5324  0.9114
  380TMC3    C1 5731   1.774   2.810  15.931  0.1468 -0.0711  0.9187
  380TMC3    C2 5732   1.861   2.756  15.838  0.4353  0.2982  0.0830
  380TMC3    C3 5733   1.817   2.760  15.709  0.9846  0.3657  0.3765
  380TMC3    C4 5734   1.645   2.856  15.899  0.2361 -0.4635 -0.1522
  380TMC3    C5 5735   1.607   2.848  15.765  0.3138 -0.1687 -0.2688
  380TMC3    C6 5736   1.697   2.808  15.665 -0.5793  0.0262  0.4261
  380TMC3     C 5737   1.808   2.787  16.067 -0.7767 -0.1001 -0.5304
  380TMC3     O 5738   1.869   2.685  16.090 -0.3576  0.2361  0.1429
  380TMC3     H 5739   1.949   2.697  15.861  0.0849 -1.1385 -2.2286
  380TMC3    H1 5740   1.566   2.892  15.964 -0.1771  1.1105 -1.5278
  380TMC3    H2 5741   1.671   2.804  15.560 -2.9479 -2.4135  1.1366
  380TMC3    C7 5742   1.493   2.930  15.730 -0.7230 -0.3227 -0.8964
  380TMC3    C8 5743   1.914   2.758  15.602 -0.2792 -0.3787  0.6979
  380TMC3    O1 5744   1.450   3.008  15.812 -0.1546  0.4583 -0.1646
  380TMC3    O2 5745   1.888   2.819  15.503 -0.1772  0.2977 -0.0875
  381TMC3    C1 5746   1.536   3.774  16.462 -0.2114 -0.8079 -0.1028
  381TMC3    C2 5747   1.642   3.776  16.559  0.2856 -0.2696 -1.0602
  381TMC3    C3 5748   1.620   3.842  16.674  0.3601  0.1571  0.0128
  381TMC3    C4 5749   1.412   3.820  16.493 -0.2659 -0.3231 -0.9634
  381TMC3    C5 5750   1.396   3.872  16.617 -0.1442  0.0422  0.1066
  381TMC3    C6 5751   1.504   3.900  16.703  0.4122  0.1899  0.4674
  381TMC3     C 5752   1.566   3.735  16.322 -0.7612  0.6525 -0.3887
  381TMC3     O 5753   1.661   3.662  16.309 -0.2056  0.0784 -0.3605
  381TMC3     H 5754   1.741   3.737  16.536  0.7875 -0.0573  0.7210
  381TMC3    H1 5755   1.327   3.805  16.427 -1.6574 -0.3455  0.8440
  381TMC3    H2 5756   1.479   3.923  16.806  1.4241  1.7498  0.3698
  381TMC3    C7 5757   1.267   3.936  16.656 -0.9117  1.5630 -0.2099
  381TMC3    C8 5758   1.728   3.918  16.729  0.2776  0.0318 -0.4124
  381TMC3    O1 5759   1.166   3.898  16.596 -0.5059 -0.2695  0.0003
  381TMC3    O2 5760   1.706   3.980  16.834  0.4729  0.4182 -0.3538
  382MPD2     C 5761   0.950   2.033  16.929  0.0887  0.6959  0.5814
  382MPD2    C1 5762   0.909   2.034  17.059 -0.2792 -0.0172  0.3473
  382MPD2    C2 5763   0.911   1.920  17.132  0.2070  0.8164 -0.8563
  382MPD2    C3 5764   0.951   1.798  17.075  0.3975  0.0407 -0.1453
  382MPD2    C4 5765   0.980   1.789  16.941  0.2093 -0.7498  0.0961
  382MPD2    C5 5766   0.987   1.910  16.878 -0.6689  0.7470  0.1384
  382MPD2     H 5767   0.879   1.928  17.236 -0.1362  3.0793 -1.1270
  382MPD2    H1 5768   1.008   1.701  16.884  0.5534 -0.2798 -0.4755
  382MPD2    H2 5769   0.949   2.117  16.860  0.3430 -0.4382 -0.8159
  382MPD2    H3 5770   1.017   1.909  16.774  1.3517 -1.1909  0.7466
  382MPD2     N 5771   0.953   1.676  17.154  0.0001 -0.0742  0.6704
  382MPD2    H5 5772   0.937   1.685  17.254  0.1934  1.9190  0.5213
  382MPD2    N1 5773   0.838   2.141  17.109 -0.3673  0.1869  0.1190
  382MPD2    H7 5774   0.793   2.117  17.196 -1.8072  1.5572 -0.2606
  383TMC3    C1 5775   0.911   1.470  17.219 -0.3465 -0.1791 -0.6142
  383TMC3    C2 5776   0.819   1.375  17.200  0.5526 -0.1676  0.5015
  383TMC3    C3 5777   0.771   1.309  17.309  0.2903  0.1198 -0.3918
  383TMC3    C4 5778   0.973   1.493  17.340  0.2013 -0.4633  0.5890
  383TMC3    C5 5779   0.925   1.419  17.450  0.0245  0.5927  0.1858
  383TMC3    C6 5780   0.818   1.333  17.438 -0.5075 -0.5132 -0.4739
  383TMC3     C 5781   0.940   1.551  17.107  0.0298 -0.4828  0.2346
  383TMC3     O 5782   0.915   1.509  16.993  0.0365 -0.4119  0.3221
  383TMC3     H 5783   0.758   1.376  17.110  0.0885  2.5908  0.8585
  383TMC3    H1 5784   1.055   1.563  17.354  0.9082 -1.2110  0.1769
  383TMC3    H2 5785   0.775   1.287  17.527  0.9704 -0.7936  0.0939
  383TMC3    C7 5786   0.969   1.444  17.588  0.6301 -0.1086  0.0824
  383TMC3    C8 5787   0.651   1.236  17.284  0.4700 -0.0059  0.5924
  383TMC3    O1 5788   0.942   1.360  17.671 -0.1287 -0.1189 -0.2489
  383TMC3    O2 5789   0.582   1.257  17.185 -0.0933 -0.1220  0.2108
  384MPD2     C 5790   2.526   2.893  11.473  0.0695  0.3611 -0.7861
  384MPD2    C1 5791   2.631   2.856  11.551  0.1911 -0.7482  0.3899
  384MPD2    C2 5792   2.712   2.757  11.514 -0.7046 -0.3584  0.3375
  384MPD2    C3 5793   2.694   2.686  11.404  0.4379 -0.1929 -0.6291
  384MPD2    C4 5794   2.589   2.727  11.317 -0.5340 -0.2825  0.0374
  384MPD2    C5 5795   2.507   2.833  11.349 -0.7072  0.0584 -0.1425
  384MPD2     H 5796   2.788   2.728  11.586  2.1463 -0.3069 -2.6623
  384MPD2    H1 5797   2.576   2.684  11.218  1.8019 -0.4610 -0.1718
  384MPD2    H2 5798   2.450   2.968  11.491  0.4824  0.9562 -1.5034
  384MPD2    H3 5799   2.425   2.866  11.287 -1.3010  1.1467  1.2247
  384MPD2     N 5800   2.782   2.581  11.386 -0.0308  0.3361  0.0761
  384MPD2    H5 5801   2.851   2.574  11.460 -0.4860  0.3759  0.4973
  384MPD2    N1 5802   2.671   2.920  11.670 -0.0987  0.3653  0.1293
  384MPD2    H7 5803   2.746   2.871  11.719  0.2710 -0.9763 -1.7650
  385TMC3    C1 5804   2.875   2.383  11.319 -0.1750  0.6527 -0.2271
  385TMC3    C2 5805   2.836   2.254  11.339  0.1709  0.0702 -0.0352
  385TMC3    C3 5806   2.912   2.178  11.423 -0.2429 -0.8672  0.1459
  385TMC3    C4 5807   2.983   2.437  11.378 -0.2812 -0.6048  0.3700
  385TMC3    C5 5808   3.053   2.361  11.467  0.3409 -0.4324 -0.0110
  385TMC3    C6 5809   3.015   2.232  11.491 -0.4583  0.1944  0.0913
  385TMC3     C 5810   2.778   2.485  11.288 -0.7322 -0.1286 -0.8734
  385TMC3     O 5811   2.684   2.457  11.217  0.2596  0.2376 -0.6709
  385TMC3     H 5812   2.747   2.220  11.287 -0.8680  1.5894  0.7507
  385TMC3    H1 5813   3.024   2.535  11.356  0.2361 -0.7925  0.4843
  385TMC3    H2 5814   3.076   2.164  11.549  0.4447  0.0769 -0.9991
  385TMC3    C7 5815   3.065   2.444  11.589 -0.3419  1.0002  0.3335
  385TMC3    C8 5816   2.908   2.034  11.395 -0.0628  0.1159 -0.5005
  385TMC3    O1 5817   3.030   2.560  11.572  0.5288  0.7058 -0.0654
  385TMC3    O2 5818   2.880   2.002  11.283 -0.3690 -0.6540 -0.5085
  386TMC3    C1 5819   2.773   0.382  11.962 -0.5035 -0.1494  0.2806
  386TMC3    C2 5820   2.829   0.431  11.851 -0.1738 -0.2586 -0.7004
  386TMC3    C3 5821   2.743   0.487  11.756 -0.4117 -0.6741 -0.3929
  386TMC3    C4 5822   2.648   0.411  12.001 -0.1534  0.1416 -0.6545
  386TMC3    C5 5823   2.573   0.482  11.904  0.3441  0.1362  0.1531
  386TMC3    C6 5824   2.610   0.516  11.775  0.4334 -0.0831  0.0560
  386TMC3     C 5825   2.840   0.268  12.011 -0.3333 -0.5792 -0.4420
  386TMC3     O 5826   2.961   0.265  11.999 -0.2328  0.0828  0.4717
  386TMC3     H 5827   2.935   0.418  11.835  0.1158  1.5765 -0.2928
  386TMC3    H1 5828   2.614   0.381  12.099  2.1182  0.0399  0.1067
  386TMC3    H2 5829   2.540   0.561  11.706  0.7668  0.0737 -0.1799
  386TMC3    C7 5830   2.438   0.503  11.947  0.0169  0.5780 -0.4379
  386TMC3    C8 5831   2.794   0.450  11.625 -0.3086  0.1634  1.0568
  386TMC3    O1 5832   2.420   0.539  12.061 -0.1981 -0.0061  0.5695
  386TMC3    O2 5833   2.910   0.406  11.617 -0.1167  0.2153  0.4911
  387MPD2     C 5834   4.412   0.220   9.782 -0.5510  0.1754  0.4067
  387MPD2    C1 5835   4.549   0.229   9.783 -0.1134 -0.1784 -0.2128
  387MPD2    C2 5836   4.616   0.119   9.735  0.1316  0.4968 -0.0944
  387MPD2    C3 5837   4.549   4.736   9.706  0.0424 -0.0346  0.1122
  387MPD2    C4 5838   4.410   4.729   9.719  1.0058 -0.2373  0.6122
  387MPD2    C5 5839   4.349   0.107   9.741  0.3175 -0.4029  0.7461
  387MPD2     H 5840   4.724   0.122   9.729  0.2248  3.0034  2.5017
  387MPD2    H1 5841   4.362   4.634   9.696  0.9401 -0.2353  0.7447
  387MPD2    H2 5842   4.342   0.295   9.816 -0.1774  0.1247  1.2942
  387MPD2    H3 5843   4.240   0.112   9.739  0.2321 -2.4693  0.9098
  387MPD2     N 5844   4.641   4.624   9.688  0.2061 -0.7291 -0.2095
  387MPD2    H5 5845   0.003   4.648   9.701  0.6210 -1.4378 -2.1088
  387MPD2    N1 5846   4.625   0.335   9.833  0.0704 -1.0154 -0.3281
  387MPD2    H7 5847   4.722   0.307   9.826  0.9980  2.3750 -1.0709
  388TMC3    C1 5848   4.689   0.517   9.962  0.3255  0.2421 -0.4321
  388TMC3    C2 5849   4.652   0.601  10.062  0.3681  0.1813 -0.0284
  388TMC3    C3 5850   0.007   0.629  10.155  0.1792  0.2292  0.5631
  388TMC3    C4 5851   0.084   0.479   9.945 -0.0297  0.6294  0.3310
  388TMC3    C5 5852   0.166   0.511  10.044  0.3338 -0.6924  0.5265
  388TMC3    C6 5853   0.133   0.579  10.155  0.0880  0.4603  0.7304
  388TMC3     C 5854   4.582   0.439   9.902 -0.6721 -0.1241  0.3863
  388TMC3     O 5855   4.464   0.469   9.915 -0.1641  0.0548  0.0988
  388TMC3     H 5856   4.546   0.622  10.076  0.3405  0.8224 -1.1872
  388TMC3    H1 5857   0.115   0.426   9.856  2.2819  1.6062  0.5599
  388TMC3    H2 5858   0.210   0.600  10.229  1.2590 -1.9676  0.2024
  388TMC3    C7 5859   0.277   0.424  10.062  0.6457  0.0203 -0.6174
  388TMC3    C8 5860   4.700   0.722  10.257  0.2718  0.1800  0.4417
  388TMC3    O1 5861   0.385   0.482  10.083 -0.0023  0.1419 -0.0878
  388TMC3    O2 5862   0.018   0.714  10.367 -0.0898  0.1124 -0.5081
  389MPD2     C 5863   4.579   3.106  10.970  0.1483 -0.1158 -0.2132
  389MPD2    C1 5864   4.479   3.026  10.914  0.2082 -0.1966  0.3090
  389MPD2    C2 5865   4.397   2.963  11.001  0.5118  0.7865  0.5432
  389MPD2    C3 5866   4.410   2.968  11.136  0.1085  0.7484 -0.0255
  389MPD2    C4 5867   4.515   3.040  11.190  0.3360  0.3991 -0.0149
  389MPD2    C5 5868   4.600   3.104  11.106 -0.7665  0.1882 -0.0822
  389MPD2     H 5869   4.317   2.897  10.967 -0.1945  0.7534  2.2799
  389MPD2    H1 5870   4.521   3.049  11.297 -2.2452  1.7390  0.0355
  389MPD2    H2 5871   4.645   3.161  10.904 -0.2904  0.7628  0.0789
  389MPD2    H3 5872   4.674   3.171  11.148 -0.6061 -0.3239  0.4558
  389MPD2     N 5873   4.317   2.911  11.227 -0.2403 -0.1612  0.0949
  389MPD2    H5 5874   4.335   2.933  11.325  1.1009 -1.3742  0.1116
  389MPD2    N1 5875   4.463   3.022  10.772 -0.5680 -0.1519 -0.3644
  389MPD2    H7 5876   4.533   3.062  10.710 -1.4899 -2.6369 -3.0235
  390TMC3    C1 5877   4.176   2.758  11.331  0.2477  0.0130 -0.3651
  390TMC3    C2 5878   4.162   2.617  11.342  1.1407 -0.7478 -0.3065
  390TMC3    C3 5879   4.128   2.562  11.464  0.1740  0.1453 -0.5034
  390TMC3    C4 5880   4.154   2.841  11.437 -0.5021 -0.1070  0.2644
  390TMC3    C5 5881   4.126   2.786  11.558 -0.1622 -0.6466  0.4928
  390TMC3    C6 5882   4.122   2.650  11.577 -0.2144 -0.1703 -0.2332
  390TMC3     C 5883   4.234   2.806  11.197 -0.4972  0.1689  0.9340
  390TMC3     O 5884   4.214   2.741  11.096  0.0729 -0.1171 -0.0428
  390TMC3     H 5885   4.156   2.558  11.251  1.1412 -0.4051 -0.5256
  390TMC3    H1 5886   4.157   2.949  11.431  0.4837 -0.2025 -1.0231
  390TMC3    H2 5887   4.127   2.609  11.677  1.3046  0.3175 -0.1114
  390TMC3    C7 5888   3.995   2.826  11.605  0.0285 -0.5402  0.1799
  390TMC3    C8 5889   4.025   2.465  11.451  0.7392 -0.4792 -0.7984
  390TMC3    O1 5890   3.957   2.776  11.706 -0.0346  0.1512 -0.7133
  390TMC3    O2 5891   4.039   2.364  11.383  0.2237  0.1533 -0.3759
  391MPD2     C 5892   3.152   4.321  10.961 -0.3900 -0.4101  0.1415
  391MPD2    C1 5893   3.241   4.415  10.995 -0.5580 -0.3084  0.8026
  391MPD2    C2 5894   3.233   4.537  10.919 -0.4257 -0.1630  0.1428
  391MPD2    C3 5895   3.149   4.552  10.811 -0.1425  0.1107 -0.0606
  391MPD2    C4 5896   3.068   4.455  10.779  0.0622  0.0440 -0.0423
  391MPD2    C5 5897   3.065   4.341  10.856 -0.0588  0.1873 -0.7604
  391MPD2     H 5898   3.284   4.629  10.947  0.5164  0.0300 -2.2323
  391MPD2    H1 5899   3.009   4.456  10.689 -0.5049  0.5325  0.3398
  391MPD2    H2 5900   3.149   4.224  11.009  1.4377 -0.0359  0.9853
  391MPD2    H3 5901   2.994   4.266  10.824  0.2910 -0.7891  0.7531
  391MPD2     N 5902   3.167   4.664  10.726 -0.0667  0.4641 -0.0960
  391MPD2    H5 5903   3.225   0.008  10.749 -0.8616  0.3461  2.2621
  391MPD2    N1 5904   3.345   4.386  11.086  0.3020  0.6689  0.4586
  391MPD2    H7 5905   3.340   4.304  11.145 -0.6130  0.6076  0.3004
  392TMC3    C1 5906   3.182   0.053  10.520 -0.4877 -1.0429  0.0339
  392TMC3    C2 5907   3.104   0.094  10.413 -1.1392  0.1051  0.0219
  392TMC3    C3 5908   3.164   0.171  10.319 -0.0263  0.5191  0.1587
  392TMC3    C4 5909   3.311   0.097  10.538  0.1605  0.7264 -0.5083
  392TMC3    C5 5910   3.367   0.172  10.445 -0.0393 -0.3008  0.0798
  392TMC3    C6 5911   3.301   0.201  10.325  0.1831 -0.1111 -0.3188
  392TMC3     C 5912   3.124   4.674  10.592  0.0859 -0.5332  0.6725
  392TMC3     O 5913   3.068   4.591  10.521 -0.8541  0.2834 -0.6384
  392TMC3     H 5914   2.997   0.075  10.407 -0.8761 -1.6872  0.9849
  392TMC3    H1 5915   3.368   0.054  10.620 -0.5685 -0.2578 -0.5076
  392TMC3    H2 5916   3.350   0.250  10.242  0.5135 -2.6307 -1.6145
  392TMC3    C7 5917   3.489   0.243  10.481 -0.3456  0.3502 -0.5941
  392TMC3    C8 5918   3.097   0.162  10.188 -0.4365  0.4061 -0.2824
  392TMC3    O1 5919   3.557   0.205  10.575  0.3511  0.0643 -0.3076
  392TMC3    O2 5920   2.995   0.101  10.180  0.0367  0.2318 -0.2628
  393TMC3    C1 5921   2.408   2.219  10.826  0.0823  0.4496 -0.0140
  393TMC3    C2 5922   2.279   2.189  10.811  0.5003  0.0117  0.4484
  393TMC3    C3 5923   2.234   2.132  10.695  0.5416 -0.8443  0.6415
  393TMC3    C4 5924   2.495   2.192  10.735 -0.0580 -0.2919 -0.3780
  393TMC3    C5 5925   2.449   2.134  10.616  0.5374 -0.4491 -0.1517
  393TMC3    C6 5926   2.319   2.100  10.596  0.0614  0.2375  1.0079
  393TMC3     C 5927   2.458   2.259  10.955 -0.8041  0.3140  0.0906
  393TMC3     O 5928   2.440   2.175  11.040  0.5569 -0.7234 -0.2646
  393TMC3     H 5929   2.204   2.200  10.888  0.3288 -0.0555  0.2901
  393TMC3    H1 5930   2.599   2.208  10.760 -0.6481 -0.3885  2.0850
  393TMC3    H2 5931   2.280   2.043  10.513  0.8312  1.2020 -0.0205
  393TMC3    C7 5932   2.539   2.075  10.509 -0.4360  0.0496  0.0426
  393TMC3    C8 5933   2.089   2.099  10.684 -0.7275  0.3574  0.2408
  393TMC3    O1 5934   2.488   1.995  10.429  0.0685  0.0168  0.0034
  393TMC3    O2 5935   2.028   2.052  10.781  0.2254 -0.4971  0.2722
  394TMC3    C1 5936   4.353   3.019  10.565 -0.3228 -0.2578  0.1606
  394TMC3    C2 5937   4.266   2.946  10.478  0.3952  0.8524  0.4789
  394TMC3    C3 5938   4.263   2.996  10.350 -0.1161  0.2530 -0.1203
  394TMC3    C4 5939   4.442   3.122  10.533 -0.3887 -0.7388  0.1752
  394TMC3    C5 5940   4.439   3.159  10.398 -0.5138 -0.4711 -0.6904
  394TMC3    C6 5941   4.357   3.084  10.308  0.3894  0.1818 -0.7430
  394TMC3     C 5942   4.351   2.973  10.707 -0.2461 -0.2065  0.1923
  394TMC3     O 5943   4.264   2.898  10.746 -0.3755 -0.5196 -0.1391
  394TMC3     H 5944   4.196   2.870  10.513 -1.0043  0.6985 -2.6887
  394TMC3    H1 5945   4.503   3.184  10.598  1.0002 -2.1462  0.2143
  394TMC3    H2 5946   4.372   3.102  10.203 -0.3191  0.0120 -0.8727
  394TMC3    C7 5947   4.558   3.218  10.352 -0.0303 -0.2860  0.0689
  394TMC3    C8 5948   4.204   2.906  10.251 -0.3993 -0.2557 -0.8104
  394TMC3    O1 5949   4.613   3.304  10.419 -0.0635 -0.4122 -0.0190
  394TMC3    O2 5950   4.164   2.796  10.296  0.0502  0.0336 -0.0076
  395TMC3    C1 5951   4.468   0.650  15.009 -0.1846 -0.7032  0.3365
  395TMC3    C2 5952   4.472   0.569  14.894  0.1618 -0.4204 -1.0093
  395TMC3    C3 5953   4.521   0.629  14.778 -0.4562 -0.2603 -0.0772
  395TMC3    C4 5954   4.535   0.766  15.015 -0.0994  0.4463  0.1685
  395TMC3    C5 5955   4.603   0.811  14.905 -0.9771  0.4920  0.2133
  395TMC3    C6 5956   4.597   0.748  14.784  0.0473 -0.4457 -0.0414
  395TMC3     C 5957   4.445   0.580  15.141 -0.1845 -0.1616 -0.0169
  395TMC3     O 5958   4.509   0.477  15.162  0.4230  0.1542 -0.6699
  395TMC3     H 5959   4.423   0.472  14.895  1.4474 -1.0646 -0.1303
  395TMC3    H1 5960   4.558   0.812  15.110 -0.0152 -1.6235  1.1467
  395TMC3    H2 5961   4.623   0.804  14.695  0.6069 -0.1657  0.2994
  395TMC3    C7 5962   4.708   0.908  14.924  0.7872 -0.2073  0.2547
  395TMC3    C8 5963   4.536   0.553  14.648 -0.3590 -1.0088  0.2039
  395TMC3    O1 5964   4.683   0.996  15.005 -0.2349  0.7120 -0.1388
  395TMC3    O2 5965   4.636   0.583  14.587 -0.1789  0.3408  0.3527
  396MPD2     C 5966   3.863   1.430  17.306 -0.4762  0.8803 -0.1240
  396MPD2    C1 5967   3.987   1.480  17.355  0.9122  0.1334 -0.1675
  396MPD2    C2 5968   4.082   1.531  17.261  0.0725 -0.9096  0.4080
  396MPD2    C3 5969   4.047   1.550  17.129 -0.3965  0.0209 -0.6036
  396MPD2    C4 5970   3.930   1.503  17.081  0.4171  0.6048 -0.1379
  396MPD2    C5 5971   3.842   1.438  17.172  0.5690 -0.6299 -0.1511
  396MPD2     H 5972   4.175   1.571  17.300  0.1027  0.0678 -0.6503
  396MPD2    H1 5973   3.897   1.513  16.979  2.3233  1.3809 -0.6698
  396MPD2    H2 5974   3.795   1.373  17.367  0.2949 -0.9107 -0.9486
  396MPD2    H3 5975   3.748   1.398  17.137 -0.5905  2.0606 -0.0831
  396MPD2     N 5976   4.150   1.598  17.038  0.2221  0.3684  0.4768
  396MPD2    H5 5977   4.229   1.644  17.083  1.3557 -1.0716 -0.0536
  396MPD2    N1 5978   4.013   1.455  17.489 -0.3379  0.6550  0.4076
  396MPD2    H7 5979   3.946   1.406  17.548  0.6211 -2.8673 -1.4068
  397TMC3    C1 5980   4.172   1.321  17.587  0.0559  0.2245  0.3797
  397TMC3    C2 5981   4.267   1.265  17.510 -0.2717 -0.2742  0.2536
  397TMC3    C3 5982   4.244   1.146  17.438  0.4047  0.5474 -0.3736
  397TMC3    C4 5983   4.065   1.251  17.628  0.9063  0.1344 -0.6571
  397TMC3    C5 5984   4.048   1.121  17.571  0.4949 -0.3573  0.3287
  397TMC3    C6 5985   4.135   1.079  17.473  0.6927  0.8203  0.3580
  397TMC3     C 5986   4.145   1.454  17.538 -0.9698  0.2114  0.7042
  397TMC3     O 5987   4.244   1.517  17.507  0.0819 -0.0716  0.3521
  397TMC3     H 5988   4.345   1.327  17.468 -0.9876  1.4362  1.4318
  397TMC3    H1 5989   4.001   1.303  17.699  1.8484 -1.6938  1.5385
  397TMC3    H2 5990   4.115   0.988  17.417  2.4999  1.1599 -0.8325
  397TMC3    C7 5991   3.943   1.030  17.621  0.6034  0.9095 -0.0651
  397TMC3    C8 5992   4.265   1.146  17.291 -0.1584  0.3102 -0.1465
  397TMC3    O1 5993   3.886   0.953  17.551 -0.8027 -0.2252  0.3668
  397TMC3    O2 5994   4.172   1.096  17.227  0.2868  0.2606  0.1135
  398MPD2     C 5995   2.142   3.035   0.227  0.1325 -0.4934  0.0077
  398MPD2    C1 5996   2.255   3.010   0.303  0.1327  0.6593 -0.0854
  398MPD2    C2 5997   2.294   3.103   0.405  0.1575  0.4092  0.2288
  398MPD2    C3 5998   2.225   3.223   0.434 -0.2228  0.8579 -0.0771
  398MPD2    C4 5999   2.115   3.249   0.350 -0.3535 -0.0244 -0.7194
  398MPD2    C5 6000   2.082   3.161   0.249  0.5255 -0.5543  0.2795
  398MPD2     H 6001   2.375   3.080   0.472 -0.9948 -0.9463  1.1410
  398MPD2    H1 6002   2.046   3.330   0.374 -0.5503  0.4964 -3.0408
  398MPD2    H2 6003   2.105   2.973   0.146 -0.8142 -0.0040  0.0622
  398MPD2    H3 6004   2.001   3.178   0.179 -1.1090  0.8512  2.5320
  398MPD2     N 6005   2.267   3.311   0.537  0.4834 -0.2553  0.4314
  398MPD2    H5 6006   2.334   3.277   0.605 -0.7074 -2.2732  0.6207
  398MPD2    N1 6007   2.327   2.891   0.303  0.1395  0.0656 -0.5359
  398MPD2    H7 6008   2.414   2.888   0.355  0.4003  3.1395 -0.7696
  399TMC3    C1 6009   2.337   2.661   0.329  0.1073  0.0020 -0.7507
  399TMC3    C2 6010   2.465   2.682   0.377  0.2855  0.2974 -0.5541
  399TMC3    C3 6011   2.561   2.588   0.365  0.2189 -0.2591 -0.2130
  399TMC3    C4 6012   2.310   2.540   0.275  0.0677 -0.7591  0.2180
  399TMC3    C5 6013   2.406   2.441   0.271 -0.1785 -0.6103  0.0850
  399TMC3    C6 6014   2.537   2.464   0.315 -0.3391 -0.1175 -0.0154
  399TMC3     C 6015   2.265   2.772   0.271 -0.0055  0.3219 -0.5398
  399TMC3     O 6016   2.150   2.756   0.224 -0.4174  0.9106  0.4390
  399TMC3     H 6017   2.498   2.774   0.423  0.0211  1.2462 -2.2490
  399TMC3    H1 6018   2.213   2.535   0.228 -0.3599 -1.6073  1.1742
  399TMC3    H2 6019   2.616   2.392   0.327 -0.2388  0.4055  2.4060
  399TMC3    C7 6020   2.384   2.301   0.230 -0.5648 -0.2496 -0.8708
  399TMC3    C8 6021   2.687   2.611   0.425  0.4290  0.0897 -0.4728
  399TMC3    O1 6022   2.486   2.231   0.218 -0.0470 -0.1314 -1.1591
  399TMC3    O2 6023   2.691   2.669   0.531  0.0635 -0.4025  0.0153
  400TMC3    C1 6024   0.703   0.925  17.057  0.3664  0.1189 -0.1376
  400TMC3    C2 6025   0.615   0.824  17.071 -0.1083  0.2120  0.4257
  400TMC3    C3 6026   0.500   0.823  17.002 -0.6012 -0.3205 -0.8281
  400TMC3    C4 6027   0.672   1.039  16.988  0.2497 -0.1461 -0.2446
  400TMC3    C5 6028   0.553   1.039  16.929 -0.3301  0.2152  0.1897
  400TMC3    C6 6029   0.473   0.934  16.931 -0.1666  0.1136 -0.2500
  400TMC3     C 6030   0.810   0.929  17.162 -0.1353  0.3868 -0.1103
  400TMC3     O 6031   0.816   0.844  17.252 -0.2008 -0.0362 -0.3329
  400TMC3     H 6032   0.641   0.736  17.127  3.5005  0.0205 -1.5289
  400TMC3    H1 6033   0.745   1.118  16.975  0.1589  0.1706  1.1341
  400TMC3    H2 6034   0.370   0.956  16.903 -0.3212 -1.0797 -0.6267
  400TMC3    C7 6035   0.498   1.153  16.848  0.2251 -0.2234 -0.1716
  400TMC3    C8 6036   0.399   0.725  16.997  0.3591 -0.3138  0.5512
  400TMC3    O1 6037   0.426   1.129  16.755 -0.9328 -0.0755 -0.2611
  400TMC3    O2 6038   0.372   0.664  17.100  0.5743  0.4386 -0.9548
  401MPD2     C 6039   4.444   0.076   1.421  0.1717 -0.8706 -0.0428
  401MPD2    C1 6040   4.510   4.691   1.393  1.1266 -0.2108  0.0814
  401MPD2    C2 6041   4.442   4.574   1.403 -0.1759  0.7088  0.3175
  401MPD2    C3 6042   4.313   4.576   1.456  0.2307 -0.0879  0.3740
  401MPD2    C4 6043   4.252   4.698   1.503 -0.4556  0.4372 -0.3741
  401MPD2    C5 6044   4.320   0.079   1.483 -0.5057  0.3965 -0.1346
  401MPD2     H 6045   4.495   4.485   1.370 -3.4285 -1.0314 -0.2565
  401MPD2    H1 6046   4.154   4.695   1.551 -1.5776  1.1744 -2.6371
  401MPD2    H2 6047   4.496   0.170   1.405  0.0560 -1.0094 -1.2382
  401MPD2    H3 6048   4.281   0.171   1.526 -2.5158 -0.8988  0.8399
  401MPD2     N 6049   4.245   4.449   1.464  0.4764 -0.4137  0.3829
  401MPD2    H5 6050   4.298   4.365   1.441  0.6511 -0.1246 -0.2579
  401MPD2    N1 6051   4.645   4.684   1.341 -0.0013 -0.7148  0.1792
  401MPD2    H7 6052   4.684   4.591   1.327 -0.4535 -0.9892  0.7367
  402TMC3    C1 6053   4.071   4.294   1.488  0.0905 -0.2072  0.4609
  402TMC3    C2 6054   4.113   4.201   1.582  0.9906  0.2132  0.3388
  402TMC3    C3 6055   4.090   4.069   1.546  0.2376  0.4777  0.0916
  402TMC3    C4 6056   4.003   4.261   1.380  0.4360 -0.2224 -0.0754
  402TMC3    C5 6057   3.986   4.125   1.356 -0.2997  0.9772 -0.5260
  402TMC3    C6 6058   4.042   4.023   1.430  0.7889 -0.2335  0.0261
  402TMC3     C 6059   4.113   4.431   1.495  0.2139 -0.1887  0.0755
  402TMC3     O 6060   4.026   4.514   1.493 -0.3140  0.8356 -0.3265
  402TMC3     H 6061   4.180   4.217   1.666  1.5757 -1.3612  0.1772
  402TMC3    H1 6062   3.966   4.331   1.306 -0.1249  1.3211  1.6602
  402TMC3    H2 6063   4.024   3.917   1.416  0.0006 -0.2247  1.0005
  402TMC3    C7 6064   3.956   4.103   1.220 -0.0163  0.6464 -0.2226
  402TMC3    C8 6065   4.111   3.958   1.645 -0.3075 -0.1107  0.3530
  402TMC3    O1 6066   3.893   4.193   1.163 -0.0973  0.1198 -0.0871
  402TMC3    O2 6067   4.129   3.842   1.599 -0.3767  0.6600 -0.3010
  403MPD2     C 6068   1.594   2.785  13.286 -0.2115  0.1876 -0.0572
  403MPD2    C1 6069   1.722   2.740  13.296 -0.4153  0.1322  0.2347
  403MPD2    C2 6070   1.801   2.782  13.401  0.0741  0.3461  0.5780
  403MPD2    C3 6071   1.748   2.859  13.500  0.4418 -0.5793 -0.6470
  403MPD2    C4 6072   1.617   2.898  13.486  0.1571 -0.0921 -0.7997
  403MPD2    C5 6073   1.538   2.865  13.380 -0.0915  0.2203 -0.0465
  403MPD2     H 6074   1.909   2.770  13.410 -0.1085 -0.0234  2.1903
  403MPD2    H1 6075   1.560   2.947  13.563  3.3644  3.3253 -0.5966
  403MPD2    H2 6076   1.552   2.762  13.189 -0.8428  0.3645  0.1678
  403MPD2    H3 6077   1.437   2.904  13.381 -0.0076  0.3928  1.7760
  403MPD2     N 6078   1.835   2.895  13.601 -0.1894  0.2782 -0.3641
  403MPD2    H5 6079   1.929   2.858  13.605 -1.6844 -3.1899  2.1876
  403MPD2    N1 6080   1.769   2.658  13.192 -0.6900 -0.1390  0.0361
  403MPD2    H7 6081   1.698   2.615  13.132  1.0684  0.4340 -2.4589
  404TMC3    C1 6082   1.891   2.502  13.082  0.4388  0.0009 -0.1380
  404TMC3    C2 6083   1.813   2.397  13.119 -0.7040  0.5711  0.1631
  404TMC3    C3 6084   1.819   2.285  13.037  0.0627  1.1055 -0.4122
  404TMC3    C4 6085   1.982   2.495  12.973  0.4939  0.2633 -0.0722
  404TMC3    C5 6086   1.972   2.398  12.887 -0.0110  0.1244  0.7249
  404TMC3    C6 6087   1.887   2.291  12.917 -0.4889  0.2355  0.1577
  404TMC3     C 6088   1.901   2.611  13.177  0.4933 -0.3213  0.1645
  404TMC3     O 6089   2.008   2.659  13.218 -0.0020  0.3788 -0.1877
  404TMC3     H 6090   1.738   2.406  13.197 -1.2675 -0.5111 -0.2587
  404TMC3    H1 6091   2.035   2.588  12.955 -0.5847  1.0048  0.6145
  404TMC3    H2 6092   1.883   2.206  12.850 -1.5766 -0.5043  1.1710
  404TMC3    C7 6093   2.024   2.428  12.753  0.3751  0.4455  0.1969
  404TMC3    C8 6094   1.825   2.153  13.103  0.6868  0.2899 -0.3173
  404TMC3    O1 6095   2.108   2.519  12.741 -0.2581  0.5347 -0.4255
  404TMC3    O2 6096   1.855   2.056  13.036  0.3420 -0.2363 -0.2716
  405MPD2     C 6097   2.509   3.267  14.855  0.1598  0.0694  0.3773
  405MPD2    C1 6098   2.457   3.181  14.764 -0.5801 -0.7396 -0.1767
  405MPD2    C2 6099   2.355   3.217  14.680 -0.4218  0.0747  0.5028
  405MPD2    C3 6100   2.308   3.351  14.685  0.0534  0.8896  0.0259
  405MPD2    C4 6101   2.366   3.440  14.774  0.3542 -0.0167  0.8342
  405MPD2    C5 6102   2.465   3.399  14.862  0.5344 -0.0605  0.6534
  405MPD2     H 6103   2.304   3.146  14.616  1.0789  0.3376 -0.9920
  405MPD2    H1 6104   2.329   3.542  14.779  0.6495  0.0461  1.6652
  405MPD2    H2 6105   2.585   3.236  14.926  0.9603  0.8338 -0.1383
  405MPD2    H3 6106   2.508   3.473  14.929  0.3224  0.7555 -0.1093
  405MPD2     N 6107   2.214   3.391  14.585 -0.0995 -0.2269 -0.0727
  405MPD2    H5 6108   2.187   3.319  14.519  0.1733 -0.6060  0.2271
  405MPD2    N1 6109   2.501   3.047  14.779 -0.4990 -0.2097 -0.1556
  405MPD2    H7 6110   2.566   3.019  14.852  1.5399  2.4919 -0.9301
  406TMC3    C1 6111   1.825   3.490  14.478 -0.1176  0.2747  0.1017
  406TMC3    C2 6112   1.819   3.380  14.397 -0.6023 -0.2420 -0.1198
  406TMC3    C3 6113   1.937   3.322  14.356 -0.2556  0.5887 -0.2395
  406TMC3    C4 6114   1.938   3.555  14.507 -0.4425 -0.3999  0.4730
  406TMC3    C5 6115   2.057   3.494  14.466 -0.1226  0.3767  0.4310
  406TMC3    C6 6116   2.056   3.377  14.395  0.4770  0.3670 -0.1011
  406TMC3     C 6117   1.701   3.547  14.520  0.6487 -0.0828 -0.1788
  406TMC3     O 6118   1.606   3.479  14.492 -0.0228  0.1511 -0.1921
  406TMC3     H 6119   1.725   3.332  14.373 -0.6665  0.6037 -1.5702
  406TMC3    H1 6120   1.942   3.642  14.572 -0.7909 -0.5222  0.6618
  406TMC3    H2 6121   2.149   3.338  14.358  0.7416 -1.0692  2.0532
  406TMC3    C7 6122   2.156   3.512  14.566  0.3394 -0.2637  0.5138
  406TMC3    C8 6123   1.929   3.188  14.302 -0.5533  1.4337  0.3474
  406TMC3    O1 6124   2.178   3.624  14.609 -0.0539  0.3781 -0.2532
  406TMC3    O2 6125   1.816   3.141  14.288  0.7891  0.0757  0.6983
  407MPD2     C 6126   4.083   4.264   9.869  0.1359  0.5063  0.0491
  407MPD2    C1 6127   4.199   4.324   9.837 -0.4673  0.6681 -0.4984
  407MPD2    C2 6128   4.248   4.428   9.914 -0.6824  0.4860  0.4074
  407MPD2    C3 6129   4.171   4.480  10.014 -0.0611 -0.2865 -0.0460
  407MPD2    C4 6130   4.048   4.422  10.042  0.3737 -0.0515 -0.4091
  407MPD2    C5 6131   4.012   4.313   9.971  0.1592  0.2514 -0.2090
  407MPD2     H 6132   4.341   4.472   9.879  0.1218 -0.7370  1.0253
  407MPD2    H1 6133   3.972   4.470  10.102 -0.5692 -0.2832 -1.4022
  407MPD2    H2 6134   4.034   4.182   9.817  3.1921 -0.7550 -0.8217
  407MPD2    H3 6135   3.912   4.271   9.971  0.2908 -0.0609 -0.0076
  407MPD2     N 6136   4.215   4.601  10.082  0.3940  0.4438  0.1095
  407MPD2    H5 6137   4.153   4.660  10.137 -1.9773 -2.0217  0.1057
  407MPD2    N1 6138   4.283   4.278   9.731 -0.1308  0.1391 -0.6690
  407MPD2    H7 6139   4.367   4.330   9.706  0.3573 -0.0894  0.4868
  408TMC3    C1 6140   4.326   4.196   9.523 -0.9436 -1.0009 -1.0947
  408TMC3    C2 6141   4.428   4.109   9.502 -0.1138 -0.4431  0.2154
  408TMC3    C3 6142   4.526   4.156   9.419 -0.8163 -0.2362 -0.3981
  408TMC3    C4 6143   4.314   4.314   9.458  0.3473  0.0451 -0.0695
  408TMC3    C5 6144   4.417   4.356   9.377 -0.3597 -1.5899 -0.7299
  408TMC3    C6 6145   4.523   4.276   9.359  0.2418  0.3226  0.2077
  408TMC3     C 6146   4.254   4.175   9.643 -0.3166  0.5197  0.7113
  408TMC3     O 6147   4.216   4.064   9.677  0.3152  0.6493  0.1299
  408TMC3     H 6148   4.442   4.023   9.566 -0.5000 -0.6500  0.0249
  408TMC3    H1 6149   4.228   4.377   9.475  2.1943  2.2740  1.0748
  408TMC3    H2 6150   4.603   4.304   9.291 -0.3864 -0.4427 -0.8331
  408TMC3    C7 6151   4.440   4.497   9.361  0.3174  0.1402 -0.0373
  408TMC3    C8 6152   4.646   4.077   9.429  0.0524 -0.4192 -0.6031
  408TMC3    O1 6153   4.549   4.536   9.327  0.6965 -0.3983  0.2376
  408TMC3    O2 6154   4.639   3.952   9.439 -0.2111 -0.1121 -0.2292
  409MPD2     C 6155   4.144   0.457  17.296 -0.0567  0.0439 -1.0091
  409MPD2    C1 6156   4.276   0.455  17.317  0.5905 -1.0994 -0.2152
  409MPD2    C2 6157   4.358   0.556  17.270 -0.3192 -0.0879  0.8039
  409MPD2    C3 6158   4.300   0.665  17.208 -0.3198  0.2297  0.5613
  409MPD2    C4 6159   4.166   0.667  17.180  0.1126 -0.3494 -0.0174
  409MPD2    C5 6160   4.086   0.565  17.226 -0.5893 -0.2765  0.7081
  409MPD2     H 6161   4.462   0.562  17.297  0.1226 -1.3071 -0.6294
  409MPD2    H1 6162   4.128   0.740  17.109 -2.7255 -2.5791 -0.7405
  409MPD2    H2 6163   4.077   0.380  17.331  1.9712 -1.2914 -0.0820
  409MPD2    H3 6164   3.979   0.572  17.209 -0.3829  0.2240 -0.4319
  409MPD2     N 6165   4.381   0.775  17.165 -0.3116  0.3848  0.2864
  409MPD2    H5 6166   4.338   0.856  17.122 -0.6970  0.4961  0.8831
  409MPD2    N1 6167   4.338   0.358  17.402  0.4304 -0.0399  0.4097
  409MPD2    H7 6168   4.439   0.359  17.404  0.4951 -0.4607 -2.1036
  410TMC3    C1 6169   4.572   0.912  17.127 -0.1769 -0.4090 -0.0800
  410TMC3    C2 6170   4.693   0.955  17.176 -0.3711 -0.0370  0.2682
  410TMC3    C3 6171   0.040   0.998  17.085 -0.0504  0.6194 -0.3709
  410TMC3    C4 6172   4.525   0.936  16.999  0.1421  0.0410  0.3510
  410TMC3    C5 6173   4.617   0.996  16.914  0.6652  1.0004  0.5874
  410TMC3    C6 6174   0.008   1.024  16.955 -0.6683 -0.2323 -0.2838
  410TMC3     C 6175   4.517   0.789  17.186  0.2568 -0.2800 -0.7390
  410TMC3     O 6176   4.591   0.721  17.256  0.2398 -0.3034  0.5096
  410TMC3     H 6177   4.713   0.916  17.276 -0.0795 -0.4082  0.0660
  410TMC3    H1 6178   4.418   0.932  16.983  0.3075 -0.9557 -0.4745
  410TMC3    H2 6179   0.090   1.048  16.888  1.2253  0.9152  2.4305
  410TMC3    C7 6180   4.561   1.022  16.782 -0.6800 -0.8231  0.1960
  410TMC3    C8 6181   0.177   1.016  17.127  0.1371  0.6183 -0.6946
  410TMC3    O1 6182   4.451   0.974  16.762  0.2960  0.0616 -0.4602
  410TMC3    O2 6183   0.252   1.085  17.059  0.5384  0.6938 -0.1480
  411MPD2     C 6184   0.131   1.448  14.553  0.1802 -0.1670  1.0480
  411MPD2    C1 6185   0.085   1.456  14.427 -0.4949  0.4114  0.3847
  411MPD2    C2 6186   0.027   1.351  14.367  0.5354  0.2821 -0.8557
  411MPD2    C3 6187   4.731   1.241  14.443  0.8172  0.4885 -0.7287
  411MPD2    C4 6188   0.021   1.242  14.579 -0.2090 -0.5314  0.0402
  411MPD2    C5 6189   0.099   1.340  14.636  0.1732  0.9290 -0.2739
  411MPD2     H 6190   4.731   1.346  14.264  2.9059  0.0363 -1.6099
  411MPD2    H1 6191   0.014   1.154  14.642  0.8101 -0.1596  0.6745
  411MPD2    H2 6192   0.191   1.526  14.599  1.0976 -0.1113 -0.2411
  411MPD2    H3 6193   0.125   1.334  14.741 -1.3521  1.1133  0.1066
  411MPD2     N 6194   4.657   1.147  14.377 -0.6518  0.0103  0.0418
  411MPD2    H5 6195   4.638   1.159  14.278 -0.1471  1.1128  0.0851
  411MPD2    N1 6196   0.110   1.578  14.363 -0.2415  0.2406 -1.3255
  411MPD2    H7 6197   0.168   1.651  14.403 -3.4370  1.8797  0.2404
  412TMC3    C1 6198   4.512   0.970  14.336 -1.0969  0.3493  0.0818
  412TMC3    C2 6199   4.406   0.902  14.386 -0.4002 -0.2976  0.2072
  412TMC3    C3 6200   4.322   0.853  14.290  0.1275 -0.5239  0.1337
  412TMC3    C4 6201   4.528   0.990  14.203 -0.6433  0.4042 -0.6359
  412TMC3    C5 6202   4.443   0.938  14.108  0.2218  0.0585  0.5684
  412TMC3    C6 6203   4.340   0.861  14.153  0.1072 -0.1247 -0.2993
  412TMC3     C 6204   4.593   1.040  14.433  0.0543 -0.2280  0.2595
  412TMC3     O 6205   4.589   0.993  14.547 -0.3282  0.9428  0.3579
  412TMC3     H 6206   4.387   0.870  14.487  1.0364  0.5082  0.7414
  412TMC3    H1 6207   4.616   1.040  14.164 -1.8215  3.6200  0.8257
  412TMC3    H2 6208   4.274   0.803  14.089 -2.1940  1.0777  0.9950
  412TMC3    C7 6209   4.445   0.982  13.966  0.3352 -0.5438  0.4107
  412TMC3    C8 6210   4.189   0.827  14.329  0.7015 -0.3561 -0.2816
  412TMC3    O1 6211   4.547   1.009  13.908  0.3870  0.0125  0.0284
  412TMC3    O2 6212   4.168   0.786  14.442  0.2877 -0.2766  0.0829
  413MPD2     C 6213   1.017   4.433  15.407  0.2159  0.2724 -0.2412
  413MPD2    C1 6214   0.975   4.362  15.295 -0.1404  0.1696  0.1535
  413MPD2    C2 6215   1.061   4.266  15.243  0.2304 -0.4407 -0.3711
  413MPD2    C3 6216   1.188   4.246  15.305  0.1419 -0.6251 -0.2844
  413MPD2    C4 6217   1.228   4.321  15.415 -0.2898  0.0462 -0.0133
  413MPD2    C5 6218   1.142   4.417  15.460  0.8378  0.4863  0.7131
  413MPD2     H 6219   1.038   4.211  15.152 -0.0377  0.0015 -0.5670
  413MPD2    H1 6220   1.329   4.317  15.454 -0.3042  0.7589  0.0912
  413MPD2    H2 6221   0.953   4.513  15.441  1.2989  1.5826 -1.2757
  413MPD2    H3 6222   1.177   4.494  15.528 -0.8903  1.3245  0.6375
  413MPD2     N 6223   1.270   4.148  15.241  0.3545  0.1978  0.1302
  413MPD2    H5 6224   1.231   4.105  15.158  2.2346  0.3377 -0.8176
  413MPD2    N1 6225   0.842   4.383  15.250 -1.0004  0.1047 -0.4474
  413MPD2    H7 6226   0.787   4.447  15.307  0.3835 -1.0395  2.1681
  414TMC3    C1 6227   1.442   4.009  15.174  0.5149  0.1663  0.8873
  414TMC3    C2 6228   1.511   3.899  15.217 -0.1648  0.1908  0.0134
  414TMC3    C3 6229   1.561   3.823  15.112 -0.1298 -0.5372 -0.2451
  414TMC3    C4 6230   1.449   4.063  15.048  0.0303  0.1657  0.5560
  414TMC3    C5 6231   1.491   3.973  14.947 -0.7097 -0.6378  0.3894
  414TMC3    C6 6232   1.523   3.843  14.980  0.0795  0.6399  0.0033
  414TMC3     C 6233   1.393   4.096  15.283 -0.0702 -0.1934 -0.1801
  414TMC3     O 6234   1.466   4.113  15.382  0.4110  0.6325 -0.0780
  414TMC3     H 6235   1.518   3.870  15.322 -0.1647  0.0256 -0.0322
  414TMC3    H1 6236   1.395   4.152  15.020  0.7849  0.3207 -0.4147
  414TMC3    H2 6237   1.556   3.775  14.902 -0.6352  0.5583 -0.2257
  414TMC3    C7 6238   1.580   4.036  14.855  0.3350 -0.0342  1.1057
  414TMC3    C8 6239   1.671   3.729  15.127  0.0011 -0.5684 -0.6475
  414TMC3    O1 6240   1.575   4.157  14.842  0.7100  0.5599 -0.5192
  414TMC3    O2 6241   1.702   3.666  15.025 -0.2235  0.2642 -0.2122
  415TMC3    C1 6242   1.848   1.619  10.165  0.5073  0.3136  0.0183
  415TMC3    C2 6243   1.954   1.675  10.102 -0.1033  0.0820 -0.1159
  415TMC3    C3 6244   1.931   1.783  10.023  0.1718 -0.6817  0.0470
  415TMC3    C4 6245   1.720   1.666  10.144  0.3279  0.0056 -0.3532
  415TMC3    C5 6246   1.702   1.770  10.061 -0.7872 -0.4009 -0.4929
  415TMC3    C6 6247   1.806   1.840  10.008 -0.0881 -0.2821  0.8686
  415TMC3     C 6248   1.858   1.507  10.256 -0.1044 -0.1652  0.4361
  415TMC3     O 6249   1.772   1.484  10.340  0.1929  0.2953 -0.0823
  415TMC3     H 6250   2.050   1.634  10.131 -0.1201  0.4332  0.4541
  415TMC3    H1 6251   1.643   1.606  10.190  0.9275 -0.9109 -0.5405
  415TMC3    H2 6252   1.787   1.915   9.932 -0.5134 -0.6582  0.6031
  415TMC3    C7 6253   1.563   1.821  10.034  0.5396 -0.2127  0.1749
  415TMC3    C8 6254   2.037   1.795   9.924  0.9056 -0.2344 -0.3076
  415TMC3    O1 6255   1.552   1.932   9.995  0.2343 -0.2356 -0.0835
  415TMC3    O2 6256   2.111   1.693   9.919  0.6848  0.0017 -0.0229
  416MPD2     C 6257   3.907   0.633  11.385  0.1926  0.4319  0.7550
  416MPD2    C1 6258   3.817   0.679  11.293 -0.0556 -0.0117  0.1266
  416MPD2    C2 6259   3.801   0.598  11.181  0.5948 -0.5675  0.5663
  416MPD2    C3 6260   3.868   0.479  11.163 -0.3620 -0.1678 -0.1901
  416MPD2    C4 6261   3.943   0.429  11.270 -0.2054  0.1435  0.6639
  416MPD2    C5 6262   3.971   0.510  11.379 -0.3202 -0.3419 -0.2960
  416MPD2     H 6263   3.729   0.624  11.105  0.5415  0.8343  1.0935
  416MPD2    H1 6264   4.003   0.338  11.266  0.4378  0.6617 -1.4528
  416MPD2    H2 6265   3.940   0.682  11.475  1.2327  0.9883  0.0759
  416MPD2    H3 6266   4.035   0.474  11.459  2.3169 -0.4253 -2.4552
  416MPD2     N 6267   3.842   0.393  11.055 -0.2392  0.5671 -0.2926
  416MPD2    H5 6268   3.853   0.296  11.082  1.0823  1.1385  1.2307
  416MPD2    N1 6269   3.753   0.804  11.317  0.2201  0.8490  0.0618
  416MPD2    H7 6270   3.759   0.837  11.412  1.8648  0.0016  0.2738
  417TMC3    C1 6271   3.614   0.990  11.287  0.3991  0.0678  0.0095
  417TMC3    C2 6272   3.648   1.045  11.409  0.2732  0.0594  0.0010
  417TMC3    C3 6273   3.599   1.171  11.435 -0.2976  0.1715  0.0567
  417TMC3    C4 6274   3.532   1.059  11.196 -0.2668  0.3286 -0.3340
  417TMC3    C5 6275   3.475   1.177  11.234  0.3784  0.4255 -0.0623
  417TMC3    C6 6276   3.500   1.227  11.357  0.0167  0.3282  0.4650
  417TMC3     C 6277   3.692   0.882  11.223 -0.4400 -0.5712 -0.0889
  417TMC3     O 6278   3.665   0.860  11.106  0.4679  0.3968  0.1490
  417TMC3     H 6279   3.706   0.996  11.486  0.3225 -0.3764 -0.3098
  417TMC3    H1 6280   3.518   1.021  11.095 -2.8913  1.5476 -0.4350
  417TMC3    H2 6281   3.453   1.316  11.398  1.5832  1.1392  0.5050
  417TMC3    C7 6282   3.381   1.245  11.149 -0.5682 -0.0352 -0.7093
  417TMC3    C8 6283   3.627   1.229  11.568 -0.1514 -0.2536  0.1011
  417TMC3    O1 6284   3.363   1.365  11.172  0.0598  0.5072  0.3377
  417TMC3    O2 6285   3.541   1.307  11.607 -0.0534  0.4603  0.0262
  418TMC3    C1 6286   2.411   3.602   0.789  0.1992 -0.0831  1.0744
  418TMC3    C2 6287   2.311   3.584   0.703  0.2928  0.3676  0.4875
  418TMC3    C3 6288   2.244   3.463   0.697 -0.5454  0.2597  0.0827
  418TMC3    C4 6289   2.438   3.507   0.882 -0.2642 -0.3918 -0.5421
  418TMC3    C5 6290   2.365   3.389   0.879  0.0085  0.2319 -0.2464
  418TMC3    C6 6291   2.274   3.360   0.781  0.2601  0.0859 -0.1932
  418TMC3     C 6292   2.500   3.713   0.786  0.3359  0.1834 -0.4512
  418TMC3     O 6293   2.455   3.822   0.747 -0.2391 -0.2692  0.8342
  418TMC3     H 6294   2.286   3.664   0.635 -1.0832 -0.2967  0.2204
  418TMC3    H1 6295   2.512   3.523   0.960 -1.0617 -0.7827  0.2900
  418TMC3    H2 6296   2.217   3.268   0.776 -0.4502  0.5955 -1.5957
  418TMC3    C7 6297   2.404   3.271   0.951 -0.2776  0.2871  0.1273
  418TMC3    C8 6298   2.195   3.428   0.570  0.2085 -0.3277  0.1312
  418TMC3    O1 6299   2.380   3.164   0.904  0.4718  0.4812 -0.1678
  418TMC3    O2 6300   2.131   3.511   0.502 -0.0874 -0.7158  1.1386
  419MPD2     C 6301   0.919   0.753  12.041 -0.2365  0.0535 -0.5184
  419MPD2    C1 6302   0.921   0.889  12.009  0.3444  0.1748  0.2596
  419MPD2    C2 6303   0.852   0.973  12.099 -0.9927 -1.0046 -0.2194
  419MPD2    C3 6304   0.802   0.929  12.223  0.3062  0.3659  0.0927
  419MPD2    C4 6305   0.804   0.799  12.252 -1.1263  0.5332 -0.1146
  419MPD2    C5 6306   0.865   0.715  12.163 -0.2456 -0.3642 -0.2873
  419MPD2     H 6307   0.848   1.076  12.068  0.3013 -1.0461 -0.5369
  419MPD2    H1 6308   0.766   0.763  12.347 -0.5096  0.1549 -0.0096
  419MPD2    H2 6309   0.954   0.674  11.975  0.3114  2.0555 -2.6206
  419MPD2    H3 6310   0.869   0.613  12.201  1.0856 -0.0830  0.3475
  419MPD2     N 6311   0.771   1.033  12.313 -0.7552 -0.2003  0.8054
  419MPD2    H5 6312   0.793   1.130  12.291 -1.2258 -0.4727 -0.8715
  419MPD2    N1 6313   0.987   0.945  11.897 -0.0800 -0.0188 -0.2174
  419MPD2    H7 6314   0.990   1.047  11.897  0.4077 -0.0323 -0.3106
  420TMC3    C1 6315   0.710   1.130  12.509 -0.1108  0.2494  0.2359
  420TMC3    C2 6316   0.665   1.247  12.458  0.8064 -0.0828 -0.9937
  420TMC3    C3 6317   0.667   1.360  12.528 -0.5722 -0.0919  0.3793
  420TMC3    C4 6318   0.754   1.127  12.639 -0.9134 -0.4865  0.2208
  420TMC3    C5 6319   0.759   1.242  12.711  0.1141 -0.2296 -0.3390
  420TMC3    C6 6320   0.709   1.364  12.658 -0.5091  0.4812  0.0653
  420TMC3     C 6321   0.721   1.010  12.439 -0.4499 -0.0746  0.2812
  420TMC3     O 6322   0.696   0.905  12.498  0.4383 -0.1392  0.3630
  420TMC3     H 6323   0.625   1.254  12.357  3.5048 -2.8871 -2.2547
  420TMC3    H1 6324   0.772   1.034  12.692 -1.8371 -0.9080 -0.2106
  420TMC3    H2 6325   0.711   1.458  12.711 -1.2926 -0.0938  1.1370
  420TMC3    C7 6326   0.826   1.240  12.837  0.0967  0.2537 -0.0624
  420TMC3    C8 6327   0.630   1.480  12.450  0.1324 -0.6515 -0.2935
  420TMC3    O1 6328   0.836   1.133  12.894  0.1213 -0.0041  0.3327
  420TMC3    O2 6329   0.537   1.549  12.489  0.1641 -0.2790 -0.0789
  421TMC3    C1 6330   1.902   3.025  13.794 -1.0869  0.4732 -0.1582
  421TMC3    C2 6331   1.915   3.160  13.832 -0.0507 -0.1204  0.3123
  421TMC3    C3 6332   2.013   3.201  13.921 -0.3465  0.1262 -0.2487
  421TMC3    C4 6333   1.996   2.933  13.834 -0.1867  0.0333 -0.2971
  421TMC3    C5 6334   2.098   2.981  13.920  0.6095 -0.1926  0.5082
  421TMC3    C6 6335   2.100   3.111  13.970  0.7161 -0.3855  0.2752
  421TMC3     C 6336   1.805   2.999  13.694 -0.4318 -0.4236  0.3335
  421TMC3     O 6337   1.707   3.069  13.696  0.1513 -0.3074  0.0132
  421TMC3     H 6338   1.845   3.234  13.794 -0.7253 -0.8225  0.1767
  421TMC3    H1 6339   1.996   2.835  13.787  0.0752 -0.4666  0.7587
  421TMC3    H2 6340   2.180   3.145  14.034  1.0240 -1.7682  0.6123
  421TMC3    C7 6341   2.230   2.928  13.913 -0.2670  0.1005  0.0913
  421TMC3    C8 6342   2.041   3.341  13.973 -0.4230  0.3150  0.2059
  421TMC3    O1 6343   2.322   3.012  13.909  0.4983  0.7850  0.5711
  421TMC3    O2 6344   2.162   3.364  13.976 -0.0977  0.2893  0.3073
  422TMC3    C1 6345   4.633   3.851  12.254 -0.2195  0.2310 -0.0759
  422TMC3    C2 6346   4.629   3.956  12.339 -0.3860 -0.2383  0.0036
  422TMC3    C3 6347   4.562   3.944  12.459  1.0420  0.6734 -0.0238
  422TMC3    C4 6348   4.559   3.736  12.281 -0.0303  0.2374  0.4487
  422TMC3    C5 6349   4.482   3.735  12.395 -0.1574  0.1911 -0.0195
  422TMC3    C6 6350   4.496   3.829  12.491 -0.4008  0.1245 -0.2196
  422TMC3     C 6351   4.675   3.879  12.126 -0.4465 -0.3223  0.0867
  422TMC3     O 6352   4.653   3.993  12.088 -0.0501 -0.8293 -0.3631
  422TMC3     H 6353   4.676   4.047  12.303  0.6172 -0.4998  0.6550
  422TMC3    H1 6354   4.564   3.660  12.204  2.3638  0.0815  0.7446
  422TMC3    H2 6355   4.468   3.806  12.593  2.0557 -0.5464  0.3003
  422TMC3    C7 6356   4.388   3.629  12.414 -0.0728 -0.0779  0.1834
  422TMC3    C8 6357   4.596   4.041  12.553 -0.4823 -0.8076 -0.2910
  422TMC3    O1 6358   4.406   3.519  12.367  0.4033  0.2594 -0.4604
  422TMC3    O2 6359   4.697   4.114  12.538  0.2184  0.2497 -0.0210
  423MPD2     C 6360   1.444   0.353   0.781  0.0398  0.1821  0.2619
  423MPD2    C1 6361   1.455   0.223   0.821  0.1624  0.1207  0.2937
  423MPD2    C2 6362   1.503   0.129   0.734  0.8197 -0.3770  0.1222
  423MPD2    C3 6363   1.525   0.164   0.604 -0.5097 -1.1555 -0.2229
  423MPD2    C4 6364   1.507   0.298   0.567 -0.0714 -0.6728 -0.4926
  423MPD2    C5 6365   1.471   0.391   0.656 -0.1239  0.1731 -0.2190
  423MPD2     H 6366   1.524   0.027   0.763  1.8187 -0.3748 -0.5852
  423MPD2    H1 6367   1.535   0.326   0.466 -1.1600 -1.9512 -1.1349
  423MPD2    H2 6368   1.406   0.433   0.845 -2.6247 -0.9261  0.0805
  423MPD2    H3 6369   1.459   0.491   0.616 -0.6155  1.0058  2.0224
  423MPD2     N 6370   1.557   0.077   0.495 -0.3024 -0.3940  0.1091
  423MPD2    H5 6371   1.559   0.118   0.403 -0.2630  1.6781  1.0284
  423MPD2    N1 6372   1.435   0.186   0.953  0.3232 -0.1704  0.3428
  423MPD2    H7 6373   1.478   0.103   0.992 -0.8039 -1.0842 -0.3733
  424TMC3    C1 6374   1.389   0.227   1.174  0.1961  0.6840  0.2459
  424TMC3    C2 6375   1.463   0.116   1.205 -0.7281 -0.2737  0.1732
  424TMC3    C3 6376   1.468   0.082   1.337 -0.4094  0.2607  0.3035
  424TMC3    C4 6377   1.323   0.303   1.269 -0.9116 -0.2678  0.4343
  424TMC3    C5 6378   1.335   0.263   1.399  0.6982 -0.5769 -0.0273
  424TMC3    C6 6379   1.421   0.161   1.434  0.6079  0.5245 -0.1527
  424TMC3     C 6380   1.370   0.269   1.039 -0.5692  0.3287 -0.0944
  424TMC3     O 6381   1.289   0.357   1.015  0.1759  0.5583  0.6728
  424TMC3     H 6382   1.509   0.049   1.132  1.4000  0.0866  1.1922
  424TMC3    H1 6383   1.268   0.392   1.242  0.8404  0.3724 -1.0427
  424TMC3    H2 6384   1.425   0.143   1.541  0.1040  0.3676 -0.1588
  424TMC3    C7 6385   1.230   0.292   1.494  0.8813  0.0696 -0.5254
  424TMC3    C8 6386   1.570   4.717   1.373  0.2642 -0.1375 -0.3613
  424TMC3    O1 6387   1.254   0.261   1.612 -0.4976 -0.6682  0.1944
  424TMC3    O2 6388   1.573   4.681   1.491  0.3588  0.1108  0.0632
  425MPD2     C 6389   0.471   4.005  16.920  0.2154 -0.6777  0.2457
  425MPD2    C1 6390   0.537   3.970  17.034  0.0011 -0.1636  0.5900
  425MPD2    C2 6391   0.497   4.027  17.152 -0.7660  0.4974 -0.5737
  425MPD2    C3 6392   0.399   4.123  17.156 -0.6710  0.4851  0.2958
  425MPD2    C4 6393   0.325   4.153  17.047 -0.4154 -0.0801  0.1784
  425MPD2    C5 6394   0.367   4.094  16.929  0.2110  0.4299 -0.2881
  425MPD2     H 6395   0.537   3.996  17.248 -3.9617 -0.1498  0.5833
  425MPD2    H1 6396   0.235   4.215  17.044  0.0086  0.6486  2.5315
  425MPD2    H2 6397   0.501   3.979  16.819  0.5173 -1.8401  0.6419
  425MPD2    H3 6398   0.326   4.126  16.833  0.8950  0.9236 -0.4124
  425MPD2     N 6399   0.363   4.173  17.282  0.5158  0.3398  0.0904
  425MPD2    H5 6400   0.410   4.136  17.365 -0.7085  0.5891  0.8991
  425MPD2    N1 6401   0.640   3.870  17.023 -0.4668 -0.1846  0.2542
  425MPD2    H7 6402   0.661   3.853  16.925 -0.7141  1.8198 -0.1458
  426TMC3    C1 6403   0.778   3.678  17.088  0.3240 -0.2717  0.1688
  426TMC3    C2 6404   0.721   3.607  16.993 -0.2606  0.5222 -0.3443
  426TMC3    C3 6405   0.716   3.468  17.008  0.6515  0.2502 -0.9866
  426TMC3    C4 6406   0.834   3.607  17.197 -0.2405 -0.2313  0.3838
  426TMC3    C5 6407   0.844   3.472  17.191  0.0194  0.4343 -0.1266
  426TMC3    C6 6408   0.783   3.394  17.104 -1.2774  0.1992  0.0887
  426TMC3     C 6409   0.705   3.799  17.126  0.1156  0.2389 -0.4606
  426TMC3     O 6410   0.705   3.839  17.242  0.3415 -0.5775 -0.1403
  426TMC3     H 6411   0.675   3.658  16.909  0.1688 -0.4357 -1.1775
  426TMC3    H1 6412   0.876   3.660  17.282 -0.5793  0.1571  0.3053
  426TMC3    H2 6413   0.795   3.287  17.112  2.0215  0.4537 -1.8179
  426TMC3    C7 6414   0.892   3.401  17.305  0.0326  1.1825  0.2433
  426TMC3    C8 6415   0.656   3.400  16.899  0.3952 -0.0280 -0.3662
  426TMC3    O1 6416   0.958   3.308  17.272 -0.0667 -0.0172  0.3725
  426TMC3    O2 6417   0.695   3.433  16.789 -0.4826 -0.2189 -0.1085
  427MPD2     C 6418   3.881   1.572  14.537 -0.5339  0.6148 -0.4660
  427MPD2    C1 6419   3.840   1.553  14.671  0.0099 -0.3940 -0.3633
  427MPD2    C2 6420   3.703   1.548  14.707 -0.1746 -0.2686 -0.1514
  427MPD2    C3 6421   3.610   1.553  14.609 -0.1098  0.2266 -0.1906
  427MPD2    C4 6422   3.646   1.583  14.480  0.6250 -0.4507  0.8108
  427MPD2    C5 6423   3.780   1.586  14.450 -0.8042 -0.2289  0.4515
  427MPD2     H 6424   3.682   1.528  14.811  2.1052  1.1924  0.5938
  427MPD2    H1 6425   3.568   1.591  14.405  1.9719  1.9042 -0.3686
  427MPD2    H2 6426   3.984   1.574  14.503 -0.3472 -2.0334 -0.0340
  427MPD2    H3 6427   3.802   1.590  14.344  0.6492  1.6132  0.8193
  427MPD2     N 6428   3.466   1.545  14.633  0.1396 -0.0266 -0.1233
  427MPD2    H5 6429   3.404   1.589  14.565 -2.2558 -1.7816  0.9249
  427MPD2    N1 6430   3.937   1.535  14.779 -0.7375  0.6594  0.2784
  427MPD2    H7 6431   3.902   1.530  14.874  0.6224 -2.4121  0.6220
  428TMC3    C1 6432   4.140   1.532  14.892  0.6325  0.7993  0.0951
  428TMC3    C2 6433   4.082   1.485  15.008  0.0271  0.2136 -0.0231
  428TMC3    C3 6434   4.155   1.504  15.119  0.2830 -0.8582 -0.0900
  428TMC3    C4 6435   4.263   1.593  14.888 -0.2560 -0.8860 -0.0174
  428TMC3    C5 6436   4.337   1.587  15.003 -0.5050 -0.3415  0.2933
  428TMC3    C6 6437   4.283   1.547  15.123  0.5283 -0.5675  0.4080
  428TMC3     C 6438   4.073   1.526  14.765  0.7322 -0.8156 -0.2783
  428TMC3     O 6439   4.137   1.514  14.660 -0.5428  0.1024 -0.1530
  428TMC3     H 6440   3.988   1.430  15.009  1.7435 -2.7818 -0.7452
  428TMC3    H1 6441   4.300   1.621  14.790  3.6737 -2.4492  0.9938
  428TMC3    H2 6442   4.331   1.568  15.218 -0.8586  2.0016  0.5263
  428TMC3    C7 6443   4.460   1.661  15.015  0.0666  0.0952  0.2176
  428TMC3    C8 6444   4.094   1.457  15.243  0.7710 -0.1005 -0.4187
  428TMC3    O1 6445   4.483   1.714  15.123  0.2095 -0.1518  0.2245
  428TMC3    O2 6446   4.167   1.434  15.341  0.1147  0.1399  0.6616
  429MPD2     C 6447   4.730   1.503  17.472 -0.6205  0.5365  0.4004
  429MPD2    C1 6448   0.128   1.496  17.505 -0.8030 -0.0190 -0.2706
  429MPD2    C2 6449   0.208   1.599  17.463  0.3233  0.4457 -0.1965
  429MPD2    C3 6450   0.156   1.699  17.382 -0.6377 -0.6723 -0.2007
  429MPD2    C4 6451   0.022   1.702  17.348  0.4936 -0.8342  0.5259
  429MPD2    C5 6452   4.681   1.603  17.393  0.7336  0.3162 -0.3183
  429MPD2     H 6453   0.313   1.607  17.489  0.5084 -1.8125 -0.2322
  429MPD2    H1 6454   4.710   1.783  17.295 -0.1665 -2.2714 -1.0929
  429MPD2    H2 6455   4.658   1.429  17.505 -1.2416  0.8339 -0.2899
  429MPD2    H3 6456   4.578   1.590  17.361  1.0464 -0.4133 -1.0300
  429MPD2     N 6457   0.248   1.794  17.335 -0.0264 -0.0529  0.3677
  429MPD2    H5 6458   0.340   1.794  17.380 -1.1474 -3.2644  2.6633
  429MPD2    N1 6459   0.186   1.389  17.582  1.1915 -0.0749  0.5171
  429MPD2    H7 6460   0.286   1.390  17.598  1.3757 -3.0910 -0.5018
  430TMC3    C1 6461   0.361   1.929  17.194  0.1751  0.2244  0.5794
  430TMC3    C2 6462   0.343   2.012  17.092 -0.3046  0.6183 -0.6064
  430TMC3    C3 6463   0.462   2.050  17.030  0.2384  0.0327 -0.4132
  430TMC3    C4 6464   0.473   1.865  17.225  0.4837  0.5384 -0.3309
  430TMC3    C5 6465   0.578   1.881  17.141 -0.1104 -0.2782 -0.4470
  430TMC3    C6 6466   0.574   1.974  17.046 -0.6002  0.3556  0.4651
  430TMC3     C 6467   0.233   1.873  17.228  0.0331 -0.1864  0.5339
  430TMC3     O 6468   0.155   1.875  17.139  0.3466  0.0446 -0.2175
  430TMC3     H 6469   0.256   2.072  17.067 -0.4927  2.1122  3.5844
  430TMC3    H1 6470   0.473   1.786  17.301 -0.1913  1.2045  0.3632
  430TMC3    H2 6471   0.660   1.984  16.981 -2.0273 -0.6389 -1.5464
  430TMC3    C7 6472   0.614   1.749  17.093 -0.3076 -0.7104 -0.8414
  430TMC3    C8 6473   0.459   2.111  16.906 -0.5525 -0.0913  0.4984
  430TMC3    O1 6474   0.608   1.658  17.173  0.0532 -0.7582  1.0338
  430TMC3    O2 6475   0.536   2.205  16.886 -0.1607 -0.0695  0.4997
  431MPD2     C 6476   1.256   1.685  12.110 -0.1778 -0.4529 -0.4143
  431MPD2    C1 6477   1.325   1.690  11.991  0.0228  0.6153 -0.3848
  431MPD2    C2 6478   1.314   1.579  11.911  0.1040  0.2972 -0.0892
  431MPD2    C3 6479   1.219   1.479  11.934 -0.5953 -0.0449  0.9304
  431MPD2    C4 6480   1.144   1.487  12.056 -0.5548 -0.3704 -0.6144
  431MPD2    C5 6481   1.167   1.584  12.140 -0.2152 -0.2842 -0.3131
  431MPD2     H 6482   1.379   1.563  11.826 -0.0384  2.9709 -0.7022
  431MPD2    H1 6483   1.065   1.413  12.066 -1.3171  0.2002 -2.5681
  431MPD2    H2 6484   1.283   1.761  12.182  1.9507 -0.4494 -1.2120
  431MPD2    H3 6485   1.122   1.590  12.239 -1.1930  1.0804 -0.8362
  431MPD2     N 6486   1.183   1.369  11.854 -0.1656  0.5303  0.2308
  431MPD2    H5 6487   1.132   1.292  11.896 -1.1607  0.2938 -1.4493
  431MPD2    N1 6488   1.414   1.786  11.960  0.3210 -0.0903  0.1843
  431MPD2    H7 6489   1.461   1.758  11.874  2.5731  0.9735  1.0644
  432TMC3    C1 6490   1.213   1.202  11.675 -0.6574  0.9772 -0.2284
  432TMC3    C2 6491   1.303   1.158  11.583 -0.1384 -0.2447 -0.0370
  432TMC3    C3 6492   1.318   1.025  11.568 -0.1665  0.3595 -0.1081
  432TMC3    C4 6493   1.135   1.121  11.755  0.2371  0.9288 -0.5819
  432TMC3    C5 6494   1.143   0.985  11.730 -0.0688 -0.4387  0.3242
  432TMC3    C6 6495   1.238   0.937  11.641  0.0037  0.3628  0.4582
  432TMC3     C 6496   1.241   1.339  11.729  0.3917 -0.3939 -0.0717
  432TMC3     O 6497   1.311   1.417  11.659 -0.0935 -0.1838 -0.0060
  432TMC3     H 6498   1.365   1.235  11.540 -1.1061  0.7952  0.4358
  432TMC3    H1 6499   1.056   1.172  11.810  1.2550  2.4438 -0.5390
  432TMC3    H2 6500   1.234   0.830  11.621  0.3710  0.3359  0.5261
  432TMC3    C7 6501   1.076   0.888  11.808  0.0453 -0.1918 -0.2379
  432TMC3    C8 6502   1.449   0.978  11.527 -0.0171  0.2763 -0.5678
  432TMC3    O1 6503   1.122   0.776  11.820  0.0648 -0.0856  0.4026
  432TMC3    O2 6504   1.468   0.855  11.520 -0.1148 -0.3536  1.0054
  433MPD2     C 6505   4.268   4.692  10.454 -0.2884 -0.4962  0.3523
  433MPD2    C1 6506   4.359   4.593  10.477  0.2476  0.2896  0.5513
  433MPD2    C2 6507   4.445   4.602  10.588 -0.0575 -0.3035  0.3424
  433MPD2    C3 6508   4.445   4.714  10.671 -0.2528  0.0154  0.8496
  433MPD2    C4 6509   4.349   0.079  10.654  0.2301 -0.0545  0.3183
  433MPD2    C5 6510   4.264   0.065  10.544  0.3054 -0.3133 -0.4314
  433MPD2     H 6511   4.505   4.518  10.619  1.0597  0.2574 -0.3117
  433MPD2    H1 6512   4.334   0.172  10.708  0.8341 -0.0835  0.5345
  433MPD2    H2 6513   4.202   4.680  10.369 -1.7495 -1.0469  1.5681
  433MPD2    H3 6514   4.191   0.143  10.526 -1.7516 -1.7957  1.5219
  433MPD2     N 6515   4.528   4.708  10.782  0.3030  0.1404 -0.5672
  433MPD2    H5 6516   4.597   4.636  10.798  1.0957  0.8697 -0.7151
  433MPD2    N1 6517   4.351   4.477  10.399 -0.2974 -0.1370  0.2297
  433MPD2    H7 6518   4.262   4.467  10.350 -1.9710 -1.4790  3.5400
  434TMC3    C1 6519   4.435   4.249  10.380 -0.2149  0.1178  0.4338
  434TMC3    C2 6520   4.526   4.172  10.450 -0.8915 -0.1686  0.2805
  434TMC3    C3 6521   4.492   4.043  10.490 -0.1166 -0.1919 -0.0872
  434TMC3    C4 6522   4.305   4.205  10.368  0.2085 -0.2433 -0.2340
  434TMC3    C5 6523   4.291   4.072  10.390  0.1043 -0.5368  0.0043
  434TMC3    C6 6524   4.372   3.981  10.457 -1.0783  0.1264  0.3761
  434TMC3     C 6525   4.458   4.394  10.388 -0.6601  0.5222 -0.0088
  434TMC3     O 6526   4.576   4.430  10.392  0.5360  0.1966 -0.6008
  434TMC3     H 6527   4.608   4.222  10.501  0.3820 -3.7183  1.7153
  434TMC3    H1 6528   4.239   4.276  10.320 -2.8887 -0.2724  4.0240
  434TMC3    H2 6529   4.344   3.877  10.470 -0.2527 -0.1844 -0.2954
  434TMC3    C7 6530   4.164   4.023  10.342 -0.0998 -0.5295  0.3421
  434TMC3    C8 6531   4.574   3.982  10.593 -0.3802 -0.0124 -0.4360
  434TMC3    O1 6532   4.117   4.091  10.248 -0.2781 -0.8106 -0.1050
  434TMC3    O2 6533   4.503   3.901  10.658 -0.0963 -0.3626  0.1975
  435MPD2     C 6534   1.791   4.500  15.742  0.4171  0.2261  0.2758
  435MPD2    C1 6535   1.795   4.499  15.883  0.2303 -0.4358 -0.0697
  435MPD2    C2 6536   1.896   4.431  15.942  0.3243 -1.0914  1.1000
  435MPD2    C3 6537   1.996   4.369  15.864 -1.1744  0.4713  0.4990
  435MPD2    C4 6538   1.991   4.374  15.725 -0.0127 -0.1279 -0.1385
  435MPD2    C5 6539   1.888   4.441  15.664  0.2632 -0.4840 -0.3139
  435MPD2     H 6540   1.899   4.422  16.050 -0.0942 -2.1228  1.0210
  435MPD2    H1 6541   2.052   4.311  15.661 -0.7794 -0.3096 -0.6912
  435MPD2    H2 6542   1.710   4.550  15.690 -0.4096 -2.0495 -0.5919
  435MPD2    H3 6543   1.876   4.442  15.556  2.8664 -0.5268 -0.5937
  435MPD2     N 6544   2.085   4.285  15.934 -0.1311  0.2062 -0.5382
  435MPD2    H5 6545   2.080   4.277  16.035 -0.2670 -0.0306 -0.5629
  435MPD2    N1 6546   1.700   4.567  15.962 -0.6550  0.4826  0.1590
  435MPD2    H7 6547   1.722   4.580  16.061  0.3943 -0.3533  0.0394
  436TMC3    C1 6548   1.455   4.726  16.245 -0.4182  0.2337  0.2728
  436TMC3    C2 6549   1.542   4.685  16.155  0.1711 -0.2436 -0.4115
  436TMC3    C3 6550   1.499   4.672  16.026 -0.2014 -0.2209 -0.3932
  436TMC3    C4 6551   1.321   0.012  16.212  0.2300  0.4115  0.3574
  436TMC3    C5 6552   1.278   4.724  16.088  0.4390  0.4097 -0.7471
  436TMC3    C6 6553   1.367   4.684  15.995 -0.2692  0.2157  0.4921
  436TMC3     C 6554   1.501   0.031  16.378  0.8956 -0.0882 -0.2419
  436TMC3     O 6555   1.622   0.010  16.402 -0.3226  0.9566 -0.1332
  436TMC3     H 6556   1.645   4.691  16.189  0.5418 -1.4109 -1.3393
  436TMC3    H1 6557   1.262   0.070  16.281  0.5610 -0.3826  1.3007
  436TMC3    H2 6558   1.343   4.702  15.890  1.0851  0.7011  0.2611
  436TMC3    C7 6559   1.148   0.031  16.044 -0.0053  0.4326  1.2229
  436TMC3    C8 6560   1.578   4.618  15.917  0.9564  0.3077 -0.1527
  436TMC3    O1 6561   1.129   0.031  15.923  0.7672  0.0619 -0.1842
  436TMC3    O2 6562   1.535   4.628  15.803  0.4929  0.5962 -0.2861
  437TMC3    C1 6563   0.962   2.324  11.802  0.1324 -0.2477  0.2777
  437TMC3    C2 6564   0.916   2.305  11.672  0.8784  0.2166  0.2534
  437TMC3    C3 6565   1.005   2.282  11.569  0.4472  0.6498 -0.4052
  437TMC3    C4 6566   1.095   2.335  11.831  0.4738 -0.0235 -0.4895
  437TMC3    C5 6567   1.181   2.312  11.726 -0.3418 -0.0974 -0.3987
  437TMC3    C6 6568   1.145   2.284  11.595  0.2046 -0.1098  0.7761
  437TMC3     C 6569   0.863   2.290  11.906 -0.1271 -0.5780 -0.7688
  437TMC3     O 6570   0.747   2.271  11.872  0.7193 -0.4116  0.2659
  437TMC3     H 6571   0.809   2.305  11.660  0.9644  0.8739 -0.4938
  437TMC3    H1 6572   1.135   2.362  11.928 -1.6234 -0.5058  0.5117
  437TMC3    H2 6573   1.218   2.288  11.515  0.4181 -0.0132  0.9765
  437TMC3    C7 6574   1.323   2.321  11.742 -0.9340 -0.1190 -0.2344
  437TMC3    C8 6575   0.945   2.239  11.441  1.2112 -0.0918  0.2203
  437TMC3    O1 6576   1.388   2.262  11.657  0.1857 -0.5090  0.4903
  437TMC3    O2 6577   0.829   2.277  11.413  0.0566 -0.5590 -0.0844
  438MPD2     C 6578   3.198   3.457  16.963 -0.0698  0.1003 -0.9704
  438MPD2    C1 6579   3.224   3.327  17.004 -1.4840  0.4960 -0.0318
  438MPD2    C2 6580   3.160   3.282  17.120 -0.7311  0.2858  0.3330
  438MPD2    C3 6581   3.070   3.356  17.187  0.4804 -0.0915 -0.7948
  438MPD2    C4 6582   3.052   3.486  17.161  0.0379 -0.2081 -0.1993
  438MPD2    C5 6583   3.120   3.529  17.043  0.0655  0.0231 -0.4967
  438MPD2     H 6584   3.195   3.187  17.158  1.0006  0.1689 -1.5771
  438MPD2    H1 6585   2.983   3.548  17.217  2.2527  1.8418  0.2215
  438MPD2    H2 6586   3.249   3.497  16.876  3.5948  0.1795  1.2155
  438MPD2    H3 6587   3.092   3.628  17.007 -2.2255 -0.8119 -1.0358
  438MPD2     N 6588   2.999   3.291  17.288  0.1142 -0.4463 -0.0738
  438MPD2    H5 6589   2.941   3.349  17.348  1.5702  0.6322  0.3075
  438MPD2    N1 6590   3.328   3.245  16.951  0.8977  0.6167 -0.3093
  438MPD2    H7 6591   3.339   3.157  17.001 -1.3054  0.7720  0.4386
  439TMC3    C1 6592   3.533   3.169  16.861  0.5915 -0.9299  0.0292
  439TMC3    C2 6593   3.608   3.142  16.746 -0.1226 -0.7624 -0.1348
  439TMC3    C3 6594   3.684   3.031  16.752  0.5693 -0.1030 -0.0414
  439TMC3    C4 6595   3.546   3.096  16.979 -0.7973  0.6196 -0.1377
  439TMC3    C5 6596   3.617   2.977  16.975  0.0467  0.2673  0.2525
  439TMC3    C6 6597   3.685   2.951  16.863  0.4493  0.3037 -0.4536
  439TMC3     C 6598   3.429   3.271  16.864 -0.2852  0.3046  0.4944
  439TMC3     O 6599   3.439   3.361  16.783  0.1103 -0.3848 -0.3012
  439TMC3     H 6600   3.605   3.209  16.661 -1.5384 -0.0766  0.4528
  439TMC3    H1 6601   3.506   3.131  17.074 -1.4942  1.3854 -0.7180
  439TMC3    H2 6602   3.715   2.847  16.852 -0.3100 -0.0939  1.2667
  439TMC3    C7 6603   3.634   2.896  17.094  0.3874 -0.5833 -0.3541
  439TMC3    C8 6604   3.715   2.960  16.628 -0.3667 -0.7741  1.1212
  439TMC3    O1 6605   3.743   2.844  17.099 -0.2727 -0.4246  0.1404
  439TMC3    O2 6606   3.800   2.867  16.633  0.1142 -0.4425  0.4239
  440MPD2     C 6607   1.561   3.142  14.603  0.2667 -0.0932 -0.4500
  440MPD2    C1 6608   1.570   3.216  14.718  0.1056 -0.0560  0.5318
  440MPD2    C2 6609   1.687   3.212  14.778 -0.3176 -0.0448  0.0698
  440MPD2    C3 6610   1.804   3.164  14.722 -0.0173 -0.0804 -0.0108
  440MPD2    C4 6611   1.792   3.088  14.609  0.2016 -0.0013  0.0060
  440MPD2    C5 6612   1.672   3.081  14.548 -0.6837  0.2198  0.0331
  440MPD2     H 6613   1.708   3.273  14.866 -0.6647 -0.4713  0.4449
  440MPD2    H1 6614   1.878   3.046  14.557 -0.8018 -1.9403 -0.1007
  440MPD2    H2 6615   1.477   3.121  14.537 -1.2383 -0.2197  1.5074
  440MPD2    H3 6616   1.658   3.023  14.457  1.8605 -1.5600  0.7682
  440MPD2     N 6617   1.925   3.179  14.797  0.6066  0.3040 -0.0962
  440MPD2    H5 6618   1.912   3.224  14.887  2.5958 -0.2603  0.4725
  440MPD2    N1 6619   1.462   3.292  14.772 -0.2269  0.2647 -0.1973
  440MPD2    H7 6620   1.481   3.330  14.864  2.5793  1.4730 -1.2641
  441TMC3    C1 6621   2.116   3.105  14.900 -0.8928 -0.3274 -0.0551
  441TMC3    C2 6622   2.136   3.230  14.960  1.2419 -0.7315 -0.1275
  441TMC3    C3 6623   2.227   3.240  15.066  0.6524  0.6471  0.4365
  441TMC3    C4 6624   2.168   2.991  14.951 -1.6598 -0.0441  0.4364
  441TMC3    C5 6625   2.235   3.006  15.072 -0.0858  0.2283  0.1052
  441TMC3    C6 6626   2.268   3.125  15.126 -0.6931 -0.2051  0.0822
  441TMC3     C 6627   2.036   3.101  14.781  0.8059 -0.2650  0.2044
  441TMC3     O 6628   2.069   3.021  14.696 -0.0630  0.5931  0.2805
  441TMC3     H 6629   2.086   3.312  14.911 -0.7384 -1.3444  0.8645
  441TMC3    H1 6630   2.134   2.893  14.921 -0.2254 -0.3288 -0.2428
  441TMC3    H2 6631   2.324   3.128  15.219 -0.4434  3.5213 -0.1841
  441TMC3    C7 6632   2.206   2.897  15.162 -0.0534 -0.0426 -0.6231
  441TMC3    C8 6633   2.213   3.350  15.162 -1.1547 -0.4695  0.1875
  441TMC3    O1 6634   2.101   2.845  15.148  0.4521  0.2335  0.6874
  441TMC3    O2 6635   2.293   3.348  15.256  0.4675  0.4231  0.0444
  442MPD2     C 6636   0.397   3.461  16.193  0.0650 -0.2074 -0.6904
  442MPD2    C1 6637   0.308   3.382  16.261 -0.0189 -0.3471 -0.0564
  442MPD2    C2 6638   0.264   3.271  16.187  0.7286 -0.1490 -0.5946
  442MPD2    C3 6639   0.280   3.261  16.047  0.2033  0.1107 -0.5148
  442MPD2    C4 6640   0.354   3.360  15.988 -0.6482 -0.5394 -0.5404
  442MPD2    C5 6641   0.420   3.451  16.060 -0.6444  0.4646 -0.9591
  442MPD2     H 6642   0.205   3.199  16.244  0.2073  0.2738 -0.5967
  442MPD2    H1 6643   0.373   3.372  15.882  0.4185  1.7988 -0.0835
  442MPD2    H2 6644   0.465   3.534  16.234 -0.0440 -1.3947  1.6031
  442MPD2    H3 6645   0.486   3.522  16.014  1.2457 -0.4308  0.3778
  442MPD2     N 6646   0.210   3.155  15.985  0.7435 -0.5939 -0.3031
  442MPD2    H5 6647   0.166   3.086  16.045 -0.2663  0.9991  0.7970
  442MPD2    N1 6648   0.294   3.393  16.397  0.2182  0.2369 -0.1361
  442MPD2    H7 6649   0.224   3.328  16.432  0.4351  0.0040 -0.1314
  443TMC3    C1 6650   0.325   3.454  16.628  0.8175 -0.4466 -0.0615
  443TMC3    C2 6651   0.376   3.545  16.717 -0.5895  0.3622  0.5195
  443TMC3    C3 6652   0.342   3.542  16.852  0.8223 -0.3034 -0.2514
  443TMC3    C4 6653   0.245   3.346  16.664  0.5646 -0.5057 -0.1340
  443TMC3    C5 6654   0.215   3.341  16.796 -0.1018 -0.4444  0.3577
  443TMC3    C6 6655   0.258   3.437  16.886  0.5934 -0.0210  0.7792
  443TMC3     C 6656   0.345   3.489  16.487  0.0301 -0.1063  0.2598
  443TMC3     O 6657   0.419   3.580  16.463  0.0626 -0.2703  0.0119
  443TMC3     H 6658   0.416   3.632  16.667 -1.0457  1.3585  1.9112
  443TMC3    H1 6659   0.217   3.268  16.594  2.1727  0.1530 -1.4908
  443TMC3    H2 6660   0.216   3.442  16.986 -0.8235  1.0005  0.1415
  443TMC3    C7 6661   0.087   3.280  16.833  0.2223 -0.1628  0.1403
  443TMC3    C8 6662   0.323   3.669  16.913 -0.1579 -0.1000  0.6081
  443TMC3    O1 6663   0.001   3.250  16.749  0.1956  0.0142  0.2612
  443TMC3    O2 6664   0.354   3.674  17.032 -0.0995 -0.4816 -0.4121
  444MPD2     C 6665   0.611   3.033  17.310  0.5720 -0.0888  0.1973
  444MPD2    C1 6666   0.481   2.999  17.273 -0.3577 -0.4589 -0.0757
  444MPD2    C2 6667   0.479   2.902  17.177 -0.0410  0.2254 -0.0438
  444MPD2    C3 6668   0.595   2.835  17.126  0.1520 -0.0749  0.5305
  444MPD2    C4 6669   0.714   2.872  17.178  0.0824 -0.3309 -0.0302
  444MPD2    C5 6670   0.718   2.975  17.265 -0.4901  0.0060 -0.5803
  444MPD2     H 6671   0.380   2.867  17.151 -0.8435  1.9933  0.5956
  444MPD2    H1 6672   0.808   2.823  17.154 -0.2236 -0.8459 -0.1930
  444MPD2    H2 6673   0.625   3.114  17.381  0.2524 -0.1054  0.2791
  444MPD2    H3 6674   0.811   3.015  17.302 -0.8962  1.2705 -0.9295
  444MPD2     N 6675   0.575   2.745  17.019  0.6768  0.2563 -0.0952
  444MPD2    H5 6676   0.481   2.714  16.998  0.8847 -0.9193  0.7098
  444MPD2    N1 6677   0.365   3.044  17.332  0.3306  0.3349  0.4211
  444MPD2    H7 6678   0.279   2.993  17.313  0.9427  0.0692 -1.6914
  445TMC3    C1 6679   0.622   2.581  16.855  0.5194 -0.5346  0.0129
  445TMC3    C2 6680   0.500   2.600  16.794  0.1490  0.5230  0.2653
  445TMC3    C3 6681   0.484   2.525  16.679 -0.6070 -0.0672 -0.3470
  445TMC3    C4 6682   0.716   2.499  16.802 -0.1474  0.1851  0.3548
  445TMC3    C5 6683   0.693   2.432  16.682  0.1234  0.4868 -0.1382
  445TMC3    C6 6684   0.572   2.436  16.611  0.6897  0.2803  0.4555
  445TMC3     C 6685   0.668   2.683  16.949 -0.1351 -0.2084  0.9213
  445TMC3     O 6686   0.788   2.709  16.946  0.6673 -0.4221 -1.0556
  445TMC3     H 6687   0.429   2.678  16.819 -1.3312 -0.5178 -0.6858
  445TMC3    H1 6688   0.812   2.503  16.851  0.5596 -3.6949 -0.6684
  445TMC3    H2 6689   0.555   2.396  16.512  1.2993  0.1004  0.4207
  445TMC3    C7 6690   0.807   2.367  16.613 -0.4510 -0.0337  0.1067
  445TMC3    C8 6691   0.345   2.528  16.628  0.7633 -0.4100  0.2784
  445TMC3    O1 6692   0.798   2.346  16.491  0.6220 -0.7181 -0.2937
  445TMC3    O2 6693   0.278   2.626  16.652  0.1804  0.2782  0.1206
  446MPD2     C 6694   4.159   3.996  11.093  0.5194 -0.1004 -0.9413
  446MPD2    C1 6695   4.181   4.003  10.954 -0.3457 -0.4907  0.5776
  446MPD2    C2 6696   4.296   4.063  10.899  0.8553 -0.1393  0.3083
  446MPD2    C3 6697   4.401   4.096  10.984  0.2521  0.2441  0.0295
  446MPD2    C4 6698   4.387   4.078  11.123 -0.0997 -0.2586 -0.3888
  446MPD2    C5 6699   4.267   4.034  11.176 -0.4937  0.0351  0.1121
  446MPD2     H 6700   4.306   4.070  10.791  1.5713 -2.0667  0.2446
  446MPD2    H1 6701   4.462   4.102  11.197  0.5402  0.5425 -1.2937
  446MPD2    H2 6702   4.072   3.954  11.142 -0.9252  1.7723 -1.9099
  446MPD2    H3 6703   4.247   4.038  11.282 -0.9962 -0.4864  0.0368
  446MPD2     N 6704   4.530   4.128  10.929 -0.0998 -0.0306 -0.0486
  446MPD2    H5 6705   4.530   4.168  10.835 -0.2610 -0.0939 -0.0761
  446MPD2    N1 6706   4.082   3.959  10.862  0.9124 -0.4754  0.7890
  446MPD2    H7 6707   4.112   3.966  10.765 -1.6646 -2.2472 -0.1629
  447TMC3    C1 6708   0.020   4.175  10.931 -0.1790 -0.0936  0.1087
  447TMC3    C2 6709   4.735   4.262  10.828 -0.1291 -0.7645  0.1716
  447TMC3    C3 6710   0.110   4.307  10.764 -0.5191 -0.3297  0.3334
  447TMC3    C4 6711   0.146   4.135  10.953 -0.3561  0.0021 -0.2364
  447TMC3    C5 6712   0.257   4.182  10.884 -0.1442 -0.0883  0.0233
  447TMC3    C6 6713   0.237   4.274  10.785 -0.9584 -0.1655 -0.1356
  447TMC3     C 6714   4.650   4.111  11.004  0.7211  0.4012 -1.0982
  447TMC3     O 6715   4.662   4.038  11.103  0.1599 -0.2179 -0.2254
  447TMC3     H 6716   4.638   4.307  10.809  0.5810  1.0325  0.8384
  447TMC3    H1 6717   0.155   4.066  11.036  2.6841 -1.7644 -2.0453
  447TMC3    H2 6718   0.324   4.315  10.736 -2.4007  2.0894 -0.8026
  447TMC3    C7 6719   0.387   4.113  10.891 -0.1250  0.4115  0.5265
  447TMC3    C8 6720   0.086   4.431  10.697  0.1434  0.1786 -0.2772
  447TMC3    O1 6721   0.474   4.157  10.817  0.1330  0.2838 -0.6209
  447TMC3    O2 6722   4.733   4.499  10.740  0.4022 -0.2940 -0.3100
  448TMC3    C1 6723   3.546   0.005  17.612  0.2521 -0.4843 -0.4569
  448TMC3    C2 6724   3.534   4.694  17.485  0.0798 -0.1340  0.5873
  448TMC3    C3 6725   3.606   4.582  17.451  0.4980 -0.2653  0.1505
  448TMC3    C4 6726   3.617   4.681  17.711 -0.5061  0.1379  0.4432
  448TMC3    C5 6727   3.689   4.563  17.674  0.3917  0.1659 -0.1921
  448TMC3    C6 6728   3.690   4.525  17.542 -0.0879  0.3032  0.9399
  448TMC3     C 6729   3.459   0.120  17.639 -0.6755 -0.6898  0.8292
  448TMC3     O 6730   3.352   0.133  17.588 -0.3949  0.4800  0.1664
  448TMC3     H 6731   3.479   0.017  17.413  0.1565 -1.0503 -0.2172
  448TMC3    H1 6732   3.620   4.727   0.065  2.3244  0.9393 -0.0012
  448TMC3    H2 6733   3.746   4.436  17.515 -0.8153  0.1381 -0.0088
  448TMC3    C7 6734   3.786   4.502   0.013  0.1600  0.4457 -0.9809
  448TMC3    C8 6735   3.586   4.495  17.338 -1.0388  0.7868 -0.8062
  448TMC3    O1 6736   3.890   4.457  17.720  0.2521 -0.0059  0.6986
  448TMC3    O2 6737   3.658   4.398  17.318  0.1610  0.6103 -0.6513
  449MPD2     C 6738   4.702   3.473  14.212  0.1420  0.2166  0.1094
  449MPD2    C1 6739   4.643   3.354  14.188  0.4308  0.4112 -0.5788
  449MPD2    C2 6740   4.667   3.249  14.273  0.5460 -0.2205 -0.1561
  449MPD2    C3 6741   0.017   3.255  14.378 -0.3171 -0.0783 -0.0224
  449MPD2    C4 6742   0.083   3.376  14.397  0.2929 -0.1173 -0.7481
  449MPD2    C5 6743   0.049   3.482  14.317  0.8707  0.2227 -0.4003
  449MPD2     H 6744   4.620   3.152  14.261 -0.1978  0.0792  0.3265
  449MPD2    H1 6745   0.133   3.392  14.492 -0.1744 -2.4418 -0.1040
  449MPD2    H2 6746   4.700   3.555  14.141 -0.8763 -0.0856 -0.2100
  449MPD2    H3 6747   0.104   3.570  14.349 -0.7271  1.0035  0.1964
  449MPD2     N 6748   0.047   3.135  14.448 -0.6403 -0.4262 -0.4045
  449MPD2    H5 6749   0.004   3.050  14.414 -2.1251 -0.4697  1.5617
  449MPD2    N1 6750   4.563   3.334  14.073  0.2161  0.1981 -0.6514
  449MPD2    H7 6751   4.509   3.248  14.077 -0.0254  0.5077  3.0322
  450TMC3    C1 6752   4.444   3.343  13.878 -0.5242  0.2130 -0.4850
  450TMC3    C2 6753   4.496   3.332  13.752 -0.4655 -0.2667 -0.8829
  450TMC3    C3 6754   4.502   3.208  13.692 -0.2320 -0.0747  0.4655
  450TMC3    C4 6755   4.388   3.235  13.936  0.0701  0.6298 -0.5000
  450TMC3    C5 6756   4.398   3.110  13.880  0.3605  0.4217  0.1944
  450TMC3    C6 6757   4.454   3.093  13.752  0.5504 -0.1310  0.5315
  450TMC3     C 6758   4.529   3.419  13.971 -0.1542 -0.2865  0.6491
  450TMC3     O 6759   4.584   3.523  13.938  0.7422 -0.2420 -0.6379
  450TMC3     H 6760   4.526   3.415  13.690 -3.8937  0.2475 -1.8662
  450TMC3    H1 6761   4.342   3.243  14.034  1.9143  0.8380  0.3387
  450TMC3    H2 6762   4.446   2.998  13.700 -1.5870  0.4934 -0.2807
  450TMC3    C7 6763   4.435   3.013  13.976 -0.4987  0.0315 -0.2390
  450TMC3    C8 6764   4.529   3.213  13.547 -0.4238 -0.2713  0.0194
  450TMC3    O1 6765   4.499   3.060  14.069 -0.3060 -0.3525 -0.2845
  450TMC3    O2 6766   4.488   3.306  13.477  0.1807 -0.0199 -0.0659
  451MPD2     C 6767   1.598   2.057   0.412 -0.5216 -0.0314  0.3802
  451MPD2    C1 6768   1.538   1.971   0.501  0.8507  0.3052  0.0983
  451MPD2    C2 6769   1.547   1.838   0.479 -0.1302  0.3779  0.3222
  451MPD2    C3 6770   1.605   1.782   0.364 -0.7353  0.2172 -0.8116
  451MPD2    C4 6771   1.661   1.871   0.273 -0.2467 -0.3049 -0.5664
  451MPD2    C5 6772   1.666   2.007   0.301 -0.6366  0.2162 -0.0097
  451MPD2     H 6773   1.508   1.768   0.553 -0.4675  0.0285 -0.1808
  451MPD2    H1 6774   1.721   1.835   0.190 -1.2445 -0.0048 -1.4218
  451MPD2    H2 6775   1.591   2.164   0.426  0.3764  0.1238 -0.3077
  451MPD2    H3 6776   1.711   2.075   0.230 -0.4850 -1.1820 -1.2610
  451MPD2     N 6777   1.629   1.650   0.341  0.1383  0.1305  0.4315
  451MPD2    H5 6778   1.673   1.627   0.253 -1.0750 -0.6695  0.0220
  451MPD2    N1 6779   1.473   2.042   0.613  0.2988 -0.2387  0.6525
  451MPD2    H7 6780   1.466   2.143   0.603  1.3546 -0.2784 -0.5696
  452TMC3    C1 6781   1.622   1.415   0.378  0.4415 -0.1132 -0.4256
  452TMC3    C2 6782   1.548   1.309   0.406 -0.4575  0.6489 -0.5416
  452TMC3    C3 6783   1.594   1.180   0.384  0.3463  0.4311  0.5277
  452TMC3    C4 6784   1.741   1.396   0.316  0.0005 -0.8553  0.1536
  452TMC3    C5 6785   1.787   1.269   0.299 -0.0917 -0.6439 -0.5661
  452TMC3    C6 6786   1.716   1.156   0.326  0.4290 -0.3534 -0.6229
  452TMC3     C 6787   1.565   1.547   0.410 -0.1732  0.9212  0.2766
  452TMC3     O 6788   1.459   1.556   0.473  0.3046  0.5871  0.3384
  452TMC3     H 6789   1.445   1.328   0.435 -0.4634  2.0164 -1.4272
  452TMC3    H1 6790   1.809   1.476   0.291 -0.7430 -0.3084 -0.1032
  452TMC3    H2 6791   1.735   1.056   0.286  0.0224 -1.3522  1.6839
  452TMC3    C7 6792   1.919   1.252   0.239 -0.0136  0.2561 -0.2499
  452TMC3    C8 6793   1.519   1.062   0.418 -0.5027  0.2582  0.1957
  452TMC3    O1 6794   1.973   1.352   0.197  0.3724 -0.1220 -0.0048
  452TMC3    O2 6795   1.561   0.950   0.383 -0.0629 -0.3155  0.2651
  453TMC3    C1 6796   2.194   3.675  12.056  0.4709 -0.0752 -0.0674
  453TMC3    C2 6797   2.086   3.603  12.091  0.4440  1.1163  0.5741
  453TMC3    C3 6798   1.962   3.657  12.061  0.8787 -0.4397 -0.0118
  453TMC3    C4 6799   2.182   3.791  11.989  0.2024  0.2800 -0.0550
  453TMC3    C5 6800   2.061   3.833  11.944  0.6229 -0.7551 -0.8952
  453TMC3    C6 6801   1.950   3.768  11.984  0.2735 -0.6327 -0.0295
  453TMC3     C 6802   2.326   3.632  12.115 -0.0209 -0.3603 -0.0927
  453TMC3     O 6803   2.424   3.706  12.100  0.8147  0.5560  0.2805
  453TMC3     H 6804   2.080   3.508  12.142  0.7278 -0.4675 -2.3573
  453TMC3    H1 6805   2.277   3.834  11.960  0.1996  0.6094  0.4174
  453TMC3    H2 6806   1.853   3.801  11.948  0.8008 -0.8310 -1.6517
  453TMC3    C7 6807   2.054   3.905  11.817  0.2430  0.4124 -0.5070
  453TMC3    C8 6808   1.863   3.552  12.023 -0.0206  0.5008 -0.2700
  453TMC3    O1 6809   1.941   3.912  11.769  0.8946  0.0481  0.1753
  453TMC3    O2 6810   1.763   3.593  11.965  0.3664  0.1817 -0.4801
  454MPD2     C 6811   1.032   2.607  16.324  0.4059  0.0144 -0.6200
  454MPD2    C1 6812   1.017   2.639  16.191 -0.2866  0.3745 -0.0426
  454MPD2    C2 6813   0.969   2.769  16.161 -0.4204  0.3373  0.4981
  454MPD2    C3 6814   0.927   2.854  16.263 -0.6362  0.2174 -0.3714
  454MPD2    C4 6815   0.951   2.823  16.397  0.1936 -0.2548 -0.5757
  454MPD2    C5 6816   1.006   2.696  16.421  0.3414 -0.3449 -0.0180
  454MPD2     H 6817   0.958   2.789  16.055  0.2781  1.6211  0.6668
  454MPD2    H1 6818   0.919   2.896  16.470 -0.2195  1.0732 -2.0696
  454MPD2    H2 6819   1.067   2.506  16.346 -1.3716 -0.6913 -1.0035
  454MPD2    H3 6820   1.022   2.682  16.527  0.0608  0.4324  0.1297
  454MPD2     N 6821   0.854   2.969  16.237  0.7222  0.1478 -0.0173
  454MPD2    H5 6822   0.812   3.010  16.321 -0.7801  0.5097 -0.9471
  454MPD2    N1 6823   1.052   2.553  16.078  0.1149 -0.0339  0.5167
  454MPD2    H7 6824   1.058   2.602  15.989 -0.1470 -0.9336  0.0086
  455TMC3    C1 6825   0.705   3.113  16.123  0.3126 -0.5026  0.1491
  455TMC3    C2 6826   0.683   3.142  16.254 -0.1503  0.1220  0.3248
  455TMC3    C3 6827   0.561   3.108  16.312  0.1047 -0.1619 -0.7799
  455TMC3    C4 6828   0.602   3.057  16.050  0.0543 -0.3225  0.4029
  455TMC3    C5 6829   0.489   2.999  16.116 -0.1276 -0.1868 -0.5086
  455TMC3    C6 6830   0.466   3.036  16.245  0.2539  0.0705 -1.4630
  455TMC3     C 6831   0.815   3.021  16.111  0.4276  0.0666 -0.2682
  455TMC3     O 6832   0.835   2.971  15.999 -0.0845  0.0874 -0.0754
  455TMC3     H 6833   0.761   3.189  16.313  1.6960 -0.9285 -1.2894
  455TMC3    H1 6834   0.628   3.018  15.952 -0.8735 -1.0137  0.4364
  455TMC3    H2 6835   0.380   2.998  16.299  0.3533 -0.1075 -1.4312
  455TMC3    C7 6836   0.445   2.876  16.063 -0.0267 -0.5881 -0.6450
  455TMC3    C8 6837   0.563   3.126  16.456 -0.0864  0.2676 -1.2245
  455TMC3    O1 6838   0.435   2.866  15.942  0.0572 -0.4743  0.3344
  455TMC3    O2 6839   0.671   3.126  16.504 -0.9397  0.3400  0.0184
  456MPD2     C 6840   3.432   3.499  16.260  1.1706 -0.3477  0.8697
  456MPD2    C1 6841   3.541   3.454  16.327 -0.5781  0.6678  0.8757
  456MPD2    C2 6842   3.561   3.488  16.456  0.0226 -0.0602 -0.2619
  456MPD2    C3 6843   3.475   3.584  16.516  0.2619 -0.0942  0.3645
  456MPD2    C4 6844   3.373   3.635  16.441  0.3029  0.0133 -0.3595
  456MPD2    C5 6845   3.346   3.591  16.317 -0.8494  0.0310  0.2902
  456MPD2     H 6846   3.646   3.434  16.495  0.0888 -1.1045 -1.8194
  456MPD2    H1 6847   3.303   3.707  16.481  3.6444  2.6955  0.6104
  456MPD2    H2 6848   3.405   3.479  16.157  2.5082 -0.6555  0.5827
  456MPD2    H3 6849   3.276   3.643  16.253  0.6633 -0.8625 -2.0677
  456MPD2     N 6850   3.503   3.629  16.647 -0.2150  0.2203 -0.2051
  456MPD2    H5 6851   3.596   3.600  16.678 -1.0898 -1.8716  0.4467
  456MPD2    N1 6852   3.614   3.355  16.259 -0.4414 -0.0272  0.8553
  456MPD2    H7 6853   3.591   3.338  16.162  1.6492 -1.0477  0.5382
  457TMC3    C1 6854   3.485   3.743  16.856  0.3151 -0.4047  0.1215
  457TMC3    C2 6855   3.476   3.878  16.882  0.7281 -0.2040 -0.3865
  457TMC3    C3 6856   3.575   3.934  16.953 -0.3454  0.1725  0.0800
  457TMC3    C4 6857   3.584   3.662  16.901 -0.7010  0.2249  0.0499
  457TMC3    C5 6858   3.692   3.733  16.961  0.6320 -0.3552 -0.4483
  457TMC3    C6 6859   3.681   3.862  17.004  0.9722  0.1214  0.9624
  457TMC3     C 6860   3.425   3.714  16.729 -0.8215 -0.6860  0.1120
  457TMC3     O 6861   3.325   3.780  16.698  0.2852 -0.1898  0.2556
  457TMC3     H 6862   3.390   3.937  16.852  0.3738  0.5307  2.0564
  457TMC3    H1 6863   3.590   3.554  16.891  2.2926  0.5899 -2.1197
  457TMC3    H2 6864   3.770   3.910  17.041  2.3210 -1.3529 -0.3955
  457TMC3    C7 6865   3.786   3.651  17.028 -0.4954  0.0724 -0.2157
  457TMC3    C8 6866   3.571   4.070  16.995 -0.0495 -0.9024  0.0750
  457TMC3    O1 6867   3.749   3.554  17.093  0.1521 -0.5101 -0.0603
  457TMC3    O2 6868   3.669   4.101  17.064 -0.4102  0.3905  0.5091
  458MPD2     C 6869   1.769   2.429  11.977  0.0129 -0.2046  0.2397
  458MPD2    C1 6870   1.667   2.473  12.060 -0.2250 -0.1592 -0.5302
  458MPD2    C2 6871   1.536   2.470  12.019  0.2668  0.3834 -0.0717
  458MPD2    C3 6872   1.501   2.391  11.906 -0.2084  0.3112 -0.1321
  458MPD2    C4 6873   1.603   2.339  11.832 -0.0437  0.5886 -0.5118
  458MPD2    C5 6874   1.733   2.364  11.862  0.3718 -0.0349 -0.1676
  458MPD2     H 6875   1.453   2.510  12.078 -0.4914 -0.0103 -0.8758
  458MPD2    H1 6876   1.591   2.292  11.736 -0.2477 -0.4438  0.0190
  458MPD2    H2 6877   1.873   2.445  12.004  0.5951  0.8593 -2.5796
  458MPD2    H3 6878   1.816   2.335  11.798  0.1045 -0.6456 -0.2336
  458MPD2     N 6879   1.364   2.376  11.865  0.5618  0.2542  0.0170
  458MPD2    H5 6880   1.286   2.409  11.921 -0.5248 -0.6327 -0.9728
  458MPD2    N1 6881   1.710   2.519  12.185  0.3978 -0.0458 -0.1446
  458MPD2    H7 6882   1.809   2.534  12.198  0.8852 -2.7819 -0.7783
  459TMC3    C1 6883   1.724   2.600  12.406 -0.1042  0.2360  0.1246
  459TMC3    C2 6884   1.851   2.642  12.388  0.6748  0.2896 -0.3869
  459TMC3    C3 6885   1.927   2.686  12.493 -0.0370  0.0659  0.4400
  459TMC3    C4 6886   1.674   2.596  12.532  0.2590  0.2811  0.1381
  459TMC3    C5 6887   1.744   2.636  12.635 -0.6744 -0.5638  0.3052
  459TMC3    C6 6888   1.865   2.698  12.620 -0.1580  0.2476  1.1110
  459TMC3     C 6889   1.639   2.553  12.297 -0.1620 -0.1339 -0.3493
  459TMC3     O 6890   1.519   2.548  12.313 -0.4405  0.7631  0.1472
  459TMC3     H 6891   1.886   2.650  12.286  0.7397 -2.9921 -0.6203
  459TMC3    H1 6892   1.574   2.553  12.539 -1.3242  4.0289  0.7141
  459TMC3    H2 6893   1.927   2.722  12.706  2.6917 -1.6405 -0.4111
  459TMC3    C7 6894   1.683   2.623  12.762  0.4624 -0.2232  0.1060
  459TMC3    C8 6895   2.049   2.744  12.444  0.2934 -0.6930  0.0920
  459TMC3    O1 6896   1.718   2.704  12.844 -0.9001 -0.0779 -0.1624
  459TMC3    O2 6897   2.048   2.795  12.335  0.5344 -0.0243 -0.0415
  460MPD2     C 6898   0.300   4.569  10.432 -0.1267  0.0184 -0.0663
  460MPD2    C1 6899   0.190   4.561  10.509  0.9060 -0.2840  0.2284
  460MPD2    C2 6900   0.091   4.643  10.489 -0.0836 -0.5307  0.0423
  460MPD2    C3 6901   0.088   0.018  10.403  0.3185  0.2656  0.6771
  460MPD2    C4 6902   0.199   0.024  10.324 -0.3266 -0.1967 -0.2835
  460MPD2    C5 6903   0.306   4.671  10.336  0.0809  0.1137  0.1646
  460MPD2     H 6904   4.734   4.627  10.542  0.0146 -1.5794 -0.1054
  460MPD2    H1 6905   0.198   0.092  10.240 -1.3998 -0.9143 -0.8531
  460MPD2    H2 6906   0.388   4.508  10.447 -0.8666 -1.5956 -2.3384
  460MPD2    H3 6907   0.394   4.677  10.274  0.0833  5.5750  0.6824
  460MPD2     N 6908   4.707   0.082  10.369  0.0085  0.5854  0.0388
  460MPD2    H5 6909   4.624   0.048  10.417  0.2625  0.4190  0.3642
  460MPD2    N1 6910   0.190   4.459  10.609 -0.1202 -0.2160  0.2007
  460MPD2    H7 6911   0.260   4.387  10.597 -0.2027  0.0636 -2.0255
  461TMC3    C1 6912   4.544   0.165  10.237  0.3869  0.4523 -0.5901
  461TMC3    C2 6913   4.500   0.039  10.207  0.4026  0.1789 -0.2640
  461TMC3    C3 6914   4.381   0.026  10.144 -0.4857 -0.4233  0.1780
  461TMC3    C4 6915   4.468   0.272  10.197 -0.1543  0.3662 -0.5455
  461TMC3    C5 6916   4.347   0.253  10.141 -0.6168 -0.0664  0.8867
  461TMC3    C6 6917   4.297   0.128  10.112  0.7154 -0.3367 -0.0687
  461TMC3     C 6918   4.688   0.173  10.268 -0.0356  0.0420  0.2599
  461TMC3     O 6919   0.013   0.255  10.201  0.1355 -0.3033 -0.2840
  461TMC3     H 6920   4.552   4.683  10.231 -2.0147 -0.9528  0.6428
  461TMC3    H1 6921   4.517   0.367  10.215 -0.0392 -0.0893  1.5292
  461TMC3    H2 6922   4.206   0.120  10.054  0.3593 -1.3520  0.6273
  461TMC3    C7 6923   4.257   0.368  10.126  0.0044  0.6262  0.6818
  461TMC3    C8 6924   4.348   4.638  10.080 -0.1144 -0.9244  0.8110
  461TMC3    O1 6925   4.155   0.352  10.053  0.1718  0.2152 -0.2514
  461TMC3    O2 6926   4.446   4.574  10.052 -0.6951 -0.0094  0.3023
  462TMC3    C1 6927   0.227   1.463   0.795 -0.3798  0.1353 -0.2413
  462TMC3    C2 6928   0.277   1.559   0.712  0.2149 -0.7603 -0.2386
  462TMC3    C3 6929   0.270   1.534   0.574 -0.4167  0.3704 -0.6721
  462TMC3    C4 6930   0.150   1.359   0.748 -0.3823  0.0174  0.2069
  462TMC3    C5 6931   0.135   1.349   0.611  0.2494  0.0715  0.0520
  462TMC3    C6 6932   0.202   1.427   0.520 -0.7845  0.0536  0.6560
  462TMC3     C 6933   0.237   1.484   0.939  0.5404  0.5813 -0.5205
  462TMC3     O 6934   0.177   1.412   1.014  0.6958 -0.1729  0.1359
  462TMC3     H 6935   0.348   1.636   0.740  1.4019 -1.5889 -0.9652
  462TMC3    H1 6936   0.111   1.283   0.814 -0.7822 -0.1641 -0.2365
  462TMC3    H2 6937   0.219   1.409   0.414  2.5248  2.6806  0.7320
  462TMC3    C7 6938   0.090   1.228   0.566  0.0569 -0.1015  0.7709
  462TMC3    C8 6939   0.398   1.564   0.512  0.7059  0.2180 -0.2813
  462TMC3    O1 6940   0.089   1.135   0.643 -0.2935 -0.1648  0.3806
  462TMC3    O2 6941   0.445   1.676   0.521 -0.1246  0.1453 -0.4088
  463MPD2     C 6942   2.128   4.391   1.668  0.0632  0.0447 -0.4427
  463MPD2    C1 6943   2.015   4.471   1.682 -0.3001  0.6736 -0.3161
  463MPD2    C2 6944   1.988   4.577   1.599 -0.2608  0.3311  0.3790
  463MPD2    C3 6945   2.071   4.597   1.489 -0.3823  0.2683 -0.4872
  463MPD2    C4 6946   2.184   4.515   1.471  0.1713 -0.2808 -0.3263
  463MPD2    C5 6947   2.211   4.419   1.563  0.0979  0.7779  0.0151
  463MPD2     H 6948   1.896   4.634   1.611 -1.7099 -1.7039 -1.0238
  463MPD2    H1 6949   2.247   4.525   1.384  0.9262  1.4220  0.4140
  463MPD2    H2 6950   2.142   4.295   1.717  0.2057  1.1553  1.7334
  463MPD2    H3 6951   2.294   4.352   1.542 -2.2764 -2.0648 -0.1182
  463MPD2     N 6952   2.061   4.704   1.403  0.2374 -0.6303 -0.5515
  463MPD2    H5 6953   2.129   4.708   1.329 -0.4005 -1.0477 -1.1590
  463MPD2    N1 6954   1.912   4.445   1.779  0.4111  0.7369 -0.1620
  463MPD2    H7 6955   1.843   4.519   1.789 -1.9221 -1.3996 -0.4214
  464TMC3    C1 6956   1.783   4.313   1.932 -1.2269  0.5151 -0.8092
  464TMC3    C2 6957   1.672   4.390   1.909  0.6564  0.2904  0.1945
  464TMC3    C3 6958   1.556   4.349   1.969  0.0443  0.3564  0.6220
  464TMC3    C4 6959   1.775   4.201   2.008  0.2879  0.4339 -0.0206
  464TMC3    C5 6960   1.656   4.163   2.061 -0.0142 -0.0260 -0.6826
  464TMC3    C6 6961   1.537   4.229   2.036 -0.0671  0.6853 -0.0412
  464TMC3     C 6962   1.897   4.321   1.845  0.6830  0.3388 -0.2443
  464TMC3     O 6963   1.974   4.228   1.856 -0.5590 -0.5646 -0.5753
  464TMC3     H 6964   1.680   4.487   1.860 -0.6560 -0.4242 -1.4251
  464TMC3    H1 6965   1.856   4.129   2.011  0.8286  0.9965 -1.3762
  464TMC3    H2 6966   1.440   4.197   2.071  0.7890  0.5273  2.1989
  464TMC3    C7 6967   1.640   4.022   2.079 -1.1353  0.4707  0.2879
  464TMC3    C8 6968   1.439   4.430   1.921 -0.5362 -0.5017 -0.5472
  464TMC3    O1 6969   1.740   3.961   2.115 -0.3901 -0.2765 -0.0214
  464TMC3    O2 6970   1.446   4.495   1.817  0.3800  0.0113  0.1075
  465MPD2     C 6971   2.641   2.835  15.819  0.0078  0.2901  0.0006
  465MPD2    C1 6972   2.661   2.788  15.948  0.7575  0.8888 -0.0334
  465MPD2    C2 6973   2.580   2.826  16.048 -0.2621  0.1156  0.0201
  465MPD2    C3 6974   2.477   2.911  16.029  0.3398 -0.1875 -0.2328
  465MPD2    C4 6975   2.450   2.958  15.902 -0.7263  0.0025  0.3963
  465MPD2    C5 6976   2.528   2.916  15.799 -0.5718  0.4364  0.1583
  465MPD2     H 6977   2.598   2.798  16.151 -2.2386  0.0271  0.3536
  465MPD2    H1 6978   2.368   3.027  15.886  1.3667  2.0335 -1.6208
  465MPD2    H2 6979   2.707   2.807  15.738 -0.6337  0.2058 -0.4992
  465MPD2    H3 6980   2.506   2.951  15.698 -1.2150  0.7667  0.4174
  465MPD2     N 6981   2.415   2.968  16.144  0.1640  0.4533  0.0770
  465MPD2    H5 6982   2.461   2.943  16.231 -0.9494 -0.6879  0.3265
  465MPD2    N1 6983   2.768   2.699  15.986  0.5100 -0.0277 -0.1348
  465MPD2    H7 6984   2.776   2.669  16.083 -1.5083  1.2542  0.4203
  466TMC3    C1 6985   2.208   3.002  16.507  0.2539 -0.1955 -0.3977
  466TMC3    C2 6986   2.086   3.057  16.499  0.1451 -0.0389 -0.2517
  466TMC3    C3 6987   2.044   3.130  16.392  0.5177  0.9194 -0.8079
  466TMC3    C4 6988   2.292   3.013  16.398  0.1745  0.3797 -0.1766
  466TMC3    C5 6989   2.253   3.088  16.289  0.2539 -0.6555 -0.5786
  466TMC3    C6 6990   2.125   3.140  16.284  0.0480  0.4593 -0.1264
  466TMC3     C 6991   2.258   2.967  16.637  0.5188 -0.2426 -0.8651
  466TMC3     O 6992   2.188   2.989  16.729 -0.0180 -0.9329 -0.1121
  466TMC3     H 6993   2.019   3.037  16.583  1.5661 -0.2370  0.8382
  466TMC3    H1 6994   2.382   2.953  16.388  0.2982  0.0007  3.1170
  466TMC3    H2 6995   2.078   3.178  16.194  0.2693  0.4394 -0.2523
  466TMC3    C7 6996   2.305   3.054  16.149 -0.0626  0.0898 -0.0769
  466TMC3    C8 6997   1.913   3.192  16.390  0.1220  0.3443 -0.7577
  466TMC3    O1 6998   2.236   3.092  16.056  0.5910 -0.1871  0.3893
  466TMC3    O2 6999   1.862   3.230  16.283 -0.0248  0.8103  0.3480
  467TMC3    C1 7000   2.898   1.871  13.004 -0.1445  0.0981  0.2538
  467TMC3    C2 7001   2.965   1.979  12.949 -1.0531  0.4932 -0.0575
  467TMC3    C3 7002   2.895   2.098  12.937  0.1652 -0.2389 -0.1416
  467TMC3    C4 7003   2.762   1.881  13.040 -0.4981 -0.3065 -0.2529
  467TMC3    C5 7004   2.696   2.002  13.019 -0.4285  0.6064  0.5321
  467TMC3    C6 7005   2.761   2.109  12.975  0.0733  0.0789 -0.4535
  467TMC3     C 7006   2.981   1.772  13.071  0.2185 -0.0340 -0.2056
  467TMC3     O 7007   3.100   1.766  13.039 -0.3152  0.2914  0.0666
  467TMC3     H 7008   3.071   1.974  12.929 -1.1043 -0.2112 -0.1505
  467TMC3    H1 7009   2.713   1.790  13.071  1.5890 -1.0046  0.9861
  467TMC3    H2 7010   2.708   2.203  12.959  2.5512  1.9006  1.9372
  467TMC3    C7 7011   2.561   2.032  13.064  0.7386  0.2194 -0.5198
  467TMC3    C8 7012   2.967   2.223  12.922  0.4828 -0.2498 -0.3421
  467TMC3    O1 7013   2.515   2.144  13.038 -0.0311  0.0057  0.1455
  467TMC3    O2 7014   2.912   2.329  12.949  0.0072  0.5683  0.3247
  468MPD2     C 7015   2.124   0.056  10.385 -0.1585 -0.0560 -0.0330
  468MPD2    C1 7016   2.057   0.007  10.497  0.2609 -0.3716  0.4648
  468MPD2    C2 7017   1.977   4.630  10.485 -0.6582 -0.0116 -0.7855
  468MPD2    C3 7018   1.961   4.566  10.366  0.1916 -0.2258 -0.5709
  468MPD2    C4 7019   2.028   4.623  10.255 -0.4080  0.7293  0.1189
  468MPD2    C5 7020   2.119   4.722  10.271  0.4880  0.7360 -0.3636
  468MPD2     H 7021   1.908   4.612  10.566  0.4281 -2.4354 -0.4113
  468MPD2    H1 7022   2.019   4.580  10.156  1.1751 -0.7304  0.6149
  468MPD2    H2 7023   2.203   0.129  10.399 -0.4793  0.0543  1.2392
  468MPD2    H3 7024   2.189   0.009  10.191  0.3438 -0.9456 -0.9775
  468MPD2     N 7025   1.880   4.448  10.342 -0.1419  0.0463  0.2788
  468MPD2    H5 7026   1.889   4.407  10.249 -0.4630  1.5444 -0.4096
  468MPD2    N1 7027   2.074   0.060  10.629  0.6080  0.2354 -0.5704
  468MPD2    H7 7028   2.032   0.014  10.708  0.0776 -1.4844 -1.8589
  469TMC3    C1 7029   2.183   0.186  10.796  0.3114  0.3254  0.2935
  469TMC3    C2 7030   2.303   0.245  10.838 -0.2572  1.0622 -0.2653
  469TMC3    C3 7031   2.332   0.260  10.967 -0.3823 -0.2573 -0.1697
  469TMC3    C4 7032   2.094   0.147  10.894 -0.5900  0.4092 -0.1212
  469TMC3    C5 7033   2.117   0.186  11.024  0.5573 -0.5171 -1.1404
  469TMC3    C6 7034   2.237   0.238  11.063  1.0101  0.1596  0.1042
  469TMC3     C 7035   2.149   0.173  10.654  0.7829 -0.4860 -0.0044
  469TMC3     O 7036   2.191   0.257  10.575  0.3600  0.2934  0.6213
  469TMC3     H 7037   2.376   0.262  10.760  1.5512 -1.8845  0.7917
  469TMC3    H1 7038   1.998   0.104  10.867 -0.4501  0.0051  0.0197
  469TMC3    H2 7039   2.264   0.258  11.166  2.4037  0.8249 -0.3884
  469TMC3    C7 7040   2.001   0.210  11.115  0.0060 -0.6591  0.3116
  469TMC3    C8 7041   2.473   0.270  10.994  0.5849 -0.5552  0.2389
  469TMC3    O1 7042   1.892   0.184  11.066  0.2697 -0.2658 -0.6613
  469TMC3    O2 7043   2.545   0.208  10.918  0.2241  0.3042  0.8204
  470TMC3    C1 7044   4.466   1.598   0.418 -0.3359 -0.0018  0.5747
  470TMC3    C2 7045   4.541   1.674   0.498 -0.1205 -0.4551 -0.6957
  470TMC3    C3 7046   4.589   1.606   0.610 -0.5302 -0.0556 -0.2158
  470TMC3    C4 7047   4.446   1.457   0.438  0.0162  0.2481 -0.5375
  470TMC3    C5 7048   4.487   1.394   0.552 -0.3348  0.6609  0.1453
  470TMC3    C6 7049   4.562   1.470   0.641 -0.4073  0.0639 -0.2146
  470TMC3     C 7050   4.429   1.630   0.282  0.4728 -0.3646  0.1274
  470TMC3     O 7051   4.328   1.580   0.235  0.2087 -0.3450 -0.2238
  470TMC3     H 7052   4.536   1.783   0.499 -1.9941 -0.5358 -0.4586
  470TMC3    H1 7053   4.385   1.405   0.365  1.3514  1.0723 -2.2307
  470TMC3    H2 7054   4.596   1.427   0.734 -1.5488 -1.3205 -0.4251
  470TMC3    C7 7055   4.484   1.247   0.562  0.4900  0.9838  0.1166
  470TMC3    C8 7056   4.671   1.672   0.708  0.4005 -0.8805  0.4865
  470TMC3    O1 7057   4.450   1.185   0.462  0.2955  0.2269 -0.5002
  470TMC3    O2 7058   4.686   1.625   0.822 -0.2236 -0.3333  0.2426
  471MPD2     C 7059   0.421   2.015  16.392  1.0072 -0.0599  0.2842
  471MPD2    C1 7060   0.337   1.928  16.461  0.1334 -0.7399  0.3777
  471MPD2    C2 7061   0.328   1.931  16.598  0.7714 -0.1515 -0.3762
  471MPD2    C3 7062   0.406   2.020  16.674 -0.9117 -0.0292 -0.2611
  471MPD2    C4 7063   0.488   2.106  16.605  0.0340  0.7204  0.0147
  471MPD2    C5 7064   0.503   2.095  16.471  0.1714  0.0803  0.4132
  471MPD2     H 7065   0.256   1.866  16.647 -0.3029  2.1622  1.0660
  471MPD2    H1 7066   0.546   2.183  16.654 -0.3684  0.2199  1.2873
  471MPD2    H2 7067   0.439   2.009  16.285 -1.0826 -0.3973 -0.0455
  471MPD2    H3 7068   0.574   2.151  16.412 -0.7883  0.0659 -0.7403
  471MPD2     N 7069   0.398   2.019  16.819 -0.2984  0.1042 -0.5997
  471MPD2    H5 7070   0.327   1.957  16.856  1.0765 -1.3985 -0.5112
  471MPD2    N1 7071   0.252   1.836  16.392 -0.2554  0.4444 -0.2944
  471MPD2    H7 7072   0.208   1.761  16.445  2.7393 -0.8280  0.4002
  472TMC3    C1 7073   0.171   1.704  16.217 -0.8759  0.1968  0.0941
  472TMC3    C2 7074   0.092   1.702  16.109  0.0549  0.2835  0.2382
  472TMC3    C3 7075   0.060   1.579  16.050  0.3560  0.0760 -0.0324
  472TMC3    C4 7076   0.218   1.594  16.280  1.0436 -0.1642  0.2554
  472TMC3    C5 7077   0.195   1.478  16.217 -0.3190 -0.0538  0.8981
  472TMC3    C6 7078   0.125   1.470  16.102  0.1351  0.4181 -0.2704
  472TMC3     C 7079   0.228   1.830  16.261 -0.0759 -0.1244 -0.6218
  472TMC3     O 7080   0.227   1.915  16.176  0.0713  0.6484 -0.1260
  472TMC3     H 7081   0.063   1.794  16.059 -0.1794 -0.9852 -1.9346
  472TMC3    H1 7082   0.278   1.595  16.370  1.0783 -2.5856  0.2662
  472TMC3    H2 7083   0.101   1.369  16.072 -0.6659  0.5540 -0.0849
  472TMC3    C7 7084   0.159   1.369  16.311 -0.3280 -0.2221  0.2470
  472TMC3    C8 7085   4.653   1.556  16.023  0.5803 -0.3067  1.4380
  472TMC3    O1 7086   0.207   1.375  16.424 -0.7873  0.5371  0.1278
  472TMC3    O2 7087   4.617   1.439  16.050  0.1898  0.0249  0.0146
  473MPD2     C 7088   4.646   4.330  14.148  0.5285  0.4833 -0.1655
  473MPD2    C1 7089   4.707   4.403  14.042 -0.4479  0.7662  0.6179
  473MPD2    C2 7090   0.057   4.501  14.075  0.3845 -0.0073 -0.2059
  473MPD2    C3 7091   0.084   4.525  14.211 -0.4232 -0.6058  0.2672
  473MPD2    C4 7092   0.015   4.457  14.317 -0.1814 -0.0179 -0.2510
  473MPD2    C5 7093   4.668   4.360  14.278  0.1990  0.1633  0.8626
  473MPD2     H 7094   0.111   4.554  13.997 -0.5700  0.1432 -0.7592
  473MPD2    H1 7095   0.040   4.472  14.421 -2.6070 -3.0009  0.7724
  473MPD2    H2 7096   4.581   4.245  14.131  2.8237 -0.8447 -2.4493
  473MPD2    H3 7097   4.614   4.295  14.346  2.8423 -2.5304  0.3789
  473MPD2     N 7098   0.177   4.620  14.262  0.3903 -0.3431 -0.2853
  473MPD2    H5 7099   0.202   4.612  14.360  1.3395 -1.7965 -0.6481
  473MPD2    N1 7100   4.677   4.380  13.901  0.3521 -0.0141  0.3212
  473MPD2    H7 7101   4.722   4.446  13.839 -0.6987  1.2025  0.8538
  474TMC3    C1 7102   0.298   0.076  14.283  0.3620  0.4423 -0.6352
  474TMC3    C2 7103   0.279   0.211  14.273  0.0013  0.1843 -0.3487
  474TMC3    C3 7104   0.357   0.290  14.353  0.5996  0.1906  0.2263
  474TMC3    C4 7105   0.392   0.016  14.362 -0.0961  0.1284  0.1693
  474TMC3    C5 7106   0.460   0.098  14.447 -0.7653  0.3261  0.9154
  474TMC3    C6 7107   0.444   0.231  14.446  0.0575  0.0027  0.6069
  474TMC3     C 7108   0.225   4.726  14.194 -0.3489 -0.2553 -0.6864
  474TMC3     O 7109   0.199   0.027  14.083  0.2605 -0.2292 -0.6979
  474TMC3     H 7110   0.218   0.243  14.190 -0.2803 -0.1399 -0.2670
  474TMC3    H1 7111   0.407   4.646  14.368  0.3586  0.1323 -0.8930
  474TMC3    H2 7112   0.507   0.299  14.503  1.4544  1.0393 -2.1651
  474TMC3    C7 7113   0.558   0.043  14.535  0.4589 -0.8324  0.0908
  474TMC3    C8 7114   0.320   0.425  14.356  0.4825  0.0848  0.5070
  474TMC3    O1 7115   0.576   4.656  14.521  0.1401 -0.6095 -0.1596
  474TMC3    O2 7116   0.407   0.501  14.396  0.2527  0.0915 -0.2007
  475MPD2     C 7117   2.987   2.064  10.232 -0.4754 -0.1362  0.8336
  475MPD2    C1 7118   3.002   2.150  10.339 -0.0729 -0.0257  0.0747
  475MPD2    C2 7119   2.891   2.170  10.426 -0.6693  0.2888  0.4384
  475MPD2    C3 7120   2.771   2.104  10.410 -0.0656  0.1023 -0.0045
  475MPD2    C4 7121   2.749   2.033  10.295  0.1663  0.1888 -0.6825
  475MPD2    C5 7122   2.858   2.001  10.220  0.5694 -0.3282 -0.4913
  475MPD2     H 7123   2.903   2.246  10.503  1.8118 -1.8598  2.1464
  475MPD2    H1 7124   2.658   1.979  10.273 -0.1553  0.5869 -0.3287
  475MPD2    H2 7125   3.071   2.041  10.168 -1.0315  0.2616 -0.0308
  475MPD2    H3 7126   2.847   1.928  10.140  0.2211  0.7320 -1.4178
  475MPD2     N 7127   2.670   2.123  10.508 -0.5316 -0.0136 -0.4288
  475MPD2    H5 7128   2.688   2.199  10.573  0.6734 -0.8382  0.1976
  475MPD2    N1 7129   3.124   2.211  10.372 -0.0499  0.1300  0.3934
  475MPD2    H7 7130   3.130   2.271  10.453  0.4507 -0.4831  0.8098
  476TMC3    C1 7131   3.326   2.309  10.325  0.4768  0.4589 -0.2946
  476TMC3    C2 7132   3.323   2.419  10.244  0.2248  0.4454  0.1026
  476TMC3    C3 7133   3.305   2.546  10.291 -0.4153 -0.0332 -0.8335
  476TMC3    C4 7134   3.329   2.334  10.461  0.1918 -0.2775  0.4943
  476TMC3    C5 7135   3.318   2.458  10.516  0.0786 -0.0347 -0.0021
  476TMC3    C6 7136   3.308   2.567  10.428  0.2894 -0.4721 -0.6784
  476TMC3     C 7137   3.225   2.220  10.281 -0.2803 -0.0499  0.3653
  476TMC3     O 7138   3.227   2.193  10.163  0.4799  0.0681 -0.6239
  476TMC3     H 7139   3.323   2.402  10.137  3.0881  0.0647  0.1706
  476TMC3    H1 7140   3.318   2.250  10.530  0.1408 -0.0690  0.7398
  476TMC3    H2 7141   3.284   2.666  10.465  0.8354 -0.7673  0.4777
  476TMC3    C7 7142   3.225   2.453  10.623 -0.3776 -1.1107 -0.6921
  476TMC3    C8 7143   3.192   2.611  10.230 -0.0920 -0.3091  0.4400
  476TMC3    O1 7144   3.137   2.367  10.607 -0.2432  0.1127  0.2590
  476TMC3    O2 7145   3.180   2.731  10.248  0.2751  0.0859 -0.1929
  477MPD2     C 7146   0.370   3.208  11.438  0.2505  0.1553  0.0145
  477MPD2    C1 7147   0.278   3.298  11.490  0.1417  0.0420 -0.4877
  477MPD2    C2 7148   0.305   3.354  11.613 -0.1096 -0.2809 -0.2974
  477MPD2    C3 7149   0.417   3.314  11.690  0.2191  0.7399  1.0738
  477MPD2    C4 7150   0.508   3.224  11.634 -0.6569  0.3172  0.0601
  477MPD2    C5 7151   0.475   3.170  11.513  0.6468 -0.7801  0.3792
  477MPD2     H 7152   0.238   3.430  11.652 -0.4760  0.3470 -2.1409
  477MPD2    H1 7153   0.602   3.192  11.676 -0.5887  0.2083 -0.1735
  477MPD2    H2 7154   0.354   3.154  11.345  2.1653 -1.7739  0.8228
  477MPD2    H3 7155   0.551   3.106  11.472  0.3495 -1.8865  1.5578
  477MPD2     N 7156   0.449   3.361  11.815  1.0299  0.5225 -0.1468
  477MPD2    H5 7157   0.545   3.346  11.843  1.0297  2.2006  0.7236
  477MPD2    N1 7158   0.167   3.333  11.413  0.4963 -0.0405  0.2360
  477MPD2    H7 7159   0.174   3.316  11.313  0.6887  0.0477  0.2349
  478TMC3    C1 7160   0.039   3.527  11.364 -0.5464  0.6120 -0.1643
  478TMC3    C2 7161   4.726   3.635  11.423 -0.6956  0.1476 -0.3154
  478TMC3    C3 7162   0.001   3.756  11.364 -0.0596 -0.2605  0.4907
  478TMC3    C4 7163   0.100   3.535  11.240  0.2903  0.6999  0.2680
  478TMC3    C5 7164   0.113   3.653  11.187  0.2210  0.6693  0.0194
  478TMC3    C6 7165   0.063   3.768  11.242 -0.0832  0.3322 -0.4356
  478TMC3     C 7166   0.068   3.421  11.460  0.1796  0.1985  0.3347
  478TMC3     O 7167   0.027   3.419  11.577 -0.9215 -0.0223  0.2828
  478TMC3     H 7168   4.694   3.624  11.526  0.1603 -2.4674 -0.3352
  478TMC3    H1 7169   0.164   3.458  11.199 -1.6003 -0.1859 -1.0334
  478TMC3    H2 7170   0.085   3.866  11.200  1.5613  1.1779  2.4435
  478TMC3    C7 7171   0.173   3.668  11.061  0.7614  0.8891 -0.1870
  478TMC3    C8 7172   4.714   3.877  11.444 -0.3297  0.2454  0.2966
  478TMC3    O1 7173   0.267   3.594  11.038  0.2385 -0.0751 -0.1992
  478TMC3    O2 7174   4.655   3.862  11.550 -0.2493 -0.3828  0.4413
  479MPD2     C 7175   4.704   1.734  14.753  1.1660  0.4489 -0.5003
  479MPD2    C1 7176   4.654   1.733  14.881 -0.0170 -0.6192  0.5520
  479MPD2    C2 7177   4.722   1.797  14.985  0.4355 -0.7179 -0.0501
  479MPD2    C3 7178   0.102   1.870  14.959  0.5598  0.6722 -0.4204
  479MPD2    C4 7179   0.155   1.868  14.831  0.4348  1.0152 -0.3111
  479MPD2    C5 7180   0.084   1.803  14.733 -0.3626  0.2558  0.0189
  479MPD2     H 7181   4.685   1.787  15.086 -0.9583  0.8704 -0.4108
  479MPD2    H1 7182   0.239   1.929  14.802  2.6758 -0.6665  2.6489
  479MPD2    H2 7183   4.652   1.689  14.670 -0.2559 -0.7053  1.0029
  479MPD2    H3 7184   0.128   1.801  14.634 -1.4988  1.9383 -0.5186
  479MPD2     N 7185   0.183   1.947  15.049 -0.1416 -0.3068  0.3892
  479MPD2    H5 7186   0.281   1.959  15.025  0.3296 -0.6436  2.1977
  479MPD2    N1 7187   4.536   1.669  14.900  0.6831 -0.5226 -0.0753
  479MPD2    H7 7188   4.507   1.614  14.820  0.5663 -1.6371  0.7305
  480TMC3    C1 7189   4.574   2.011  15.342  0.8374 -0.0681 -0.2587
  480TMC3    C2 7190   4.499   2.052  15.231 -0.2484 -0.8422 -0.3850
  480TMC3    C3 7191   4.557   2.107  15.122  0.4465 -0.3754  0.1047
  480TMC3    C4 7192   4.705   1.995  15.330 -0.9709  0.5930 -0.3032
  480TMC3    C5 7193   0.025   2.024  15.207  0.3710  0.2064  0.4526
  480TMC3    C6 7194   4.694   2.090  15.105  1.0225 -0.1070 -1.0426
  480TMC3     C 7195   4.501   1.922  15.437 -0.1685  0.3950  0.5429
  480TMC3     O 7196   4.569   1.876  15.527 -0.8632  0.3931 -0.7779
  480TMC3     H 7197   4.393   2.072  15.240 -0.4689 -1.8773 -0.6164
  480TMC3    H1 7198   0.031   1.937  15.397  1.0958  2.7142 -0.3989
  480TMC3    H2 7199   0.010   2.129  15.019 -0.5977  2.1066 -1.0239
  480TMC3    C7 7200   0.151   1.969  15.185  0.2462 -0.0358 -0.3946
  480TMC3    C8 7201   4.474   2.145  15.006  0.6005  0.9026 -1.3346
  480TMC3    O1 7202   0.226   1.962  15.282  0.5262  0.3652 -0.8499
  480TMC3    O2 7203   4.364   2.182  15.040  0.3339 -0.6383 -0.3636
  481MPD2     C 7204   1.624   1.123  13.742 -0.4355  0.5820  0.5617
  481MPD2    C1 7205   1.515   1.061  13.804 -0.1532 -0.6933 -0.1208
  481MPD2    C2 7206   1.525   1.030  13.940  0.0615  0.1706 -0.2569
  481MPD2    C3 7207   1.643   1.054  14.007 -0.6807 -0.4372  0.8787
  481MPD2    C4 7208   1.754   1.099  13.936  0.3489 -0.4560 -0.0086
  481MPD2    C5 7209   1.743   1.137  13.805  0.0921 -1.1084  0.1320
  481MPD2     H 7210   1.438   0.990  13.991  0.9021  1.8467  2.5122
  481MPD2    H1 7211   1.847   1.135  13.979  1.2016 -2.6838  0.0511
  481MPD2    H2 7212   1.618   1.136  13.634 -0.6754 -0.7409  0.4248
  481MPD2    H3 7213   1.832   1.175  13.756  0.3383  0.4304  1.7998
  481MPD2     N 7214   1.673   1.030  14.141  0.6242 -0.2816 -0.1484
  481MPD2    H5 7215   1.770   1.013  14.167  0.5332  1.0093  1.0688
  481MPD2    N1 7216   1.399   1.053  13.729  0.0369  0.0100 -0.3188
  481MPD2    H7 7217   1.406   1.093  13.636  2.0749 -0.4379 -0.3553
  482TMC3    C1 7218   1.160   1.051  13.717 -0.0813 -0.4280  0.1023
  482TMC3    C2 7219   1.046   0.983  13.750  0.0496 -0.2027 -1.3601
  482TMC3    C3 7220   0.933   1.011  13.684 -0.3680 -0.5463  0.7447
  482TMC3    C4 7221   1.166   1.150  13.621 -0.1842  0.0302 -1.0127
  482TMC3    C5 7222   1.045   1.174  13.558  0.4361  0.4823  0.2693
  482TMC3    C6 7223   0.929   1.112  13.589 -0.3322  0.0008  0.1528
  482TMC3     C 7224   1.284   0.997  13.778 -0.0754  0.4930  0.6854
  482TMC3     O 7225   1.266   0.937  13.884  0.1331 -0.6665  0.1989
  482TMC3     H 7226   1.058   0.903  13.823  1.3406  1.3206  0.1005
  482TMC3    H1 7227   1.261   1.178  13.577  0.0938  1.3054  0.4234
  482TMC3    H2 7228   0.841   1.142  13.533  0.6537  0.8233 -0.9681
  482TMC3    C7 7229   1.060   1.283  13.456 -0.6084  0.2291 -0.0087
  482TMC3    C8 7230   0.821   0.932  13.731  0.1129 -0.1015 -0.2096
  482TMC3    O1 7231   1.156   1.360  13.466 -0.5055 -0.0826  0.3446
  482TMC3    O2 7232   0.851   0.842  13.805 -0.1005  0.7323 -0.0502
  483TMC3    C1 7233   0.131   0.015   1.287  0.6714  0.6659 -0.4451
  483TMC3    C2 7234   0.192   0.099   1.202  0.1068 -0.7260  0.1075
  483TMC3    C3 7235   0.314   0.070   1.145 -0.0810  0.2923 -0.3626
  483TMC3    C4 7236   0.186   4.629   1.316 -0.5620  0.7208  0.2144
  483TMC3    C5 7237   0.305   4.596   1.259 -0.8151  0.0568  0.1321
  483TMC3    C6 7238   0.374   4.688   1.176  0.5816  0.6320 -0.2616
  483TMC3     C 7239   4.730   0.053   1.324  0.3530  0.5880 -0.1134
  483TMC3     O 7240   4.703   0.169   1.301  0.2063  0.9715  0.0182
  483TMC3     H 7241   0.143   0.193   1.180 -1.5104 -1.5084  0.3406
  483TMC3    H1 7242   0.130   4.561   1.379 -2.4801  1.1800 -1.0137
  483TMC3    H2 7243   0.461   4.652   1.121 -0.7223 -0.6099 -1.4976
  483TMC3    C7 7244   0.347   4.454   1.272  0.2002  0.6163  0.3669
  483TMC3    C8 7245   0.341   0.126   1.013  0.2092 -0.4924 -0.0634
  483TMC3    O1 7246   0.285   4.376   1.344  0.0975  0.1918 -0.3441
  483TMC3    O2 7247   0.236   0.147   0.946 -0.0315 -0.2179 -0.0198
  484MPD2     C 7248   2.363   2.753  12.628  0.1598  0.4344  0.5614
  484MPD2    C1 7249   2.284   2.772  12.515  0.4527  0.2830 -1.0436
  484MPD2    C2 7250   2.348   2.801  12.391 -0.0875  0.8431 -0.6050
  484MPD2    C3 7251   2.482   2.826  12.390  0.2386 -0.6322  0.3146
  484MPD2    C4 7252   2.561   2.834  12.505  0.2231  0.2077  0.0235
  484MPD2    C5 7253   2.496   2.790  12.625 -0.3995  0.2002  0.3522
  484MPD2     H 7254   2.296   2.790  12.297  1.5874  0.1774 -1.4570
  484MPD2    H1 7255   2.666   2.858  12.499  0.0922  0.4384 -1.2044
  484MPD2    H2 7256   2.330   2.711  12.722 -0.0976 -0.4004  0.1073
  484MPD2    H3 7257   2.559   2.787  12.713  1.9503  0.7342 -1.3006
  484MPD2     N 7258   2.555   2.866  12.274 -0.0439 -0.4937  0.4963
  484MPD2    H5 7259   2.651   2.899  12.281 -0.5764  0.6683  2.2471
  484MPD2    N1 7260   2.149   2.732  12.541  0.5082 -0.4888  0.1703
  484MPD2    H7 7261   2.114   2.687  12.625  0.2647  0.5809  0.6380
  485TMC3    C1 7262   2.610   2.921  12.057  0.0794 -0.2309  0.7671
  485TMC3    C2 7263   2.737   2.870  12.065  0.5752  0.0731 -0.1000
  485TMC3    C3 7264   2.819   2.905  11.967  0.2000  0.4725  0.2597
  485TMC3    C4 7265   2.568   3.010  11.963  0.1265  0.2750 -0.2675
  485TMC3    C5 7266   2.660   3.047  11.868  0.3244  0.0442 -1.3174
  485TMC3    C6 7267   2.786   3.000  11.871  0.6337 -0.7862  0.0697
  485TMC3     C 7268   2.503   2.872  12.146 -0.2840 -0.0194 -0.3473
  485TMC3     O 7269   2.394   2.846  12.099  0.2157 -0.3455 -0.5817
  485TMC3     H 7270   2.762   2.786  12.129  0.7137  0.6315  0.5736
  485TMC3    H1 7271   2.461   3.016  11.951  0.0789 -2.0832 -1.2364
  485TMC3    H2 7272   2.859   3.029  11.797  2.7359 -2.0117  1.6867
  485TMC3    C7 7273   2.600   3.024  11.736 -0.5889 -0.3326  0.1433
  485TMC3    C8 7274   2.931   2.816  11.929 -0.5361 -0.0378 -1.1016
  485TMC3    O1 7275   2.491   3.069  11.698 -0.4488 -0.3887  0.0961
  485TMC3    O2 7276   2.964   2.830  11.814 -0.0375  0.1287 -0.5714
  486MPD2     C 7277   4.300   1.369  12.624  0.4222 -0.1812 -0.1118
  486MPD2    C1 7278   4.163   1.371  12.616 -0.0810  0.0812 -0.0638
  486MPD2    C2 7279   4.099   1.484  12.558  0.3689 -0.7037 -0.0542
  486MPD2    C3 7280   4.171   1.594  12.528  0.4860 -0.2893 -0.5422
  486MPD2    C4 7281   4.304   1.595  12.544  0.1675  0.1201  0.0973
  486MPD2    C5 7282   4.366   1.478  12.579  0.3027  0.1069 -0.0313
  486MPD2     H 7283   3.992   1.503  12.556 -0.1383 -3.9334 -2.9047
  486MPD2    H1 7284   4.369   1.673  12.507  2.3599 -2.2348 -1.0254
  486MPD2    H2 7285   4.349   1.276  12.651  2.8715  1.0181 -0.4583
  486MPD2    H3 7286   4.474   1.470  12.572  0.5308  3.3931 -0.4165
  486MPD2     N 7287   4.089   1.706  12.487 -0.1752  0.5994  0.0608
  486MPD2    H5 7288   3.990   1.692  12.470 -0.2607  0.1661  0.9079
  486MPD2    N1 7289   4.092   1.257  12.658 -0.2529  0.4237  0.1287
  486MPD2    H7 7290   4.146   1.171  12.667  0.6017  1.1702  2.1269
  487TMC3    C1 7291   3.916   1.106  12.700  0.1980  0.2974  0.8355
  487TMC3    C2 7292   3.837   1.040  12.610 -0.1739  0.1024  0.5833
  487TMC3    C3 7293   3.816   0.911  12.643 -0.5740  0.4190  0.9849
  487TMC3    C4 7294   3.966   1.050  12.815  0.3478  0.4142 -0.3669
  487TMC3    C5 7295   3.943   0.918  12.840 -0.8396  0.4681  0.1216
  487TMC3    C6 7296   3.882   0.840  12.742 -0.5126 -0.5687 -0.4338
  487TMC3     C 7297   3.955   1.245  12.667 -0.4298  0.1522 -0.1938
  487TMC3     O 7298   3.862   1.324  12.643 -0.3563  0.7208  0.1495
  487TMC3     H 7299   3.774   1.089  12.537  0.7098 -1.0726 -0.9487
  487TMC3    H1 7300   4.011   1.118  12.886  2.9616 -0.7561 -0.8948
  487TMC3    H2 7301   3.859   0.738  12.771 -0.4934 -0.6853 -0.8310
  487TMC3    C7 7302   3.886   0.910  12.972 -0.3792  0.4360 -0.1383
  487TMC3    C8 7303   3.684   0.875  12.615 -0.6965 -0.1527  0.6296
  487TMC3    O1 7304   3.927   0.986  13.058 -0.0330  0.5280 -0.1813
  487TMC3    O2 7305   3.601   0.965  12.620  0.1529  0.0007 -0.2925
  488MPD2     C 7306   3.967   3.866  16.454  0.4090  0.0337 -0.3005
  488MPD2    C1 7307   4.087   3.828  16.522  0.3380 -0.5667  0.5049
  488MPD2    C2 7308   4.094   3.712  16.591 -0.2353  0.6367  0.3103
  488MPD2    C3 7309   3.982   3.634  16.604  0.1706 -0.4506  0.2986
  488MPD2    C4 7310   3.868   3.672  16.539 -0.2081  0.7354 -0.1821
  488MPD2    C5 7311   3.858   3.790  16.472  0.1360  0.2808 -0.9009
  488MPD2     H 7312   4.182   3.678  16.643 -0.1143 -0.3407 -0.5309
  488MPD2    H1 7313   3.780   3.609  16.527 -1.0616  2.0893 -1.1271
  488MPD2    H2 7314   3.961   3.951  16.387 -0.0400  1.8015  1.9931
  488MPD2    H3 7315   3.763   3.813  16.425 -0.5509 -0.9475 -0.1106
  488MPD2     N 7316   3.990   3.513  16.686 -0.0386  0.0379 -0.4380
  488MPD2    H5 7317   4.086   3.502  16.717 -0.0113 -0.7207 -0.8046
  488MPD2    N1 7318   4.200   3.905  16.509 -0.1592  0.2615  0.0989
  488MPD2    H7 7319   4.281   3.864  16.554 -0.0019 -0.5774 -0.9347
  489TMC3    C1 7320   3.934   3.344  16.839  0.7145  0.5587  0.5688
  489TMC3    C2 7321   4.074   3.323  16.824 -0.1237 -0.2204 -0.4276
  489TMC3    C3 7322   4.134   3.264  16.942 -0.1804  0.1661  0.0165
  489TMC3    C4 7323   3.863   3.315  16.951 -0.6278  0.0587  0.6410
  489TMC3    C5 7324   3.932   3.264  17.054  0.0013 -0.0044  0.3483
  489TMC3    C6 7325   4.060   3.226  17.048 -0.9740  0.2863 -0.4540
  489TMC3     C 7326   3.884   3.444  16.744 -0.5373  0.6926  0.1552
  489TMC3     O 7327   3.764   3.469  16.732  0.3022 -0.1321 -0.1896
  489TMC3     H 7328   4.138   3.340  16.739  0.1408 -0.5845 -0.2985
  489TMC3    H1 7329   3.757   3.333  16.944 -0.4136  0.3949 -1.6198
  489TMC3    H2 7330   4.102   3.191  17.142 -0.6783 -0.5557 -0.8993
  489TMC3    C7 7331   3.866   3.205  17.165  1.0663  0.0682 -0.3276
  489TMC3    C8 7332   4.284   3.255  16.942 -0.0214 -0.3253  0.0470
  489TMC3    O1 7333   3.905   3.099  17.213 -0.2128 -0.0971  0.0119
  489TMC3    O2 7334   4.335   3.293  16.838  0.1234  0.0482 -0.2062
  490MPD2     C 7335   0.400   2.743  17.568 -0.3089 -0.3037  0.7642
  490MPD2    C1 7336   0.325   2.679  17.663  0.5041  0.0632 -0.0870
  490MPD2    C2 7337   0.354   2.704   0.043  0.3545 -0.3638 -0.2833
  490MPD2    C3 7338   0.444   2.799   0.089 -0.5045  0.8259 -0.0763
  490MPD2    C4 7339   0.522   2.859  17.738 -0.2172 -0.1393  0.0865
  490MPD2    C5 7340   0.496   2.834  17.606 -0.3350  0.1510  0.2309
  490MPD2     H 7341   0.290   2.655   0.116 -0.2046 -0.0513 -0.5564
  490MPD2    H1 7342   0.605   2.920   0.025 -1.1199  2.5322 -2.7059
  490MPD2    H2 7343   0.379   2.746  17.462  3.7205  2.0274  0.0184
  490MPD2    H3 7344   0.560   2.894  17.542 -0.8345 -0.4039 -0.7847
  490MPD2     N 7345   0.466   2.835   0.225  0.1393  0.0434 -0.6048
  490MPD2    H5 7346   0.525   2.914   0.247 -0.0192  0.1577 -0.5889
  490MPD2    N1 7347   0.226   2.588  17.634  0.4403 -0.1072  0.3210
  490MPD2    H7 7348   0.192   2.542  17.719 -0.7279  0.6023  0.2452
  491TMC3    C1 7349   0.081   2.449  17.510  0.1446  0.1847 -0.0419
  491TMC3    C2 7350   4.734   2.436  17.618 -0.3819  0.8820 -0.1950
  491TMC3    C3 7351   4.653   2.319  17.620 -0.4310 -0.0514  0.0978
  491TMC3    C4 7352   0.076   2.366  17.403  0.4755  0.1446 -0.5319
  491TMC3    C5 7353   4.725   2.263  17.408  0.5508  0.2926  0.4956
  491TMC3    C6 7354   4.644   2.230  17.515 -0.1162  0.6131 -0.0896
  491TMC3     C 7355   0.187   2.549  17.508 -0.1162  0.8203  0.4305
  491TMC3     O 7356   0.227   2.597  17.402 -0.0145  0.4597  0.2781
  491TMC3     H 7357   4.721   2.494  17.708  0.5903  2.1467 -0.8782
  491TMC3    H1 7358   0.142   2.388  17.320 -0.6117  3.1278 -0.6186
  491TMC3    H2 7359   4.568   2.153  17.507 -0.3889  0.5196  3.3319
  491TMC3    C7 7360   4.714   2.169  17.300 -0.0543 -0.2004  0.0676
  491TMC3    C8 7361   4.585   2.284   0.004  0.8655  0.2669 -0.5074
  491TMC3    O1 7362   4.661   2.060  17.324 -0.0573 -0.3264 -0.2192
  491TMC3    O2 7363   4.645   2.313   0.109  0.2332 -0.2364 -0.3305
  492MPD2     C 7364   0.514   2.648  10.900 -0.2098  0.1471 -0.3162
  492MPD2    C1 7365   0.413   2.564  10.850 -0.1228 -0.7252 -1.0945
  492MPD2    C2 7366   0.333   2.496  10.944 -0.3714  0.9339 -0.3001
  492MPD2    C3 7367   0.338   2.507  11.080 -0.3799 -0.3178 -0.1235
  492MPD2    C4 7368   0.435   2.590  11.133 -0.0441 -0.1238  0.6370
  492MPD2    C5 7369   0.516   2.658  11.041 -0.1105  0.0270  0.0947
  492MPD2     H 7370   0.266   2.418  10.909  1.7808 -1.2738  0.5028
  492MPD2    H1 7371   0.448   2.608  11.239  0.6421 -1.0308  0.7015
  492MPD2    H2 7372   0.588   2.702  10.841  0.1832 -0.9475 -0.8332
  492MPD2    H3 7373   0.599   2.710  11.088 -0.6675  1.3646 -0.3995
  492MPD2     N 7374   0.262   2.432  11.167 -0.5213  0.7183  0.3787
  492MPD2    H5 7375   0.294   2.419  11.263  1.4166 -1.2132 -0.5302
  492MPD2    N1 7376   0.403   2.543  10.710  0.1377 -0.3427  0.9045
  492MPD2    H7 7377   0.460   2.605  10.653 -1.2072 -0.1450 -0.2372
  493TMC3    C1 7378   0.360   2.452  10.498 -0.2029 -0.5856 -0.1951
  493TMC3    C2 7379   0.456   2.534  10.447 -0.3277 -0.2319  0.4659
  493TMC3    C3 7380   0.448   2.568  10.311 -0.3792 -0.4644 -0.4231
  493TMC3    C4 7381   0.285   2.375  10.420 -0.0263 -0.7350  0.2256
  493TMC3    C5 7382   0.283   2.401  10.285 -0.1579  0.3719 -0.6844
  493TMC3    C6 7383   0.358   2.506  10.229 -0.2637  0.5552  0.3096
  493TMC3     C 7384   0.329   2.452  10.640  0.5831 -0.4044  0.0247
  493TMC3     O 7385   0.257   2.362  10.684  0.1024 -0.2809 -0.2003
  493TMC3     H 7386   0.530   2.587  10.507 -0.3969 -0.9327  1.1644
  493TMC3    H1 7387   0.206   2.320  10.472 -0.9497 -1.0270 -1.4893
  493TMC3    H2 7388   0.339   2.539  10.128  0.5292 -2.3933 -0.7809
  493TMC3    C7 7389   0.189   2.328  10.202 -0.0586  0.5373  0.1816
  493TMC3    C8 7390   0.571   2.586  10.244 -0.3816  0.1469  0.1172
  493TMC3    O1 7391   0.152   2.376  10.095 -0.1388 -0.1484  0.3060
  493TMC3    O2 7392   0.662   2.507  10.259  0.4018  0.1291  0.0475
  494TMC3    C1 7393   1.306   4.478   0.679  0.1462  0.6657  0.3839
  494TMC3    C2 7394   1.302   4.340   0.687  0.8117  0.3649  0.4996
  494TMC3    C3 7395   1.268   4.276   0.570  0.6498  0.8625 -0.2019
  494TMC3    C4 7396   1.265   4.546   0.574  0.4310  0.3918 -0.1278
  494TMC3    C5 7397   1.245   4.482   0.460  1.0631 -0.0880 -0.2485
  494TMC3    C6 7398   1.236   4.345   0.461 -0.4452 -0.1599  0.6836
  494TMC3     C 7399   1.312   4.551   0.801  0.5542  0.7200 -0.1459
  494TMC3     O 7400   1.257   4.659   0.811 -0.5812  0.4329  0.0267
  494TMC3     H 7401   1.307   4.284   0.780  1.3884  2.1982  1.5622
  494TMC3    H1 7402   1.276   4.654   0.578  0.8366  0.3535 -0.1537
  494TMC3    H2 7403   1.227   4.299   0.364 -0.2296  1.8133 -0.2762
  494TMC3    C7 7404   1.231   4.545   0.336 -0.6775 -0.1114 -0.2867
  494TMC3    C8 7405   1.262   4.136   0.575  0.4100 -0.1612 -0.2896
  494TMC3    O1 7406   1.216   4.479   0.236  0.2508  0.5887  0.7640
  494TMC3    O2 7407   1.341   4.076   0.651  0.5114  0.2129 -0.3772
  495TMC3    C1 7408   0.086   1.745  14.196 -0.4502  0.5169 -0.0286
  495TMC3    C2 7409   0.050   1.779  14.070  0.5264  0.2178 -0.0770
  495TMC3    C3 7410   4.707   1.890  14.052  0.1455  0.4242 -0.1017
  495TMC3    C4 7411   0.072   1.841  14.295  0.4373 -0.0746 -0.3647
  495TMC3    C5 7412   0.002   1.954  14.268 -0.3640  0.4877 -0.0336
  495TMC3    C6 7413   4.675   1.980  14.156 -0.2164 -0.3002  0.3625
  495TMC3     C 7414   0.056   1.609  14.242 -0.2268 -0.5171  0.0897
  495TMC3     O 7415   4.733   1.537  14.159  0.2244  0.7067  0.7044
  495TMC3     H 7416   0.074   1.712  13.989  2.4870  1.9585 -0.9253
  495TMC3    H1 7417   0.134   1.844  14.384 -0.9422 -2.8436  0.6955
  495TMC3    H2 7418   4.622   2.071  14.130  1.2263  0.2872 -0.5277
  495TMC3    C7 7419   4.704   2.022  14.389  0.2068 -0.0923  0.5303
  495TMC3    C8 7420   4.583   1.845  13.981  0.0750  0.4623  0.0344
  495TMC3    O1 7421   0.060   2.037  14.464  0.9092  0.5016 -0.5961
  495TMC3    O2 7422   4.496   1.926  13.956  0.4350 -0.6529 -0.0528
  496MPD2     C 7423   1.598   1.961  14.929  0.3322 -0.3100 -0.0624
  496MPD2    C1 7424   1.652   1.839  14.977  0.0455 -0.9817 -0.3245
  496MPD2    C2 7425   1.582   1.778  15.084  0.0469 -0.3888 -0.2926
  496MPD2    C3 7426   1.468   1.840  15.135  0.3002  0.7135  0.1386
  496MPD2    C4 7427   1.414   1.951  15.071 -0.8117 -0.6429 -0.2134
  496MPD2    C5 7428   1.478   2.020  14.969  0.0754  0.7192 -0.0799
  496MPD2     H 7429   1.619   1.688  15.130  2.1840  0.5328 -0.2020
  496MPD2    H1 7430   1.329   1.999  15.117 -1.1356 -2.1633  0.7889
  496MPD2    H2 7431   1.651   2.013  14.849 -0.2493 -0.1119 -0.3189
  496MPD2    H3 7432   1.439   2.112  14.927 -1.0013 -0.6136 -1.9938
  496MPD2     N 7433   1.396   1.782  15.247 -0.1209 -0.2748 -0.4733
  496MPD2    H5 7434   1.323   1.837  15.291  0.0576 -0.1667 -0.3127
  496MPD2    N1 7435   1.764   1.778  14.910 -0.0324 -0.3794  0.4017
  496MPD2    H7 7436   1.821   1.838  14.851  1.0311 -2.3201 -0.5347
  497TMC3    C1 7437   1.310   1.605  15.377 -0.1511 -0.0645 -0.4909
  497TMC3    C2 7438   1.208   1.552  15.302  0.0011 -0.1500 -0.3835
  497TMC3    C3 7439   1.131   1.442  15.351  0.4871  0.3400 -0.2632
  497TMC3    C4 7440   1.342   1.543  15.496  0.0863 -0.3825 -0.6486
  497TMC3    C5 7441   1.259   1.437  15.545  0.0505  0.0202 -0.3569
  497TMC3    C6 7442   1.147   1.389  15.479  0.4584 -0.2423  0.2195
  497TMC3     C 7443   1.416   1.652  15.290  0.4838 -0.7748  0.2539
  497TMC3     O 7444   1.519   1.586  15.297 -0.1306 -0.6767 -0.3326
  497TMC3     H 7445   1.208   1.596  15.203 -1.1674  0.7134  0.0007
  497TMC3    H1 7446   1.440   1.572  15.533 -0.2644  0.5424 -0.4501
  497TMC3    H2 7447   1.087   1.305  15.512 -0.9973 -0.5681 -3.2602
  497TMC3    C7 7448   1.288   1.368  15.669 -0.1875  0.6499 -0.6127
  497TMC3    C8 7449   1.040   1.388  15.256 -0.0284 -0.1060 -0.5015
  497TMC3    O1 7450   1.213   1.279  15.708  0.1644  0.4951 -0.1669
  497TMC3    O2 7451   1.056   1.423  15.140 -0.2059  0.0049  0.6560
  498MPD2     C 7452   2.398   2.032   9.674 -0.4747 -0.3052  0.2382
  498MPD2    C1 7453   2.333   2.122   9.749 -0.2758  0.0658  0.2902
  498MPD2    C2 7454   2.214   2.096   9.814  0.1471 -0.7201  0.9200
  498MPD2    C3 7455   2.168   1.961   9.808  0.7228  0.3176 -0.7023
  498MPD2    C4 7456   2.233   1.867   9.732  0.0743 -0.4201 -0.0076
  498MPD2    C5 7457   2.349   1.906   9.668  0.1210 -0.6508  0.4400
  498MPD2     H 7458   2.164   2.171   9.874 -0.8043  0.6582 -1.5485
  498MPD2    H1 7459   2.209   1.762   9.726 -1.3175 -0.0013 -1.7746
  498MPD2    H2 7460   2.489   2.063   9.624 -0.3119 -0.6869  0.2913
  498MPD2    H3 7461   2.397   1.826   9.612 -1.2771 -0.6629 -0.7306
  498MPD2     N 7462   2.056   1.922   9.880  0.1842 -0.0535 -0.3526
  498MPD2    H5 7463   1.996   1.988   9.928 -0.1212 -0.2824 -0.4123
  498MPD2    N1 7464   2.385   2.252   9.756 -0.2017  0.2990 -0.0722
  498MPD2    H7 7465   2.313   2.321   9.776  0.2137  0.8811 -0.5539
  499TMC3    C1 7466   2.537   2.446   9.768 -0.6021 -0.1901 -0.1378
  499TMC3    C2 7467   2.669   2.475   9.785  0.8314  0.1116 -0.4252
  499TMC3    C3 7468   2.707   2.587   9.838 -0.5623  0.5190 -0.1372
  499TMC3    C4 7469   2.434   2.531   9.804  0.5097 -0.4476 -0.5179
  499TMC3    C5 7470   2.479   2.654   9.829  0.1427  0.4343  0.1975
  499TMC3    C6 7471   2.609   2.682   9.855  0.7246  0.2545 -0.0933
  499TMC3     C 7472   2.517   2.300   9.750  0.8369  0.6160 -0.4483
  499TMC3     O 7473   2.619   2.231   9.728  0.0513  0.1761 -0.1686
  499TMC3     H 7474   2.743   2.408   9.742  1.9695  1.6018 -0.7727
  499TMC3    H1 7475   2.329   2.506   9.805  0.8882 -2.0600 -1.8137
  499TMC3    H2 7476   2.646   2.781   9.878 -1.6242  0.6183  2.0621
  499TMC3    C7 7477   2.394   2.771   9.836 -0.4353  0.5419  0.4936
  499TMC3    C8 7478   2.839   2.636   9.816 -0.6359 -0.3483 -0.4396
  499TMC3    O1 7479   2.445   2.880   9.803  0.2054  0.3703 -0.0904
  499TMC3    O2 7480   2.846   2.757   9.799 -0.1074 -0.3042 -0.1337
  500MPD2     C 7481   3.695   2.858  10.324 -0.0749  0.3543 -0.2635
  500MPD2    C1 7482   3.647   2.988  10.337  0.1125  0.8412  0.2330
  500MPD2    C2 7483   3.533   3.019  10.262 -0.2437 -0.7158  0.2419
  500MPD2    C3 7484   3.460   2.927  10.179 -0.6926  0.1349  1.2803
  500MPD2    C4 7485   3.499   2.798  10.190 -0.1679  0.4717 -0.2673
  500MPD2    C5 7486   3.618   2.769  10.259 -0.3339  0.3377  0.3139
  500MPD2     H 7487   3.496   3.121  10.259  3.6969  0.6663 -1.3250
  500MPD2    H1 7488   3.443   2.721  10.138  0.5806 -1.0725  1.1849
  500MPD2    H2 7489   3.779   2.807  10.370  0.9441  2.1122 -0.1776
  500MPD2    H3 7490   3.659   2.668  10.258 -2.0243 -0.3289 -0.4867
  500MPD2     N 7491   3.351   2.954  10.096  0.3487 -0.4051 -0.2373
  500MPD2    H5 7492   3.313   2.871  10.050  0.2091 -1.0620  1.0856
  500MPD2    N1 7493   3.717   3.081  10.421  0.1214  0.1782 -0.4712
  500MPD2    H7 7494   3.685   3.177  10.430  0.0192 -0.0235  1.2689
  501TMC3    C1 7495   3.858   3.148  10.595 -0.3540 -0.1899  0.2843
  501TMC3    C2 7496   3.818   3.277  10.579  0.9011  0.2253 -0.2220
  501TMC3    C3 7497   3.859   3.370  10.679  0.2448 -0.1513 -0.8499
  501TMC3    C4 7498   3.920   3.113  10.713  0.1258  0.1415 -0.5134
  501TMC3    C5 7499   3.955   3.199  10.815 -0.6149 -0.0515  0.0030
  501TMC3    C6 7500   3.917   3.328  10.793 -0.0818  0.0991  0.2859
  501TMC3     C 7501   3.816   3.041  10.511 -0.0684 -0.4330 -0.7975
  501TMC3     O 7502   3.862   2.932  10.538 -0.5893  0.4735  0.0151
  501TMC3     H 7503   3.778   3.319  10.487  0.3050 -0.4533 -0.2643
  501TMC3    H1 7504   3.965   3.014  10.717  2.3343  1.1645 -0.2140
  501TMC3    H2 7505   3.923   3.396  10.878 -0.2754  1.0571 -0.4740
  501TMC3    C7 7506   4.100   3.202  10.846  0.4367 -0.0744  0.2576
  501TMC3    C8 7507   3.899   3.503  10.638  0.1281  0.4982 -0.2353
  501TMC3    O1 7508   4.175   3.222  10.749 -0.2630  0.3139 -0.1935
  501TMC3    O2 7509   3.979   3.562  10.707  0.1352 -0.6047  0.0270
  502TMC3    C1 7510   4.021   2.647  15.217 -0.2160 -0.0925  0.5277
  502TMC3    C2 7511   3.970   2.749  15.134 -0.2786  0.0801 -0.2833
  502TMC3    C3 7512   3.842   2.746  15.095  0.0527  0.1412  0.2189
  502TMC3    C4 7513   3.944   2.540  15.248  0.8131 -0.4175  0.2330
  502TMC3    C5 7514   3.812   2.548  15.221 -0.4734  0.8531 -0.7942
  502TMC3    C6 7515   3.759   2.647  15.140 -0.0158  0.1166  0.7425
  502TMC3     C 7516   4.155   2.660  15.268 -0.0117 -0.4541  0.2095
  502TMC3     O 7517   4.233   2.738  15.219 -0.2773 -0.1371 -0.8269
  502TMC3     H 7518   4.031   2.838  15.123 -1.0567  0.7434  0.7345
  502TMC3    H1 7519   3.983   2.454  15.302  0.8766  0.3668  1.4177
  502TMC3    H2 7520   3.663   2.641  15.089 -0.5363  1.9046  1.4989
  502TMC3    C7 7521   3.732   2.435  15.264  0.3317 -0.0196  0.0032
  502TMC3    C8 7522   3.791   2.877  15.048 -0.9839 -0.1961  0.1747
  502TMC3    O1 7523   3.781   2.333  15.310 -0.7458  0.0261 -0.0809
  502TMC3    O2 7524   3.861   2.966  15.002  0.1954  0.2865  0.4157
  503MPD2     C 7525   1.061   3.548  16.938  0.4258 -0.1244  0.1068
  503MPD2    C1 7526   1.132   3.609  17.034 -0.3620 -0.5206 -0.5134
  503MPD2    C2 7527   1.226   3.532  17.097 -0.4779  0.6952  0.2553
  503MPD2    C3 7528   1.250   3.400  17.064  0.3596  0.5701 -0.2537
  503MPD2    C4 7529   1.186   3.351  16.954  0.7456  0.0071  0.1038
  503MPD2    C5 7530   1.086   3.419  16.893 -0.1300  0.0441 -0.2315
  503MPD2     H 7531   1.276   3.574  17.183  0.8815 -0.0205 -0.1797
  503MPD2    H1 7532   1.196   3.248  16.922  0.3039  0.5525 -1.7999
  503MPD2    H2 7533   0.996   3.613  16.880  0.6288 -0.0887 -0.0810
  503MPD2    H3 7534   1.022   3.379  16.816 -0.9475 -0.2977  0.6298
  503MPD2     N 7535   1.338   3.329  17.151 -0.3488 -1.0044  0.1478
  503MPD2    H5 7536   1.360   3.381  17.235  1.4880 -0.8598 -0.4279
  503MPD2    N1 7537   1.118   3.743  17.076 -0.5021  0.0885  0.1716
  503MPD2    H7 7538   1.170   3.771  17.158 -0.5013  0.2542  0.1150
  504TMC3    C1 7539   1.483   3.146  17.223 -0.3052  0.9196  1.1582
  504TMC3    C2 7540   1.503   3.216  17.337 -0.7880  0.6008  0.4587
  504TMC3    C3 7541   1.604   3.183  17.418  0.6632  1.1048 -0.5176
  504TMC3    C4 7542   1.567   3.051  17.178  0.0350 -0.0917  0.3836
  504TMC3    C5 7543   1.675   3.028  17.263 -0.1001 -0.2070  0.5377
  504TMC3    C6 7544   1.694   3.090  17.382  0.1486 -0.3533 -0.1978
  504TMC3     C 7545   1.381   3.195  17.138  0.4192 -0.0349 -0.4395
  504TMC3     O 7546   1.361   3.121  17.038 -0.1636 -0.1174  0.2325
  504TMC3     H 7547   1.424   3.260  17.396 -3.0700  1.0082 -2.9302
  504TMC3    H1 7548   1.534   3.001  17.087  1.5516  2.1566 -1.4112
  504TMC3    H2 7549   1.785   3.076  17.440  0.1195  2.5243  0.5434
  504TMC3    C7 7550   1.753   2.919  17.224 -0.2759 -0.7189  0.0683
  504TMC3    C8 7551   1.601   3.249  17.546  0.4439 -0.6826 -0.2151
  504TMC3    O1 7552   1.740   2.891  17.108 -0.1326  0.5929  0.5215
  504TMC3    O2 7553   1.561   3.363  17.541 -0.3314  0.4308 -0.6283
  505MPD2     C 7554   1.005   1.259  10.856  0.3925  0.2182 -0.1390
  505MPD2    C1 7555   1.027   1.189  10.742 -0.3539  0.0082 -0.4562
  505MPD2    C2 7556   1.136   1.101  10.738 -0.0850 -0.1589 -0.7047
  505MPD2    C3 7557   1.228   1.103  10.843 -0.2577 -0.2389  0.3641
  505MPD2    C4 7558   1.206   1.187  10.951  0.0064  0.1337 -0.5454
  505MPD2    C5 7559   1.090   1.261  10.958 -0.0951 -0.5931 -0.0721
  505MPD2     H 7560   1.152   1.032  10.656  0.8658  0.1497 -0.7784
  505MPD2    H1 7561   1.278   1.192  11.032  0.5126 -1.0738 -0.9200
  505MPD2    H2 7562   0.912   1.315  10.852  1.6333  2.2247 -0.4340
  505MPD2    H3 7563   1.080   1.325  11.045 -0.0506 -1.4747  0.5854
  505MPD2     N 7564   1.352   1.034  10.845  0.3190  0.1575  0.0003
  505MPD2    H5 7565   1.415   1.052  10.923  4.2515 -2.0689 -2.6265
  505MPD2    N1 7566   0.938   1.204  10.635  0.8085  0.2492  0.0389
  505MPD2    H7 7567   0.858   1.267  10.642  0.5114 -0.2951  1.5549
  506TMC3    C1 7568   0.882   1.186  10.409 -0.3833  0.5013  0.0372
  506TMC3    C2 7569   0.878   1.318  10.385 -0.2374 -0.4361  0.2794
  506TMC3    C3 7570   0.916   1.358  10.261  0.2945 -0.0148 -0.0738
  506TMC3    C4 7571   0.887   1.092  10.310  0.2519  0.4344  1.2131
  506TMC3    C5 7572   0.918   1.137  10.183 -0.6180 -0.1819  0.6212
  506TMC3    C6 7573   0.946   1.268  10.162 -0.9040  0.0741 -0.5519
  506TMC3     C 7574   0.937   1.125  10.524  0.0605 -0.6796  0.7903
  506TMC3     O 7575   0.994   1.019  10.505  0.1784  0.0808 -0.0336
  506TMC3     H 7576   0.864   1.387  10.468 -3.1598  1.1506 -1.5502
  506TMC3    H1 7577   0.859   0.989  10.330  1.9092 -0.3879 -0.7738
  506TMC3    H2 7578   0.972   1.298  10.061 -0.5588  0.7475 -0.2651
  506TMC3    C7 7579   1.009   1.034  10.119  0.1689  0.5794  0.4732
  506TMC3    C8 7580   0.939   1.494  10.232  0.2171  0.4613  0.5752
  506TMC3    O1 7581   1.037   1.042  10.003  0.5206 -0.0441  0.5463
  506TMC3    O2 7582   0.869   1.580  10.286  0.1158  0.8571  0.2518
  507TMC3    C1 7583   2.428   2.641  14.826  0.1772  0.1303 -0.0723
  507TMC3    C2 7584   2.403   2.571  14.718 -0.3202  0.3482 -0.2677
  507TMC3    C3 7585   2.438   2.621  14.593  0.2498 -0.1368  0.0384
  507TMC3    C4 7586   2.483   2.762  14.825 -0.5846 -1.2667  0.1301
  507TMC3    C5 7587   2.519   2.811  14.708 -0.2068  0.1418 -0.8510
  507TMC3    C6 7588   2.498   2.741  14.589 -0.4290 -0.1442 -0.2688
  507TMC3     C 7589   2.374   2.597  14.956 -0.3064 -0.7220  0.6474
  507TMC3     O 7590   2.447   2.634  15.048  0.1806  0.0400  0.1040
  507TMC3     H 7591   2.351   2.476  14.728  0.1425  0.0516 -0.6388
  507TMC3    H1 7592   2.516   2.808  14.917 -1.9712 -1.5557  0.7813
  507TMC3    H2 7593   2.539   2.782  14.496 -0.4879  1.0260  0.2146
  507TMC3    C7 7594   2.478   2.953  14.677 -0.7423  0.2115 -0.5628
  507TMC3    C8 7595   2.342   2.616  14.488 -0.4669 -0.2286  0.1526
  507TMC3    O1 7596   2.420   2.958  14.569  0.1880  0.0233  0.7049
  507TMC3    O2 7597   2.278   2.511  14.479  0.3882 -0.1625  0.0747
  508MPD2     C 7598   3.247   0.792  15.947 -0.1056  0.1700  0.2779
  508MPD2    C1 7599   3.283   0.894  16.029 -0.6199 -0.7353 -0.5049
  508MPD2    C2 7600   3.238   1.023  15.997 -0.7608  0.7618  0.8952
  508MPD2    C3 7601   3.184   1.046  15.872 -0.1718 -0.3346 -0.1377
  508MPD2    C4 7602   3.139   0.943  15.794 -0.2203  0.0180 -0.2288
  508MPD2    C5 7603   3.183   0.818  15.831 -0.5433  0.3036  0.1378
  508MPD2     H 7604   3.277   1.105  16.056 -0.5105  0.7019  0.8135
  508MPD2    H1 7605   3.093   0.949  15.696 -1.4617 -1.0796  0.2939
  508MPD2    H2 7606   3.258   0.686  15.965  1.1932  0.1588 -0.5752
  508MPD2    H3 7607   3.164   0.734  15.765 -1.8451  1.8377 -1.4131
  508MPD2     N 7608   3.146   1.183  15.851  0.3547 -0.7143  0.3313
  508MPD2    H5 7609   3.183   1.246  15.922 -1.2177  0.0351  0.4734
  508MPD2    N1 7610   3.342   0.877  16.156 -0.4324 -0.0513  0.1839
  508MPD2    H7 7611   3.354   0.962  16.210 -0.8998 -0.2997  0.6786
  509TMC3    C1 7612   2.838   1.521  15.724 -0.2228 -0.0708  0.3526
  509TMC3    C2 7613   2.850   1.588  15.844  1.2970 -0.1812 -1.2549
  509TMC3    C3 7614   2.944   1.539  15.931  0.1245  0.2306  0.1865
  509TMC3    C4 7615   2.908   1.409  15.695 -0.6919  0.6351  0.4824
  509TMC3    C5 7616   2.999   1.358  15.790 -0.3241 -0.7313 -0.0497
  509TMC3    C6 7617   3.020   1.426  15.907 -0.4460  0.0472 -0.4724
  509TMC3     C 7618   2.751   1.566  15.619  0.5933 -0.8516 -0.2634
  509TMC3     O 7619   2.644   1.623  15.642  0.0049 -0.0565  0.3527
  509TMC3     H 7620   2.791   1.678  15.861 -1.0579 -1.8973 -0.3332
  509TMC3    H1 7621   2.880   1.349  15.609 -1.5252  0.7269  0.6815
  509TMC3    H2 7622   3.069   1.371  15.987 -0.3866 -0.5062 -0.8863
  509TMC3    C7 7623   3.053   1.222  15.765 -0.3460  0.6206  0.3782
  509TMC3    C8 7624   2.998   1.630  16.029  0.2906 -0.1064 -0.6182
  509TMC3    O1 7625   2.986   1.157  15.685  0.0511 -0.4193  0.1836
  509TMC3    O2 7626   2.918   1.690  16.101  0.0777  0.5715  0.1108
  510MPD2     C 7627   1.231   2.329  14.348 -0.1521 -0.2249 -0.2917
  510MPD2    C1 7628   1.297   2.246  14.423  0.3194 -0.4019  0.5803
  510MPD2    C2 7629   1.421   2.197  14.389 -0.2560 -0.3665 -0.0796
  510MPD2    C3 7630   1.479   2.246  14.273  0.0147 -0.8314  0.5884
  510MPD2    C4 7631   1.414   2.344  14.197 -0.1735  0.0311 -0.5316
  510MPD2    C5 7632   1.294   2.392  14.241  0.9432  0.5125 -0.1101
  510MPD2     H 7633   1.478   2.126  14.446  0.1761 -1.4775 -1.9020
  510MPD2    H1 7634   1.457   2.398  14.114  1.9822  0.3129  0.7662
  510MPD2    H2 7635   1.139   2.363  14.393  1.1260  0.8203  1.5282
  510MPD2    H3 7636   1.239   2.467  14.186 -1.9300 -2.1867 -0.8829
  510MPD2     N 7637   1.597   2.175  14.225  0.4525 -0.2654 -0.1152
  510MPD2    H5 7638   1.635   2.107  14.290 -0.0718  0.6769  1.1863
  510MPD2    N1 7639   1.225   2.205  14.529  0.4007 -0.0952 -0.6545
  510MPD2    H7 7640   1.126   2.198  14.509  0.3363 -3.0080  0.5930
  511TMC3    C1 7641   1.177   2.050  14.697  0.1177  0.7500 -0.9837
  511TMC3    C2 7642   1.132   2.061  14.826  1.0999  0.1240 -0.2756
  511TMC3    C3 7643   1.061   1.966  14.873 -0.0468 -0.7864  0.1187
  511TMC3    C4 7644   1.140   1.952  14.610 -0.1701  0.3867  0.0270
  511TMC3    C5 7645   1.064   1.852  14.665 -0.3514  0.0649  0.4432
  511TMC3    C6 7646   1.024   1.852  14.800  0.6446 -0.4918  0.2343
  511TMC3     C 7647   1.274   2.146  14.640  0.4037 -0.3244 -0.2301
  511TMC3     O 7648   1.389   2.156  14.677 -0.4074 -0.7449  0.2177
  511TMC3     H 7649   1.154   2.153  14.879 -0.9657 -0.1994  1.1651
  511TMC3    H1 7650   1.183   1.940  14.511  1.3719 -1.1790  0.8703
  511TMC3    H2 7651   0.952   1.778  14.833 -0.8771  0.2782 -1.3608
  511TMC3    C7 7652   1.024   1.745  14.580 -0.2524  0.3067 -0.7134
  511TMC3    C8 7653   1.007   1.986  15.009 -0.0046 -0.0175  0.5560
  511TMC3    O1 7654   1.023   1.755  14.457 -0.2559  0.1732  0.2375
  511TMC3    O2 7655   0.993   2.095  15.059 -0.3555  0.5379  0.5160
  512TMC3    C1 7656   0.000   1.213  12.766 -0.8534 -0.2924 -0.3346
  512TMC3    C2 7657   0.028   1.152  12.886  0.3957  0.6047 -0.2666
  512TMC3    C3 7658   0.062   1.023  12.879  0.4523  0.7477 -0.0471
  512TMC3    C4 7659   0.015   1.149  12.643 -0.2089 -0.7793 -0.5937
  512TMC3    C5 7660   0.067   1.023  12.646 -0.0019 -0.0165 -0.4102
  512TMC3    C6 7661   0.089   0.956  12.761  0.4793  0.4003 -0.3046
  512TMC3     C 7662   4.671   1.345  12.769  0.2612  0.0687 -0.2863
  512TMC3     O 7663   4.674   1.405  12.660 -0.2247  0.1654  0.6438
  512TMC3     H 7664   0.028   1.211  12.976 -1.7038 -0.7807  0.6546
  512TMC3    H1 7665   4.728   1.195  12.548  2.1345  0.9815 -0.3313
  512TMC3    H2 7666   0.121   0.853  12.773  1.3789  0.8496  1.0831
  512TMC3    C7 7667   0.078   0.945  12.524 -0.7300 -0.4459 -0.1410
  512TMC3    C8 7668   0.080   0.945  13.000 -0.1369  0.0072 -0.3693
  512TMC3    O1 7669   0.017   0.991  12.429 -0.1482 -0.8291  0.4927
  512TMC3    O2 7670   0.153   0.845  12.991 -0.1804  0.2570  0.0742
  513MPD2     C 7671   1.329   1.454  12.886  0.0294  0.4949 -0.3856
  513MPD2    C1 7672   1.403   1.387  12.792  0.5939 -0.3073  0.4057
  513MPD2    C2 7673   1.501   1.298  12.837  0.0147  0.2254  0.5197
  513MPD2    C3 7674   1.521   1.288  12.967  0.2350 -0.3973  0.4710
  513MPD2    C4 7675   1.443   1.348  13.066  0.2780 -0.2054 -0.1014
  513MPD2    C5 7676   1.347   1.434  13.017  0.0937  0.1311  0.2330
  513MPD2     H 7677   1.574   1.260  12.766 -1.9700 -3.2545  0.3632
  513MPD2    H1 7678   1.456   1.325  13.172 -0.4893  2.4087  0.5464
  513MPD2    H2 7679   1.236   1.496  12.850  0.4328  1.4013 -0.3597
  513MPD2    H3 7680   1.280   1.470  13.094  1.8552  3.8760 -0.0063
  513MPD2     N 7681   1.626   1.199  12.996 -0.1798  0.1904  0.0837
  513MPD2    H5 7682   1.671   1.151  12.919 -0.8370  0.7684 -0.6563
  513MPD2    N1 7683   1.402   1.407  12.654 -0.1248  0.0853  0.0400
  513MPD2    H7 7684   1.464   1.347  12.599 -1.0615 -1.8672  1.1132
  514TMC3    C1 7685   1.359   1.477  12.441  1.0514 -0.4378 -0.0000
  514TMC3    C2 7686   1.428   1.583  12.388  0.2798 -0.5066  0.0555
  514TMC3    C3 7687   1.525   1.562  12.298 -0.3395  0.7320  0.5121
  514TMC3    C4 7688   1.407   1.354  12.409  0.4753  0.1726 -0.3469
  514TMC3    C5 7689   1.519   1.337  12.338 -0.0229  0.7398 -0.5520
  514TMC3    C6 7690   1.583   1.436  12.271  0.5186 -0.5420  0.3046
  514TMC3     C 7691   1.333   1.499  12.585 -0.1577  0.6852 -0.1093
  514TMC3     O 7692   1.278   1.602  12.613 -0.1019 -0.3519  0.5827
  514TMC3     H 7693   1.396   1.684  12.413 -0.1549 -1.3537  2.9138
  514TMC3    H1 7694   1.355   1.269  12.451  1.3146  0.6100  1.5675
  514TMC3    H2 7695   1.682   1.435  12.226  0.6346  1.2729  0.5294
  514TMC3    C7 7696   1.608   1.235  12.395 -0.4448 -0.3432 -0.2363
  514TMC3    C8 7697   1.601   1.680  12.272 -0.2346  0.5041  0.1586
  514TMC3    O1 7698   1.581   1.219  12.513  0.3178 -0.0618  0.1519
  514TMC3    O2 7699   1.609   1.765  12.356  0.0253 -0.5662 -0.2756
  515MPD2     C 7700   4.564   3.736  14.496  0.5268  0.1341  0.6314
  515MPD2    C1 7701   4.570   3.610  14.555 -0.1967  0.1065  0.7781
  515MPD2    C2 7702   4.677   3.577  14.643 -0.4598 -0.3896  0.4222
  515MPD2    C3 7703   0.028   3.673  14.690  0.1121  0.5385  0.5620
  515MPD2    C4 7704   0.005   3.797  14.639 -0.3971 -0.4475  0.0601
  515MPD2    C5 7705   4.643   3.830  14.548  0.2555 -0.1126 -0.4006
  515MPD2     H 7706   4.696   3.473  14.667  0.5092  0.2675  2.4491
  515MPD2    H1 7707   0.061   3.881  14.679  1.8207 -2.5372  1.3424
  515MPD2    H2 7708   4.485   3.766  14.428  2.4504  1.5050 -1.0026
  515MPD2    H3 7709   4.630   3.932  14.512  0.4116  0.1473  0.2784
  515MPD2     N 7710   0.136   3.646  14.786 -0.4506 -0.4872 -0.4220
  515MPD2    H5 7711   0.214   3.710  14.799 -0.7883  0.1794 -1.6317
  515MPD2    N1 7712   4.488   3.503  14.518  0.1692  0.2774  0.5689
  515MPD2    H7 7713   4.501   3.417  14.571  0.6458 -0.1473 -0.2496
  516TMC3    C1 7714   4.345   3.374  14.394 -0.0135  0.0675 -0.6529
  516TMC3    C2 7715   4.246   3.358  14.299  0.1293  0.4543  0.2415
  516TMC3    C3 7716   4.192   3.232  14.287  0.2373 -0.0286 -0.5017
  516TMC3    C4 7717   4.388   3.267  14.473 -0.2484 -0.0333  0.5154
  516TMC3    C5 7718   4.334   3.141  14.442 -0.8503 -0.2974 -1.0239
  516TMC3    C6 7719   4.245   3.116  14.343  0.2493  0.7290 -0.4354
  516TMC3     C 7720   4.407   3.505  14.410 -0.6745  0.5171  0.4561
  516TMC3     O 7721   4.368   3.599  14.337 -0.0974 -0.1695  0.2645
  516TMC3     H 7722   4.223   3.440  14.232  2.1272  0.3688 -0.5306
  516TMC3    H1 7723   4.466   3.270  14.548 -1.5602 -0.1673  1.8883
  516TMC3    H2 7724   4.212   3.020  14.305 -0.7653  0.8176  0.1976
  516TMC3    C7 7725   4.333   3.040  14.547  0.7768 -0.0411  0.6514
  516TMC3    C8 7726   4.091   3.202  14.188 -0.9339 -0.6486  0.1788
  516TMC3    O1 7727   4.436   3.039  14.612 -0.0875  0.0456 -0.6388
  516TMC3    O2 7728   4.083   3.092  14.140  0.1682  0.5477 -0.6208
  517MPD2     C 7729   4.500   4.595   0.005  0.4531  0.4814 -0.2679
  517MPD2    C1 7730   4.642   4.598  17.740 -0.6288 -0.0545  0.0763
  517MPD2    C2 7731   4.698   4.713   0.047 -0.2436 -0.3011  0.2482
  517MPD2    C3 7732   4.629   0.068   0.132 -0.3453 -0.3458 -0.3441
  517MPD2    C4 7733   4.496   0.048   0.149  0.7458  0.3873  0.2569
  517MPD2    C5 7734   4.435   4.679   0.082 -0.3625 -0.1762 -1.0007
  517MPD2     H 7735   0.068   4.727   0.028 -0.3272  0.3776  0.2588
  517MPD2    H1 7736   4.434   0.115   0.208  1.1739 -0.4167  1.6487
  517MPD2    H2 7737   4.440   4.523  17.696  2.1979 -2.3265  1.5393
  517MPD2    H3 7738   4.329   4.667   0.099 -0.2495  0.0503 -0.1237
  517MPD2     N 7739   4.698   0.172   0.199 -0.0478  0.4294 -0.5080
  517MPD2    H5 7740   4.645   0.243   0.249  0.7914  2.2053 -2.1370
  517MPD2    N1 7741   4.719   4.499  17.671  0.3911 -0.4368  0.6075
  517MPD2    H7 7742   0.083   4.510  17.676  0.4991 -1.0573 -0.2977
  518TMC3    C1 7743   0.041   4.296  17.587 -0.4401 -0.6954 -0.5574
  518TMC3    C2 7744   0.059   4.185  17.662  0.4060  0.1766  0.1496
  518TMC3    C3 7745   0.158   4.097  17.624  0.5820 -0.6685  0.1182
  518TMC3    C4 7746   0.108   4.336  17.478 -0.4463 -0.0761  0.1715
  518TMC3    C5 7747   0.197   4.241  17.437  0.0445  0.0980 -0.0667
  518TMC3    C6 7748   0.226   4.126  17.510  0.4366  0.5195  0.2127
  518TMC3     C 7749   4.672   4.375  17.635  0.3051  0.4161  0.4575
  518TMC3     O 7750   4.563   4.326  17.644 -0.2304  0.1759  0.1280
  518TMC3     H 7751   4.724   4.162  17.740  0.6065 -2.3776 -0.4050
  518TMC3    H1 7752   0.094   4.421  17.412  2.9345 -0.2382 -0.7582
  518TMC3    H2 7753   0.294   4.052  17.469  1.5752  1.5769  0.2050
  518TMC3    C7 7754   0.260   4.260  17.310 -0.0057  0.0808  0.8373
  518TMC3    C8 7755   0.155   3.960  17.660 -0.6480  0.3844 -0.0850
  518TMC3    O1 7756   0.220   4.352  17.232  0.3039  0.3852  0.5910
  518TMC3    O2 7757   0.197   3.873  17.583  0.4311  0.0692 -0.0420
  519MPD2     C 7758   1.184   3.192  14.216 -0.1337 -0.4966 -0.3098
  519MPD2    C1 7759   1.155   3.209  14.076  0.6798 -0.3775 -0.4704
  519MPD2    C2 7760   1.230   3.138  13.989  0.4417 -0.1381  0.0595
  519MPD2    C3 7761   1.339   3.054  14.030  0.3212  0.4032  0.6207
  519MPD2    C4 7762   1.358   3.047  14.161 -0.4204  0.4618 -0.0360
  519MPD2    C5 7763   1.280   3.108  14.260  0.0712 -0.2578 -0.0815
  519MPD2     H 7764   1.221   3.147  13.882  2.3101  2.1673  0.1115
  519MPD2    H1 7765   1.437   2.985  14.204 -0.5197  0.1072 -0.3585
  519MPD2    H2 7766   1.126   3.248  14.288  2.4221 -0.4930  1.7405
  519MPD2    H3 7767   1.293   3.098  14.367 -0.9115 -0.9801 -0.0306
  519MPD2     N 7768   1.415   2.965  13.948  0.3114  0.5996  0.0046
  519MPD2    H5 7769   1.489   2.915  13.996 -1.0118 -0.0808  1.3468
  519MPD2    N1 7770   1.048   3.301  14.042 -1.2748  0.5363  0.4245
  519MPD2    H7 7771   1.003   3.340  14.124 -1.2896  0.0478  0.6441
  520TMC3    C1 7772   1.452   2.815  13.770  0.5133 -0.6731  0.1693
  520TMC3    C2 7773   1.389   2.754  13.669  0.0482  0.5572  0.6678
  520TMC3    C3 7774   1.433   2.635  13.627  0.3248  0.0783 -0.4900
  520TMC3    C4 7775   1.565   2.763  13.825  0.4449 -0.1867  0.0010
  520TMC3    C5 7776   1.611   2.648  13.772 -0.2822  0.5101 -0.2805
  520TMC3    C6 7777   1.547   2.583  13.673  0.1011 -0.0316  0.3899
  520TMC3     C 7778   1.386   2.934  13.812  0.2509 -0.1703 -0.1048
  520TMC3     O 7779   1.302   2.977  13.733  0.0880 -0.0776  0.1327
  520TMC3     H 7780   1.302   2.805  13.627  1.0103  1.0110 -0.7635
  520TMC3    H1 7781   1.628   2.800  13.906 -0.9347  4.0648 -0.8611
  520TMC3    H2 7782   1.566   2.480  13.648  2.6784  0.6593 -0.5321
  520TMC3    C7 7783   1.738   2.600  13.813 -0.5256 -0.2578 -0.0183
  520TMC3    C8 7784   1.347   2.548  13.550  0.0110  0.2349  0.1559
  520TMC3    O1 7785   1.794   2.639  13.915 -0.3854 -0.0235  0.4974
  520TMC3    O2 7786   1.413   2.475  13.474  0.0462  0.0672 -0.1977
  521MPD2     C 7787   2.153   1.472  17.333 -0.2673  0.7565 -0.8807
  521MPD2    C1 7788   2.173   1.355  17.271  0.8474 -0.4650  0.0157
  521MPD2    C2 7789   2.280   1.343  17.189  0.1290 -0.2814 -0.1213
  521MPD2    C3 7790   2.370   1.450  17.179  0.1054  0.0247  0.1845
  521MPD2    C4 7791   2.361   1.560  17.263  0.0375 -0.1773 -0.2286
  521MPD2    C5 7792   2.241   1.578  17.333 -0.0291 -1.0069 -0.2424
  521MPD2     H 7793   2.297   1.253  17.130 -1.3054  0.7661 -2.1430
  521MPD2    H1 7794   2.429   1.644  17.248  0.7577 -0.7927 -0.3841
  521MPD2    H2 7795   2.064   1.481  17.395  1.6063  2.4088  1.5679
  521MPD2    H3 7796   2.212   1.669  17.386  1.2580 -0.8331  0.1917
  521MPD2     N 7797   2.469   1.429  17.080 -0.3256 -0.2271 -0.4139
  521MPD2    H5 7798   2.472   1.340  17.030 -0.6447 -1.3459  1.5583
  521MPD2    N1 7799   2.071   1.256  17.277 -0.5702  0.1506 -0.4572
  521MPD2    H7 7800   1.998   1.257  17.349  0.9446 -0.0868  1.0900
  522TMC3    C1 7801   2.660   1.465  16.954 -0.1365  0.3129  0.6380
  522TMC3    C2 7802   2.789   1.508  16.938  0.2531  0.3997 -0.3210
  522TMC3    C3 7803   2.854   1.472  16.825  0.7532  0.4383  0.7422
  522TMC3    C4 7804   2.595   1.410  16.847 -0.2003 -0.6462  0.4090
  522TMC3    C5 7805   2.665   1.393  16.727  0.1808 -1.1341  0.1485
  522TMC3    C6 7806   2.796   1.409  16.713 -0.0452 -0.0156  0.0191
  522TMC3     C 7807   2.580   1.510  17.073  0.0420  0.1348  0.0264
  522TMC3     O 7808   2.625   1.603  17.140 -0.5758 -0.0133 -0.1758
  522TMC3     H 7809   2.840   1.552  17.024 -0.7433 -0.5769  0.7754
  522TMC3    H1 7810   2.487   1.406  16.846 -0.1536 -2.3494  0.9336
  522TMC3    H2 7811   2.846   1.381  16.621 -1.1426 -0.1669 -0.5211
  522TMC3    C7 7812   2.581   1.365  16.607 -0.2475  0.7052  0.5814
  522TMC3    C8 7813   2.996   1.496  16.826  0.2217  1.0924  0.1437
  522TMC3    O1 7814   2.606   1.437  16.512  0.2039  0.1417  0.1210
  522TMC3    O2 7815   3.038   1.593  16.895 -0.2811  0.0033 -0.4675
  523MPD2     C 7816   4.261   0.680  10.328  0.1864 -0.2485 -0.3262
  523MPD2    C1 7817   4.216   0.595  10.230 -0.6446 -0.3542  0.2316
  523MPD2    C2 7818   4.109   0.625  10.153  1.1494  0.6142  0.2360
  523MPD2    C3 7819   4.044   0.743  10.160 -0.5453  0.5882 -0.3511
  523MPD2    C4 7820   4.075   0.829  10.263  0.3598  0.2017 -0.7003
  523MPD2    C5 7821   4.185   0.797  10.342 -0.4596  0.0979  0.1744
  523MPD2     H 7822   4.083   0.556  10.073 -1.0168  0.5607  0.9677
  523MPD2    H1 7823   4.013   0.915  10.285  2.7841  2.5721 -2.9974
  523MPD2    H2 7824   4.350   0.673  10.389 -0.6755  2.5982  1.2622
  523MPD2    H3 7825   4.223   0.862  10.421  1.8374 -0.7827 -0.2144
  523MPD2     N 7826   3.942   0.781  10.065 -0.5541  0.0353  0.3417
  523MPD2    H5 7827   3.894   0.868  10.083 -1.6788  0.0513 -2.6202
  523MPD2    N1 7828   4.286   0.472  10.209 -0.4301 -0.3600  0.3698
  523MPD2    H7 7829   4.361   0.446  10.272  0.4173 -0.3706 -0.6565
  524TMC3    C1 7830   3.809   0.777   9.872  0.3679  0.0726 -0.1678
  524TMC3    C2 7831   3.816   0.747   9.737  0.4486 -0.8742  0.8103
  524TMC3    C3 7832   3.739   0.822   9.653  0.6943 -0.6479  0.0012
  524TMC3    C4 7833   3.698   0.846   9.927  0.3975 -0.0729  0.1839
  524TMC3    C5 7834   3.619   0.917   9.846  0.0314 -0.1665 -0.2811
  524TMC3    C6 7835   3.639   0.906   9.705 -0.3082  0.1753 -0.0743
  524TMC3     C 7836   3.905   0.709   9.954 -0.2087 -0.4348  1.5490
  524TMC3     O 7837   3.970   0.622   9.897  0.8208 -0.0487 -0.4913
  524TMC3     H 7838   3.917   0.723   9.705 -0.5385 -0.4903 -2.6767
  524TMC3    H1 7839   3.675   0.840  10.032  0.9384  0.2677  0.3257
  524TMC3    H2 7840   3.565   0.955   9.643 -0.9780 -1.4765 -0.5779
  524TMC3    C7 7841   3.533   1.018   9.906  0.5584  0.3741 -0.9013
  524TMC3    C8 7842   3.724   0.786   9.512  0.3386 -0.2949 -0.7620
  524TMC3    O1 7843   3.511   1.010  10.028 -0.2511  0.0752 -0.4417
  524TMC3    O2 7844   3.638   0.848   9.448 -0.1067 -0.6895  0.6931
  525MPD2     C 7845   2.558   2.598  14.210  0.6070  0.2401 -0.2800
  525MPD2    C1 7846   2.683   2.625  14.250 -0.0362 -0.0476 -0.7939
  525MPD2    C2 7847   2.721   2.757  14.224  0.3469  0.5783 -0.3540
  525MPD2    C3 7848   2.630   2.856  14.208 -0.1186 -0.4710 -0.1952
  525MPD2    C4 7849   2.506   2.825  14.164  0.2612  0.4884  0.0687
  525MPD2    C5 7850   2.473   2.694  14.150  0.1340  0.3060 -0.2086
  525MPD2     H 7851   2.823   2.779  14.252 -0.5624  0.2253  3.2158
  525MPD2    H1 7852   2.439   2.906  14.136  2.0156  2.2778  1.0137
  525MPD2    H2 7853   2.522   2.496  14.222 -0.1512  0.7624  1.9236
  525MPD2    H3 7854   2.371   2.679  14.115 -0.5840  1.1716  1.5164
  525MPD2     N 7855   2.664   2.988  14.206  0.4851  0.6802 -0.1716
  525MPD2    H5 7856   2.589   3.053  14.226 -1.4472 -0.7908 -2.6020
  525MPD2    N1 7857   2.770   2.525  14.291 -0.0445 -0.4462  0.0434
  525MPD2    H7 7858   2.867   2.553  14.298  0.2031 -1.3076  0.0969
  526TMC3    C1 7859   2.842   2.325  14.392  0.4119 -0.2342 -0.2123
  526TMC3    C2 7860   2.827   2.251  14.505  0.0084 -0.2657 -0.0808
  526TMC3    C3 7861   2.948   2.210  14.559 -0.0945 -0.1771  0.6091
  526TMC3    C4 7862   2.956   2.331  14.324  0.4592  0.0011 -0.2112
  526TMC3    C5 7863   3.068   2.272  14.375  0.8587  0.4049  0.1753
  526TMC3    C6 7864   3.070   2.224  14.505 -0.1013 -0.1841 -0.1902
  526TMC3     C 7865   2.731   2.410  14.349  0.3721  0.3397 -0.6164
  526TMC3     O 7866   2.621   2.374  14.389  0.3479 -0.0489  0.3992
  526TMC3     H 7867   2.735   2.259  14.561  0.3446 -0.5394  0.5097
  526TMC3    H1 7868   2.959   2.369  14.223 -1.6818  1.0061  0.1014
  526TMC3    H2 7869   3.159   2.190  14.556  1.6511  1.1275 -2.3351
  526TMC3    C7 7870   3.196   2.293  14.310  0.2294 -0.1183  0.6411
  526TMC3    C8 7871   2.941   2.122  14.668 -0.3571  0.6038 -0.8452
  526TMC3    O1 7872   3.185   2.362  14.209 -0.1654  0.2409  0.3870
  526TMC3    O2 7873   3.041   2.113  14.747  0.0484 -0.6462 -0.4741
  527MPD2     C 7874   0.764   0.471   1.641 -0.3520 -0.6061  0.2219
  527MPD2    C1 7875   0.763   0.461   1.503  0.6112  0.3652  0.4027
  527MPD2    C2 7876   0.880   0.428   1.436  0.6791  0.4442  0.6263
  527MPD2    C3 7877   1.000   0.405   1.508  0.2489 -0.8616 -0.0885
  527MPD2    C4 7878   1.005   0.435   1.644  0.0892 -1.1135  0.6553
  527MPD2    C5 7879   0.886   0.461   1.707 -0.2790  0.4627 -0.0070
  527MPD2     H 7880   0.870   0.415   1.329  0.0104  1.0710  0.6071
  527MPD2    H1 7881   1.090   0.405   1.703 -0.5970 -0.4566  1.9699
  527MPD2    H2 7882   0.680   0.499   1.704 -1.4676 -2.6742 -0.3199
  527MPD2    H3 7883   0.881   0.469   1.815  0.8447  1.9454 -0.0722
  527MPD2     N 7884   1.119   0.355   1.440  0.1106  0.0166 -0.0428
  527MPD2    H5 7885   1.103   0.332   1.343  2.2344 -2.4036  0.1860
  527MPD2    N1 7886   0.647   0.471   1.423 -0.1450  0.0765  0.0532
  527MPD2    H7 7887   0.660   0.467   1.322  2.5380 -1.4185  0.4532
  528TMC3    C1 7888   0.419   0.476   1.367 -0.1438  0.9857  0.0209
  528TMC3    C2 7889   0.452   0.454   1.240  0.0761  0.0534 -0.0627
  528TMC3    C3 7890   0.356   0.471   1.146  0.0844 -0.2062 -0.5174
  528TMC3    C4 7891   0.292   0.509   1.412 -0.4991  0.2808  0.5608
  528TMC3    C5 7892   0.195   0.524   1.315 -0.5560 -0.0051 -0.8606
  528TMC3    C6 7893   0.228   0.509   1.182 -0.3046 -0.3658 -0.0609
  528TMC3     C 7894   0.520   0.486   1.473  0.1541 -0.2029 -0.0240
  528TMC3     O 7895   0.476   0.511   1.588  0.3473  0.4774  0.2597
  528TMC3     H 7896   0.553   0.438   1.204  0.6412 -0.9011  1.9819
  528TMC3    H1 7897   0.256   0.521   1.514 -0.3550  1.0988  0.5112
  528TMC3    H2 7898   0.149   0.529   1.111 -1.3723 -0.4806  1.0875
  528TMC3    C7 7899   0.056   0.568   1.348 -0.3884  0.1880  0.1381
  528TMC3    C8 7900   0.405   0.534   1.026  0.4223 -0.2041  0.3388
  528TMC3    O1 7901   4.721   0.609   1.260 -0.2046 -0.9581 -0.0184
  528TMC3    O2 7902   0.506   0.592   1.049  0.4384  0.0852 -0.1860
  529MPD2     C 7903   3.738   4.172   1.593  0.1418  0.2140 -0.4813
  529MPD2    C1 7904   3.712   4.054   1.522 -0.0001 -0.5178 -0.0800
  529MPD2    C2 7905   3.654   4.051   1.396  0.0384 -0.1414 -0.9647
  529MPD2    C3 7906   3.638   4.180   1.333  0.9839 -0.1616 -0.6310
  529MPD2    C4 7907   3.675   4.296   1.401  0.1156  0.6140 -0.4175
  529MPD2    C5 7908   3.715   4.287   1.532 -0.1316  0.0686 -0.1459
  529MPD2     H 7909   3.635   3.957   1.346 -0.0410 -1.2020  1.0218
  529MPD2    H1 7910   3.670   4.393   1.352  1.3282  0.9973  0.2260
  529MPD2    H2 7911   3.769   4.172   1.697 -2.7393 -1.5240  0.3838
  529MPD2    H3 7912   3.745   4.380   1.578  0.1740 -0.4500  0.6899
  529MPD2     N 7913   3.603   4.200   1.196  0.3215  0.1381 -0.8927
  529MPD2    H5 7914   3.613   4.288   1.146  2.7652  0.7476  0.6739
  529MPD2    N1 7915   3.735   3.926   1.571 -0.2584 -0.7786 -0.5439
  529MPD2    H7 7916   3.732   3.851   1.502  0.5050 -0.1660 -1.2377
  530TMC3    C1 7917   3.804   3.757   1.722 -0.0317 -0.2160  0.3000
  530TMC3    C2 7918   3.889   3.718   1.821 -0.0654 -1.0665  0.5526
  530TMC3    C3 7919   3.912   3.584   1.831 -0.6531 -0.2319  1.6720
  530TMC3    C4 7920   3.750   3.666   1.638 -0.4686  0.0464 -0.0585
  530TMC3    C5 7921   3.762   3.530   1.664  0.1906  0.8246 -1.1384
  530TMC3    C6 7922   3.837   3.490   1.772 -0.2381  0.1742 -0.3505
  530TMC3     C 7923   3.772   3.893   1.698  0.3612  0.1059  0.8420
  530TMC3     O 7924   3.772   3.966   1.797  0.3888 -0.2090 -0.2103
  530TMC3     H 7925   3.936   3.791   1.886  0.0322  0.8552 -1.6818
  530TMC3    H1 7926   3.677   3.697   1.564  0.4562  0.5601 -0.7486
  530TMC3    H2 7927   3.868   3.388   1.790  1.1572  0.8156  0.8164
  530TMC3    C7 7928   3.690   3.433   1.579  0.1162 -0.2987 -0.5877
  530TMC3    C8 7929   3.996   3.548   1.951  0.8759 -0.6270  0.9283
  530TMC3    O1 7930   3.672   3.468   1.462  0.1809  0.1533 -0.0325
  530TMC3    O2 7931   3.981   3.625   2.042  0.6219 -0.2595 -0.2480
  531MPD2     C 7932   2.063   0.995  12.472 -0.6914  1.1076 -0.4521
  531MPD2    C1 7933   1.956   1.019  12.558 -0.2689  0.2141  1.0742
  531MPD2    C2 7934   1.846   1.091  12.509  0.2153 -0.0224  0.6711
  531MPD2    C3 7935   1.834   1.119  12.379 -0.7276  0.5574 -0.7701
  531MPD2    C4 7936   1.935   1.086  12.294 -0.3575 -0.0504  0.1421
  531MPD2    C5 7937   2.052   1.031  12.340  0.1480 -0.6924 -0.5647
  531MPD2     H 7938   1.768   1.130  12.573  0.8547  0.5623  1.0941
  531MPD2    H1 7939   1.924   1.124  12.193  1.4017  0.1136  0.0126
  531MPD2    H2 7940   2.150   0.939  12.504 -2.5381 -2.1021 -1.0599
  531MPD2    H3 7941   2.135   1.019  12.272  1.3953  0.3623  0.7829
  531MPD2     N 7942   1.725   1.193  12.327 -0.3607 -0.0396  0.3502
  531MPD2    H5 7943   1.727   1.213  12.227 -1.7275 -0.2322  0.2826
  531MPD2    N1 7944   1.970   0.985  12.693  0.5215 -0.4802 -0.0503
  531MPD2    H7 7945   2.060   0.956  12.730  1.2724  1.5344 -0.2635
  532TMC3    C1 7946   1.903   0.982  12.917 -0.4672 -0.3973 -0.3340
  532TMC3    C2 7947   1.793   1.022  12.990  0.2252 -0.0540 -0.7285
  532TMC3    C3 7948   1.803   1.098  13.098  0.3687  0.0952 -0.4903
  532TMC3    C4 7949   2.023   1.026  12.947 -0.4178  0.0053 -0.1772
  532TMC3    C5 7950   2.031   1.102  13.061 -0.6815  0.3024  0.2866
  532TMC3    C6 7951   1.925   1.142  13.140  0.2960 -0.2654  0.0637
  532TMC3     C 7952   1.863   0.979  12.773  0.1202  0.5263  0.0804
  532TMC3     O 7953   1.748   1.004  12.747  0.1705  0.4642  0.0508
  532TMC3     H 7954   1.700   0.968  12.975  0.1441  0.0429 -0.5794
  532TMC3    H1 7955   2.110   1.004  12.886 -0.2639 -0.4728  0.2230
  532TMC3    H2 7956   1.942   1.205  13.227  0.8151 -1.4279  0.8009
  532TMC3    C7 7957   2.158   1.106  13.125 -0.0946 -0.1226  0.1245
  532TMC3    C8 7958   1.685   1.181  13.121 -0.3785 -0.0480  0.2123
  532TMC3    O1 7959   2.210   1.210  13.163  0.0715 -0.0224 -0.5310
  532TMC3    O2 7960   1.673   1.239  13.228  0.0229  0.3287  0.1877
  533TMC3    C1 7961   2.799   3.167  14.272  0.2708  0.2689  0.3218
  533TMC3    C2 7962   2.913   3.243  14.262  0.0633 -0.4603 -0.9666
  533TMC3    C3 7963   2.944   3.329  14.368 -0.2941 -0.3285  0.1548
  533TMC3    C4 7964   2.714   3.182  14.379 -0.2787 -0.4484 -0.3837
  533TMC3    C5 7965   2.750   3.254  14.487 -0.1070  0.8241  0.0301
  533TMC3    C6 7966   2.858   3.341  14.477  0.8914  0.4471 -0.7448
  533TMC3     C 7967   2.792   3.041  14.205  0.0878  0.0699  0.2683
  533TMC3     O 7968   2.895   2.987  14.163 -0.1067 -0.1175 -0.4637
  533TMC3     H 7969   2.973   3.241  14.172  1.3665  2.2030 -0.1737
  533TMC3    H1 7970   2.625   3.122  14.392  0.5340 -1.2872  1.3052
  533TMC3    H2 7971   2.884   3.406  14.559 -1.9920  2.5870 -1.5365
  533TMC3    C7 7972   2.771   3.155  14.592 -0.3290 -0.2229 -0.0702
  533TMC3    C8 7973   3.070   3.399  14.387  0.5681 -0.5702  0.2955
  533TMC3    O1 7974   2.764   3.037  14.562 -0.3520 -0.3880 -0.8321
  533TMC3    O2 7975   3.082   3.484  14.475 -1.0858 -0.2947 -0.1321
  534MPD2     C 7976   1.523   3.761   2.110 -0.5654 -0.6885 -0.0964
  534MPD2    C1 7977   1.484   3.842   2.012  0.4250  0.7504  0.2914
  534MPD2    C2 7978   1.406   3.798   1.903  0.0709 -0.0081 -0.0093
  534MPD2    C3 7979   1.357   3.665   1.898 -0.2013  1.0475  0.1324
  534MPD2    C4 7980   1.395   3.581   2.000  0.6585 -1.0620 -0.2929
  534MPD2    C5 7981   1.477   3.631   2.101 -0.0879 -0.3912 -0.3214
  534MPD2     H 7982   1.386   3.869   1.823  1.1883 -0.1683 -0.4312
  534MPD2    H1 7983   1.368   3.476   2.010 -0.2403 -0.7041  1.0701
  534MPD2    H2 7984   1.575   3.788   2.201 -1.1195  1.0609 -0.3080
  534MPD2    H3 7985   1.499   3.563   2.183 -0.6800 -0.1107  0.0703
  534MPD2     N 7986   1.255   3.619   1.804 -0.1061  0.1425 -0.2747
  534MPD2    H5 7987   1.233   3.521   1.816 -0.0416  0.2454  0.6325
  534MPD2    N1 7988   1.537   3.972   2.003 -0.1063  0.2933  0.4368
  534MPD2    H7 7989   1.497   4.036   1.935  0.0356  0.3494  0.4061
  535TMC3    C1 7990   1.107   3.629   1.612 -0.3905 -0.0266 -0.1003
  535TMC3    C2 7991   0.998   3.587   1.686  0.2122  0.7997 -0.4051
  535TMC3    C3 7992   0.877   3.612   1.628  0.4190  0.5166  0.2696
  535TMC3    C4 7993   1.095   3.672   1.481 -0.2084  0.3112  0.1416
  535TMC3    C5 7994   0.973   3.698   1.436  0.2428  0.2162  0.3313
  535TMC3    C6 7995   0.860   3.663   1.503  0.6743  1.1224  0.7065
  535TMC3     C 7996   1.212   3.691   1.691  1.2285  0.5672  0.5568
  535TMC3     O 7997   1.240   3.806   1.656 -0.1354  0.6355  0.6157
  535TMC3     H 7998   1.013   3.548   1.786  0.3788  0.6100 -0.5052
  535TMC3    H1 7999   1.188   3.700   1.434 -0.5955 -0.9462 -1.3602
  535TMC3    H2 8000   0.761   3.683   1.465  0.2164  0.9425  1.8124
  535TMC3    C7 8001   0.947   3.771   1.315 -0.1150  0.0838 -0.1845
  535TMC3    C8 8002   0.756   3.581   1.702 -0.4729  0.0202 -0.0529
  535TMC3    O1 8003   0.836   3.763   1.266 -0.7222  0.2791 -0.3077
  535TMC3    O2 8004   0.655   3.565   1.636 -0.6109  0.1045 -0.4019
  536MPD2     C 8005   4.571   1.913  16.279  0.1591  0.1434 -0.3268
  536MPD2    C1 8006   4.451   1.930  16.346  0.4673 -0.4609  0.4008
  536MPD2    C2 8007   4.371   2.036  16.319  0.0410  0.4237  0.1452
  536MPD2    C3 8008   4.396   2.126  16.213  0.9990 -0.3694 -0.4862
  536MPD2    C4 8009   4.507   2.108  16.146 -0.2144 -0.1607 -0.1590
  536MPD2    C5 8010   4.596   2.004  16.177  0.1095 -0.6083 -0.3984
  536MPD2     H 8011   4.288   2.049  16.387  0.7930 -1.0542  1.3461
  536MPD2    H1 8012   4.528   2.173  16.062 -1.0450 -0.3054 -0.4752
  536MPD2    H2 8013   4.639   1.829  16.289  0.8608  0.7139 -0.2947
  536MPD2    H3 8014   4.677   1.994  16.106  2.0295 -0.2318  1.7246
  536MPD2     N 8015   4.304   2.226  16.174 -0.5630  0.2531  0.5933
  536MPD2    H5 8016   4.332   2.294  16.104 -2.0794 -0.2161 -0.4590
  536MPD2    N1 8017   4.429   1.836  16.450  1.0406  0.2639 -0.5606
  536MPD2    H7 8018   4.500   1.764  16.463 -0.5515 -1.2280 -0.2025
  537TMC3    C1 8019   4.344   1.731  16.635 -0.8128  0.7373 -0.0272
  537TMC3    C2 8020   4.462   1.745  16.695  0.2915 -0.5312  0.0400
  537TMC3    C3 8021   4.475   1.721  16.830 -0.1904  0.0674  0.4613
  537TMC3    C4 8022   4.233   1.692  16.705  0.0254 -0.1905  0.4648
  537TMC3    C5 8023   4.247   1.658  16.836  0.6174 -0.6173 -1.0076
  537TMC3    C6 8024   4.364   1.671  16.899  0.5910  0.0969 -0.4999
  537TMC3     C 8025   4.319   1.826  16.532  1.0012 -0.0337  0.5183
  537TMC3     O 8026   4.208   1.868  16.512 -0.2284 -0.9197 -0.0068
  537TMC3     H 8027   4.552   1.776  16.643  1.4060 -1.8092  1.2071
  537TMC3    H1 8028   4.134   1.706  16.662  0.1026  0.2848  0.4423
  537TMC3    H2 8029   4.382   1.654  17.004 -1.6682 -0.1893 -0.1460
  537TMC3    C7 8030   4.127   1.622  16.906 -0.0479 -0.6636 -0.0613
  537TMC3    C8 8031   4.546   1.811  16.918  0.5064 -0.0496 -0.4967
  537TMC3    O1 8032   4.027   1.609  16.837 -0.1881  0.0277 -0.1355
  537TMC3    O2 8033   4.507   1.822  17.032  0.1254  0.5971  0.2553
  538TMC3    C1 8034   0.350   4.563  11.021  0.0149 -0.2760 -0.0244
  538TMC3    C2 8035   0.431   4.513  10.928 -0.1117  0.5160  0.3868
  538TMC3    C3 8036   0.466   4.592  10.816 -0.3601  0.1216 -0.4739
  538TMC3    C4 8037   0.286   4.684  11.013  0.2431 -0.2907 -0.1872
  538TMC3    C5 8038   0.316   0.014  10.897  0.3728 -0.1998  0.0929
  538TMC3    C6 8039   0.400   4.707  10.796 -0.5901  0.2096  0.7068
  538TMC3     C 8040   0.330   4.500  11.153 -0.1622 -0.2088  0.2511
  538TMC3     O 8041   0.349   4.378  11.153 -0.4045 -0.5186 -0.0830
  538TMC3     H 8042   0.491   4.424  10.937 -1.2597 -0.0426  2.6558
  538TMC3    H1 8043   0.199   4.700  11.075  0.1259 -1.0449 -0.1547
  538TMC3    H2 8044   0.408   0.025  10.703  2.4279  3.0890  2.6685
  538TMC3    C7 8045   0.238   0.137  10.873 -0.2832  0.0990  0.0118
  538TMC3    C8 8046   0.550   4.538  10.709 -0.0782  0.2960  0.0280
  538TMC3    O1 8047   0.156   0.168  10.960  0.5559 -1.0648  0.4087
  538TMC3    O2 8048   0.584   4.420  10.710  0.1205 -0.7120 -0.2230
  539MPD2     C 8049   4.722   4.143  11.569 -0.2673  0.2399 -0.6561
  539MPD2    C1 8050   4.715   4.127  11.436 -0.6360 -0.5624  0.1064
  539MPD2    C2 8051   4.720   4.236  11.362  0.4615 -0.1703  0.3161
  539MPD2    C3 8052   4.714   4.365  11.417  0.3940  0.2462  0.1657
  539MPD2    C4 8053   4.707   4.377  11.551 -0.7907  0.2752  1.1056
  539MPD2    C5 8054   4.716   4.264  11.628 -0.1114 -1.0979 -0.3156
  539MPD2     H 8055   4.733   4.224  11.255  0.3296  0.1531  0.2636
  539MPD2    H1 8056   4.714   4.475  11.596 -3.2017  0.0170  1.9907
  539MPD2    H2 8057   4.733   4.054  11.631 -1.7294  3.4582  4.2666
  539MPD2    H3 8058   4.710   4.272  11.736 -1.1655 -2.6484 -0.2538
  539MPD2     N 8059   4.714   4.484  11.338  0.4184 -0.0768  0.0562
  539MPD2    H5 8060   4.726   4.565  11.398  2.2328  1.8960 -3.0334
  539MPD2    N1 8061   4.732   3.998  11.376  0.3484 -0.4498  0.4575
  539MPD2    H7 8062   0.018   3.995  11.277  0.5495 -3.1872  0.5898
  540TMC3    C1 8063   4.707   4.623  11.154  0.0070  0.9087  0.1617
  540TMC3    C2 8064   4.637   4.639  11.037 -0.0501 -0.4442  0.4523
  540TMC3    C3 8065   4.567   0.021  11.017 -0.4790  0.4269 -0.4684
  540TMC3    C4 8066   4.736   4.727  11.241 -0.6033  0.5401 -0.0106
  540TMC3    C5 8067   4.671   0.104  11.214 -0.8686  0.4007 -0.4022
  540TMC3    C6 8068   4.592   0.128  11.106  0.3881  0.4068 -0.1175
  540TMC3     C 8069   4.695   4.490  11.202 -1.2215  0.8079  0.0299
  540TMC3     O 8070   4.659   4.399  11.129 -0.4713  0.0607 -0.2599
  540TMC3     H 8071   4.618   4.549  10.980  0.4130  0.9467 -1.9148
  540TMC3    H1 8072   0.072   4.725  11.322  0.2056  1.6765 -0.7080
  540TMC3    H2 8073   4.545   0.224  11.091 -0.1190  0.0351 -0.9291
  540TMC3    C7 8074   4.658   0.187  11.333  0.4486  0.1706 -0.5711
  540TMC3    C8 8075   4.515   0.065  10.888  0.2716 -0.4340 -0.7064
  540TMC3    O1 8076   4.678   0.138  11.443 -0.2013  0.0182 -0.0509
  540TMC3    O2 8077   4.481   0.184  10.879  0.2280  0.0707  0.6417
  541MPD2     C 8078   3.003   1.457  12.837  0.4007  0.4109 -0.1145
  541MPD2    C1 8079   3.109   1.366  12.830  0.6433  0.0763 -0.6557
  541MPD2    C2 8080   3.204   1.387  12.727 -0.1383 -0.4647 -0.8826
  541MPD2    C3 8081   3.187   1.493  12.635  0.0141  0.3531 -0.2053
  541MPD2    C4 8082   3.078   1.581  12.645  0.9839 -0.5583 -0.1884
  541MPD2    C5 8083   2.991   1.565  12.748  0.3685 -0.2333 -0.2554
  541MPD2     H 8084   3.290   1.322  12.718  0.0874 -0.2913  0.0342
  541MPD2    H1 8085   3.065   1.659  12.571 -0.2746  1.1710  1.8675
  541MPD2    H2 8086   2.917   1.452  12.902  1.3231  0.4217  1.1125
  541MPD2    H3 8087   2.906   1.632  12.755  0.8016  0.1810  1.0308
  541MPD2     N 8088   3.280   1.511  12.529 -0.7092 -0.1608  0.0834
  541MPD2    H5 8089   3.367   1.459  12.540  0.3918  1.3773 -1.4056
  541MPD2    N1 8090   3.120   1.249  12.907  0.4244 -0.2885  0.7960
  541MPD2    H7 8091   3.195   1.187  12.882  0.0477  0.3415 -1.8308
  542TMC3    C1 8092   3.390   1.582  12.342 -0.1808  0.5121 -0.5060
  542TMC3    C2 8093   3.420   1.552  12.210  0.0778 -0.1127 -0.2655
  542TMC3    C3 8094   3.553   1.547  12.169 -0.6009 -0.6524 -0.5856
  542TMC3    C4 8095   3.491   1.633  12.419 -0.8014 -0.4670 -0.1566
  542TMC3    C5 8096   3.612   1.654  12.361  0.1232  0.1048  0.5786
  542TMC3    C6 8097   3.649   1.593  12.247 -0.0402 -0.8777  0.0597
  542TMC3     C 8098   3.262   1.569  12.409 -0.2264  0.0831 -0.0382
  542TMC3     O 8099   3.162   1.597  12.346 -0.5459 -1.1617 -0.3423
  542TMC3     H 8100   3.339   1.527  12.142 -2.1821  1.1851  1.9831
  542TMC3    H1 8101   3.481   1.645  12.527 -0.5033  2.3132 -0.4508
  542TMC3    H2 8102   3.752   1.596  12.215  0.1755  0.9778  0.9524
  542TMC3    C7 8103   3.713   1.677  12.460 -0.1618 -0.3861  0.4969
  542TMC3    C8 8104   3.589   1.470  12.053  0.0632 -0.6672 -0.5056
  542TMC3    O1 8105   3.825   1.635  12.440 -0.7922 -0.3093 -0.4023
  542TMC3    O2 8106   3.499   1.461  11.967  0.0364  0.6089  0.7432
  543TMC3    C1 8107   2.898   3.104  17.409 -0.1313  0.4884  0.9275
  543TMC3    C2 8108   2.878   2.970  17.407 -0.3429 -0.6573 -0.0121
  543TMC3    C3 8109   2.850   2.905  17.520  0.2969  0.2612  0.2520
  543TMC3    C4 8110   2.894   3.178  17.525  0.0078 -0.6498 -0.1654
  543TMC3    C5 8111   2.887   3.099  17.638 -0.1776  0.3237  0.2869
  543TMC3    C6 8112   2.860   2.967  17.639 -0.4097 -0.2076 -0.3190
  543TMC3     C 8113   2.964   3.154  17.289 -0.3195  0.4537 -0.0182
  543TMC3     O 8114   2.999   3.073  17.205 -0.7060  0.5412  0.8045
  543TMC3     H 8115   2.865   2.924  17.309 -0.3795 -0.2549 -0.1987
  543TMC3    H1 8116   2.928   3.281  17.525  2.4439 -1.4508  0.3531
  543TMC3    H2 8117   2.850   2.915  17.734  1.7934 -1.0800 -0.5622
  543TMC3    C7 8118   2.901   3.167   0.013 -0.4600  0.0693  0.5527
  543TMC3    C8 8119   2.891   2.770  17.523 -0.8625 -0.0322 -0.1224
  543TMC3    O1 8120   2.868   3.283   0.015  0.0136 -0.4363  0.4514
  543TMC3    O2 8121   2.957   2.740  17.621  0.0980  0.1427  0.2705
  544MPD2     C 8122   3.059   2.351  17.252  0.3544 -0.1972  0.4564
  544MPD2    C1 8123   3.090   2.389  17.385  0.5190  0.1979 -0.0253
  544MPD2    C2 8124   3.030   2.500  17.438  0.3353  0.0499 -0.1852
  544MPD2    C3 8125   2.939   2.575  17.363  0.0866 -0.3766 -0.2064
  544MPD2    C4 8126   2.920   2.533  17.231 -0.6752 -0.2423  0.3983
  544MPD2    C5 8127   2.980   2.424  17.176 -0.6857 -0.3529 -0.7340
  544MPD2     H 8128   3.049   2.527  17.542 -4.3017 -0.9289  0.9248
  544MPD2    H1 8129   2.853   2.589  17.167 -0.6906 -0.7264 -0.0057
  544MPD2    H2 8130   3.089   2.255  17.212  0.9695  0.6214 -1.0676
  544MPD2    H3 8131   2.954   2.376  17.082  0.6474  1.3448 -1.9726
  544MPD2     N 8132   2.863   2.690  17.407 -1.1593  0.2943 -0.1299
  544MPD2    H5 8133   2.807   2.731  17.333  0.2987  1.1731 -0.7443
  544MPD2    N1 8134   3.185   2.311  17.454  0.7053  0.1283  0.1257
  544MPD2    H7 8135   3.221   2.239  17.393 -0.2770  0.0451 -0.3544
  545TMC3    C1 8136   3.326   2.238  17.639 -0.6389  0.4337  0.1770
  545TMC3    C2 8137   3.364   2.246   0.028  0.1855  0.2721 -0.2941
  545TMC3    C3 8138   3.435   2.140   0.080 -0.0812 -0.3421  0.5195
  545TMC3    C4 8139   3.331   2.116  17.575 -0.1680 -0.0484 -0.3804
  545TMC3    C5 8140   3.408   2.023  17.628  0.4642  0.7624  0.9221
  545TMC3    C6 8141   3.464   2.028   0.009  0.2492 -0.2868  0.3575
  545TMC3     C 8142   3.232   2.333  17.584  0.8436 -0.4476 -0.5055
  545TMC3     O 8143   3.198   2.420  17.664 -0.0480 -0.0949 -0.1043
  545TMC3     H 8144   3.311   2.324   0.082  0.0695  0.3456 -0.5119
  545TMC3    H1 8145   3.295   2.100  17.473 -0.4287  1.8848 -0.5873
  545TMC3    H2 8146   3.511   1.944   0.059  0.2863  0.0363  0.8625
  545TMC3    C7 8147   3.425   1.898  17.559 -0.2289 -0.7028 -0.5545
  545TMC3    C8 8148   3.443   2.125   0.228  0.0751  0.2744  0.5945
  545TMC3    O1 8149   3.417   1.905  17.437 -0.2617 -0.5625  0.1284
  545TMC3    O2 8150   3.487   2.015   0.260  0.3323  0.1123 -0.7615
  546MPD2     C 8151   4.513   2.597   0.218  0.1993  0.9520  0.1549
  546MPD2    C1 8152   4.482   2.630   0.087  0.2106  0.3290  0.8343
  546MPD2    C2 8153   4.552   2.729   0.022  0.0778  0.7488  0.1119
  546MPD2    C3 8154   4.673   2.770   0.082 -0.9007  0.5663 -0.1655
  546MPD2    C4 8155   4.698   2.736   0.212  0.3047 -0.2159  0.0558
  546MPD2    C5 8156   4.617   2.649   0.277 -0.1765 -0.3443 -0.8389
  546MPD2     H 8157   4.525   2.763  17.668 -1.2233 -2.7912 -0.7609
  546MPD2    H1 8158   0.051   2.772   0.260  1.5565 -0.9863 -1.7075
  546MPD2    H2 8159   4.437   2.550   0.280  0.1537  0.8434  0.0147
  546MPD2    H3 8160   4.632   2.626   0.382 -0.7957 -0.9508 -0.8817
  546MPD2     N 8161   0.023   2.861   0.021  0.1844  0.1488  0.0636
  546MPD2    H5 8162   0.094   2.900   0.081 -1.6590 -0.3124  2.5319
  546MPD2    N1 8163   4.359   2.577   0.053  0.2362 -0.8349 -0.4442
  546MPD2    H7 8164   4.305   2.526   0.121 -0.7788 -0.5965 -1.0771
  547TMC3    C1 8165   4.160   2.552  17.683 -0.1227  0.0748  0.4767
  547TMC3    C2 8166   4.073   2.602  17.591  0.5474 -0.5208 -0.9563
  547TMC3    C3 8167   3.939   2.607  17.624  0.2748 -0.5259 -0.3504
  547TMC3    C4 8168   4.115   2.483   0.047 -0.3617  0.0113 -0.1825
  547TMC3    C5 8169   3.982   2.491   0.074  0.6660 -0.8549 -0.1844
  547TMC3    C6 8170   3.891   2.559   0.002 -0.0375  0.4320 -0.3720
  547TMC3     C 8171   4.294   2.602  17.686  0.3928  0.2034 -0.1594
  547TMC3     O 8172   4.330   2.662  17.585 -0.1771  0.2153 -0.2652
  547TMC3     H 8173   4.117   2.639  17.499  4.1019 -0.3073  0.8534
  547TMC3    H1 8174   4.176   2.417   0.107 -0.1401  1.3352  1.0464
  547TMC3    H2 8175   3.789   2.573   0.036  0.7089  3.3104  0.6699
  547TMC3    C7 8176   3.959   2.499   0.217 -0.4580  0.3162  0.5836
  547TMC3    C8 8177   3.852   2.659  17.521 -0.6114  0.7476  0.5950
  547TMC3    O1 8178   4.048   2.558   0.282  0.1622 -0.0681  0.0670
  547TMC3    O2 8179   3.906   2.722  17.432  0.2346  0.2249  0.5868
  548MPD2     C 8180   3.936   3.184  11.756  0.2137  0.3371 -0.3949
  548MPD2    C1 8181   3.997   3.121  11.865  0.7178 -0.2806 -0.3402
  548MPD2    C2 8182   4.128   3.083  11.860  0.2862 -0.2352  0.3852
  548MPD2    C3 8183   4.201   3.101  11.740  0.3764  0.1619 -0.2784
  548MPD2    C4 8184   4.137   3.157  11.628 -0.2612  0.2080  0.2355
  548MPD2    C5 8185   4.006   3.195  11.642 -0.0097 -0.3123 -0.5407
  548MPD2     H 8186   4.179   3.053  11.951  0.5189  1.2756  0.7548
  548MPD2    H1 8187   4.179   3.156  11.528 -0.3549 -2.3372  0.2278
  548MPD2    H2 8188   3.833   3.215  11.768 -0.6278 -1.9836 -1.5014
  548MPD2    H3 8189   3.969   3.236  11.549 -1.6893 -1.8563 -0.5534
  548MPD2     N 8190   4.334   3.044  11.732  0.7011 -0.1429  0.0896
  548MPD2    H5 8191   4.376   3.037  11.824  2.0259  2.6556 -0.3019
  548MPD2    N1 8192   3.924   3.122  11.989 -0.2587  0.3952 -0.6080
  548MPD2    H7 8193   3.848   3.190  11.996 -0.0812  0.4662  0.6048
  549TMC3    C1 8194   3.901   3.069  12.218  0.6193 -0.2077 -0.1641
  549TMC3    C2 8195   3.821   3.181  12.240  0.2818 -0.1010  0.0583
  549TMC3    C3 8196   3.759   3.198  12.357  0.3567  0.2756  0.4493
  549TMC3    C4 8197   3.937   2.989  12.325  0.4054 -0.1254 -0.0969
  549TMC3    C5 8198   3.866   3.008  12.444  0.4655 -0.4428 -0.4231
  549TMC3    C6 8199   3.778   3.112  12.461 -0.5615  0.5874  0.8818
  549TMC3     C 8200   3.977   3.049  12.096 -0.2075  0.1378 -0.1789
  549TMC3     O 8201   4.046   2.948  12.099 -0.5384 -0.2496 -0.2634
  549TMC3     H 8202   3.796   3.250  12.160  0.4640 -1.5533 -1.2505
  549TMC3    H1 8203   4.019   2.918  12.324 -1.4774 -2.2550 -2.9248
  549TMC3    H2 8204   3.718   3.125  12.551 -2.8916  1.1183 -0.7499
  549TMC3    C7 8205   3.891   2.922  12.558 -0.9473  0.3331 -0.1474
  549TMC3    C8 8206   3.673   3.306  12.384  0.1019 -0.6259 -0.4961
  549TMC3    O1 8207   3.831   2.953  12.658  0.2571  0.0182 -0.3759
  549TMC3    O2 8208   3.567   3.268  12.432  0.1846 -0.0337  0.0941
  550TMC3    C1 8209   2.707   1.376  12.648 -0.7788  0.7493  0.2701
  550TMC3    C2 8210   2.687   1.484  12.737 -0.2440  0.0668 -0.4734
  550TMC3    C3 8211   2.592   1.566  12.689  0.5478  0.6912  0.1301
  550TMC3    C4 8212   2.652   1.370  12.522 -1.3074 -0.1863  0.1791
  550TMC3    C5 8213   2.596   1.483  12.474 -0.1551  0.4131 -0.2811
  550TMC3    C6 8214   2.557   1.582  12.557  0.4604 -0.6924 -0.6237
  550TMC3     C 8215   2.793   1.266  12.687  0.0684  0.0293  0.1811
  550TMC3     O 8216   2.789   1.231  12.803  0.0185  0.0374  0.4823
  550TMC3     H 8217   2.727   1.483  12.838 -0.4175  1.5483 -0.3914
  550TMC3    H1 8218   2.673   1.281  12.463  1.6348 -0.0279  0.9719
  550TMC3    H2 8219   2.514   1.672  12.515  2.8720  0.1156 -1.4120
  550TMC3    C7 8220   2.553   1.485  12.335 -0.4669  0.2627  0.3306
  550TMC3    C8 8221   2.585   1.694  12.757 -0.8007 -0.1028 -0.4928
  550TMC3    O1 8222   2.460   1.556  12.295  0.5842  0.1957 -0.3675
  550TMC3    O2 8223   2.694   1.741  12.788 -0.4022  0.2686  0.4000
  551TMC3    C1 8224   0.086   3.575  13.036 -0.0655  0.5469  0.0132
  551TMC3    C2 8225   0.212   3.563  12.990  0.3132  0.0018 -0.7150
  551TMC3    C3 8226   0.309   3.649  13.040 -0.0774 -0.5970 -0.2075
  551TMC3    C4 8227   0.052   3.646  13.143  0.2481  0.5186 -0.0284
  551TMC3    C5 8228   0.156   3.716  13.203 -0.6469  0.2302  0.4853
  551TMC3    C6 8229   0.277   3.727  13.143 -0.3525  0.0632 -0.2865
  551TMC3     C 8230   4.725   3.483  12.974  0.2779 -0.2224 -0.5883
  551TMC3     O 8231   0.032   3.390  12.907 -0.6691  0.1571  0.2034
  551TMC3     H 8232   0.224   3.511  12.896  0.0624 -2.5284  0.6404
  551TMC3    H1 8233   4.685   3.656  13.174  0.0304  1.8076 -1.1972
  551TMC3    H2 8234   0.356   3.787  13.186 -0.4004  0.7744 -1.1775
  551TMC3    C7 8235   0.150   3.760  13.339 -0.0633 -0.4324 -0.3233
  551TMC3    C8 8236   0.406   3.689  12.941  0.1175 -0.1233  0.4450
  551TMC3    O1 8237   0.251   3.800  13.391  0.0229  0.2765 -0.1874
  551TMC3    O2 8238   0.436   3.606  12.858  0.0978  0.3894  0.3576
  552MPD2     C 8239   2.330   1.210  13.504 -0.0987 -0.0979 -0.4804
  552MPD2    C1 8240   2.301   1.105  13.589 -0.3874  0.6583  0.2737
  552MPD2    C2 8241   2.399   1.062  13.675  0.2594  0.1101  0.0898
  552MPD2    C3 8242   2.522   1.127  13.680  0.1071  0.0853  0.0937
  552MPD2    C4 8243   2.548   1.222  13.582 -0.3155  0.6641  0.1242
  552MPD2    C5 8244   2.452   1.265  13.493  0.0736 -0.2357  0.4467
  552MPD2     H 8245   2.384   0.979  13.743  1.3122 -0.4519 -0.3552
  552MPD2    H1 8246   2.647   1.267  13.577  0.7656 -1.6791  0.1331
  552MPD2    H2 8247   2.257   1.257  13.438 -0.0502  0.7779  0.0957
  552MPD2    H3 8248   2.473   1.333  13.411 -0.0855 -0.2401  0.4019
  552MPD2     N 8249   2.610   1.112  13.790  0.2540  0.2404  0.0732
  552MPD2    H5 8250   2.690   1.175  13.790 -1.2474  2.1087  0.3580
  552MPD2    N1 8251   2.181   1.032  13.584 -0.2692 -0.3803 -0.1498
  552MPD2    H7 8252   2.169   0.946  13.637  0.4240  0.1269  0.8347
  553TMC3    C1 8253   1.968   0.988  13.551  0.0115 -0.7792 -0.6303
  553TMC3    C2 8254   1.885   0.935  13.448 -0.1485  1.1816 -0.6748
  553TMC3    C3 8255   1.801   0.830  13.478  0.4654  0.3084 -0.5115
  553TMC3    C4 8256   1.954   0.940  13.682  0.0042  0.0472  0.4666
  553TMC3    C5 8257   1.863   0.845  13.704  0.6217 -0.0153 -0.0750
  553TMC3    C6 8258   1.778   0.795  13.609 -0.0694  0.3045 -0.1553
  553TMC3     C 8259   2.071   1.072  13.516 -0.7183 -0.4566 -0.1685
  553TMC3     O 8260   2.055   1.166  13.441 -0.5055  0.2785 -0.2454
  553TMC3     H 8261   1.886   0.959  13.343 -0.3115 -0.0335 -0.9530
  553TMC3    H1 8262   2.018   0.970  13.764  0.6095 -1.1442  0.4293
  553TMC3    H2 8263   1.732   0.700  13.633 -0.6391  0.5516 -0.2574
  553TMC3    C7 8264   1.870   0.753  13.822  0.0383 -0.0577 -0.6084
  553TMC3    C8 8265   1.855   0.719  13.408  0.5168 -0.6967  0.3032
  553TMC3    O1 8266   1.760   0.721  13.864  0.3024  0.4237  0.4368
  553TMC3    O2 8267   1.966   0.727  13.352 -0.4347  0.0048  0.0574
  554TMC3    C1 8268   3.608   4.450  11.415  0.6993  0.3472 -0.4700
  554TMC3    C2 8269   3.532   4.391  11.321  0.4231  0.0031  0.2757
  554TMC3    C3 8270   3.562   4.401  11.188 -0.0405 -0.2756  0.2770
  554TMC3    C4 8271   3.732   4.506  11.380  0.3950  0.5095  0.5055
  554TMC3    C5 8272   3.768   4.514  11.246  0.2949 -0.7143  0.6378
  554TMC3    C6 8273   3.678   4.468  11.155 -0.2643 -0.3861  0.5760
  554TMC3     C 8274   3.583   4.418  11.556  0.1110  0.1595  0.2113
  554TMC3     O 8275   3.466   4.390  11.591  0.1553  0.1558  0.3497
  554TMC3     H 8276   3.435   4.352  11.350 -0.3607  0.8012 -1.3299
  554TMC3    H1 8277   3.783   4.565  11.456 -0.5464 -0.7855  2.1402
  554TMC3    H2 8278   3.706   4.474  11.051  1.3721 -2.1464  0.9085
  554TMC3    C7 8279   3.875   4.601  11.200  0.3752  0.6646 -0.0676
  554TMC3    C8 8280   3.452   4.465  11.111 -0.2896 -0.1483  0.0326
  554TMC3    O1 8281   3.876   4.623  11.080 -0.3706  0.4255 -0.1758
  554TMC3    O2 8282   3.482   4.563  11.046  0.3166  0.1968 -0.4060
  555TMC3    C1 8283   2.829   4.116  15.055 -0.5059  0.0220 -0.2874
  555TMC3    C2 8284   2.747   4.168  15.147 -0.6345  0.2696  0.3862
  555TMC3    C3 8285   2.747   4.101  15.265  0.4694  0.2139  0.3464
  555TMC3    C4 8286   2.907   4.001  15.068 -0.4517  0.1515  0.0015
  555TMC3    C5 8287   2.891   3.932  15.184 -0.1915 -0.0948  0.1402
  555TMC3    C6 8288   2.806   3.976  15.284  0.3358 -0.4156  0.1512
  555TMC3     C 8289   2.835   4.183  14.924  0.2952 -0.0001 -0.0974
  555TMC3     O 8290   2.935   4.171  14.854 -0.5248  0.1000  0.3633
  555TMC3     H 8291   2.696   4.263  15.133  0.1447  0.5699 -0.4096
  555TMC3    H1 8292   2.928   3.950  14.975  0.4316 -1.2268  0.9456
  555TMC3    H2 8293   2.785   3.909  15.366  0.9784  0.1378  0.7668
  555TMC3    C7 8294   2.925   3.792  15.182  0.4112 -0.2238 -0.4898
  555TMC3    C8 8295   2.682   4.162  15.376 -0.9476  0.7369  0.3583
  555TMC3    O1 8296   2.840   3.715  15.220  0.0660  0.9242 -0.7949
  555TMC3    O2 8297   2.609   4.253  15.350  0.0894 -0.1961  0.1321
  556MPD2     C 8298   0.641   0.969  10.658  0.5342 -0.2127 -0.4678
  556MPD2    C1 8299   0.746   0.889  10.694  0.3981 -1.0732 -0.2337
  556MPD2    C2 8300   0.793   0.799  10.590 -0.2806  0.0995 -0.0125
  556MPD2    C3 8301   0.740   0.804  10.456  0.5523  0.0020 -0.5853
  556MPD2    C4 8302   0.645   0.901  10.421 -0.5189 -0.8813 -0.1854
  556MPD2    C5 8303   0.600   0.981  10.524  0.3918 -0.0150  0.4292
  556MPD2     H 8304   0.874   0.728  10.609  0.0159  0.5106  0.2611
  556MPD2    H1 8305   0.606   0.925  10.322  0.4691 -2.6553 -1.0142
  556MPD2    H2 8306   0.593   1.025  10.738  0.9323 -0.6529  0.0878
  556MPD2    H3 8307   0.528   1.057  10.497  1.1857  0.1790 -1.1420
  556MPD2     N 8308   0.800   0.723  10.359 -0.1002  0.4172  0.3669
  556MPD2    H5 8309   0.869   0.660  10.400  0.7737  0.5725 -0.8823
  556MPD2    N1 8310   0.796   0.865  10.826 -0.5318  0.2122  0.1257
  556MPD2    H7 8311   0.881   0.808  10.830 -0.7456  0.0614  2.2474
  557TMC3    C1 8312   0.805   0.575  10.171 -0.4380 -0.3997  0.2580
  557TMC3    C2 8313   0.810   0.578  10.033  0.4740 -0.4641 -0.0679
  557TMC3    C3 8314   0.796   0.453   9.976  0.7492 -0.2666 -1.5240
  557TMC3    C4 8315   0.791   0.463  10.242 -0.2806 -0.1079  0.1336
  557TMC3    C5 8316   0.771   0.341  10.177 -0.1330  0.4198 -0.2693
  557TMC3    C6 8317   0.776   0.332  10.043  0.2721 -0.7945  0.0740
  557TMC3     C 8318   0.762   0.702  10.231 -0.7307 -0.8555  0.4084
  557TMC3     O 8319   0.712   0.777  10.150  0.6140  0.0011  0.0230
  557TMC3     H 8320   0.825   0.674   9.983  0.8946  0.1593  1.2532
  557TMC3    H1 8321   0.768   0.472  10.347  1.1544  1.3538  0.3077
  557TMC3    H2 8322   0.777   0.236   9.992 -0.4215  0.2101 -1.8340
  557TMC3    C7 8323   0.737   0.235  10.269  0.0634 -0.0182  0.1547
  557TMC3    C8 8324   0.817   0.453   9.832  0.2031 -0.9322 -0.4785
  557TMC3    O1 8325   0.730   0.271  10.385  0.5271 -0.7161 -0.1373
  557TMC3    O2 8326   0.826   0.559   9.771 -0.2394 -0.0649  0.0964
  558TMC3    C1 8327   3.172   3.061   9.982  0.9055  0.7480 -0.5122
  558TMC3    C2 8328   3.073   2.984  10.041 -0.5030 -0.1099 -0.7833
  558TMC3    C3 8329   2.945   2.989   9.993  0.4366 -0.4260  0.3974
  558TMC3    C4 8330   3.146   3.144   9.879 -0.0193 -0.1233 -0.3577
  558TMC3    C5 8331   3.017   3.146   9.839 -0.5927  0.5895  0.0694
  558TMC3    C6 8332   2.919   3.062   9.885 -0.0972 -0.1896  0.1265
  558TMC3     C 8333   3.300   3.074  10.055 -0.0855  0.2285  0.1563
  558TMC3     O 8334   3.350   3.185  10.056  0.3679 -0.3769  0.1596
  558TMC3     H 8335   3.092   2.907  10.115 -0.0591  1.1536  0.4166
  558TMC3    H1 8336   3.222   3.211   9.840  1.5238  0.3914  3.5007
  558TMC3    H2 8337   2.819   3.064   9.843  0.0308 -0.9723 -0.2134
  558TMC3    C7 8338   2.985   3.267   9.762  0.5912 -0.1827 -0.0756
  558TMC3    C8 8339   2.844   2.991  10.087  0.2727  0.0021 -0.2103
  558TMC3    O1 8340   3.079   3.350   9.744 -0.0219 -0.4993 -0.6785
  558TMC3    O2 8341   2.734   3.000  10.037 -0.2472 -0.3937 -0.3733
  559MPD2     C 8342   3.345   4.448  10.468 -0.2036  0.4577  0.3180
  559MPD2    C1 8343   3.290   4.318  10.472  0.1442 -0.7947  0.1110
  559MPD2    C2 8344   3.378   4.215  10.508 -0.5965  0.4522  0.2770
  559MPD2    C3 8345   3.511   4.230  10.528  0.0630 -0.3022 -0.4567
  559MPD2    C4 8346   3.563   4.357  10.518  0.3117 -0.4881  0.1396
  559MPD2    C5 8347   3.479   4.457  10.488 -0.0888  0.1440 -0.0406
  559MPD2     H 8348   3.337   4.116  10.524 -0.0226  0.2894  0.7313
  559MPD2    H1 8349   3.664   4.381  10.548 -0.5916  2.3601  0.9233
  559MPD2    H2 8350   3.283   4.534  10.446 -0.8231 -0.0809 -0.0605
  559MPD2    H3 8351   3.517   4.558  10.478  1.3144 -0.0907  2.9320
  559MPD2     N 8352   3.587   4.113  10.548 -0.2406  0.5567 -0.3914
  559MPD2    H5 8353   3.551   4.026  10.510 -0.2778  0.7317 -0.7506
  559MPD2    N1 8354   3.150   4.305  10.453 -0.1720 -0.4382  0.0858
  559MPD2    H7 8355   3.101   4.392  10.469 -0.0764 -0.5903  1.1735
  560TMC3    C1 8356   3.774   3.986  10.592 -0.2161  0.2917 -0.1338
  560TMC3    C2 8357   3.667   3.895  10.601 -0.2653  0.1120  0.4428
  560TMC3    C3 8358   3.666   3.804  10.703  0.1860  0.1287 -0.7742
  560TMC3    C4 8359   3.876   3.984  10.688 -0.5907  0.2731  0.3820
  560TMC3    C5 8360   3.874   3.888  10.793  0.6338  0.4516 -0.1425
  560TMC3    C6 8361   3.767   3.801  10.798 -0.7211 -0.5179 -0.4271
  560TMC3     C 8362   3.724   4.116  10.568  0.5061  0.0352  0.5334
  560TMC3     O 8363   3.796   4.203  10.607  0.2259  0.1182 -0.1945
  560TMC3     H 8364   3.612   3.875  10.510  0.7901 -1.7760  0.2134
  560TMC3    H1 8365   3.953   4.061  10.688  0.1617 -0.4833  2.2254
  560TMC3    H2 8366   3.754   3.738  10.885 -1.1623  2.7410  1.9007
  560TMC3    C7 8367   3.962   3.897  10.904  1.1653 -0.5466  0.7433
  560TMC3    C8 8368   3.542   3.731  10.732  0.3805 -1.0829  0.0813
  560TMC3    O1 8369   3.936   3.832  11.000 -0.3040  0.3097 -0.3026
  560TMC3    O2 8370   3.537   3.640  10.813 -0.5938  0.2263 -0.5124
  561TMC3    C1 8371   1.377   3.478  11.181 -0.7501  0.1842  1.1391
  561TMC3    C2 8372   1.333   3.474  11.308  0.5052 -0.0054 -0.7491
  561TMC3    C3 8373   1.225   3.550  11.336 -0.3360 -0.6472 -0.3692
  561TMC3    C4 8374   1.338   3.560  11.083 -0.3004  0.2808  0.2093
  561TMC3    C5 8375   1.235   3.650  11.123 -0.3779  0.3486 -0.5698
  561TMC3    C6 8376   1.179   3.643  11.248 -0.2980 -0.0148  0.0275
  561TMC3     C 8377   1.486   3.382  11.149  0.7445 -0.6903  0.3234
  561TMC3     O 8378   1.489   3.292  11.232 -0.0584 -0.9690  0.3739
  561TMC3     H 8379   1.374   3.416  11.390  0.7303  0.8007 -0.2920
  561TMC3    H1 8380   1.380   3.556  10.983 -1.3844 -0.5589 -0.2201
  561TMC3    H2 8381   1.117   3.725  11.283 -1.8568 -1.2112  0.0405
  561TMC3    C7 8382   1.184   3.745  11.039 -0.4755 -0.4234 -0.8906
  561TMC3    C8 8383   1.211   3.592  11.475 -0.7918  0.3314  0.7195
  561TMC3    O1 8384   1.068   3.772  11.048 -0.1874  0.1562 -0.4663
  561TMC3    O2 8385   1.309   3.558  11.544 -0.4867 -0.0365  0.0668
  562TMC3    C1 8386   2.379   0.829  16.287  0.4158  0.0925  0.4406
  562TMC3    C2 8387   2.436   0.882  16.175  0.2526 -0.0274  0.2816
  562TMC3    C3 8388   2.405   0.816  16.057  0.0875  0.1021  0.1888
  562TMC3    C4 8389   2.285   0.729  16.283  0.1685 -0.2656 -0.2391
  562TMC3    C5 8390   2.258   0.669  16.162  0.1504  0.4378 -0.9559
  562TMC3    C6 8391   2.322   0.708  16.046  0.2083 -0.0192  0.4816
  562TMC3     C 8392   2.480   0.807  16.381 -0.0852  0.2715 -0.1877
  562TMC3     O 8393   2.493   0.691  16.410  0.1878 -0.0518  0.3570
  562TMC3     H 8394   2.491   0.976  16.174  1.0282 -0.4890 -1.8342
  562TMC3    H1 8395   2.225   0.703  16.370  0.1446  2.2072  0.4797
  562TMC3    H2 8396   2.304   0.647  15.958 -1.4351  0.3383  0.5662
  562TMC3    C7 8397   2.247   0.525  16.168 -0.3188  0.0753  0.6269
  562TMC3    C8 8398   2.506   0.834  15.952  0.2921  0.6983  0.0674
  562TMC3    O1 8399   2.192   0.464  16.078  0.5400  0.5341  0.2409
  562TMC3    O2 8400   2.615   0.887  15.993 -0.1997 -0.2740  0.1339
  563MPD2     C 8401   0.735   1.060  15.947  0.1962  0.8919 -0.1388
  563MPD2    C1 8402   0.795   1.105  16.064  0.3526  1.0535 -0.1239
  563MPD2    C2 8403   0.834   1.010  16.160  0.0883 -0.6069 -0.0548
  563MPD2    C3 8404   0.800   0.875  16.149 -0.2593  0.0231  1.0187
  563MPD2    C4 8405   0.731   0.839  16.035 -0.0344  0.6717 -0.8218
  563MPD2    C5 8406   0.705   0.929  15.936  0.1323 -0.3204  0.4033
  563MPD2     H 8407   0.903   1.044  16.237 -1.2823  0.8259  0.5337
  563MPD2    H1 8408   0.691   0.739  16.028 -1.6525  1.3689 -1.6421
  563MPD2    H2 8409   0.699   1.123  15.867 -0.0222  0.5362 -0.3212
  563MPD2    H3 8410   0.657   0.877  15.853  1.6879 -1.0446 -0.0475
  563MPD2     N 8411   0.836   0.787  16.253  0.2692  0.0385 -0.5929
  563MPD2    H5 8412   0.869   0.822  16.343  1.0439 -1.9231 -0.1156
  563MPD2    N1 8413   0.815   1.243  16.080 -0.5926 -0.0705 -0.0698
  563MPD2    H7 8414   0.781   1.305  16.007 -2.4439  0.2455  1.0477
  564TMC3    C1 8415   0.822   1.308  16.300  0.8692 -0.4304 -0.1170
  564TMC3    C2 8416   0.688   1.341  16.288 -0.0120  0.6043 -0.4945
  564TMC3    C3 8417   0.592   1.298  16.382 -0.3780  0.3221 -0.1453
  564TMC3    C4 8418   0.866   1.254  16.414  0.2479  0.1099  0.4412
  564TMC3    C5 8419   0.774   1.219  16.511 -1.1886 -0.3427 -0.6190
  564TMC3    C6 8420   0.640   1.235  16.493  0.4415  0.1543  0.0106
  564TMC3     C 8421   0.898   1.288  16.178  0.0374  0.1498  0.3937
  564TMC3     O 8422   1.015   1.262  16.186  0.3601  0.2794  0.9502
  564TMC3     H 8423   0.661   1.395  16.198  2.5553 -1.9788 -2.7856
  564TMC3    H1 8424   0.971   1.228  16.429  0.0575 -0.8178  0.1889
  564TMC3    H2 8425   0.582   1.201  16.578  0.5130  1.2377  0.4956
  564TMC3    C7 8426   0.800   1.082  16.561 -0.2161 -0.0720  0.8653
  564TMC3    C8 8427   0.504   1.210  16.315  0.5272  0.1575  0.2281
  564TMC3    O1 8428   0.908   1.052  16.606  0.7103  0.2328  0.1975
  564TMC3    O2 8429   0.493   1.106  16.378 -0.4732  0.4980  0.1661
  565TMC3    C1 8430   0.905   2.078  10.543 -0.2221  0.9493  0.2003
  565TMC3    C2 8431   0.840   1.983  10.621  0.5995 -0.3850 -0.1099
  565TMC3    C3 8432   0.770   1.885  10.562  0.5189 -0.3631 -0.1780
  565TMC3    C4 8433   0.901   2.078  10.409  0.7664  0.4726 -1.1862
  565TMC3    C5 8434   0.819   1.979  10.353  0.2579  1.5443  0.6188
  565TMC3    C6 8435   0.761   1.876  10.423  0.1100 -0.2862 -1.1253
  565TMC3     C 8436   0.999   2.173  10.606 -0.8432  0.3753 -0.1676
  565TMC3     O 8437   1.046   2.265  10.541  0.4813  0.6522 -0.4313
  565TMC3     H 8438   0.852   1.991  10.729  3.3015 -1.9683 -0.2955
  565TMC3    H1 8439   0.961   2.150  10.354  4.1403 -1.7339 -0.4056
  565TMC3    H2 8440   0.700   1.802  10.373  1.3142 -0.7464 -1.9168
  565TMC3    C7 8441   0.805   1.972  10.205 -0.0605 -0.6803  0.6323
  565TMC3    C8 8442   0.713   1.791  10.656  0.2343 -0.8742  0.3342
  565TMC3    O1 8443   0.744   1.875  10.153 -0.0842 -0.4678 -0.2477
  565TMC3    O2 8444   0.731   1.817  10.775  0.5429  0.0310 -0.1333
  566MPD2     C 8445   2.135   4.267  14.278  0.3195 -0.0965 -0.4383
  566MPD2    C1 8446   2.201   4.352  14.189  0.2199  0.4778 -0.3384
  566MPD2    C2 8447   2.135   4.394  14.072  0.0703 -0.0092 -0.2754
  566MPD2    C3 8448   2.005   4.344  14.050  0.1186  0.1259  0.2992
  566MPD2    C4 8449   1.941   4.260  14.135 -0.1384 -0.0753 -0.5673
  566MPD2    C5 8450   2.005   4.226  14.249 -0.3364 -0.0170  0.6929
  566MPD2     H 8451   2.187   4.437  13.987  1.4586  0.2068  0.6756
  566MPD2    H1 8452   1.843   4.214  14.123 -0.4848  0.1582  1.3595
  566MPD2    H2 8453   2.190   4.230  14.364 -0.4199 -0.2328 -0.0196
  566MPD2    H3 8454   1.955   4.154  14.312 -2.4730  1.3764  0.6124
  566MPD2     N 8455   1.941   4.361  13.928  0.4709 -0.3140  0.5543
  566MPD2    H5 8456   1.876   4.291  13.892  1.3626  0.4509 -2.5297
  566MPD2    N1 8457   2.339   4.351  14.202 -0.0793  0.0700 -0.5371
  566MPD2    H7 8458   2.381   4.279  14.260 -0.2688  0.0901 -0.3760
  567TMC3    C1 8459   2.558   4.426  14.134 -0.2886  0.7713 -0.6006
  567TMC3    C2 8460   2.627   4.487  14.032  0.1741  0.4190 -0.1128
  567TMC3    C3 8461   2.754   4.451  14.013 -0.1805 -0.0705 -0.1328
  567TMC3    C4 8462   2.610   4.326  14.200 -0.1125  0.0956  0.2085
  567TMC3    C5 8463   2.736   4.284  14.181  0.0594  0.5581  0.2974
  567TMC3    C6 8464   2.811   4.347  14.086 -0.2364 -0.2151 -0.1291
  567TMC3     C 8465   2.414   4.444  14.136  0.6007  0.0008 -0.4115
  567TMC3     O 8466   2.369   4.540  14.074 -0.3931  0.1075 -0.6878
  567TMC3     H 8467   2.580   4.556  13.964 -0.9667  0.3741  0.6304
  567TMC3    H1 8468   2.548   4.283  14.279 -3.2974  1.2225 -1.6827
  567TMC3    H2 8469   2.918   4.327  14.078  0.0005  1.5740 -1.5495
  567TMC3    C7 8470   2.804   4.192  14.262 -0.2560  0.4354  0.1706
  567TMC3    C8 8471   2.825   4.496  13.891 -0.0158  0.8957  0.5000
  567TMC3    O1 8472   2.919   4.168  14.221 -0.4526 -0.0275 -0.1331
  567TMC3    O2 8473   2.753   4.502  13.794 -0.0969 -0.5954 -0.0539
  568MPD2     C 8474   4.498   4.661  16.178  0.0467 -0.3365 -0.3476
  568MPD2    C1 8475   4.597   4.705  16.256 -0.1294 -0.6530 -0.8778
  568MPD2    C2 8476   4.613   0.104  16.275  0.4500  0.8327 -0.3925
  568MPD2    C3 8477   4.545   0.196  16.201 -0.1217  0.2980  0.2513
  568MPD2    C4 8478   4.442   0.148  16.122 -0.5740 -0.6913  0.3849
  568MPD2    C5 8479   4.423   0.018  16.111 -0.7761 -0.3457 -0.2934
  568MPD2     H 8480   4.689   0.147  16.340  1.6711  0.5221 -1.6296
  568MPD2    H1 8481   4.379   0.217  16.066  3.3023  0.9478 -1.9123
  568MPD2    H2 8482   4.476   4.556  16.167  2.2199 -0.8633  0.4257
  568MPD2    H3 8483   4.336   4.722  16.055 -1.7851  0.8882  0.5512
  568MPD2     N 8484   4.572   0.331  16.219  0.5169 -0.1408  0.3106
  568MPD2    H5 8485   4.646   0.354  16.284 -0.7785 -0.7092  1.9661
  568MPD2    N1 8486   4.666   4.605  16.330 -0.5187 -0.4266 -0.1342
  568MPD2    H7 8487   4.638   4.509  16.316  1.3015 -0.5635 -3.0972
  569TMC3    C1 8488   4.564   0.565  16.190 -0.0939  0.2340 -0.3656
  569TMC3    C2 8489   4.544   0.590  16.320  0.7410 -0.1889  0.6480
  569TMC3    C3 8490   4.591   0.701  16.373 -0.4271 -0.3585  0.3544
  569TMC3    C4 8491   4.630   0.656  16.108  0.7630 -0.0246 -0.2724
  569TMC3    C5 8492   4.670   0.776  16.160 -0.0339 -0.0716  0.3647
  569TMC3    C6 8493   4.647   0.795  16.291  0.6704 -0.2904  0.0707
  569TMC3     C 8494   4.529   0.434  16.141  0.1551  0.3353  0.7368
  569TMC3     O 8495   4.474   0.423  16.032  0.4202  0.2914  0.1159
  569TMC3     H 8496   4.518   0.508  16.387  0.1127 -0.2896  0.2866
  569TMC3    H1 8497   4.614   0.646  16.001  1.0617  0.6438 -0.3875
  569TMC3    H2 8498   4.683   0.884  16.341  1.6678 -0.1732 -0.8365
  569TMC3    C7 8499   4.726   0.876  16.068 -0.3177 -0.4308  0.6360
  569TMC3    C8 8500   4.585   0.714  16.520 -0.4999  0.1216  0.8024
  569TMC3    O1 8501   4.699   0.862  15.950  0.4081 -0.6674  0.6677
  569TMC3    O2 8502   4.494   0.658  16.579  0.1453  0.1256 -0.0970
  570TMC3    C1 8503   4.344   4.072  16.430  0.0928  0.1422  0.1165
  570TMC3    C2 8504   4.370   4.143  16.314  0.0586  0.5273 -0.5413
  570TMC3    C3 8505   4.498   4.185  16.291  0.1807  0.3228  0.3755
  570TMC3    C4 8506   4.439   4.043  16.522  0.3716  0.0163  0.1543
  570TMC3    C5 8507   4.563   4.094  16.494 -0.5402  0.8404 -0.6568
  570TMC3    C6 8508   4.599   4.160  16.379  0.3877 -0.2290 -0.8657
  570TMC3     C 8509   4.204   4.028  16.449 -0.4569  0.6092 -0.1507
  570TMC3     O 8510   4.122   4.101  16.400 -0.3873  1.1985  0.3977
  570TMC3     H 8511   4.287   4.153  16.245 -1.6137 -2.9370  1.0190
  570TMC3    H1 8512   4.421   3.968  16.597 -0.1271  0.8242  0.8353
  570TMC3    H2 8513   4.701   4.192  16.365  0.4766 -0.6454 -1.1891
  570TMC3    C7 8514   4.669   4.050  16.577  0.0582 -0.4498 -0.1311
  570TMC3    C8 8515   4.537   4.253  16.172  0.3226 -0.2287 -0.3018
  570TMC3    O1 8516   0.042   4.044  16.524  0.1758 -0.1278  0.2775
  570TMC3    O2 8517   4.628   4.327  16.192 -0.5241 -0.1402  0.1579
  571MPD2     C 8518   2.852   1.129  17.015  0.4917 -0.4466  0.1382
  571MPD2    C1 8519   2.765   1.157  17.116 -0.1902 -0.0815  0.2391
  571MPD2    C2 8520   2.803   1.250  17.215  0.3989  0.1041  0.5025
  571MPD2    C3 8521   2.926   1.318  17.209 -0.0698 -0.3554 -0.2726
  571MPD2    C4 8522   3.006   1.302  17.099 -0.4083  0.4874 -0.2522
  571MPD2    C5 8523   2.964   1.213  17.001 -0.1379  0.0170  0.0836
  571MPD2     H 8524   2.745   1.264  17.306 -1.5857  2.2433 -1.0791
  571MPD2    H1 8525   3.107   1.340  17.090 -1.0871  2.5183  0.7854
  571MPD2    H2 8526   2.830   1.047  16.947  2.4945 -1.4003  0.6230
  571MPD2    H3 8527   3.038   1.195  16.924  1.6406 -1.3552  2.0917
  571MPD2     N 8528   2.967   1.390  17.323  0.4216 -0.6847 -0.4637
  571MPD2    H5 8529   2.905   1.392  17.403 -1.6860 -0.9981 -2.0725
  571MPD2    N1 8530   2.648   1.073  17.135 -0.0863  0.5261 -0.4624
  571MPD2    H7 8531   2.627   1.015  17.054  0.8735 -1.2489  0.5678
  572TMC3    C1 8532   3.086   1.530  17.466  0.0825  0.2225 -0.2302
  572TMC3    C2 8533   3.068   1.441  17.572 -0.0944 -0.8862  0.1653
  572TMC3    C3 8534   3.086   1.507  17.691  0.3741 -0.4565 -0.2567
  572TMC3    C4 8535   3.113   1.667  17.471 -0.1083  0.7288 -0.0006
  572TMC3    C5 8536   3.108   1.720  17.597 -0.2520  0.0751  0.0803
  572TMC3    C6 8537   3.092   1.643  17.710 -0.5363  0.0347 -0.0573
  572TMC3     C 8538   3.065   1.480  17.336 -0.1470  0.2069  0.2380
  572TMC3     O 8539   3.138   1.518  17.246 -0.1983 -0.0694  0.3079
  572TMC3     H 8540   3.101   1.339  17.556 -0.8513 -1.1918  0.6208
  572TMC3    H1 8541   3.111   1.730  17.383 -1.4726 -0.5573 -0.8940
  572TMC3    H2 8542   3.083   1.683   0.066 -1.6027  0.2477 -0.2408
  572TMC3    C7 8543   3.064   1.855  17.602 -0.6578 -0.4742  0.0417
  572TMC3    C8 8544   3.112   1.432   0.064  0.3490  1.1686  0.2462
  572TMC3    O1 8545   3.032   1.910  17.498  0.2762  0.0418  0.3736
  572TMC3    O2 8546   3.188   1.481   0.148 -0.0345 -0.1419  0.1945
  573MPD2     C 8547   3.452   1.082   0.960 -0.2033  0.0361 -0.4029
  573MPD2    C1 8548   3.465   1.195   0.889  0.1419  0.2018 -0.3030
  573MPD2    C2 8549   3.460   1.180   0.754  0.2538 -0.0134 -0.1679
  573MPD2    C3 8550   3.412   1.066   0.690  0.1027 -0.3452 -0.1737
  573MPD2    C4 8551   3.398   0.960   0.767  0.1797  0.1778 -0.2353
  573MPD2    C5 8552   3.424   0.963   0.902  0.2089 -0.0412 -0.2768
  573MPD2     H 8553   3.486   1.267   0.694 -2.0832  2.0336  1.7894
  573MPD2    H1 8554   3.372   0.858   0.740  2.1583 -0.6897  1.1124
  573MPD2    H2 8555   3.468   1.084   1.067  2.0108 -1.7523 -0.7032
  573MPD2    H3 8556   3.415   0.868   0.953  1.4469 -1.2820 -2.3825
  573MPD2     N 8557   3.394   1.056   0.546 -0.7575 -0.1766  0.3602
  573MPD2    H5 8558   3.351   0.970   0.516  0.4934 -0.5106 -0.4507
  573MPD2    N1 8559   3.484   1.316   0.955 -0.3194  0.0048  0.2190
  573MPD2    H7 8560   3.490   1.308   1.056 -1.0841  1.9838  0.4108
  574TMC3    C1 8561   3.412   1.118   0.318 -1.0091 -0.3680 -0.4942
  574TMC3    C2 8562   3.492   1.163   0.213 -0.1208 -0.3887 -0.3212
  574TMC3    C3 8563   3.467   1.108   0.094 -0.4120  0.0754  0.3558
  574TMC3    C4 8564   3.303   1.028   0.296  0.4308 -0.0508  0.9705
  574TMC3    C5 8565   3.286   0.967   0.175 -0.7393 -0.1529 -0.0264
  574TMC3    C6 8566   3.372   1.010   0.075  1.0760  0.0528  0.8771
  574TMC3     C 8567   3.443   1.150   0.459  0.6449  0.3604  0.2465
  574TMC3     O 8568   3.523   1.235   0.474  0.3794  0.0235 -0.2821
  574TMC3     H 8569   3.571   1.237   0.222  0.7849 -1.4615  0.6376
  574TMC3    H1 8570   3.238   1.010   0.381  0.3385  2.4418  1.4185
  574TMC3    H2 8571   3.360   0.978  17.717  2.2518 -2.2593  1.4806
  574TMC3    C7 8572   3.159   0.918   0.131  0.2209  0.3219 -0.0209
  574TMC3    C8 8573   3.486   1.198  17.728 -0.1486 -0.3159  0.1935
  574TMC3    O1 8574   3.130   0.919   0.014 -0.2493  0.1651  1.1432
  574TMC3    O2 8575   3.556   1.148  17.640  0.3246 -0.2174  0.8717
  575TMC3    C1 8576   0.901   1.566  11.393  0.2543  0.6460  0.1468
  575TMC3    C2 8577   0.783   1.559  11.463  0.8005 -0.3116 -0.2684
  575TMC3    C3 8578   0.672   1.515  11.398 -0.4722  0.3196 -0.3435
  575TMC3    C4 8579   0.913   1.509  11.265 -0.8356 -0.2493 -0.2888
  575TMC3    C5 8580   0.793   1.462  11.209  0.1773 -0.2186  0.2423
  575TMC3    C6 8581   0.673   1.472  11.265 -0.3677 -0.2143  0.1784
  575TMC3     C 8582   1.009   1.648  11.448  0.0769  0.1112 -0.8656
  575TMC3     O 8583   1.122   1.628  11.407 -0.1492 -0.0689  0.0184
  575TMC3     H 8584   0.783   1.610  11.558 -0.7764 -0.1437 -0.3565
  575TMC3    H1 8585   1.005   1.498  11.209 -1.5764 -0.7237 -1.4057
  575TMC3    H2 8586   0.585   1.432  11.217  0.2452  0.2475 -1.3217
  575TMC3    C7 8587   0.791   1.471  11.069 -0.0574  0.0231 -0.3254
  575TMC3    C8 8588   0.584   1.454  11.494 -0.2720 -0.4492 -0.7236
  575TMC3    O1 8589   0.884   1.532  11.016  0.0227 -0.2711 -0.2210
  575TMC3    O2 8590   0.626   1.428  11.604 -0.4045  0.1006 -0.4576
  576MPD2     C 8591   0.156   3.535  12.518  0.1105  0.5887  0.2874
  576MPD2    C1 8592   0.225   3.639  12.458 -0.2286  0.8533 -0.2295
  576MPD2    C2 8593   0.203   3.768  12.524 -1.0089  0.2021  0.1422
  576MPD2    C3 8594   0.137   3.785  12.644 -0.1756 -0.4464  0.3176
  576MPD2    C4 8595   0.056   3.682  12.689 -0.2677 -0.0121  0.7894
  576MPD2    C5 8596   0.076   3.561  12.626  0.6987 -0.3046 -0.3502
  576MPD2     H 8597   0.261   3.849  12.481 -3.0788  0.4810 -2.1409
  576MPD2    H1 8598   4.727   3.693  12.774  0.3322  0.2262  1.2166
  576MPD2    H2 8599   0.163   3.434  12.480  1.4425  0.5148  0.7385
  576MPD2    H3 8600   0.018   3.481  12.671  0.9364 -0.0548  0.4129
  576MPD2     N 8601   0.145   3.909  12.711 -0.1700 -0.3669  0.2593
  576MPD2    H5 8602   0.208   3.977  12.670 -1.2014  1.3445  1.5333
  576MPD2    N1 8603   0.284   3.628  12.331 -0.0641  0.2013 -0.5279
  576MPD2    H7 8604   0.307   3.536  12.297 -3.1549 -0.2093 -1.4328
  577TMC3    C1 8605   0.382   3.684  12.124  0.3682  0.4512 -0.4012
  577TMC3    C2 8606   0.470   3.767  12.062 -0.1053 -0.1717 -0.4915
  577TMC3    C3 8607   0.534   3.721  11.954 -1.0974 -0.0829 -0.1411
  577TMC3    C4 8608   0.346   3.554  12.082  0.3756  0.6966 -0.3114
  577TMC3    C5 8609   0.422   3.513  11.981  0.1564  0.3319 -1.4565
  577TMC3    C6 8610   0.512   3.589  11.912  1.0598  0.0507  0.0262
  577TMC3     C 8611   0.325   3.732  12.249 -0.0978 -0.1260  0.3463
  577TMC3     O 8612   0.310   3.853  12.255 -0.4940 -0.3861  0.2516
  577TMC3     H 8613   0.505   3.857  12.111  0.2542 -1.0433  0.8408
  577TMC3    H1 8614   0.271   3.486  12.122  0.5481  0.1318 -0.9591
  577TMC3    H2 8615   0.563   3.561  11.821 -1.5366 -2.0515 -0.7849
  577TMC3    C7 8616   0.365   3.416  11.902  1.0556 -1.0238  0.2177
  577TMC3    C8 8617   0.674   3.761  11.946  0.3220 -0.3991  0.3498
  577TMC3    O1 8618   0.240   3.401  11.914 -0.0088 -0.1408 -0.1807
  577TMC3    O2 8619   0.718   3.831  12.037  0.6708 -0.2743 -0.5648
  578MPD2     C 8620   4.141   4.004   2.001  0.3484 -0.2144 -0.7065
  578MPD2    C1 8621   4.173   3.940   1.881  0.6453  0.4568  0.9497
  578MPD2    C2 8622   4.242   3.821   1.879 -1.3095 -0.4820  0.8278
  578MPD2    C3 8623   4.304   3.771   1.993  0.1998  0.8406 -0.5032
  578MPD2    C4 8624   4.269   3.826   2.114  0.0060 -0.8349 -0.7539
  578MPD2    C5 8625   4.190   3.940   2.118  0.1165 -0.0327  0.3139
  578MPD2     H 8626   4.257   3.779   1.780  1.0129 -1.2488  1.5160
  578MPD2    H1 8627   4.317   3.803   2.208  2.1485  2.2562 -1.1006
  578MPD2    H2 8628   4.093   4.100   2.013 -0.9489 -1.0066  0.4369
  578MPD2    H3 8629   4.164   3.972   2.218 -1.0369  0.9437 -0.2972
  578MPD2     N 8630   4.407   3.673   1.969  0.3542  0.0053 -0.0408
  578MPD2    H5 8631   4.419   3.662   1.869  0.6720 -0.0164  0.0008
  578MPD2    N1 8632   4.118   4.006   1.774  0.1728  0.6868 -0.2962
  578MPD2    H7 8633   4.079   4.099   1.784 -0.2293  0.5433 -0.5388
  579TMC3    C1 8634   4.590   3.531   2.010 -0.5127  0.6767  0.3614
  579TMC3    C2 8635   4.708   3.523   2.072  0.0309 -0.1560 -0.2255
  579TMC3    C3 8636   0.081   3.461   2.014  0.4186  0.7842 -0.6173
  579TMC3    C4 8637   4.566   3.465   1.895 -0.9706  0.1972  0.4578
  579TMC3    C5 8638   4.670   3.384   1.850 -0.7991 -0.5111 -0.5793
  579TMC3    C6 8639   0.063   3.381   1.901  0.2348  0.3473  0.1384
  579TMC3     C 8640   4.496   3.633   2.058 -0.4805  0.2627  0.4133
  579TMC3     O 8641   4.511   3.668   2.174  0.1916 -0.3808 -0.1437
  579TMC3     H 8642   4.720   3.570   2.169 -2.6458  0.6167 -0.2661
  579TMC3    H1 8643   4.463   3.455   1.865 -1.2377 -0.7207  1.6699
  579TMC3    H2 8644   0.146   3.331   1.853  0.6050  0.9062  0.2006
  579TMC3    C7 8645   4.635   3.293   1.743 -0.1329 -0.1476 -0.4686
  579TMC3    C8 8646   0.210   3.498   2.064  0.1693 -0.2650  0.3066
  579TMC3    O1 8647   4.722   3.205   1.720  0.0701  0.1233 -0.1347
  579TMC3    O2 8648   0.224   3.533   2.180 -0.2734  0.3884  0.2455
  580TMC3    C1 8649   3.350   2.897  12.077 -0.4901  0.0733  0.5939
  580TMC3    C2 8650   3.274   2.903  11.959 -0.4616  0.2760  0.6697
  580TMC3    C3 8651   3.298   2.791  11.876  0.4744  0.0424  0.1801
  580TMC3    C4 8652   3.407   2.779  12.129  0.0554 -0.4145  0.3926
  580TMC3    C5 8653   3.403   2.673  12.056 -0.1403  0.3692  0.3376
  580TMC3    C6 8654   3.369   2.683  11.920 -0.1028 -0.3564  0.2377
  580TMC3     C 8655   3.431   3.018  12.093 -0.3146  0.0649  0.0124
  580TMC3     O 8656   3.498   3.035  12.192  0.0080  0.4330  0.1724
  580TMC3     H 8657   3.215   2.990  11.932 -1.2202 -0.5357 -0.2885
  580TMC3    H1 8658   3.475   2.779  12.213  0.4633 -0.0508  0.0662
  580TMC3    H2 8659   3.397   2.610  11.845  0.1343 -0.5083  0.4722
  580TMC3    C7 8660   3.450   2.549  12.104 -0.4734  0.0538  0.3733
  580TMC3    C8 8661   3.353   2.846  11.764  0.4464 -0.2661 -0.6791
  580TMC3    O1 8662   3.529   2.546  12.200 -0.3035  0.5528 -0.2593
  580TMC3    O2 8663   3.270   2.916  11.710  0.1113 -0.2198  0.5018
  581MPD2     C 8664   1.293   3.253  15.225 -0.7538  0.3127  0.3439
  581MPD2    C1 8665   1.298   3.151  15.134 -0.3941  0.1378 -0.0401
  581MPD2    C2 8666   1.200   3.136  15.042  0.0526  0.3828 -0.1591
  581MPD2    C3 8667   1.099   3.229  15.035  0.4689  0.0900 -0.2231
  581MPD2    C4 8668   1.092   3.331  15.125  0.2354  0.9484 -0.2183
  581MPD2    C5 8669   1.188   3.342  15.217 -0.4052  0.2243  0.5220
  581MPD2     H 8670   1.195   3.042  14.989 -2.0040 -0.8747  2.2380
  581MPD2    H1 8671   1.017   3.410  15.117  0.2276  0.8413 -1.2778
  581MPD2    H2 8672   1.370   3.264  15.301 -1.5104  1.3651  0.9680
  581MPD2    H3 8673   1.184   3.419  15.293  0.3432  0.4785  0.3058
  581MPD2     N 8674   0.993   3.221  14.939 -0.2186 -0.4070 -0.4533
  581MPD2    H5 8675   1.019   3.171  14.855 -1.2868 -0.8868 -0.4942
  581MPD2    N1 8676   1.412   3.064  15.144 -0.3375 -0.2103 -0.1307
  581MPD2    H7 8677   1.481   3.084  15.216 -0.8256  0.3430  0.1859
  582TMC3    C1 8678   1.580   2.920  15.094  0.4954  0.5977 -0.2507
  582TMC3    C2 8679   1.590   2.870  15.215  0.2577 -0.2936  0.2509
  582TMC3    C3 8680   1.645   2.741  15.221 -0.4211 -0.4369 -0.2691
  582TMC3    C4 8681   1.644   2.855  14.987  0.5091 -0.0312 -0.5102
  582TMC3    C5 8682   1.695   2.734  14.990  0.3241 -0.1730 -0.4262
  582TMC3    C6 8683   1.691   2.669  15.109  0.2464 -0.5166  0.4039
  582TMC3     C 8684   1.449   2.969  15.054  0.3327 -0.1191 -0.2188
  582TMC3     O 8685   1.397   2.934  14.950 -0.5497 -0.0216  0.1853
  582TMC3     H 8686   1.557   2.903  15.312 -0.3658  3.8296 -1.3631
  582TMC3    H1 8687   1.632   2.918  14.899 -1.7301 -0.7093 -0.6970
  582TMC3    H2 8688   1.731   2.569  15.114 -1.9896 -1.4096  0.4177
  582TMC3    C7 8689   1.639   2.660  14.880  0.0608 -0.2467  0.7111
  582TMC3    C8 8690   1.621   2.662  15.345  0.5747  0.3273 -0.1648
  582TMC3    O1 8691   1.654   2.715  14.771 -0.5664  0.1584 -0.3651
  582TMC3    O2 8692   1.532   2.696  15.422 -0.5073  0.3001  0.3382
  583MPD2     C 8693   1.061   4.137  16.767 -0.0767  0.5694 -0.0421
  583MPD2    C1 8694   1.194   4.130  16.795  0.4763  0.1351  0.1934
  583MPD2    C2 8695   1.242   4.228  16.880 -0.2657  0.0428  0.2137
  583MPD2    C3 8696   1.161   4.321  16.945  0.0269  0.8306  0.2379
  583MPD2    C4 8697   1.031   4.319  16.914  1.0417  1.3403 -0.0688
  583MPD2    C5 8698   0.983   4.228  16.824 -0.0535  0.0798 -0.8949
  583MPD2     H 8699   1.349   4.237  16.899 -0.3177  1.2706 -0.0753
  583MPD2    H1 8700   0.956   4.385  16.956  0.5874 -0.2397  1.6350
  583MPD2    H2 8701   1.018   4.073  16.691 -0.7474  1.0024 -0.0241
  583MPD2    H3 8702   0.880   4.232  16.793 -0.3949  0.7860  0.3192
  583MPD2     N 8703   1.218   4.428  17.009 -0.0387 -0.4120 -0.5241
  583MPD2    H5 8704   1.318   4.444  17.001  0.0644 -1.1303 -0.7574
  583MPD2    N1 8705   1.288   4.040  16.742 -0.0072 -0.3500 -0.3824
  583MPD2    H7 8706   1.384   4.050  16.772 -1.1229  0.4038  2.9187
  584TMC3    C1 8707   1.231   4.591  17.185  0.5053  0.2232  0.0134
  584TMC3    C2 8708   1.303   4.686  17.122  0.3035 -0.3759 -0.4975
  584TMC3    C3 8709   1.382   0.030  17.191 -0.7565 -0.2312  0.4784
  584TMC3    C4 8710   1.238   4.583  17.323  0.2704  0.0871 -0.4841
  584TMC3    C5 8711   1.320   4.671  17.391 -0.2389 -0.4552 -0.3239
  584TMC3    C6 8712   1.391   0.031  17.328  0.1683  0.4102 -1.2186
  584TMC3     C 8713   1.151   4.505  17.104 -0.0838 -0.0573 -0.1415
  584TMC3     O 8714   1.033   4.506  17.146 -0.1254  0.3886  0.3774
  584TMC3     H 8715   1.303   4.691  17.014 -1.5659 -0.5957 -0.5040
  584TMC3    H1 8716   1.197   4.499  17.378 -2.9350  1.3618 -0.9213
  584TMC3    H2 8717   1.467   0.085  17.383 -0.6971  0.9621 -0.5695
  584TMC3    C7 8718   1.330   4.664  17.537  0.2196  0.7201 -0.3713
  584TMC3    C8 8719   1.497   0.093  17.129 -0.7602  0.1225  0.3721
  584TMC3    O1 8720   1.315   4.560  17.600  0.2137 -0.2250 -0.1724
  584TMC3    O2 8721   1.551   0.022  17.042 -0.0402 -0.6172  0.6490
  585MPD2     C 8722   0.586   3.471   0.838 -0.3184 -0.2859 -0.0869
  585MPD2    C1 8723   0.641   3.482   0.715  0.9800 -0.3242  0.7938
  585MPD2    C2 8724   0.640   3.370   0.628  0.2464 -0.6050 -0.2529
  585MPD2    C3 8725   0.603   3.247   0.674  0.5328  0.5451 -0.1326
  585MPD2    C4 8726   0.550   3.241   0.804  0.5736  0.0548 -0.3951
  585MPD2    C5 8727   0.534   3.351   0.883 -0.3635  0.4720 -0.3866
  585MPD2     H 8728   0.678   3.374   0.527  1.1444  0.1780  0.1132
  585MPD2    H1 8729   0.506   3.154   0.851  2.4283  0.4846  2.0837
  585MPD2    H2 8730   0.570   3.563   0.894  1.7716 -0.1403  0.2597
  585MPD2    H3 8731   0.473   3.348   0.973 -0.5257  1.4551 -0.4546
  585MPD2     N 8732   0.607   3.128   0.595  0.6917 -0.1493 -0.2386
  585MPD2    H5 8733   0.569   3.048   0.644  2.7202 -1.2383 -0.4219
  585MPD2    N1 8734   0.703   3.606   0.679 -0.8156  0.0346 -0.0785
  585MPD2    H7 8735   0.721   3.672   0.754 -0.6498 -0.2092  0.0975
  586TMC3    C1 8736   0.650   2.982   0.427  0.3172 -0.2150 -0.5332
  586TMC3    C2 8737   0.759   2.919   0.382  0.0469  0.0155 -0.2673
  586TMC3    C3 8738   0.751   2.778   0.379 -0.2448 -0.7284  0.3560
  586TMC3    C4 8739   0.534   2.919   0.457 -0.2019  0.5540 -0.2978
  586TMC3    C5 8740   0.527   2.786   0.440  0.2967  0.1093 -0.1395
  586TMC3    C6 8741   0.635   2.719   0.410  1.0453 -0.5211 -0.3075
  586TMC3     C 8742   0.669   3.116   0.474  0.6391 -1.3960  0.6297
  586TMC3     O 8743   0.760   3.184   0.422 -0.3528 -0.2360 -0.1060
  586TMC3     H 8744   0.844   2.975   0.347  1.3563 -1.3759  0.6758
  586TMC3    H1 8745   0.446   2.974   0.487  0.5924  1.1016  0.9795
  586TMC3    H2 8746   0.628   2.611   0.402 -0.1236 -0.4681 -0.0903
  586TMC3    C7 8747   0.433   2.755   0.329 -0.6634 -0.0581 -0.6808
  586TMC3    C8 8748   0.810   2.708   0.262  0.0024  0.7017 -0.0968
  586TMC3    O1 8749   0.375   2.644   0.327  0.0117 -0.3452 -0.5042
  586TMC3    O2 8750   0.736   2.626   0.213  0.2635  0.2741  0.1606
  587TMC3    C1 8751   2.931   2.021  16.007  0.3775 -0.5622 -0.4963
  587TMC3    C2 8752   2.928   2.067  16.136  0.2867  0.8200  1.2317
  587TMC3    C3 8753   3.042   2.129  16.186  0.2169  0.3368 -0.3895
  587TMC3    C4 8754   3.044   2.037  15.934 -0.9730 -0.2671 -0.3820
  587TMC3    C5 8755   3.154   2.100  15.988 -0.2385  0.4017  0.2954
  587TMC3    C6 8756   3.157   2.150  16.113  1.1781  0.4535 -0.1174
  587TMC3     C 8757   2.810   1.995  15.938  0.4875  0.1297  0.0944
  587TMC3     O 8758   2.812   2.036  15.821 -0.1229  0.2005 -0.8960
  587TMC3     H 8759   2.835   2.058  16.191 -0.7116 -1.2691 -0.8111
  587TMC3    H1 8760   3.043   1.991  15.836  0.5353  1.8552 -1.3947
  587TMC3    H2 8761   3.240   2.198  16.164  0.1786  0.4230  1.5439
  587TMC3    C7 8762   3.237   2.160  15.892  0.3200 -0.2134  0.3692
  587TMC3    C8 8763   3.044   2.165  16.320  0.3940  0.0296 -0.5959
  587TMC3    O1 8764   3.206   2.151  15.772 -0.1634 -0.7893 -0.4227
  587TMC3    O2 8765   3.151   2.166  16.378  0.1187  0.2549 -0.2438
  588TMC3    C1 8766   4.731   4.413   9.704 -0.0592  0.4362 -0.1261
  588TMC3    C2 8767   4.704   4.285   9.731 -0.3977  0.1758 -0.0590
  588TMC3    C3 8768   0.062   4.206   9.797 -0.3211 -0.7463  0.4824
  588TMC3    C4 8769   0.113   4.469   9.742  0.2272  0.1842  0.1262
  588TMC3    C5 8770   0.205   4.387   9.811  0.2941 -0.8975 -0.5415
  588TMC3    C6 8771   0.187   4.252   9.831  0.7212 -0.7124  0.4897
  588TMC3     C 8772   4.608   4.493   9.683  0.1022  0.1006  0.5174
  588TMC3     O 8773   4.497   4.433   9.677 -0.0203 -0.0215 -0.4048
  588TMC3     H 8774   4.608   4.240   9.706  0.7659 -1.1186 -2.1871
  588TMC3    H1 8775   0.148   4.563   9.702 -0.4963 -0.5564 -2.2804
  588TMC3    H2 8776   0.258   4.206   9.899  1.9563 -0.5900 -0.7234
  588TMC3    C7 8777   0.303   4.449   9.897  0.6368 -0.4208 -0.2292
  588TMC3    C8 8778   0.028   4.067   9.790  0.3346 -0.8889 -0.2927
  588TMC3    O1 8779   0.407   4.401   9.926  0.4623  0.6083  0.5404
  588TMC3    O2 8780   4.647   4.036   9.772 -0.5707 -0.2906 -0.4875
  589TMC3    C1 8781   0.136   2.146   1.428 -0.3328  0.0278 -0.4126
  589TMC3    C2 8782   0.272   2.145   1.456 -0.2536  0.5537 -0.0765
  589TMC3    C3 8783   0.354   2.073   1.371  0.1664 -0.4376  0.1922
  589TMC3    C4 8784   0.086   2.073   1.324  0.3982  0.2467  0.2745
  589TMC3    C5 8785   0.172   1.995   1.250 -0.1274 -0.3160  0.0881
  589TMC3    C6 8786   0.305   1.990   1.278  0.2726  0.7760  0.0761
  589TMC3     C 8787   0.043   2.215   1.522  0.0580 -0.4808  0.3468
  589TMC3     O 8788   4.659   2.189   1.515  0.8455 -0.3690  0.9568
  589TMC3     H 8789   0.315   2.181   1.549 -1.7189 -2.6342  1.8271
  589TMC3    H1 8790   4.718   2.076   1.296  0.9970  0.8668 -1.9044
  589TMC3    H2 8791   0.372   1.921   1.227 -0.4938 -0.7999  1.2251
  589TMC3    C7 8792   0.129   1.938   1.127 -1.1824  0.0688  1.2016
  589TMC3    C8 8793   0.493   2.042   1.412 -0.1068  0.4607 -0.3252
  589TMC3    O1 8794   0.011   1.905   1.120  0.1110  0.4231  0.3302
  589TMC3    O2 8795   0.513   2.028   1.532  0.8240  0.0719  0.2777
  590MPD2     C 8796   4.069   0.653  16.282 -0.1633 -0.0496 -0.1345
  590MPD2    C1 8797   4.002   0.769  16.305 -0.2041  1.0077  0.6532
  590MPD2    C2 8798   4.058   0.888  16.257 -0.3027  0.4094 -0.6424
  590MPD2    C3 8799   4.169   0.889  16.166  0.5274  0.0690 -0.0923
  590MPD2    C4 8800   4.229   0.767  16.145 -0.4599 -0.2464 -0.1286
  590MPD2    C5 8801   4.180   0.647  16.202 -0.3418  0.0255  0.5758
  590MPD2     H 8802   4.001   0.979  16.270  1.3019  1.2442  0.5851
  590MPD2    H1 8803   4.305   0.750  16.070  1.5916  2.5764  1.3006
  590MPD2    H2 8804   4.022   0.560  16.313 -1.4608  0.3090 -1.0744
  590MPD2    H3 8805   4.228   0.554  16.177 -0.1642  0.8974 -2.3913
  590MPD2     N 8806   4.215   0.995  16.086  0.0767 -0.0844 -0.6505
  590MPD2    H5 8807   4.297   0.978  16.028  1.2061  2.4970  0.1870
  590MPD2    N1 8808   3.872   0.756  16.357  0.1821  0.2550  0.0986
  590MPD2    H7 8809   3.830   0.663  16.353 -1.4012  0.9183  1.2551
  591TMC3    C1 8810   4.261   1.205  16.018 -0.6372  0.4069  0.1832
  591TMC3    C2 8811   4.381   1.166  15.973 -0.3215  0.7606  0.6197
  591TMC3    C3 8812   4.444   1.243  15.879  0.8762  1.0826 -0.2069
  591TMC3    C4 8813   4.196   1.320  15.986 -0.1703 -0.0518  0.0439
  591TMC3    C5 8814   4.258   1.387  15.880 -0.3578 -0.2662  0.0511
  591TMC3    C6 8815   4.383   1.353  15.827  0.4454 -0.1375  0.2872
  591TMC3     C 8816   4.174   1.121  16.088 -0.9895 -0.7373 -0.2416
  591TMC3     O 8817   4.094   1.174  16.165 -0.2063 -0.1315 -0.3186
  591TMC3     H 8818   4.435   1.080  16.011 -0.9933 -1.3697 -3.2255
  591TMC3    H1 8819   4.100   1.351  16.027  0.1704  0.5116  0.4084
  591TMC3    H2 8820   4.411   1.391  15.730 -1.9959 -0.2859 -0.4623
  591TMC3    C7 8821   4.168   1.475  15.806 -0.3831  0.7716 -0.3283
  591TMC3    C8 8822   4.542   1.184  15.788  0.2272 -0.3134 -0.0328
  591TMC3    O1 8823   4.045   1.461  15.818  0.2327  0.0898 -0.1295
  591TMC3    O2 8824   4.540   1.063  15.775  0.0393 -1.0948 -0.6830
  592MPD2     C 8825   4.480   2.245  10.994  1.0344  0.8316 -0.7119
  592MPD2    C1 8826   4.460   2.330  11.101  0.0731  0.1397  0.0058
  592MPD2    C2 8827   4.359   2.299  11.191  0.4393 -0.3308  0.2476
  592MPD2    C3 8828   4.295   2.176  11.192 -0.7438  0.0075 -0.0705
  592MPD2    C4 8829   4.328   2.089  11.093  0.8182  0.0990 -0.3049
  592MPD2    C5 8830   4.418   2.125  10.998  0.1197  0.2882  0.7569
  592MPD2     H 8831   4.334   2.376  11.263  1.0800  0.7062 -0.6342
  592MPD2    H1 8832   4.273   1.996  11.081  1.5238 -0.5562  1.4536
  592MPD2    H2 8833   4.549   2.267  10.913  0.9882  0.2910 -0.8995
  592MPD2    H3 8834   4.440   2.046  10.927 -0.5798  0.0544  0.7909
  592MPD2     N 8835   4.196   2.148  11.287  0.7189 -0.8626  0.6100
  592MPD2    H5 8836   4.166   2.214  11.358 -0.4728 -2.1351  1.2960
  592MPD2    N1 8837   4.543   2.445  11.114 -0.0380 -0.2028  0.3800
  592MPD2    H7 8838   4.605   2.458  11.034 -1.2296  0.6207 -0.4074
  593TMC3    C1 8839   4.660   2.610  11.241  0.8976 -0.5172  0.2835
  593TMC3    C2 8840   4.730   2.640  11.360 -0.2183 -0.4380  0.3178
  593TMC3    C3 8841   0.106   2.726  11.357 -0.1393 -0.5323 -0.4541
  593TMC3    C4 8842   4.699   2.665  11.119 -0.8482 -0.6212  0.5640
  593TMC3    C5 8843   0.077   2.742  11.120  1.0665  0.3025  0.1651
  593TMC3    C6 8844   0.140   2.777  11.235  0.1222  0.6290 -0.4632
  593TMC3     C 8845   4.575   2.493  11.241 -0.4512 -0.8066 -0.8392
  593TMC3     O 8846   4.556   2.439  11.351 -0.3554 -0.3284  0.3990
  593TMC3     H 8847   4.702   2.606  11.459 -0.2147 -1.7416 -0.1379
  593TMC3    H1 8848   4.636   2.644  11.034  3.3496  0.1306 -2.6936
  593TMC3    H2 8849   0.231   2.835  11.222 -0.1130  1.0283 -0.3289
  593TMC3    C7 8850   0.117   2.828  11.003  0.1404  0.4563  0.3193
  593TMC3    C8 8851   0.132   2.827  11.456  0.0008  0.1988  0.2482
  593TMC3    O1 8852   0.188   2.924  11.029  0.3467  0.0777  0.0818
  593TMC3    O2 8853   0.157   2.941  11.420 -0.1020  0.0666  0.4116
  594MPD2     C 8854   3.145   1.395  13.732  0.5034 -0.9997 -0.3664
  594MPD2    C1 8855   3.154   1.347  13.864  0.2786 -0.0214 -0.1003
  594MPD2    C2 8856   3.272   1.374  13.933 -0.4240  0.8920  0.2185
  594MPD2    C3 8857   3.385   1.415  13.866 -0.2712  0.0740  0.0302
  594MPD2    C4 8858   3.383   1.435  13.730  0.4108  0.3634 -0.0280
  594MPD2    C5 8859   3.264   1.433  13.667 -0.3429  0.2012  0.0042
  594MPD2     H 8860   3.281   1.365  14.041 -1.9003 -1.0807  0.1922
  594MPD2    H1 8861   3.467   1.469  13.672  0.8816 -0.1611  0.3417
  594MPD2    H2 8862   3.052   1.406  13.676  0.5518 -0.0078 -0.2438
  594MPD2    H3 8863   3.260   1.469  13.565  2.1283 -1.8717 -0.8004
  594MPD2     N 8864   3.500   1.454  13.936  0.1698  0.1342  0.0965
  594MPD2    H5 8865   3.494   1.460  14.038 -3.8877 -1.0330 -0.0499
  594MPD2    N1 8866   3.039   1.289  13.919  0.0734 -0.1973  0.1231
  594MPD2    H7 8867   2.960   1.288  13.854  1.1000 -0.0626 -1.1317
  595TMC3    C1 8868   3.899   1.680  14.010  0.3516  0.2377  0.3466
  595TMC3    C2 8869   3.831   1.580  13.951  0.4595  0.1056 -0.0803
  595TMC3    C3 8870   3.706   1.553  13.986  0.0354 -0.7449 -0.0184
  595TMC3    C4 8871   3.849   1.760  14.107 -0.4441  0.1743  0.2629
  595TMC3    C5 8872   3.723   1.733  14.144  0.3339 -0.5025 -0.3095
  595TMC3    C6 8873   3.651   1.636  14.082  0.1753 -0.1021  0.3441
  595TMC3     C 8874   4.036   1.697  13.979  0.0184 -0.2075 -0.4012
  595TMC3     O 8875   4.091   1.804  13.987 -0.9332 -0.0302  0.7362
  595TMC3     H 8876   3.869   1.532  13.862  2.0765  0.2516  0.5283
  595TMC3    H1 8877   3.911   1.834  14.156  0.3351  0.6133 -1.4101
  595TMC3    H2 8878   3.551   1.614  14.116  1.0853 -2.4256  1.5411
  595TMC3    C7 8879   3.650   1.832  14.212 -0.3293 -0.0674  0.1490
  595TMC3    C8 8880   3.622   1.487  13.888  0.3786  0.0863  0.0687
  595TMC3    O1 8881   3.551   1.796  14.274  0.3220  0.4649  0.6094
  595TMC3    O2 8882   3.673   1.471  13.779 -0.3218 -0.2125 -0.8106
  596MPD2     C 8883   1.985   3.646  17.078 -0.4733 -0.0588 -0.6158
  596MPD2    C1 8884   1.974   3.734  16.972  0.2674  0.0234  0.5760
  596MPD2    C2 8885   1.990   3.683  16.848  0.0145 -0.1042  0.0557
  596MPD2    C3 8886   2.029   3.553  16.824  0.5951 -0.5186 -0.3914
  596MPD2    C4 8887   2.055   3.471  16.933 -0.3527  0.0608  0.5349
  596MPD2    C5 8888   2.027   3.521  17.055 -0.3940 -0.0583  0.4080
  596MPD2     H 8889   1.987   3.768  16.781 -0.6857  0.0738  0.3217
  596MPD2    H1 8890   2.091   3.369  16.921  0.8914  0.5894 -0.3074
  596MPD2    H2 8891   1.985   3.671  17.183  2.7628 -2.9734  0.1030
  596MPD2    H3 8892   2.039   3.452  17.137 -0.4379  1.4252  1.6582
  596MPD2     N 8893   2.047   3.497  16.693 -0.1346 -0.0701  0.4639
  596MPD2    H5 8894   2.095   3.408  16.686 -0.2310 -0.1844  1.2043
  596MPD2    N1 8895   1.939   3.871  16.978  0.0590  0.9089  0.3515
  596MPD2    H7 8896   1.920   3.924  16.893 -0.0862 -0.6900 -0.6039
  597TMC3    C1 8897   1.919   4.087  17.073  0.7379  0.3002  0.1875
  597TMC3    C2 8898   2.016   4.135  16.991  0.2672 -0.0466  0.1502
  597TMC3    C3 8899   2.066   4.264  17.004  0.8060  0.1777 -0.0372
  597TMC3    C4 8900   1.866   4.166  17.171  0.2276 -0.0392  0.6444
  597TMC3    C5 8901   1.914   4.294  17.182  0.1375  0.6189 -0.5114
  597TMC3    C6 8902   2.014   4.345  17.106  0.8863 -0.7148  0.3160
  597TMC3     C 8903   1.922   3.940  17.095  0.3167 -0.0356  0.4799
  597TMC3     O 8904   1.930   3.897  17.211 -0.3012 -0.3189 -0.2704
  597TMC3     H 8905   2.060   4.062  16.923 -2.2221 -2.1012  0.7730
  597TMC3    H1 8906   1.793   4.125  17.240 -1.2290 -2.1426 -2.1303
  597TMC3    H2 8907   2.064   4.437  17.133  4.9098 -2.0762 -2.4611
  597TMC3    C7 8908   1.860   4.372  17.290 -0.2337  0.2819 -0.7134
  597TMC3    C8 8909   2.188   4.301  16.943 -0.2455  0.0536  0.0053
  597TMC3    O1 8910   1.810   4.310  17.381  0.3436  0.2252 -0.6988
  597TMC3    O2 8911   2.213   4.420  16.945 -0.0887 -0.4219  0.2511
  598TMC3    C1 8912   0.958   0.957  15.111  0.2361 -0.6822 -0.4642
  598TMC3    C2 8913   0.844   0.889  15.157  0.3039 -0.2046 -0.0394
  598TMC3    C3 8914   0.740   0.875  15.070  0.4996 -0.3307 -0.4254
  598TMC3    C4 8915   0.968   1.006  14.984  0.4162  0.5450  0.0539
  598TMC3    C5 8916   0.859   0.999  14.904 -0.0247  0.5548  0.3531
  598TMC3    C6 8917   0.747   0.929  14.947 -0.4804  0.1147  0.3631
  598TMC3     C 8918   1.064   0.966  15.206  0.3782 -0.3728 -0.5246
  598TMC3     O 8919   1.034   0.941  15.320 -0.3321  0.0893  1.2257
  598TMC3     H 8920   0.827   0.876  15.264  2.2916 -2.4177  0.0059
  598TMC3    H1 8921   1.060   1.043  14.939  0.9687 -0.6780  0.1628
  598TMC3    H2 8922   0.663   0.909  14.881 -0.8175 -1.8850  1.4069
  598TMC3    C7 8923   0.864   1.059  14.769 -0.2785  0.0740 -0.3033
  598TMC3    C8 8924   0.630   0.786  15.100 -0.2040 -0.4804  0.0458
  598TMC3    O1 8925   0.770   1.037  14.694 -0.0169 -0.0934 -0.1930
  598TMC3    O2 8926   0.576   0.724  15.010  0.1970  0.2198 -0.2622
  599MPD2     C 8927   0.843   2.750  15.602 -0.2584  0.0786  0.6677
  599MPD2    C1 8928   0.762   2.646  15.620  0.5406 -0.4485  0.4408
  599MPD2    C2 8929   0.623   2.664  15.609  0.1255  0.6893 -0.4528
  599MPD2    C3 8930   0.573   2.789  15.588  0.3179 -0.5838  0.1158
  599MPD2    C4 8931   0.665   2.893  15.564 -0.1813  0.7134 -0.1200
  599MPD2    C5 8932   0.797   2.874  15.571  0.1484 -1.1219  1.3577
  599MPD2     H 8933   0.560   2.579  15.633  1.8507 -0.4490  0.0877
  599MPD2    H1 8934   0.625   2.990  15.538  0.3162  1.1337  0.6689
  599MPD2    H2 8935   0.949   2.734  15.614  0.1377  2.2195  0.0175
  599MPD2    H3 8936   0.870   2.951  15.550 -1.5022  0.7007  2.2771
  599MPD2     N 8937   0.439   2.824  15.607  0.6781  0.3825  0.2620
  599MPD2    H5 8938   0.428   2.922  15.584 -0.8317  0.7032  2.3253
  599MPD2    N1 8939   0.824   2.524  15.666  0.8615 -0.3803  0.2372
  599MPD2    H7 8940   0.924   2.536  15.676  0.2509  2.1012  3.1536
  600TMC3    C1 8941   0.218   2.808  15.689 -0.2598 -0.0288 -0.1327
  600TMC3    C2 8942   0.123   2.741  15.764  0.3741  0.1464  0.3648
  600TMC3    C3 8943   0.047   2.809  15.854  0.1672  1.0490  0.5610
  600TMC3    C4 8944   0.231   2.942  15.710  0.2842  0.0815  0.4905
  600TMC3    C5 8945   0.157   3.009  15.804 -0.3304  0.1685  0.8051
  600TMC3    C6 8946   0.057   2.949  15.874 -0.0704  0.1163 -0.5902
  600TMC3     C 8947   0.343   2.739  15.657  0.7856  0.1587 -0.4167
  600TMC3     O 8948   0.343   2.617  15.653  0.0857 -0.3749  0.2673
  600TMC3     H 8949   0.113   2.633  15.760  3.3591 -0.0543 -1.0638
  600TMC3    H1 8950   0.304   3.003  15.658  0.1803 -0.8041 -0.6901
  600TMC3    H2 8951   4.729   2.999  15.945 -2.0689 -2.9572 -0.2408
  600TMC3    C7 8952   0.216   3.131  15.850  0.5569  0.3537  0.0800
  600TMC3    C8 8953   4.697   2.746  15.958 -0.4430 -0.6482  0.0366
  600TMC3    O1 8954   0.287   3.183  15.764 -0.2668 -0.2650 -0.0357
  600TMC3    O2 8955   4.731   2.641  16.000  0.4466  0.6766 -1.2276
  601MPD2     C 8956   2.929   2.245   0.140 -0.4071  0.3562  0.0253
  601MPD2    C1 8957   2.900   2.222   0.004  0.4958  0.2016 -0.6106
  601MPD2    C2 8958   2.961   2.114  17.690 -0.2941  0.5520 -0.0395
  601MPD2    C3 8959   3.044   2.036   0.022  0.7849  0.6653 -0.1620
  601MPD2    C4 8960   3.073   2.062   0.157 -0.7501 -0.3567  0.9600
  601MPD2    C5 8961   3.024   2.176   0.210 -0.0646 -0.7578  0.6250
  601MPD2     H 8962   2.940   2.095  17.585 -1.7271  0.0930  0.3337
  601MPD2    H1 8963   3.137   1.998   0.216 -0.3628  0.0567  0.9829
  601MPD2    H2 8964   2.885   2.328   0.193 -0.9788 -0.5415  0.9754
  601MPD2    H3 8965   3.056   2.208   0.309  3.3694 -3.0980  0.2668
  601MPD2     N 8966   3.093   1.909  17.725  0.4415  0.9856  0.9953
  601MPD2    H5 8967   3.133   1.851   0.054  1.4862 -0.7138 -0.9342
  601MPD2    N1 8968   2.813   2.306  17.672 -0.5916  0.3816 -0.0961
  601MPD2    H7 8969   2.800   2.282  17.575  2.1691 -2.0329  0.1091
  602TMC3    C1 8970   2.645   2.456  17.629 -0.6485 -0.0410  0.2888
  602TMC3    C2 8971   2.530   2.507  17.679 -0.2085  0.0577  0.0596
  602TMC3    C3 8972   2.431   2.540  17.594 -0.9224  0.5444 -0.0329
  602TMC3    C4 8973   2.656   2.416  17.493 -0.1929 -0.4506  0.1818
  602TMC3    C5 8974   2.547   2.446  17.412  0.0842  0.0680 -0.3394
  602TMC3    C6 8975   2.436   2.506  17.463  0.2557 -0.3178 -0.2954
  602TMC3     C 8976   2.742   2.412  17.727 -0.2802  0.1017  0.4286
  602TMC3     O 8977   2.733   2.453   0.096 -0.5403 -0.2653  0.0476
  602TMC3     H 8978   2.516   2.516   0.041 -2.8311  1.4990 -0.4159
  602TMC3    H1 8979   2.752   2.392  17.448 -0.5159  0.6378 -1.1062
  602TMC3    H2 8980   2.352   2.520  17.396  0.6792  0.1036 -0.7289
  602TMC3    C7 8981   2.526   2.363  17.301 -0.1181  0.6545  0.2428
  602TMC3    C8 8982   2.299   2.530  17.657 -0.2288 -0.0032 -0.0910
  602TMC3    O1 8983   2.610   2.345  17.211 -0.1180  0.4084  0.7310
  602TMC3    O2 8984   2.252   2.626  17.707  0.6082 -0.3538 -0.3155
  603TMC3    C1 8985   0.121   1.969  10.935  0.6100 -0.7193 -0.6378
  603TMC3    C2 8986   0.161   1.928  11.060 -1.1851  0.6453  0.0024
  603TMC3    C3 8987   0.289   1.953  11.096 -0.2531  0.2834 -0.3446
  603TMC3    C4 8988   0.200   2.039  10.846  0.5789 -0.0762 -0.3686
  603TMC3    C5 8989   0.330   2.055  10.895 -0.2967  0.3824  0.4990
  603TMC3    C6 8990   0.369   2.005  11.009  0.4107 -0.6739 -0.7091
  603TMC3     C 8991   4.735   1.913  10.875 -0.3377 -0.1501 -0.3734
  603TMC3     O 8992   4.717   1.941  10.757 -0.2600 -0.0105 -0.5280
  603TMC3     H 8993   0.092   1.879  11.127 -0.7461  1.5658  1.1252
  603TMC3    H1 8994   0.166   2.072  10.748 -0.8992  1.8345  0.7797
  603TMC3    H2 8995   0.472   2.028  11.030 -0.6576  0.8699  2.8319
  603TMC3    C7 8996   0.427   2.092  10.803  0.0984 -0.0987 -0.4099
  603TMC3    C8 8997   0.331   1.923  11.234 -0.2092 -0.2599 -0.8758
  603TMC3    O1 8998   0.516   2.159  10.848 -0.6818  0.2323  0.2432
  603TMC3    O2 8999   0.249   1.855  11.298 -0.8109  0.3871  0.2314
  604MPD2     C 9000   1.485   0.291  16.808  0.1482 -0.2876  0.7379
  604MPD2    C1 9001   1.355   0.266  16.771 -0.2942 -0.0025  0.3719
  604MPD2    C2 9002   1.330   0.195  16.656 -0.2139  1.3134  0.2115
  604MPD2    C3 9003   1.438   0.163  16.573  0.1098 -0.5932 -0.0428
  604MPD2    C4 9004   1.568   0.192  16.613 -0.4715  0.1369 -0.1473
  604MPD2    C5 9005   1.589   0.260  16.729  0.7538  0.5660  0.4635
  604MPD2     H 9006   1.233   0.153  16.631  1.0355 -0.1953 -2.1002
  604MPD2    H1 9007   1.660   0.156  16.568  1.7498  3.9099  1.3878
  604MPD2    H2 9008   1.505   0.337  16.904  0.3366  1.7223 -0.2576
  604MPD2    H3 9009   1.691   0.283  16.757  1.2057 -2.1792  1.1032
  604MPD2     N 9010   1.406   0.092  16.458 -0.0347  0.8146 -0.0041
  604MPD2    H5 9011   1.311   0.101  16.424 -0.7735 -2.2205  1.3006
  604MPD2    N1 9012   1.259   0.297  16.868 -0.5526  0.9975  0.2078
  604MPD2    H7 9013   1.283   0.372  16.932 -0.6637  2.4507 -1.4502
  605TMC3    C1 9014   1.060   0.345  16.975 -0.2505  1.1068 -0.2211
  605TMC3    C2 9015   1.145   0.387  17.078  0.5184 -0.0272  0.3981
  605TMC3    C3 9016   1.135   0.516  17.132 -0.1789 -0.3706  0.0131
  605TMC3    C4 9017   0.977   0.437  16.920  0.2332 -0.3457 -0.4774
  605TMC3    C5 9018   0.971   0.562  16.978 -0.6605  0.4382  0.0248
  605TMC3    C6 9019   1.046   0.610  17.083 -0.1689  0.5367  0.2996
  605TMC3     C 9020   1.126   0.263  16.870  0.7455 -0.2295  0.2316
  605TMC3     O 9021   1.055   0.196  16.795 -0.3778  0.1147  0.5124
  605TMC3     H 9022   1.200   0.311  17.133  3.7631 -0.2805 -3.1592
  605TMC3    H1 9023   0.919   0.416  16.831 -0.4600  0.2805 -0.1856
  605TMC3    H2 9024   1.048   0.714  17.111  1.2540  0.5610  0.1353
  605TMC3    C7 9025   0.891   0.665  16.906  0.4847  0.3297  0.0220
  605TMC3    C8 9026   1.269   0.562  17.149 -0.3644  0.3477  0.5906
  605TMC3    O1 9027   0.932   0.777  16.922  0.3624 -0.3731 -0.0633
  605TMC3    O2 9028   1.350   0.493  17.088 -0.2021 -0.5396  0.5449
  606TMC3    C1 9029   2.569   3.752   0.403  0.5210 -0.0212 -0.1328
  606TMC3    C2 9030   2.681   3.821   0.417  0.3389  0.2810 -0.6852
  606TMC3    C3 9031   2.798   3.761   0.460 -0.5358 -0.1510 -0.3651
  606TMC3    C4 9032   2.566   3.617   0.423 -0.2540  0.4706 -0.6711
  606TMC3    C5 9033   2.680   3.557   0.462  0.6641  0.2034  0.2605
  606TMC3    C6 9034   2.800   3.625   0.480  0.2081 -0.2397  0.3574
  606TMC3     C 9035   2.451   3.805   0.334  0.8369 -0.7637 -0.3110
  606TMC3     O 9036   2.343   3.762   0.376  0.1222 -0.0649  0.0580
  606TMC3     H 9037   2.686   3.926   0.392  0.4989  0.5172  0.3822
  606TMC3    H1 9038   2.471   3.564   0.420  1.5137 -2.6276 -1.0713
  606TMC3    H2 9039   2.890   3.564   0.483  1.4233  1.5665  1.3802
  606TMC3    C7 9040   2.691   3.414   0.458  0.4565 -0.5354  0.9692
  606TMC3    C8 9041   2.921   3.831   0.443 -0.0382  0.6339 -0.2072
  606TMC3    O1 9042   2.755   3.362   0.549  0.2772 -0.6240 -0.5868
  606TMC3    O2 9043   2.922   3.952   0.470 -0.3505  0.3386  0.1723
  607MPD2     C 9044   4.378   1.835  11.432 -0.3611  0.3200  0.5100
  607MPD2    C1 9045   4.416   1.953  11.499 -0.0841  0.9991 -0.2383
  607MPD2    C2 9046   4.352   1.978  11.619  0.5188  0.0083 -0.7078
  607MPD2    C3 9047   4.260   1.895  11.676  0.7699  0.5466  0.1203
  607MPD2    C4 9048   4.225   1.780  11.602  0.1748 -0.0907 -0.1635
  607MPD2    C5 9049   4.285   1.752  11.488 -0.3611 -0.6923  0.9881
  607MPD2     H 9050   4.394   2.060  11.677 -1.2114 -0.3950  1.1372
  607MPD2    H1 9051   4.161   1.705  11.647  0.2417 -0.4421 -0.6514
  607MPD2    H2 9052   4.416   1.799  11.338 -0.1701 -0.5412  0.9228
  607MPD2    H3 9053   4.255   1.658  11.442 -0.9625  1.3678 -2.7808
  607MPD2     N 9054   4.213   1.924  11.808  0.6904  0.1392  0.6306
  607MPD2    H5 9055   4.250   2.005  11.857 -1.2168  0.5949  1.3031
  607MPD2    N1 9056   4.529   2.028  11.466 -0.9556  0.2544  0.3174
  607MPD2    H7 9057   4.535   2.118  11.513 -0.2144  1.3389 -1.8446
  608TMC3    C1 9058   4.712   2.116  11.363  0.3442  0.3266 -0.0064
  608TMC3    C2 9059   0.006   2.161  11.489 -0.1981  0.6366  0.3607
  608TMC3    C3 9060   0.078   2.275  11.489 -0.1787  0.0590 -0.4686
  608TMC3    C4 9061   0.005   2.172  11.242  0.1731  0.3349 -0.3085
  608TMC3    C5 9062   0.089   2.281  11.255  0.3441 -1.2105 -0.6099
  608TMC3    C6 9063   0.127   2.336  11.377  0.6257  0.7818  0.3985
  608TMC3     C 9064   4.613   2.020  11.355  1.3705  0.6463  0.2613
  608TMC3     O 9065   4.611   1.950  11.255  0.0567  0.1797  0.2173
  608TMC3     H 9066   4.722   2.102  11.577 -1.1227  1.2300  0.5440
  608TMC3    H1 9067   4.711   2.130  11.147  1.0767  1.0163 -0.8993
  608TMC3    H2 9068   0.191   2.424  11.382 -1.7921  2.5869 -0.1531
  608TMC3    C7 9069   0.147   2.351  11.138  0.2389 -0.4002 -0.3479
  608TMC3    C8 9070   0.083   2.348  11.611  0.3068  0.7802  0.0755
  608TMC3    O1 9071   0.088   2.333  11.033 -0.3688  0.2709 -0.5860
  608TMC3    O2 9072   0.135   2.460  11.613 -0.4098 -0.2547 -0.1351
  609TMC3    C1 9073   2.601   0.130   8.896 -0.6477 -0.2919 -0.3329
  609TMC3    C2 9074   2.581   0.010   8.837 -0.5535  0.4210  0.0205
  609TMC3    C3 9075   2.698   4.678   8.795 -0.3289 -0.1414  0.3837
  609TMC3    C4 9076   2.722   0.190   8.906  0.3571  0.5424 -0.2358
  609TMC3    C5 9077   2.833   0.122   8.851 -0.4629 -0.0845  0.0702
  609TMC3    C6 9078   2.827   4.732   8.797 -0.0993 -0.3578 -0.4378
  609TMC3     C 9079   2.483   0.178   8.967 -0.1309 -0.0594 -0.4361
  609TMC3     O 9080   2.402   0.091   8.999 -0.5196 -0.2692  0.3406
  609TMC3     H 9081   2.484   4.697   8.834  0.3361 -1.2736 -0.9147
  609TMC3    H1 9082   2.737   0.283   8.960  0.2029  2.3805 -3.3377
  609TMC3    H2 9083   2.913   4.680   8.754 -0.2658  1.4867 -3.0143
  609TMC3    C7 9084   2.957   0.148   8.913  1.0791  0.5787 -0.0982
  609TMC3    C8 9085   2.675   4.556   8.715  0.6784  0.1446  0.7101
  609TMC3    O1 9086   2.950   0.178   9.035 -0.1732 -0.8224  0.2736
  609TMC3    O2 9087   2.758   4.528   8.633  0.8016  0.1452 -0.0464
  610TMC3    C1 9088   0.237   2.225  12.287 -0.5156  0.6353 -0.4902
  610TMC3    C2 9089   0.268   2.297  12.182 -0.9490 -0.2540  0.1551
  610TMC3    C3 9090   0.320   2.234  12.072  0.1434  0.5163 -0.2867
  610TMC3    C4 9091   0.267   2.090  12.295 -0.6012  0.8174 -0.1324
  610TMC3    C5 9092   0.329   2.034  12.187  0.5070 -0.2388 -0.9141
  610TMC3    C6 9093   0.351   2.098  12.074 -0.3011  0.5113  0.1471
  610TMC3     C 9094   0.191   2.295  12.406  0.2526  0.3798  1.1309
  610TMC3     O 9095   0.183   2.415  12.406 -0.0406 -0.0975 -0.1285
  610TMC3     H 9096   0.235   2.400  12.174 -0.0691  0.0918  0.9780
  610TMC3    H1 9097   0.239   2.029  12.380  0.5492  0.3596 -0.0773
  610TMC3    H2 9098   0.386   2.047  11.984  0.7489  0.7907  0.3938
  610TMC3    C7 9099   0.409   1.922  12.226 -0.6743  0.4773 -0.6274
  610TMC3    C8 9100   0.354   2.319  11.961 -0.2075 -0.4408  0.5216
  610TMC3    O1 9101   0.368   1.852  12.316  0.2394 -0.5081  0.1198
  610TMC3    O2 9102   0.376   2.438  11.993  0.1065  0.9179 -0.4554
  611MPD2     C 9103   4.497   2.133   9.517 -0.9054  1.1906  0.3091
  611MPD2    C1 9104   4.490   2.005   9.578  0.0008  0.0134  0.1425
  611MPD2    C2 9105   4.604   1.963   9.641 -0.0351  0.0801 -0.3572
  611MPD2    C3 9106   4.716   2.040   9.661 -0.6214 -0.0579  0.1284
  611MPD2    C4 9107   4.715   2.165   9.601 -1.5301  0.7747 -0.5775
  611MPD2    C5 9108   4.609   2.210   9.521  0.5099 -0.4440 -0.4416
  611MPD2     H 9109   4.606   1.864   9.686 -0.1540  0.1302 -0.2424
  611MPD2    H1 9110   0.062   2.234   9.605  0.1422 -1.1040 -2.7698
  611MPD2    H2 9111   4.413   2.175   9.463 -0.3976 -0.5705 -1.8360
  611MPD2    H3 9112   4.607   2.307   9.473  0.9242  0.1231  0.6870
  611MPD2     N 9113   0.093   2.007   9.730 -0.2965 -0.1479  0.8132
  611MPD2    H5 9114   0.162   2.081   9.733 -0.9372  0.5026 -0.5625
  611MPD2    N1 9115   4.373   1.934   9.603 -0.1782 -0.1927  0.0408
  611MPD2    H7 9116   4.373   1.866   9.678 -0.3824 -0.3028 -0.0609
  612TMC3    C1 9117   0.260   1.876   9.834 -0.9947  0.3045  0.7900
  612TMC3    C2 9118   0.321   1.989   9.893  0.2342 -0.3472 -0.0060
  612TMC3    C3 9119   0.418   1.958   9.987 -0.4754  0.3779  0.3329
  612TMC3    C4 9120   0.302   1.749   9.856 -1.1541 -1.0132  0.0676
  612TMC3    C5 9121   0.403   1.726   9.940 -0.6861  0.3781  0.5063
  612TMC3    C6 9122   0.463   1.828  10.013  0.3520  0.1492  0.2369
  612TMC3     C 9123   0.121   1.884   9.780  0.4661  0.6489  0.5375
  612TMC3     O 9124   0.061   1.778   9.774 -0.4004 -0.4050  0.2357
  612TMC3     H 9125   0.274   2.087   9.892  2.3093  0.6122 -2.3831
  612TMC3    H1 9126   0.254   1.668   9.802  0.2827 -0.6086 -1.8260
  612TMC3    H2 9127   0.531   1.802  10.093 -0.2097  2.4027  1.4387
  612TMC3    C7 9128   0.486   1.610   9.910 -0.4714  0.2418  0.1111
  612TMC3    C8 9129   0.448   2.058  10.085 -0.2179  0.2669 -0.1991
  612TMC3    O1 9130   0.423   1.508   9.870  0.5793  0.3467  0.1073
  612TMC3    O2 9131   0.451   2.175  10.045 -0.2184  0.0724 -0.3751
  613MPD2     C 9132   3.201   4.484  16.127  0.0972 -0.2648 -0.8651
  613MPD2    C1 9133   3.162   4.413  16.242 -0.5273  0.3645 -0.1449
  613MPD2    C2 9134   3.129   4.480  16.362  0.1295  0.0045 -0.4051
  613MPD2    C3 9135   3.147   4.618  16.374  0.1250  0.8921  0.3744
  613MPD2    C4 9136   3.201   4.686  16.263 -0.4311  0.1100 -0.0363
  613MPD2    C5 9137   3.225   4.615  16.138  0.0732  0.2850  0.1092
  613MPD2     H 9138   3.079   4.431  16.445 -0.3998  1.2327 -0.0013
  613MPD2    H1 9139   3.216   0.057  16.266  0.7360 -0.1147  1.7815
  613MPD2    H2 9140   3.220   4.452  16.026  0.0776 -1.2047 -0.5724
  613MPD2    H3 9141   3.261   4.668  16.050 -2.3897 -0.1114 -1.1360
  613MPD2     N 9142   3.103   4.682  16.495 -0.7976  0.1584  0.2465
  613MPD2    H5 9143   3.071   4.621  16.570  1.6288 -1.3311  0.0913
  613MPD2    N1 9144   3.136   4.277  16.228  0.4588  0.0687  0.0848
  613MPD2    H7 9145   3.142   4.238  16.135  3.0155  1.4896 -0.3434
  614TMC3    C1 9146   3.046   4.077  16.296  1.0322 -0.0899 -0.0377
  614TMC3    C2 9147   3.013   4.002  16.407 -0.3049  0.2902  0.1282
  614TMC3    C3 9148   2.889   3.942  16.407  0.2078  0.1014  0.4734
  614TMC3    C4 9149   2.968   4.069  16.184  0.4648 -0.6177  0.3643
  614TMC3    C5 9150   2.845   4.012  16.189  0.2669 -0.5290 -0.1502
  614TMC3    C6 9151   2.799   3.954  16.301  0.2144 -0.4176  0.1080
  614TMC3     C 9152   3.105   4.200  16.334  0.5913  0.0683  0.4988
  614TMC3     O 9153   3.103   4.215  16.458 -1.0622  0.5704 -0.0292
  614TMC3     H 9154   3.068   3.997  16.500 -0.5256 -1.1059  0.1798
  614TMC3    H1 9155   2.999   4.129  16.098  0.3612  2.3654  2.4026
  614TMC3    H2 9156   2.694   3.930  16.311  0.5307 -1.9689 -0.2838
  614TMC3    C7 9157   2.743   4.066  16.106 -0.1072 -0.3892  0.1729
  614TMC3    C8 9158   2.825   3.951  16.540  0.0828  0.1084  0.2136
  614TMC3    O1 9159   2.659   4.133  16.165  0.1728  0.3830  0.2376
  614TMC3    O2 9160   2.743   3.866  16.570 -0.2026  0.8571  0.1578
  615MPD2     C 9161   2.984   1.186  16.248  0.1303 -0.9502 -0.5248
  615MPD2    C1 9162   2.902   1.296  16.233 -0.8811  0.5415 -0.2810
  615MPD2    C2 9163   2.797   1.295  16.146 -0.4952  0.1709 -0.3453
  615MPD2    C3 9164   2.782   1.190  16.057 -0.3081  0.8111 -0.3010
  615MPD2    C4 9165   2.866   1.081  16.067  0.2814  0.3594  0.5260
  615MPD2    C5 9166   2.957   1.070  16.174 -0.2528 -0.0096 -0.1718
  615MPD2     H 9167   2.724   1.375  16.138 -0.8777  0.0262  1.8255
  615MPD2    H1 9168   2.858   1.008  15.987 -0.8383  0.8446  0.2021
  615MPD2    H2 9169   3.058   1.180  16.327  0.5464 -0.8468 -0.9104
  615MPD2    H3 9170   3.023   0.984  16.174 -0.9064 -0.5000 -0.6737
  615MPD2     N 9171   2.693   1.185  15.949 -0.2488 -0.2726 -0.6056
  615MPD2    H5 9172   2.708   1.111  15.881  0.1219 -0.8911  0.1473
  615MPD2    N1 9173   2.914   1.422  16.299 -0.1974  0.4616  0.0202
  615MPD2    H7 9174   2.846   1.492  16.270  2.2263  2.4455 -0.8977
  616TMC3    C1 9175   2.993   1.589  16.444  0.4379 -0.2525 -0.7147
  616TMC3    C2 9176   3.104   1.628  16.519 -0.1277 -0.0855  0.0291
  616TMC3    C3 9177   3.110   1.766  16.545 -0.0661  0.0774 -0.7625
  616TMC3    C4 9178   2.897   1.676  16.397  0.4280  0.1299  0.0890
  616TMC3    C5 9179   2.904   1.805  16.440  1.1356  0.7024  0.5517
  616TMC3    C6 9180   3.008   1.852  16.518 -0.3452  0.7559  0.2277
  616TMC3     C 9181   3.005   1.456  16.394  0.3111  0.9531 -0.0304
  616TMC3     O 9182   3.082   1.382  16.451 -0.4038 -0.1464  0.6455
  616TMC3     H 9183   3.180   1.556  16.548 -1.8178 -1.2433  1.6122
  616TMC3    H1 9184   2.815   1.640  16.337 -0.2615 -0.3701  1.3207
  616TMC3    H2 9185   3.015   1.956  16.550 -0.8603  0.7099  0.4864
  616TMC3    C7 9186   2.795   1.891  16.412  0.0819 -0.5743  0.3695
  616TMC3    C8 9187   3.228   1.832  16.590  0.7407 -0.2691 -0.4138
  616TMC3    O1 9188   2.747   1.878  16.300 -0.0209 -0.4961 -0.4029
  616TMC3    O2 9189   3.209   1.938  16.647  0.5306 -0.2678  0.8681
  617MPD2     C 9190   0.790   3.930  13.329  0.0688 -0.6313  0.1994
  617MPD2    C1 9191   0.808   3.888  13.459  0.5731  0.2256  0.6310
  617MPD2    C2 9192   0.708   3.848  13.541 -0.3923  0.0944  0.6163
  617MPD2    C3 9193   0.583   3.833  13.492  0.9205  0.0988 -0.0844
  617MPD2    C4 9194   0.560   3.861  13.356  0.6293  0.2641 -0.6683
  617MPD2    C5 9195   0.657   3.921  13.283  0.2438 -0.3572 -0.4983
  617MPD2     H 9196   0.733   3.818  13.642  0.0745  0.5681  0.6476
  617MPD2    H1 9197   0.457   3.862  13.322  0.1377  3.4941  0.9063
  617MPD2    H2 9198   0.871   3.970  13.270  1.4490  1.6185  3.6105
  617MPD2    H3 9199   0.631   3.964  13.187  0.0297 -1.3426 -0.8781
  617MPD2     N 9200   0.467   3.800  13.566 -0.7053 -0.2196 -0.3288
  617MPD2    H5 9201   0.375   3.803  13.523 -0.6971 -3.0437 -0.4895
  617MPD2    N1 9202   0.938   3.885  13.506  0.5359  0.2227 -0.3220
  617MPD2    H7 9203   1.006   3.938  13.454  1.4082  0.1485  0.7402
  618TMC3    C1 9204   1.119   3.834  13.620  0.1085  0.6555  0.3212
  618TMC3    C2 9205   1.201   3.737  13.583  0.0619  0.5649  0.3558
  618TMC3    C3 9206   1.332   3.778  13.566  0.1908  0.0552 -0.2455
  618TMC3    C4 9207   1.147   3.969  13.613 -0.0065 -0.1429  0.2360
  618TMC3    C5 9208   1.269   4.006  13.580  0.0578  0.3185  0.6082
  618TMC3    C6 9209   1.368   3.911  13.569  0.2304 -0.6659 -0.0618
  618TMC3     C 9210   0.985   3.789  13.586 -0.3030 -0.4296 -0.2248
  618TMC3     O 9211   0.943   3.677  13.614  0.2420 -0.6970  0.3171
  618TMC3     H 9212   1.164   3.635  13.581 -1.8906  1.2700  0.4265
  618TMC3    H1 9213   1.081   4.050  13.643 -0.8685 -1.5947  2.3179
  618TMC3    H2 9214   1.470   3.943  13.556 -0.4890  1.2185 -1.1640
  618TMC3    C7 9215   1.261   4.075  13.458  0.2090  0.9176  0.0874
  618TMC3    C8 9216   1.433   3.682  13.541  0.2292 -0.3066  0.7641
  618TMC3    O1 9217   1.143   4.075  13.421  0.0973  0.2796  0.2107
  618TMC3    O2 9218   1.542   3.735  13.551  0.3458 -0.1383  0.7259
  619MPD2     C 9219   2.181   0.310  13.925  0.1228 -0.6344 -0.3405
  619MPD2    C1 9220   2.148   0.342  13.791 -1.2324 -0.1989 -0.3025
  619MPD2    C2 9221   2.016   0.357  13.761 -0.0465 -0.8742 -0.0588
  619MPD2    C3 9222   1.916   0.355  13.856 -0.4961  1.1029  0.0283
  619MPD2    C4 9223   1.948   0.314  13.986  0.0208 -0.5321  0.4689
  619MPD2    C5 9224   2.079   0.293  14.011  0.0237 -0.0463 -0.5689
  619MPD2     H 9225   1.981   0.386  13.663  0.9585 -0.6466 -0.3550
  619MPD2    H1 9226   1.876   0.293  14.064 -0.8753  2.4185  0.4165
  619MPD2    H2 9227   2.278   0.289  13.968 -0.6126 -1.5884  0.8488
  619MPD2    H3 9228   2.104   0.263  14.112 -0.4989 -0.9180 -0.6980
  619MPD2     N 9229   1.788   0.382  13.812  0.5499  0.2836  0.3993
  619MPD2    H5 9230   1.788   0.412  13.715 -3.8059  0.6335  0.5449
  619MPD2    N1 9231   2.247   0.328  13.691 -0.5879 -0.0943 -0.4926
  619MPD2    H7 9232   2.221   0.347  13.595  0.8640 -2.4893 -1.3774
  620TMC3    C1 9233   2.428   0.276  13.573 -0.2651 -0.2939 -0.2697
  620TMC3    C2 9234   2.328   0.224  13.489 -0.3055  0.0263  0.3026
  620TMC3    C3 9235   2.336   0.267  13.363  0.0897 -0.1350  1.1013
  620TMC3    C4 9236   2.528   0.364  13.535  0.3793  0.4635 -0.0030
  620TMC3    C5 9237   2.525   0.400  13.401 -0.4044  0.8100 -0.0763
  620TMC3    C6 9238   2.434   0.347  13.321  0.6777  0.3818 -0.1046
  620TMC3     C 9239   2.378   0.297  13.708 -0.7291 -0.4114 -0.4377
  620TMC3     O 9240   2.443   0.287  13.811  0.1397  0.6733  0.4959
  620TMC3     H 9241   2.255   0.149  13.518 -0.1166 -0.4419 -0.4262
  620TMC3    H1 9242   2.595   0.405  13.610 -0.0361  1.4881 -0.2027
  620TMC3    H2 9243   2.420   0.384  13.221 -1.5437 -2.2306 -0.7775
  620TMC3    C7 9244   2.555   0.541  13.386 -0.4643  0.6022  0.2374
  620TMC3    C8 9245   2.213   0.334  13.326 -0.0728  0.5032  0.3724
  620TMC3    O1 9246   2.651   0.586  13.446 -0.0236  0.0508  0.0377
  620TMC3    O2 9247   2.229   0.455  13.320  0.2080  0.5429 -0.2409
  621MPD2     C 9248   2.045   4.604   9.826  0.1241 -0.6508  0.2618
  621MPD2    C1 9249   2.077   4.562   9.699 -0.1240 -0.6126  0.1266
  621MPD2    C2 9250   2.149   4.647   9.614  0.2003 -0.1268  0.0078
  621MPD2    C3 9251   2.196   0.034   9.655 -0.7870 -0.4614 -0.1961
  621MPD2    C4 9252   2.173   0.069   9.787 -0.2422  0.2568 -0.7016
  621MPD2    C5 9253   2.102   4.722   9.873 -0.6632 -0.7343 -0.5144
  621MPD2     H 9254   2.162   4.611   9.513  1.0576 -2.5597  0.9828
  621MPD2    H1 9255   2.214   0.162   9.825 -2.0202  0.1701  1.4622
  621MPD2    H2 9256   1.973   4.548   9.885 -1.2174  0.1767 -0.6067
  621MPD2    H3 9257   2.087   0.024   9.973 -0.2811  0.5619 -0.9551
  621MPD2     N 9258   2.269   0.115   9.572  0.2117 -0.8076  0.3294
  621MPD2    H5 9259   2.297   0.079   9.482  1.4270 -1.3961  0.9449
  621MPD2    N1 9260   2.014   4.445   9.647 -0.6319 -0.7622 -0.5310
  621MPD2    H7 9261   2.033   4.423   9.550 -2.3249  1.4422 -1.3551
  622TMC3    C1 9262   1.870   4.267   9.598  0.1789  0.6444  0.4198
  622TMC3    C2 9263   1.750   4.206   9.637  0.8959  0.1672  0.1036
  622TMC3    C3 9264   1.680   4.143   9.531  0.2751 -0.6548 -0.6089
  622TMC3    C4 9265   1.906   4.280   9.466 -0.5042  0.0567 -0.3829
  622TMC3    C5 9266   1.835   4.210   9.372  0.2425  0.1297 -0.6894
  622TMC3    C6 9267   1.723   4.146   9.398 -0.2098  0.7349  0.0119
  622TMC3     C 9268   1.909   4.373   9.701  0.0388  0.0931  0.4909
  622TMC3     O 9269   1.849   4.377   9.808  0.1455 -0.2447 -0.7321
  622TMC3     H 9270   1.720   4.205   9.741 -0.5806 -0.1926 -0.3243
  622TMC3    H1 9271   2.003   4.322   9.439  0.5001 -1.7576  0.3670
  622TMC3    H2 9272   1.671   4.104   9.312  0.1225 -2.4394  1.3396
  622TMC3    C7 9273   1.870   4.207   9.229  0.0517  0.2305 -0.3053
  622TMC3    C8 9274   1.535   4.116   9.548  0.5376  0.0319 -0.5218
  622TMC3    O1 9275   1.856   4.097   9.175  0.2462  0.3396 -0.2800
  622TMC3    O2 9276   1.464   4.063   9.462 -0.3831  0.0444 -0.1597
  623MPD2     C 9277   1.442   0.350  16.185  0.8439  0.0895  0.5532
  623MPD2    C1 9278   1.408   0.402  16.312  0.2661  0.5265 -0.7564
  623MPD2    C2 9279   1.504   0.457  16.390 -0.0018 -0.8668 -0.2249
  623MPD2    C3 9280   1.632   0.469  16.343 -0.1117  0.2073  0.5725
  623MPD2    C4 9281   1.657   0.428  16.213 -0.3377  0.5984 -0.0155
  623MPD2    C5 9282   1.566   0.372  16.130 -0.2680 -0.2676 -0.8464
  623MPD2     H 9283   1.470   0.497  16.485  1.6174  1.2254 -0.5190
  623MPD2    H1 9284   1.749   0.452  16.161  0.5288 -0.5408  1.0035
  623MPD2    H2 9285   1.374   0.305  16.114  0.4532  2.3982 -0.5496
  623MPD2    H3 9286   1.603   0.344  16.032  0.1489  0.5894 -0.9284
  623MPD2     N 9287   1.717   0.536  16.429 -0.4644  0.2683  0.1247
  623MPD2    H5 9288   1.679   0.568  16.518  2.6897 -0.2943  1.6960
  623MPD2    N1 9289   1.278   0.379  16.367  0.0969 -0.0649 -0.3371
  623MPD2    H7 9290   1.265   0.421  16.459  3.3993  1.7181 -0.6929
  624TMC3    C1 9291   1.951   0.855  16.629 -0.8696  0.2497 -0.1437
  624TMC3    C2 9292   1.885   0.833  16.747 -0.6778  0.5788 -0.2836
  624TMC3    C3 9293   1.804   0.730  16.751 -0.4727 -0.0844 -0.2396
  624TMC3    C4 9294   1.955   0.766  16.526 -0.4715 -0.0484  0.6177
  624TMC3    C5 9295   1.877   0.655  16.541 -1.0454 -0.5464  0.0675
  624TMC3    C6 9296   1.792   0.637  16.650  0.2978  0.0363 -0.5389
  624TMC3     C 9297   2.055   0.962  16.632  0.7022  0.0966  0.0563
  624TMC3     O 9298   2.095   1.008  16.737 -0.0093  0.5628 -0.5940
  624TMC3     H 9299   1.896   0.899  16.832  3.1964  0.2782 -0.5650
  624TMC3    H1 9300   2.029   0.779  16.449 -1.9683  1.3619 -0.5936
  624TMC3    H2 9301   1.718   0.558  16.652  0.5497 -0.1803  0.0991
  624TMC3    C7 9302   1.840   0.589  16.418  0.0914  0.7137 -0.3680
  624TMC3    C8 9303   1.702   0.718  16.862 -0.5471 -0.3263  0.0497
  624TMC3    O1 9304   1.901   0.608  16.315  0.1472  0.1458 -0.1965
  624TMC3    O2 9305   1.643   0.612  16.854  0.2849  0.3159 -0.0583
  625MPD2     C 9306   2.263   2.360   0.563 -0.3427  0.1217 -0.6382
  625MPD2    C1 9307   2.248   2.473   0.638  0.3559  0.0151  0.4270
  625MPD2    C2 9308   2.355   2.516   0.720  0.0530 -0.4111 -0.3129
  625MPD2    C3 9309   2.473   2.443   0.732  0.3158 -0.1945 -0.3091
  625MPD2    C4 9310   2.482   2.330   0.650 -0.3844 -0.6143  0.1581
  625MPD2    C5 9311   2.376   2.286   0.571  0.0680 -0.2815 -0.3262
  625MPD2     H 9312   2.347   2.611   0.772 -2.4467 -0.1760 -1.1602
  625MPD2    H1 9313   2.572   2.270   0.642  0.9053  1.2817  0.4027
  625MPD2    H2 9314   2.187   2.324   0.496 -2.0892 -0.3543  1.5802
  625MPD2    H3 9315   2.381   2.199   0.506  1.4966 -0.4426 -0.0189
  625MPD2     N 9316   2.581   2.498   0.809  0.1743  0.7211  0.3485
  625MPD2    H5 9317   2.561   2.590   0.847  0.6517  0.8542  0.2768
  625MPD2    N1 9318   2.124   2.550   0.626 -0.4015  1.2235  0.1994
  625MPD2    H7 9319   2.121   2.634   0.684  1.0374 -0.6862  3.0304
  626TMC3    C1 9320   1.923   2.645   0.539  0.0814 -0.0679  0.1607
  626TMC3    C2 9321   1.895   2.726   0.428  0.5310  0.1122 -0.2546
  626TMC3    C3 9322   1.820   2.835   0.452 -0.1439  0.2862 -0.3822
  626TMC3    C4 9323   1.870   2.666   0.666  0.1042  0.1683 -0.2723
  626TMC3    C5 9324   1.802   2.786   0.680  0.0203  0.7348  0.4069
  626TMC3    C6 9325   1.775   2.870   0.576  0.0875  0.2960 -0.9321
  626TMC3     C 9326   2.029   2.541   0.526 -0.1428 -0.0832 -0.0336
  626TMC3     O 9327   2.030   2.469   0.429 -0.2985 -0.1469 -0.0151
  626TMC3     H 9328   1.931   2.694   0.331  1.4477  3.1945 -0.9110
  626TMC3    H1 9329   1.891   2.595   0.745 -1.4313 -0.0552 -0.0799
  626TMC3    H2 9330   1.716   2.960   0.589 -2.0835 -1.2272 -0.3632
  626TMC3    C7 9331   1.763   2.818   0.812  0.0919 -0.8543 -0.0029
  626TMC3    C8 9332   1.794   2.917   0.330 -0.2668  0.9246 -0.4159
  626TMC3    O1 9333   1.832   2.770   0.901  0.2272 -0.2151 -0.0540
  626TMC3    O2 9334   1.816   2.861   0.225 -1.0768 -0.3749 -0.9437
  627MPD2     C 9335   0.743   3.024  14.247  0.1076 -0.3429  0.0028
  627MPD2    C1 9336   0.752   2.999  14.375 -0.4542 -0.0740 -0.4317
  627MPD2    C2 9337   0.725   2.868  14.421  0.2155 -0.2204  0.1228
  627MPD2    C3 9338   0.682   2.765  14.337  0.3104  0.5367 -0.2192
  627MPD2    C4 9339   0.663   2.801  14.201 -0.4040  0.2388  0.4488
  627MPD2    C5 9340   0.691   2.929  14.158  0.6050  0.6814 -0.0122
  627MPD2     H 9341   0.740   2.850  14.527  0.3274  0.3331  0.2028
  627MPD2    H1 9342   0.634   2.739  14.117 -2.6222  1.6184  0.2076
  627MPD2    H2 9343   0.766   3.124  14.214  0.1666 -0.4651 -0.3279
  627MPD2    H3 9344   0.686   2.961  14.054 -1.0120 -0.4582 -0.2979
  627MPD2     N 9345   0.666   2.634  14.395  0.1061 -0.2126  0.3888
  627MPD2    H5 9346   0.720   2.617  14.480  0.9504 -1.3049 -0.3731
  627MPD2    N1 9347   0.798   3.097  14.468  0.0733 -0.4446 -0.0478
  627MPD2    H7 9348   0.805   3.059  14.563  0.1113 -3.3525 -1.2054
  628TMC3    C1 9349   0.832   3.299  14.573  0.4888 -0.8445  0.1054
  628TMC3    C2 9350   0.882   3.249  14.690 -0.0023 -0.4731 -0.5051
  628TMC3    C3 9351   0.822   3.305  14.803  0.6141 -1.0906  0.3249
  628TMC3    C4 9352   0.744   3.400  14.558  0.1353  0.3329 -0.4188
  628TMC3    C5 9353   0.676   3.436  14.671  0.6313 -0.0219 -0.2009
  628TMC3    C6 9354   0.712   3.391  14.793 -0.3083 -0.3331 -0.1314
  628TMC3     C 9355   0.841   3.226  14.448  0.3799 -0.5330 -0.6109
  628TMC3     O 9356   0.864   3.292  14.347  0.5993 -0.4057  0.3283
  628TMC3     H 9357   0.926   3.150  14.702  0.1529 -0.4501 -0.8806
  628TMC3    H1 9358   0.712   3.433  14.460 -1.0984 -1.0300 -0.4863
  628TMC3    H2 9359   0.683   3.445  14.882 -0.3153 -1.8255  0.7533
  628TMC3    C7 9360   0.578   3.538  14.672 -0.3242  0.0237  0.6278
  628TMC3    C8 9361   0.876   3.294  14.931 -0.3736 -0.3075 -0.6094
  628TMC3    O1 9362   0.551   3.607  14.771  0.6449  0.1594 -0.4477
  628TMC3    O2 9363   0.834   3.367  15.019 -0.3820 -0.0366  0.2560
  629MPD2     C 9364   3.690   1.768  16.813 -0.5020 -0.3744  0.4013
  629MPD2    C1 9365   3.682   1.680  16.710  0.2358  0.9077 -0.2101
  629MPD2    C2 9366   3.563   1.679  16.635  0.3125  0.0881 -0.4982
  629MPD2    C3 9367   3.454   1.767  16.663  0.7971  0.3325  0.3536
  629MPD2    C4 9368   3.467   1.853  16.772 -0.2644  0.4982  0.0033
  629MPD2    C5 9369   3.590   1.859  16.835  0.7333 -0.2647  0.1515
  629MPD2     H 9370   3.537   1.603  16.562  1.8920 -0.4242 -0.5264
  629MPD2    H1 9371   3.393   1.923  16.809 -0.0567 -0.3770  2.0826
  629MPD2    H2 9372   3.778   1.765  16.876 -0.8075 -1.0608  0.7925
  629MPD2    H3 9373   3.603   1.927  16.919  1.9811 -0.2228 -0.0734
  629MPD2     N 9374   3.339   1.755  16.581 -0.3810  0.0052 -0.1828
  629MPD2    H5 9375   3.320   1.679  16.516 -0.4910 -1.5782  1.6893
  629MPD2    N1 9376   3.778   1.581  16.689  0.1857  0.2472  0.6951
  629MPD2    H7 9377   3.858   1.574  16.751  0.4172 -1.2400  0.2340
  630TMC3    C1 9378   3.915   1.443  16.549 -0.0725 -0.2891  0.5452
  630TMC3    C2 9379   3.986   1.456  16.436  0.3914 -0.1928 -0.4357
  630TMC3    C3 9380   4.120   1.415  16.430  0.1143 -0.5156 -0.4092
  630TMC3    C4 9381   3.977   1.394  16.661 -0.1686 -0.1534  0.0133
  630TMC3    C5 9382   4.106   1.344  16.654 -0.3900 -0.1001  0.1563
  630TMC3    C6 9383   4.178   1.357  16.538  0.2155  0.1633 -0.5844
  630TMC3     C 9384   3.787   1.508  16.572  0.4278  0.6029 -0.8218
  630TMC3     O 9385   3.715   1.509  16.476  0.1416 -0.0596 -0.1708
  630TMC3     H 9386   3.933   1.495  16.350 -0.5791 -1.5997 -0.4789
  630TMC3    H1 9387   3.908   1.362  16.739  0.0775  3.4678  1.7087
  630TMC3    H2 9388   4.277   1.312  16.532 -0.0438 -0.8505  2.8548
  630TMC3    C7 9389   4.168   1.302  16.779  0.0412 -0.6859 -0.0197
  630TMC3    C8 9390   4.213   1.465  16.331  0.1464  0.1445  0.0650
  630TMC3    O1 9391   4.094   1.252  16.867 -0.4485  0.0929  0.0328
  630TMC3    O2 9392   4.328   1.437  16.353 -0.2359  0.0328  0.3154
  631MPD2     C 9393   2.547   1.343  14.979  0.0891  0.3723 -0.0900
  631MPD2    C1 9394   2.414   1.332  15.018  0.0262 -0.0532 -0.8526
  631MPD2    C2 9395   2.389   1.286  15.149 -0.2009 -0.4889 -0.2652
  631MPD2    C3 9396   2.489   1.256  15.242 -1.0803 -0.4216  0.0237
  631MPD2    C4 9397   2.619   1.269  15.191 -0.0126  1.1454  0.2079
  631MPD2    C5 9398   2.648   1.304  15.061 -0.0636  0.6169 -0.1391
  631MPD2     H 9399   2.286   1.277  15.182 -0.4753  0.2695 -0.9286
  631MPD2    H1 9400   2.702   1.245  15.256 -0.0430 -0.1931 -0.2350
  631MPD2    H2 9401   2.565   1.392  14.884  1.9036 -1.1690 -0.5409
  631MPD2    H3 9402   2.748   1.326  15.026  0.4818 -0.7279  0.6178
  631MPD2     N 9403   2.465   1.230  15.383 -0.2821 -0.7926  0.1636
  631MPD2    H5 9404   2.368   1.233  15.411 -0.2280  0.5768  0.2056
  631MPD2    N1 9405   2.318   1.366  14.916  0.3386 -0.1032  0.1269
  631MPD2    H7 9406   2.353   1.396  14.825  0.1653  1.8215  0.6975
  632TMC3    C1 9407   2.109   1.458  14.855 -0.5010 -0.2622 -0.2865
  632TMC3    C2 9408   1.983   1.492  14.914 -0.5896 -0.2451 -0.4560
  632TMC3    C3 9409   1.922   1.602  14.860 -0.2122  0.2209  0.1723
  632TMC3    C4 9410   2.167   1.538  14.765  0.6454 -0.2921 -0.3925
  632TMC3    C5 9411   2.104   1.651  14.710 -0.1578 -0.2748 -0.2865
  632TMC3    C6 9412   1.977   1.676  14.755 -1.1433 -0.3598 -0.1027
  632TMC3     C 9413   2.186   1.376  14.942  0.0469 -0.0562 -0.0108
  632TMC3     O 9414   2.127   1.328  15.037  0.8906 -0.4096  0.1571
  632TMC3     H 9415   1.947   1.452  15.007 -1.6195  0.6749 -0.4598
  632TMC3    H1 9416   2.265   1.516  14.725  1.4285  1.0964  0.7706
  632TMC3    H2 9417   1.911   1.746  14.706  0.4748  1.4782  0.3304
  632TMC3    C7 9418   2.168   1.731  14.607 -0.6021 -0.6568  0.1047
  632TMC3    C8 9419   1.806   1.649  14.935  0.1225 -0.6711 -0.2385
  632TMC3    O1 9420   2.099   1.807  14.540  0.3276 -0.2754 -0.2378
  632TMC3    O2 9421   1.741   1.558  14.985  0.0944 -0.0191 -0.5914
  633MPD2     C 9422   1.918   3.453  17.589  0.0354  0.0750 -0.5270
  633MPD2    C1 9423   1.916   3.395  17.465  0.8108 -0.3260  0.0581
  633MPD2    C2 9424   1.992   3.286  17.437  0.0756 -0.0674 -0.2641
  633MPD2    C3 9425   2.089   3.252  17.527 -0.7222  0.0922 -0.0119
  633MPD2    C4 9426   2.100   3.313  17.650  0.9883  0.8897  0.3009
  633MPD2    C5 9427   2.014   3.414  17.677  0.0833 -0.0865 -0.3063
  633MPD2     H 9428   1.986   3.233  17.342 -0.9297 -0.2924 -0.0767
  633MPD2    H1 9429   2.174   3.282  17.723 -0.3694  0.6841  1.5903
  633MPD2    H2 9430   1.862   3.537  17.627  2.1786  1.2031  0.1857
  633MPD2    H3 9431   2.015   3.466   0.027  0.5533  0.3563 -0.5530
  633MPD2     N 9432   2.177   3.144  17.509 -0.2662  0.4707  0.3106
  633MPD2    H5 9433   2.244   3.132  17.585  1.5031  2.5674 -0.9196
  633MPD2    N1 9434   1.841   3.448  17.356  0.0219  0.1897  0.5314
  633MPD2    H7 9435   1.844   3.394  17.270 -1.3821  1.8445 -0.5565
  634TMC3    C1 9436   1.666   3.585  17.263  1.2152 -0.0315 -0.1224
  634TMC3    C2 9437   1.651   3.495  17.167 -0.4733  0.2524  0.7341
  634TMC3    C3 9438   1.609   3.548  17.045 -0.2612  0.2012  0.1508
  634TMC3    C4 9439   1.608   3.709  17.257 -0.2735  0.3800 -0.0635
  634TMC3    C5 9440   1.537   3.744  17.141 -1.1814  0.6306 -0.5938
  634TMC3    C6 9441   1.548   3.675  17.029 -0.7953  0.2903 -0.3564
  634TMC3     C 9442   1.756   3.562  17.371 -0.1348 -0.3762  0.6129
  634TMC3     O 9443   1.762   3.656  17.455 -0.2449 -0.5035 -0.1710
  634TMC3     H 9444   1.672   3.390  17.184  0.8967  0.0683 -2.1313
  634TMC3    H1 9445   1.612   3.777  17.342 -0.0031 -1.2963  1.2624
  634TMC3    H2 9446   1.486   3.698  16.944 -2.3099  1.6632  1.1032
  634TMC3    C7 9447   1.500   3.882  17.116  0.7773 -0.0514 -0.1894
  634TMC3    C8 9448   1.648   3.468  16.929  0.3993 -0.3584 -0.1224
  634TMC3    O1 9449   1.429   3.903  17.013  0.3315  0.3340 -0.4125
  634TMC3    O2 9450   1.734   3.386  16.951  0.4294  0.1754  0.5736
  635TMC3    C1 9451   2.457   0.983  17.240  0.3006  0.7959 -0.2195
  635TMC3    C2 9452   2.476   0.873  17.161  0.4245 -0.5713 -0.2401
  635TMC3    C3 9453   2.373   0.778  17.165 -0.4237 -1.0729 -0.4443
  635TMC3    C4 9454   2.368   0.976  17.345  0.0447  0.3149 -0.3553
  635TMC3    C5 9455   2.272   0.879  17.347  0.2359 -0.1094 -0.1999
  635TMC3    C6 9456   2.269   0.773  17.256  0.7641 -0.1765 -0.8567
  635TMC3     C 9457   2.556   1.092  17.235 -0.1552  0.1411  0.0806
  635TMC3     O 9458   2.552   1.168  17.328  0.9777  0.0252  0.2483
  635TMC3     H 9459   2.555   0.863  17.088  1.0317 -2.0476  0.6310
  635TMC3    H1 9460   2.385   1.036  17.433 -1.3399 -1.5384  1.1881
  635TMC3    H2 9461   2.174   0.725  17.240 -0.4736  2.0432 -0.2169
  635TMC3    C7 9462   2.169   0.884  17.441  0.0543  0.2065  0.0522
  635TMC3    C8 9463   2.373   0.663  17.073  0.5103  0.4869  0.7899
  635TMC3    O1 9464   2.137   1.001  17.467 -0.4984  0.2347 -0.7092
  635TMC3    O2 9465   2.434   0.669  16.967 -0.0965  0.2096  0.3935
  636MPD2     C 9466   2.329   0.246  16.213  0.1447  0.7828  1.0304
  636MPD2    C1 9467   2.375   0.354  16.285  0.4119  0.8162 -0.0387
  636MPD2    C2 9468   2.469   0.335  16.385  0.0991  0.4870  0.0223
  636MPD2    C3 9469   2.521   0.213  16.425 -0.0347  0.1006  0.6431
  636MPD2    C4 9470   2.459   0.104  16.363  0.1161  0.1200 -0.1348
  636MPD2    C5 9471   2.376   0.121  16.255 -0.0836  0.0107 -0.3958
  636MPD2     H 9472   2.510   0.425  16.430 -0.5925 -0.1152  1.8813
  636MPD2    H1 9473   2.491   0.001  16.376  1.6786  0.5357 -0.6066
  636MPD2    H2 9474   2.262   0.245  16.128  0.0665 -1.3671  1.1075
  636MPD2    H3 9475   2.337   0.036  16.200 -0.5946  0.5739 -0.9060
  636MPD2     N 9476   2.627   0.199  16.517 -0.4037  0.4370  0.8903
  636MPD2    H5 9477   2.655   0.285  16.564 -0.9455 -0.6700  3.2360
  636MPD2    N1 9478   2.334   0.486  16.264  0.3001 -0.0118 -0.5066
  636MPD2    H7 9479   2.377   0.558  16.321 -0.3756  0.8923 -1.1487
  637TMC3    C1 9480   2.776   0.104  16.663 -0.1445 -0.0130  0.0486
  637TMC3    C2 9481   2.881   0.166  16.608 -0.3566 -0.0013  0.2382
  637TMC3    C3 9482   3.005   0.107  16.635 -0.1833 -0.9108  0.1621
  637TMC3    C4 9483   2.787   0.008  16.764  0.0218 -0.8233 -0.1373
  637TMC3    C5 9484   2.904   4.688  16.788 -0.5297  0.6781  0.4141
  637TMC3    C6 9485   3.013   0.009  16.730  0.1584  0.5135  0.6496
  637TMC3     C 9486   2.669   0.082  16.573  0.5628 -0.6031 -0.6840
  637TMC3     O 9487   2.632   4.704  16.566 -0.2107 -0.6780  0.4246
  637TMC3     H 9488   2.874   0.225  16.518 -0.7255 -1.5268 -0.7172
  637TMC3    H1 9489   2.695   4.691  16.782 -0.2982 -0.3964 -0.4937
  637TMC3    H2 9490   3.111   4.704  16.750  0.1748 -1.4101 -3.4618
  637TMC3    C7 9491   2.902   4.550  16.772  0.1390  0.6013  0.2650
  637TMC3    C8 9492   3.085   0.082  16.508  0.1008 -0.1750  0.5094
  637TMC3    O1 9493   2.996   4.513  16.704 -0.2721  0.0562 -0.0234
  637TMC3    O2 9494   3.084   0.176  16.428 -0.2147 -0.0751 -0.2731
  638MPD2     C 9495   2.870   3.218  14.940  0.1472  0.6020  0.1553
  638MPD2    C1 9496   2.831   3.140  14.831  0.3296  0.0120  0.0218
  638MPD2    C2 9497   2.834   3.001  14.853 -0.3297  0.6992  0.0109
  638MPD2    C3 9498   2.862   2.940  14.974 -0.2162  0.0814 -0.2262
  638MPD2    C4 9499   2.896   3.028  15.075 -1.1167  0.2528  0.4717
  638MPD2    C5 9500   2.909   3.164  15.057 -0.4196  0.0992 -0.0586
  638MPD2     H 9501   2.813   2.937  14.768  2.5388  0.1973 -0.3385
  638MPD2    H1 9502   2.901   3.004  15.181  2.3102 -2.7183 -0.3393
  638MPD2    H2 9503   2.861   3.326  14.935 -2.4673  0.3589 -0.5890
  638MPD2    H3 9504   2.908   3.233  15.140  0.3091 -0.0091  0.0392
  638MPD2     N 9505   2.846   2.803  14.986 -0.3469  0.1855  0.4737
  638MPD2    H5 9506   2.824   2.754  14.899  1.3966  3.4413 -1.7956
  638MPD2    N1 9507   2.801   3.208  14.717 -0.2175  0.3814  0.0646
  638MPD2    H7 9508   2.806   3.309  14.717  1.3311  0.3019  1.9347
  639TMC3    C1 9509   2.872   2.585  15.079  0.6270 -0.1062  0.2432
  639TMC3    C2 9510   2.787   2.537  14.982 -0.3320 -0.2428 -0.4784
  639TMC3    C3 9511   2.760   2.405  14.983 -0.2156 -0.5874  0.5421
  639TMC3    C4 9512   2.919   2.507  15.182  0.9778 -0.6979  0.1957
  639TMC3    C5 9513   2.901   2.369  15.163 -0.1034 -0.0475  0.3009
  639TMC3    C6 9514   2.820   2.317  15.065  0.2171 -0.3767 -0.0173
  639TMC3     C 9515   2.880   2.730  15.096  0.2514 -0.5395 -0.5497
  639TMC3     O 9516   2.923   2.777  15.203  0.2808  0.0749 -0.4138
  639TMC3     H 9517   2.748   2.594  14.898  0.5509  1.4581  0.2736
  639TMC3    H1 9518   2.993   2.548  15.250  0.7692  0.0262 -0.0248
  639TMC3    H2 9519   2.802   2.210  15.071  1.9838 -0.6275  0.9651
  639TMC3    C7 9520   3.013   2.276  15.192 -0.0584  0.5079 -0.4074
  639TMC3    C8 9521   2.677   2.358  14.878 -0.3247 -0.0641 -0.7499
  639TMC3    O1 9522   2.987   2.163  15.197 -0.5056 -0.4608  0.4211
  639TMC3    O2 9523   2.711   2.397  14.766 -0.1475  0.9309 -0.4456
  640MPD2     C 9524   2.647   1.420   9.607  0.1981  0.5495  0.1365
  640MPD2    C1 9525   2.743   1.518   9.620  0.2101  0.3386  0.2897
  640MPD2    C2 9526   2.717   1.617   9.711  0.1656 -0.4310 -0.2161
  640MPD2    C3 9527   2.590   1.623   9.774  0.0928 -0.1942 -0.3637
  640MPD2    C4 9528   2.503   1.526   9.753 -0.6488 -0.2490  0.1737
  640MPD2    C5 9529   2.527   1.420   9.679 -0.5010 -0.0412 -0.3645
  640MPD2     H 9530   2.785   1.699   9.731 -1.7672  0.2176  3.5895
  640MPD2    H1 9531   2.409   1.531   9.807 -0.6124  0.3122  0.1830
  640MPD2    H2 9532   2.673   1.338   9.541  0.1895 -0.1030  0.9359
  640MPD2    H3 9533   2.461   1.334   9.677 -1.6484  0.8380 -0.5991
  640MPD2     N 9534   2.542   1.728   9.850 -0.6421 -0.4920  0.6040
  640MPD2    H5 9535   2.448   1.713   9.887 -0.1094  2.8583  3.2781
  640MPD2    N1 9536   2.859   1.508   9.543  0.5608 -0.7545  0.3918
  640MPD2    H7 9537   2.872   1.421   9.494  1.3227 -1.1355  1.2594
  641TMC3    C1 9538   3.064   1.532   9.456  0.7244  0.0746 -0.2305
  641TMC3    C2 9539   3.100   1.398   9.482  0.0060  0.2394  0.1818
  641TMC3    C3 9540   3.204   1.340   9.417  0.9643 -0.3191  0.8523
  641TMC3    C4 9541   3.142   1.607   9.382  0.0244  0.3380 -0.3588
  641TMC3    C5 9542   3.249   1.550   9.326 -0.4529 -0.7013  0.0177
  641TMC3    C6 9543   3.289   1.423   9.346 -0.1414  0.4957 -0.3148
  641TMC3     C 9544   2.964   1.595   9.532  0.2244 -0.0214  0.7721
  641TMC3     O 9545   2.980   1.704   9.582 -0.2728 -0.3775 -0.3209
  641TMC3     H 9546   3.031   1.332   9.533  0.3306  0.1632  0.5216
  641TMC3    H1 9547   3.120   1.713   9.374 -1.1501  0.0471 -0.9103
  641TMC3    H2 9548   3.371   1.379   9.290  1.3615  1.1350  1.3855
  641TMC3    C7 9549   3.341   1.627   9.244  0.4008 -0.4632  0.1684
  641TMC3    C8 9550   3.252   1.200   9.449 -0.3879  0.5990  0.3888
  641TMC3    O1 9551   3.456   1.587   9.243  0.2089  0.0405 -0.1773
  641TMC3    O2 9552   3.336   1.146   9.375 -0.0381 -0.4514  0.2445
  642TMC3    C1 9553   4.541   2.961  11.662 -0.2980  0.6833  0.2995
  642TMC3    C2 9554   4.575   3.004  11.792  0.2629  0.3894 -0.1777
  642TMC3    C3 9555   4.631   2.914  11.880 -0.0471  0.0607  0.7974
  642TMC3    C4 9556   4.552   2.832  11.632 -0.3842  0.6833  0.0882
  642TMC3    C5 9557   4.590   2.738  11.732 -0.9112  0.0222 -0.1276
  642TMC3    C6 9558   4.625   2.780  11.857  0.5565  0.3922  0.3656
  642TMC3     C 9559   4.412   3.024  11.619  0.2747 -0.3691 -0.1007
  642TMC3     O 9560   4.390   3.029  11.498 -0.3192 -0.2734  0.0291
  642TMC3     H 9561   4.559   3.106  11.825  0.8570  0.7691 -1.0859
  642TMC3    H1 9562   4.529   2.793  11.534 -0.7218 -1.4919  1.0302
  642TMC3    H2 9563   4.661   2.705  11.926  1.1370  1.3778  1.1202
  642TMC3    C7 9564   4.485   2.628  11.737  0.4579 -0.3475  0.7103
  642TMC3    C8 9565   4.639   2.947  12.023  0.3896  0.1949 -0.6688
  642TMC3    O1 9566   4.447   2.594  11.626 -0.1204  0.0491  0.3955
  642TMC3    O2 9567   4.618   2.865  12.110 -0.3963  0.1588  0.3389
  643TMC3    C1 9568   3.930   2.949   0.981  0.0402  0.4268 -0.5723
  643TMC3    C2 9569   3.943   3.076   0.934 -0.4648  1.1607 -0.1502
  643TMC3    C3 9570   3.892   3.102   0.806 -0.3805 -0.5179  0.0582
  643TMC3    C4 9571   3.881   2.843   0.909 -0.6026 -0.7268  0.4480
  643TMC3    C5 9572   3.840   2.875   0.782 -0.5296  0.8174 -0.1787
  643TMC3    C6 9573   3.834   3.003   0.733 -0.1670 -0.2441 -0.2501
  643TMC3     C 9574   4.015   2.923   1.104 -0.0818 -0.2758  0.4923
  643TMC3     O 9575   4.022   3.007   1.189  0.1642 -0.2326  0.3554
  643TMC3     H 9576   3.986   3.153   0.997  1.1648 -1.6755  2.1553
  643TMC3    H1 9577   3.861   2.742   0.942 -0.3143  0.2901  3.7329
  643TMC3    H2 9578   3.787   3.018   0.636  0.8894  0.0971 -0.7025
  643TMC3    C7 9579   3.855   2.782   0.673  0.2712 -0.1920 -0.4318
  643TMC3    C8 9580   3.908   3.235   0.753 -0.6620  0.7005  0.0838
  643TMC3    O1 9581   3.882   2.822   0.563 -0.0597  0.3717  0.1748
  643TMC3    O2 9582   3.938   3.325   0.834  0.0405  0.1010 -0.2209
  644MPD2     C 9583   2.795   2.001   9.469  0.2944  0.2785 -0.2426
  644MPD2    C1 9584   2.909   2.078   9.472  0.5059  0.3262 -0.0596
  644MPD2    C2 9585   2.908   2.219   9.469  0.4642  0.2195  0.2624
  644MPD2    C3 9586   2.779   2.274   9.451 -0.5838 -0.2286 -0.1525
  644MPD2    C4 9587   2.666   2.192   9.436  0.6943  0.1861  0.1079
  644MPD2    C5 9588   2.675   2.059   9.435 -0.4605 -0.1472 -0.3650
  644MPD2     H 9589   2.993   2.285   9.482  1.7763 -1.2774 -0.7385
  644MPD2    H1 9590   2.570   2.242   9.430  2.3768  3.2683 -1.4473
  644MPD2    H2 9591   2.803   1.894   9.484  1.6194  0.3667 -0.3589
  644MPD2    H3 9592   2.589   1.994   9.446 -0.3150 -0.1929  0.5943
  644MPD2     N 9593   2.765   2.416   9.464 -0.3004 -0.2957 -0.4046
  644MPD2    H5 9594   2.849   2.471   9.469 -0.8107  0.3732  0.7063
  644MPD2    N1 9595   3.024   2.004   9.496 -0.0779  0.3015  1.4074
  644MPD2    H7 9596   3.009   1.906   9.515  0.8567  0.0999  1.1142
  645TMC3    C1 9597   2.664   2.637   9.488  0.4358 -0.7465  0.0043
  645TMC3    C2 9598   2.790   2.697   9.484  0.7045  0.1933 -0.0682
  645TMC3    C3 9599   2.789   2.831   9.513 -0.0532 -0.1710 -0.0455
  645TMC3    C4 9600   2.549   2.709   9.494 -0.3319  0.5979 -1.2297
  645TMC3    C5 9601   2.554   2.848   9.504 -0.0483 -0.1317  0.4639
  645TMC3    C6 9602   2.673   2.908   9.524  0.6054 -0.9782 -0.0433
  645TMC3     C 9603   2.650   2.495   9.457  0.7396 -0.5135  0.1886
  645TMC3     O 9604   2.529   2.460   9.440  0.0271 -0.4838  0.0416
  645TMC3     H 9605   2.879   2.640   9.461  0.3201  0.3704 -1.9462
  645TMC3    H1 9606   2.459   2.651   9.511  0.7296 -0.4935  0.6922
  645TMC3    H2 9607   2.685   3.013   9.549  0.8923 -1.2160  0.8329
  645TMC3    C7 9608   2.428   2.914   9.502  0.3664 -0.3986  0.0597
  645TMC3    C8 9609   2.910   2.903   9.527  0.4799 -0.6602  0.7126
  645TMC3    O1 9610   2.431   3.034   9.502  0.6218  1.3691 -0.2216
  645TMC3    O2 9611   2.903   3.026   9.535  0.4387 -0.2650  0.4016
  646MPD2     C 9612   3.114   1.881  14.280  0.7012  0.3175 -0.2986
  646MPD2    C1 9613   3.025   1.853  14.384  0.0510  0.5810  0.9136
  646MPD2    C2 9614   2.894   1.885  14.366  0.0022  0.7236  0.0192
  646MPD2    C3 9615   2.851   1.960  14.256  0.1902  1.1947 -1.0510
  646MPD2    C4 9616   2.944   2.003  14.166  0.7092  0.1330 -0.3318
  646MPD2    C5 9617   3.072   1.960  14.178  0.1232  0.1552  0.1650
  646MPD2     H 9618   2.826   1.878  14.451 -1.4466 -0.2251 -1.2255
  646MPD2    H1 9619   2.921   2.069  14.083 -1.9507  1.2586  1.2792
  646MPD2    H2 9620   3.214   1.839  14.274  0.3265 -0.8241  1.2914
  646MPD2    H3 9621   3.139   1.986  14.098 -0.6945 -3.4721 -1.7080
  646MPD2     N 9622   2.716   2.007  14.258  0.2105 -0.6654  0.0289
  646MPD2    H5 9623   2.649   1.976  14.328 -1.1028  0.9035 -0.5402
  646MPD2    N1 9624   3.081   1.783  14.495 -0.1110  0.5402  0.2923
  646MPD2    H7 9625   3.180   1.761  14.490 -0.2696  0.0764 -0.8365
  647TMC3    C1 9626   3.085   1.658  14.694  0.0933  0.6965  0.0791
  647TMC3    C2 9627   3.034   1.656  14.815  0.6036 -0.8038  0.2742
  647TMC3    C3 9628   3.105   1.592  14.914  0.0494 -0.6646  0.2137
  647TMC3    C4 9629   3.204   1.597  14.655  1.1067  0.8963 -0.1611
  647TMC3    C5 9630   3.270   1.528  14.758  0.1121  0.4372  0.2648
  647TMC3    C6 9631   3.225   1.525  14.887  0.0192  0.3044 -0.3230
  647TMC3     C 9632   3.009   1.731  14.599  0.0822  0.7275 -0.2969
  647TMC3     O 9633   2.888   1.722  14.615  0.5842  0.4183 -0.0608
  647TMC3     H 9634   2.947   1.717  14.835  0.7593 -0.8817  1.1902
  647TMC3    H1 9635   3.224   1.583  14.549  0.0007 -1.1006 -0.1111
  647TMC3    H2 9636   3.277   1.471  14.965 -0.1520 -1.1315 -1.2046
  647TMC3    C7 9637   3.413   1.505  14.749  0.2361  0.1631 -0.5730
  647TMC3    C8 9638   3.038   1.567  15.039  0.1791  0.9058  0.4421
  647TMC3    O1 9639   3.460   1.463  14.854  0.3692 -0.4802 -0.1337
  647TMC3    O2 9640   3.094   1.505  15.128 -0.3491 -0.1121  0.2340
  648TMC3    C1 9641   2.059   3.506  16.452  0.1085 -0.1217 -0.7948
  648TMC3    C2 9642   2.189   3.466  16.438  0.4647  0.3334  0.3768
  648TMC3    C3 9643   2.254   3.487  16.317 -0.4838  0.0264  0.3083
  648TMC3    C4 9644   1.998   3.568  16.344 -0.1724  0.7973 -0.0746
  648TMC3    C5 9645   2.061   3.596  16.230  0.4022  0.1163  0.1012
  648TMC3    C6 9646   2.191   3.551  16.212  0.2040 -0.3156  0.2748
  648TMC3     C 9647   2.013   3.566  16.575  0.3606  0.1326  0.2225
  648TMC3     O 9648   1.964   3.678  16.560 -0.5513  0.1474 -0.4484
  648TMC3     H 9649   2.240   3.423  16.523 -0.3814  0.0601  0.7469
  648TMC3    H1 9650   1.897   3.605  16.357 -0.1207  0.3872  1.5795
  648TMC3    H2 9651   2.252   3.591  16.131  0.6136 -0.6931  0.3984
  648TMC3    C7 9652   2.026   3.719  16.158  0.5071  0.1331  0.8591
  648TMC3    C8 9653   2.394   3.455  16.309 -0.5403  0.3121  0.2745
  648TMC3    O1 9654   2.090   3.746  16.061 -0.5964  0.4612 -0.0782
  648TMC3    O2 9655   2.451   3.448  16.420 -0.0083 -0.6867  0.4727
  649TMC3    C1 9656   0.646   0.504  12.955 -0.2270 -0.5794  0.0911
  649TMC3    C2 9657   0.774   0.550  12.948 -0.1925  0.4765 -0.0278
  649TMC3    C3 9658   0.866   0.506  13.035  0.2797 -0.3183  0.6718
  649TMC3    C4 9659   0.601   0.420  13.058  0.3988 -0.6075  0.2072
  649TMC3    C5 9660   0.697   0.385  13.149 -0.6000 -0.4426 -0.9574
  649TMC3    C6 9661   0.825   0.425  13.145  0.1123  0.6087 -1.4239
  649TMC3     C 9662   0.578   0.513  12.830  0.3417  0.6849  0.5862
  649TMC3     O 9663   0.473   0.577  12.832  0.0665 -0.5353 -0.0203
  649TMC3     H 9664   0.804   0.609  12.863  1.2951  2.6106  1.9657
  649TMC3    H1 9665   0.502   0.379  13.042  0.5053 -0.9023  0.3014
  649TMC3    H2 9666   0.895   0.405  13.226 -0.0482  0.6749 -1.2706
  649TMC3    C7 9667   0.662   0.296  13.261  0.8898  0.7641 -0.8025
  649TMC3    C8 9668   1.000   0.565  13.052 -0.5003 -0.1440 -0.4015
  649TMC3    O1 9669   0.722   0.316  13.368  0.3693 -0.2911 -0.0403
  649TMC3    O2 9670   1.081   0.501  13.117  0.3342  0.3911  0.2125
  650TMC3    C1 9671   4.055   1.945  12.433 -0.2216 -0.2371  0.3433
  650TMC3    C2 9672   4.088   2.067  12.472 -0.3567 -0.3093  0.7001
  650TMC3    C3 9673   4.052   2.166  12.390 -0.2622  0.4509  0.1882
  650TMC3    C4 9674   3.980   1.917  12.318  0.2714 -0.1014 -0.4583
  650TMC3    C5 9675   3.941   2.030  12.246  0.3754 -0.2036  0.2608
  650TMC3    C6 9676   3.970   2.154  12.284  0.0634 -0.4998  0.6046
  650TMC3     C 9677   4.142   1.837  12.479 -0.2480  0.1859 -0.1496
  650TMC3     O 9678   4.251   1.876  12.515 -0.7356  0.0478 -0.7326
  650TMC3     H 9679   4.146   2.083  12.561  3.0366  0.1912 -1.6043
  650TMC3    H1 9680   3.958   1.813  12.297 -0.5680  0.2307 -1.2079
  650TMC3    H2 9681   3.940   2.240  12.224 -0.6465 -0.5778  0.8514
  650TMC3    C7 9682   3.831   2.009  12.156 -0.1157  0.7514 -0.1513
  650TMC3    C8 9683   4.068   2.301  12.440  0.6406 -0.0993 -0.7221
  650TMC3    O1 9684   3.831   1.907  12.091 -0.1604 -0.0563  0.1521
  650TMC3    O2 9685   4.083   2.390  12.356  0.7150  0.5197  0.0461
  651MPD2     C 9686   2.201   3.792  10.281 -0.1305  0.0206  0.6081
  651MPD2    C1 9687   2.184   3.925  10.311  0.4348  0.1668 -0.6376
  651MPD2    C2 9688   2.297   3.991  10.358 -0.2758 -0.0213 -1.6334
  651MPD2    C3 9689   2.414   3.930  10.380 -0.0110 -0.4791  0.3800
  651MPD2    C4 9690   2.434   3.803  10.340 -0.3885 -0.0536 -0.6260
  651MPD2    C5 9691   2.326   3.732  10.292  0.1823  0.5200  0.3231
  651MPD2     H 9692   2.272   4.096  10.376  0.1242  0.1787 -2.2511
  651MPD2    H1 9693   2.529   3.753  10.329  0.3841  0.7030  2.5259
  651MPD2    H2 9694   2.127   3.729  10.232 -2.6150  3.5038 -0.1118
  651MPD2    H3 9695   2.329   3.628  10.263 -0.2198  0.1350  1.6516
  651MPD2     N 9696   2.518   4.015  10.434 -0.1239 -0.2055  0.0917
  651MPD2    H5 9697   2.497   4.112  10.452  0.6910 -0.1932  1.0126
  651MPD2    N1 9698   2.064   4.003  10.307 -0.0671  0.7354 -0.5106
  651MPD2    H7 9699   2.072   4.099  10.340 -3.1855  0.7947  0.0797
  652TMC3    C1 9700   2.936   4.201  10.446 -0.3021 -0.0693 -0.0191
  652TMC3    C2 9701   2.858   4.090  10.433 -0.4269  0.1360 -0.4205
  652TMC3    C3 9702   2.732   4.100  10.473  0.1001 -0.5639 -0.1394
  652TMC3    C4 9703   2.880   4.322  10.482 -0.3591 -0.4618 -0.0537
  652TMC3    C5 9704   2.754   4.325  10.524 -0.1522 -0.0452 -0.2542
  652TMC3    C6 9705   2.677   4.209  10.541 -0.3926 -0.4197 -0.0093
  652TMC3     C 9706   3.084   4.191  10.431 -0.1396  0.7908 -0.4040
  652TMC3     O 9707   3.128   4.076  10.435 -0.0821 -0.6606 -0.4740
  652TMC3     H 9708   2.901   3.998  10.397  0.1647  0.8725 -1.6144
  652TMC3    H1 9709   2.941   4.412  10.476 -1.4913  0.1199 -3.0138
  652TMC3    H2 9710   2.577   4.201  10.581  0.1547 -2.6253  0.8958
  652TMC3    C7 9711   2.681   4.446  10.539 -0.2165 -0.3086 -0.0499
  652TMC3    C8 9712   2.648   3.982  10.457  0.1337 -0.6173  0.2140
  652TMC3    O1 9713   2.578   4.431  10.606 -0.4932 -0.6529  0.1692
  652TMC3    O2 9714   2.699   3.872  10.448 -0.1699  0.7273 -0.6297
  653MPD2     C 9715   1.383   4.066   0.131 -0.2440  0.4719  0.4004
  653MPD2    C1 9716   1.384   4.182   0.065 -0.1607 -0.0969 -0.3188
  653MPD2    C2 9717   1.311   4.201  17.689  0.6436 -0.0469 -0.4663
  653MPD2    C3 9718   1.253   4.089  17.632  0.3910 -0.0233  0.7350
  653MPD2    C4 9719   1.264   3.965  17.694  0.0966 -0.5951 -0.0375
  653MPD2    C5 9720   1.336   3.956   0.062 -0.5585 -0.1198 -0.1772
  653MPD2     H 9721   1.311   4.303  17.653 -0.1409 -0.5638 -1.9170
  653MPD2    H1 9722   1.233   3.869  17.654 -0.4663  0.2052 -1.5139
  653MPD2    H2 9723   1.441   4.058   0.222  0.8323 -1.5139 -0.4691
  653MPD2    H3 9724   1.355   3.860   0.108 -1.3124  0.8329  2.1316
  653MPD2     N 9725   1.194   4.106  17.505  0.1659  0.2669  0.4106
  653MPD2    H5 9726   1.165   4.202  17.488 -3.9292 -0.8191  1.2601
  653MPD2    N1 9727   1.438   4.299   0.125  0.0321  0.0458 -0.5795
  653MPD2    H7 9728   1.427   4.387   0.077 -1.6767  0.5313  0.6996
  654TMC3    C1 9729   1.114   4.057  17.292 -0.5230 -0.1626 -0.0074
  654TMC3    C2 9730   0.994   4.120  17.309  0.7362  0.5825  0.7097
  654TMC3    C3 9731   0.905   4.115  17.202  0.1228  0.2916 -0.0535
  654TMC3    C4 9732   1.140   3.978  17.187  0.0438  0.2521 -0.1034
  654TMC3    C5 9733   1.043   3.957  17.092  0.0022 -0.2396  0.1498
  654TMC3    C6 9734   0.929   4.036  17.090  0.1405 -0.1500 -0.0500
  654TMC3     C 9735   1.174   4.006  17.414 -0.7277 -0.1832  0.1578
  654TMC3     O 9736   1.201   3.889  17.408  0.4642 -0.6784 -0.0269
  654TMC3     H 9737   0.967   4.169  17.402  1.2954 -0.4579  1.4207
  654TMC3    H1 9738   1.233   3.923  17.199 -0.9686 -1.4063  0.1185
  654TMC3    H2 9739   0.854   4.025  17.012 -0.1010  0.5448  0.0836
  654TMC3    C7 9740   1.039   3.837  17.012 -0.1172 -0.5211 -0.1187
  654TMC3    C8 9741   0.810   4.222  17.196 -0.2755  0.3060  0.4321
  654TMC3    O1 9742   0.954   3.835  16.924  0.0492  0.0083  0.1531
  654TMC3    O2 9743   0.791   4.288  17.297 -0.1760 -0.7693 -0.1346
  655MPD2     C 9744   2.634   3.677  15.747  1.0945  0.1188 -0.9844
  655MPD2    C1 9745   2.513   3.736  15.706  0.7728  0.1959 -0.2312
  655MPD2    C2 9746   2.482   3.742  15.575  0.9312  0.3191 -0.5271
  655MPD2    C3 9747   2.573   3.695  15.480 -1.0238  0.3750 -0.5909
  655MPD2    C4 9748   2.692   3.642  15.518  0.5535 -0.3639 -0.3188
  655MPD2    C5 9749   2.720   3.632  15.653 -0.6775 -0.3068  0.5492
  655MPD2     H 9750   2.379   3.764  15.553  1.1391  0.4404 -1.3988
  655MPD2    H1 9751   2.765   3.601  15.449  0.1853  0.0658 -0.9679
  655MPD2    H2 9752   2.664   3.661  15.850  0.6353  0.1150 -0.8517
  655MPD2    H3 9753   2.818   3.597  15.681  0.2138  1.0828 -0.8545
  655MPD2     N 9754   2.547   3.682  15.341 -0.1271 -0.3119  0.1819
  655MPD2    H5 9755   2.620   3.634  15.290  1.0476  1.9449 -0.2876
  655MPD2    N1 9756   2.426   3.799  15.798 -0.1806 -0.3552  0.1705
  655MPD2    H7 9757   2.350   3.848  15.751 -1.0882 -0.9343  1.0198
  656TMC3    C1 9758   2.370   3.920  15.989  0.1269  0.3455  1.3646
  656TMC3    C2 9759   2.359   3.919  16.122  0.1887  0.4148 -0.2326
  656TMC3    C3 9760   2.292   4.024  16.182 -0.3418 -0.0653  0.1512
  656TMC3    C4 9761   2.322   4.019  15.914 -0.1040  0.5463 -0.8691
  656TMC3    C5 9762   2.240   4.116  15.969 -0.5672 -0.1722  0.1121
  656TMC3    C6 9763   2.229   4.120  16.109 -0.3891 -0.5273  0.0667
  656TMC3     C 9764   2.440   3.806  15.937 -0.0669  0.1063 -0.9381
  656TMC3     O 9765   2.502   3.737  16.015  0.3453 -0.2965  1.1504
  656TMC3     H 9766   2.384   3.831  16.180 -1.1856  0.8843  1.0786
  656TMC3    H1 9767   2.332   4.027  15.806  2.9077 -0.2104 -0.6377
  656TMC3    H2 9768   2.161   4.192  16.153 -1.9270 -1.7628 -0.2430
  656TMC3    C7 9769   2.187   4.213  15.879  0.5587  0.1155 -0.0610
  656TMC3    C8 9770   2.241   4.002  16.319 -0.1384  0.2772 -0.0611
  656TMC3    O1 9771   2.237   4.215  15.767 -0.2404  0.4276 -0.5630
  656TMC3    O2 9772   2.245   3.890  16.360  0.4690  0.2210 -0.8124
  657TMC3    C1 9773   1.270   3.437  14.776  0.1309 -0.1839 -0.3679
  657TMC3    C2 9774   1.313   3.505  14.887 -0.2129  0.0132 -0.1049
  657TMC3    C3 9775   1.238   3.597  14.946  0.3816  0.2203 -0.1930
  657TMC3    C4 9776   1.157   3.477  14.707  0.3318 -0.0846  0.1336
  657TMC3    C5 9777   1.096   3.589  14.760  0.1809 -0.2172  0.4612
  657TMC3    C6 9778   1.136   3.652  14.876  0.2886  0.5605  0.5906
  657TMC3     C 9779   1.344   3.328  14.713 -0.0178  0.1844 -0.1566
  657TMC3     O 9780   1.284   3.276  14.624 -0.1076  0.2143 -0.3087
  657TMC3     H 9781   1.390   3.456  14.946 -0.1325  0.9048  0.5258
  657TMC3    H1 9782   1.103   3.418  14.633  1.0423 -1.0746  0.4075
  657TMC3    H2 9783   1.080   3.735  14.918  1.1820  1.1930  0.5251
  657TMC3    C7 9784   0.973   3.632  14.698  0.0475  0.3571  0.0174
  657TMC3    C8 9785   1.270   3.632  15.084  0.1992  0.4459  0.0630
  657TMC3    O1 9786   0.883   3.681  14.767 -0.3409  0.6890 -0.3618
  657TMC3    O2 9787   1.380   3.594  15.125  0.7196 -0.5732 -0.1165
  658MPD2     C 9788   2.867   3.885  14.674  0.1343  0.1400  0.5981
  658MPD2    C1 9789   2.741   3.935  14.674 -0.4410  0.3036 -1.1411
  658MPD2    C2 9790   2.712   4.014  14.562 -0.3187  0.2791 -0.1789
  658MPD2    C3 9791   2.793   4.044  14.460  0.4076 -0.2282 -0.0911
  658MPD2    C4 9792   2.920   4.007  14.463 -0.2978  0.2744  0.0221
  658MPD2    C5 9793   2.959   3.924  14.573  0.1797  0.5026  0.0158
  658MPD2     H 9794   2.615   4.063  14.573  0.8347  2.1611  1.6641
  658MPD2    H1 9795   2.995   4.040  14.393 -0.6320 -0.4180 -0.6586
  658MPD2    H2 9796   2.892   3.815  14.754  1.1648  1.1613  1.1741
  658MPD2    H3 9797   3.063   3.895  14.578 -0.2844 -1.3357 -1.1679
  658MPD2     N 9798   2.732   4.128  14.358 -0.2093  0.0886  0.6570
  658MPD2    H5 9799   2.635   4.156  14.369 -0.4083 -0.0461 -0.6401
  658MPD2    N1 9800   2.637   3.889  14.760  0.3292 -0.3193 -0.3954
  658MPD2    H7 9801   2.547   3.936  14.751  0.1018 -0.5823  0.4200
  659TMC3    C1 9802   2.533   3.786  14.932  0.0793  0.8742 -0.0217
  659TMC3    C2 9803   2.550   3.746  15.062 -0.8210 -0.1500 -0.3913
  659TMC3    C3 9804   2.442   3.701  15.129  0.0235 -0.8997 -0.4530
  659TMC3    C4 9805   2.414   3.800  14.865 -0.0795  0.2571 -0.3787
  659TMC3    C5 9806   2.305   3.748  14.934  0.0064  0.6169  0.1347
  659TMC3    C6 9807   2.321   3.710  15.062  0.0836 -0.3681 -0.3602
  659TMC3     C 9808   2.655   3.811  14.861 -0.7038 -0.1124  0.6247
  659TMC3     O 9809   2.759   3.763  14.905  0.0572 -0.0974 -0.1344
  659TMC3     H 9810   2.647   3.742  15.111  0.3373  1.3016 -2.5439
  659TMC3    H1 9811   2.412   3.841  14.765  0.0010  1.4501  0.1078
  659TMC3    H2 9812   2.236   3.674  15.120 -0.0811 -0.1690 -0.4774
  659TMC3    C7 9813   2.173   3.775  14.890 -0.0718 -1.0079 -0.6917
  659TMC3    C8 9814   2.432   3.704  15.274 -0.7224 -0.4677  0.1549
  659TMC3    O1 9815   2.086   3.715  14.947  0.0161  0.1429 -0.0050
  659TMC3    O2 9816   2.333   3.767  15.316  0.7938  0.3984  0.1846
  660MPD2     C 9817   0.760   2.326  12.762  0.6069  0.2387  0.3358
  660MPD2    C1 9818   0.663   2.413  12.727 -0.1469 -0.7831  0.4566
  660MPD2    C2 9819   0.562   2.440  12.821 -0.8615 -0.3648 -0.1997
  660MPD2    C3 9820   0.551   2.374  12.938  0.2311  0.4233  0.7837
  660MPD2    C4 9821   0.642   2.277  12.963  0.3752 -0.1549 -0.1423
  660MPD2    C5 9822   0.739   2.247  12.874  0.0083  0.8558  0.2359
  660MPD2     H 9823   0.499   2.527  12.804  0.0313  0.5585  1.2095
  660MPD2    H1 9824   0.647   2.221  13.055 -0.7594 -0.6580 -0.3743
  660MPD2    H2 9825   0.836   2.295  12.691  0.5145  2.1908 -0.6093
  660MPD2    H3 9826   0.812   2.168  12.888  0.6250  1.5259  0.7493
  660MPD2     N 9827   0.454   2.395  13.037  0.6118  0.2451 -0.5956
  660MPD2    H5 9828   0.453   2.333  13.118  1.1071  1.2268  0.1717
  660MPD2    N1 9829   0.671   2.479  12.599 -0.7728  0.2840  0.4747
  660MPD2    H7 9830   0.756   2.472  12.545  0.2647  0.6582  2.0519
  661TMC3    C1 9831   0.580   2.599  12.403 -0.5040  0.7497 -0.9083
  661TMC3    C2 9832   0.694   2.575  12.329 -0.4475  0.5954  0.1482
  661TMC3    C3 9833   0.687   2.616  12.203 -0.7426 -0.1914 -0.0596
  661TMC3    C4 9834   0.467   2.656  12.352  0.7977  1.1460 -0.1159
  661TMC3    C5 9835   0.462   2.681  12.220 -0.2801  0.0699 -0.4470
  661TMC3    C6 9836   0.581   2.679  12.142 -0.3904  0.0296 -0.5251
  661TMC3     C 9837   0.562   2.541  12.537 -0.4800 -0.0183  0.1152
  661TMC3     O 9838   0.446   2.534  12.577 -0.5147  0.0117  0.0361
  661TMC3     H 9839   0.782   2.524  12.366  0.1804  1.5016 -0.0708
  661TMC3    H1 9840   0.372   2.637  12.400  0.1839  0.7413 -1.4959
  661TMC3    H2 9841   0.594   2.727  12.045 -0.6038  2.6999  0.7627
  661TMC3    C7 9842   0.356   2.757  12.155 -0.1365  0.1705 -0.1005
  661TMC3    C8 9843   0.817   2.615  12.132  0.1674 -0.2902 -0.2533
  661TMC3    O1 9844   0.310   2.857  12.206  0.7599 -0.1327  0.0729
  661TMC3    O2 9845   0.916   2.612  12.203 -0.0025  0.5710 -0.4004
  662MPD2     C 9846   1.002   2.797  17.553  0.3211 -0.7769 -0.3781
  662MPD2    C1 9847   0.896   2.722  17.591 -0.5395  0.3209 -0.0133
  662MPD2    C2 9848   0.867   2.721  17.728 -0.3744  0.3082  0.0575
  662MPD2    C3 9849   0.951   2.773   0.073 -0.1055  0.1014  0.0817
  662MPD2    C4 9850   1.066   2.842   0.040 -0.3226 -0.1588  0.1241
  662MPD2    C5 9851   1.085   2.851  17.649 -0.8609  0.8014 -0.2224
  662MPD2     H 9852   0.771   2.672  17.742 -0.0392 -0.2425  0.4156
  662MPD2    H1 9853   1.129   2.899   0.107  0.9545 -1.0865 -0.2793
  662MPD2    H2 9854   1.028   2.818  17.450 -1.2409 -0.5216 -0.7280
  662MPD2    H3 9855   1.169   2.911  17.615 -0.5330  0.8434  0.6825
  662MPD2     N 9856   0.927   2.768   0.211 -0.0351 -0.1199 -0.0757
  662MPD2    H5 9857   0.974   2.835   0.271  0.1158  0.4190 -0.8023
  662MPD2    N1 9858   0.807   2.652  17.495  0.0241  0.4512  0.3054
  662MPD2    H7 9859   0.735   2.598  17.544  0.3364 -0.6498 -0.4516
  663TMC3    C1 9860   0.757   2.540  17.297  0.7365  0.1731  0.1247
  663TMC3    C2 9861   0.633   2.493  17.346  0.1446  0.3380  0.3059
  663TMC3    C3 9862   0.573   2.387  17.280 -0.5612 -0.7335 -0.6323
  663TMC3    C4 9863   0.815   2.482  17.189 -0.2258 -0.1308 -0.0016
  663TMC3    C5 9864   0.767   2.360  17.150  0.4547  0.0362 -0.5485
  663TMC3    C6 9865   0.644   2.312  17.195 -0.0167 -0.3672 -0.5949
  663TMC3     C 9866   0.834   2.637  17.366  0.6488  0.1464  0.4203
  663TMC3     O 9867   0.933   2.667  17.305 -0.1597  0.3601 -0.0198
  663TMC3     H 9868   0.570   2.556  17.408 -2.6251 -0.4742 -1.6307
  663TMC3    H1 9869   0.912   2.518  17.155 -1.7075  2.0608 -1.8705
  663TMC3    H2 9870   0.615   2.211  17.169  0.9694 -0.8189  0.0633
  663TMC3    C7 9871   0.853   2.273  17.075  0.2114 -0.4291  0.9465
  663TMC3    C8 9872   0.464   2.314  17.339  0.1828  0.2129 -1.0258
  663TMC3    O1 9873   0.929   2.333  16.996 -0.1996  0.1411  0.6163
  663TMC3    O2 9874   0.392   2.261  17.260 -0.3091 -0.0433 -0.3327
  664MPD2     C 9875   3.739   0.883   0.060 -0.7492 -0.3088  0.0596
  664MPD2    C1 9876   3.833   0.987   0.094 -0.0834 -0.5658 -0.0820
  664MPD2    C2 9877   3.835   1.029   0.223  0.8062 -0.0572  0.0983
  664MPD2    C3 9878   3.767   0.956   0.322  0.2745  0.3347 -0.8907
  664MPD2    C4 9879   3.673   0.865   0.292  0.1096 -0.1732  0.3820
  664MPD2    C5 9880   3.664   0.827   0.156 -0.5321 -0.2382 -0.1781
  664MPD2     H 9881   3.907   1.104   0.254 -0.3537  1.4060 -0.7588
  664MPD2    H1 9882   3.610   0.818   0.367  0.2608  1.7870  1.7467
  664MPD2    H2 9883   3.745   0.837  17.707  0.2581  2.0897 -1.0213
  664MPD2    H3 9884   3.590   0.752   0.128  0.3056 -1.3305  0.5419
  664MPD2     N 9885   3.792   0.997   0.451  0.4735 -0.4813 -0.5584
  664MPD2    H5 9886   3.851   1.077   0.471 -2.1339  1.3756 -0.2665
  664MPD2    N1 9887   3.924   1.054   0.007  0.3349  0.2303  0.1343
  664MPD2    H7 9888   3.992   1.119   0.045 -0.0686  0.8763 -0.2572
  665TMC3    C1 9889   3.765   1.023   0.684  0.3414  0.0873 -0.0142
  665TMC3    C2 9890   3.744   0.968   0.809 -0.2631 -0.1929 -0.2275
  665TMC3    C3 9891   3.786   1.055   0.914  0.0977 -1.1743  0.4355
  665TMC3    C4 9892   3.802   1.156   0.668 -0.1055  0.0779 -0.0106
  665TMC3    C5 9893   3.833   1.232   0.771  0.0048  0.0592  0.1128
  665TMC3    C6 9894   3.839   1.178   0.895  1.0297  0.1893 -0.7285
  665TMC3     C 9895   3.740   0.940   0.565 -0.2635 -0.6705 -0.7043
  665TMC3     O 9896   3.685   0.832   0.583 -0.2063  0.5041  0.1119
  665TMC3     H 9897   3.708   0.866   0.820 -1.6545  0.3711  0.4351
  665TMC3    H1 9898   3.806   1.202   0.570 -1.3799 -0.1085 -0.1512
  665TMC3    H2 9899   3.872   1.238   0.979 -1.2833 -1.4557  1.3558
  665TMC3    C7 9900   3.855   1.372   0.739  0.7011  0.5456  0.3892
  665TMC3    C8 9901   3.780   1.007   1.051  0.3438 -0.2190  0.2951
  665TMC3    O1 9902   3.813   1.420   0.631 -0.2394  0.2256  0.6988
  665TMC3    O2 9903   3.806   1.090   1.139  0.6009  0.2443  0.4786
  666TMC3    C1 9904   2.398   0.296   9.503 -0.1717 -0.6294 -0.0647
  666TMC3    C2 9905   2.499   0.213   9.454  0.5806  0.2312 -0.4808
  666TMC3    C3 9906   2.600   0.274   9.393  0.0149 -0.1920  0.4860
  666TMC3    C4 9907   2.407   0.429   9.495 -0.5273 -0.3416 -0.1022
  666TMC3    C5 9908   2.507   0.492   9.434 -0.0992  0.2570  0.6049
  666TMC3    C6 9909   2.600   0.410   9.371  0.0581  0.4064  0.2095
  666TMC3     C 9910   2.305   0.246   9.608 -0.1817 -0.0416  0.1795
  666TMC3     O 9911   2.251   0.327   9.678  0.2103  0.8330 -0.2094
  666TMC3     H 9912   2.495   0.104   9.457 -1.7637  0.3489  1.0003
  666TMC3    H1 9913   2.324   0.481   9.541  0.4271  1.1273 -0.0669
  666TMC3    H2 9914   2.675   0.457   9.307  1.5164 -0.4597  1.2750
  666TMC3    C7 9915   2.544   0.632   9.477  0.3249  0.7177 -0.4132
  666TMC3    C8 9916   2.686   0.202   9.304  1.0808  0.0391  0.4644
  666TMC3    O1 9917   2.470   0.676   9.565 -0.2141 -0.2883  0.3827
  666TMC3    O2 9918   2.621   0.110   9.255  0.2591 -0.5414  0.2776
  667MPD2     C 9919   0.422   1.126  14.804 -0.3152 -0.2460  0.1976
  667MPD2    C1 9920   0.313   1.182  14.874  0.2537  0.3815 -0.4286
  667MPD2    C2 9921   0.202   1.102  14.889 -0.0085  0.5521  0.2697
  667MPD2    C3 9922   0.199   0.970  14.831 -0.3478 -0.9265  0.1565
  667MPD2    C4 9923   0.309   0.927  14.757 -0.0367  0.1217 -0.3648
  667MPD2    C5 9924   0.423   0.997  14.748 -0.4559 -0.0806 -0.2832
  667MPD2     H 9925   0.109   1.136  14.934 -0.4291 -1.6268  1.0548
  667MPD2    H1 9926   0.309   0.833  14.704 -0.9683 -0.6744  1.0435
  667MPD2    H2 9927   0.513   1.184  14.800  0.2378 -1.1656 -0.5822
  667MPD2    H3 9928   0.513   0.963  14.698  1.5829  3.8544  0.7190
  667MPD2     N 9929   0.081   0.887  14.848 -0.5648 -0.5142  0.8311
  667MPD2    H5 9930   0.092   0.792  14.814  1.5657  0.0563 -0.0802
  667MPD2    N1 9931   0.321   1.313  14.936  0.2535  0.3724 -0.1559
  667MPD2    H7 9932   0.252   1.332  15.008 -0.4582 -1.2211 -0.4082
  668TMC3    C1 9933   0.409   1.526  14.967 -0.2928  0.3600 -0.1014
  668TMC3    C2 9934   0.418   1.646  14.907  0.9607 -0.5737 -0.8181
  668TMC3    C3 9935   0.415   1.749  14.999  0.3827 -0.0048  0.2588
  668TMC3    C4 9936   0.383   1.515  15.100 -0.3908 -0.2360  0.4319
  668TMC3    C5 9937   0.374   1.616  15.190  0.6001  0.0773 -0.5143
  668TMC3    C6 9938   0.407   1.738  15.136 -0.1625  0.5340 -0.2158
  668TMC3     C 9939   0.402   1.407  14.881  0.7197  0.0092  0.2512
  668TMC3     O 9940   0.452   1.410  14.770 -0.0144  0.0772 -0.0500
  668TMC3     H 9941   0.423   1.661  14.800 -0.3523 -1.4580 -1.0040
  668TMC3    H1 9942   0.371   1.416  15.141  0.7405 -0.6238 -0.1827
  668TMC3    H2 9943   0.410   1.823  15.203 -0.6930 -1.1701  1.9871
  668TMC3    C7 9944   0.384   1.592  15.334  0.6566  0.6425  0.2023
  668TMC3    C8 9945   0.478   1.874  14.955  0.2157 -0.2801 -0.8562
  668TMC3    O1 9946   0.450   1.494  15.369  0.2069  0.2030 -0.1792
  668TMC3    O2 9947   0.455   1.976  15.015  0.2842  0.5382 -0.3066
  669TMC3    C1 9948   2.770   1.055  14.231  0.1697 -0.0121  0.4313
  669TMC3    C2 9949   2.676   1.024  14.130 -0.2286  0.3056 -0.4682
  669TMC3    C3 9950   2.703   1.056  13.999  0.7888  0.1882  0.2114
  669TMC3    C4 9951   2.886   1.111  14.205  0.0361 -0.1309 -0.3046
  669TMC3    C5 9952   2.910   1.147  14.072  0.5346  0.3287 -0.0125
  669TMC3    C6 9953   2.823   1.115  13.969 -0.1838  0.0434  0.3101
  669TMC3     C 9954   2.731   1.042  14.368 -0.9034 -0.2253  0.2734
  669TMC3     O 9955   2.611   1.049  14.382  0.2008  0.2598 -0.2495
  669TMC3     H 9956   2.586   0.973  14.162  1.4827 -2.6392 -0.3448
  669TMC3    H1 9957   2.956   1.138  14.284 -1.8170 -0.9215  1.6064
  669TMC3    H2 9958   2.858   1.124  13.867 -1.6832  2.5398  0.0163
  669TMC3    C7 9959   3.037   1.216  14.039  0.1440 -0.6931 -0.2347
  669TMC3    C8 9960   2.592   1.042  13.903 -0.5029  0.2622 -0.3312
  669TMC3    O1 9961   3.125   1.202  14.127  0.1870 -0.5903  0.7685
  669TMC3    O2 9962   2.496   0.973  13.943  0.7500  0.1227 -0.1688
  670MPD2     C 9963   0.611   3.501  13.148 -0.4235 -0.3353  1.2147
  670MPD2    C1 9964   0.709   3.585  13.194  0.7424 -0.1472 -0.0347
  670MPD2    C2 9965   0.733   3.583  13.328 -0.8251  0.1855  0.5189
  670MPD2    C3 9966   0.660   3.503  13.409  0.4386  0.4423  0.3210
  670MPD2    C4 9967   0.554   3.429  13.363  0.5885 -0.5098 -0.5026
  670MPD2    C5 9968   0.526   3.429  13.229  0.3387  0.4271 -0.5818
  670MPD2     H 9969   0.812   3.640  13.374  0.7724  0.3880 -2.4704
  670MPD2    H1 9970   0.497   3.365  13.429 -0.0341 -0.7401 -1.2777
  670MPD2    H2 9971   0.598   3.482  13.042  1.3465  1.8078  0.6185
  670MPD2    H3 9972   0.444   3.370  13.191  1.2596 -0.7860 -0.6959
  670MPD2     N 9973   0.705   3.503  13.545 -0.3269  0.3485  0.1026
  670MPD2    H5 9974   0.770   3.578  13.566 -1.5593  0.6720  2.8285
  670MPD2    N1 9975   0.796   3.668  13.108  0.2803 -0.0427  0.1631
  670MPD2    H7 9976   0.870   3.726  13.145  0.5652  0.7230 -1.6129
  671TMC3    C1 9977   0.692   3.483  13.782 -0.3959 -0.6421 -0.1335
  671TMC3    C2 9978   0.824   3.457  13.798  0.1652 -0.4152  0.0952
  671TMC3    C3 9979   0.880   3.414  13.916 -0.3135 -0.1157 -0.3496
  671TMC3    C4 9980   0.602   3.452  13.876 -0.4391  0.1642 -0.4514
  671TMC3    C5 9981   0.651   3.393  13.984 -0.2407 -0.4319  0.1896
  671TMC3    C6 9982   0.790   3.388  14.016  0.0907 -0.4045  0.1905
  671TMC3     C 9983   0.650   3.436  13.651 -0.3061  0.2511  0.6468
  671TMC3     O 9984   0.561   3.348  13.649  0.1545 -0.3081 -0.1719
  671TMC3     H 9985   0.898   3.482  13.723  0.4490 -0.4548  0.3569
  671TMC3    H1 9986   0.496   3.439  13.857 -0.4387 -1.2613  0.5325
  671TMC3    H2 9987   0.812   3.326  14.102 -1.6625 -2.1815 -0.6537
  671TMC3    C7 9988   0.586   3.262  13.988 -0.3840  0.4003  0.2203
  671TMC3    C8 9989   1.008   3.336  13.920 -0.0759  0.1316  0.2335
  671TMC3    O1 9990   0.650   3.166  13.938  0.1681 -0.2999 -0.1147
  671TMC3    O2 9991   1.051   3.317  13.809  0.0820  0.6928 -0.7786
  672MPD2     C 9992   1.368   3.388   1.305  0.6050 -0.6843 -0.0494
  672MPD2    C1 9993   1.420   3.498   1.242  0.1281 -0.1023 -0.5548
  672MPD2    C2 9994   1.465   3.602   1.320 -0.2330  0.3646  0.3006
  672MPD2    C3 9995   1.472   3.578   1.456  0.3422  0.2090  0.2866
  672MPD2    C4 9996   1.440   3.461   1.518  0.0908 -0.3892  0.0728
  672MPD2    C5 9997   1.388   3.367   1.440  0.2453  0.1433  0.0256
  672MPD2     H 9998   1.518   3.680   1.265  0.2109  0.1201  0.3798
  672MPD2    H1 9999   1.452   3.445   1.624  1.3634 -0.3542 -0.0667
  672MPD2    H210000   1.327   3.308   1.243  1.4369 -1.1547  0.0137
  672MPD2    H310001   1.348   3.278   1.488 -0.5099 -0.1912 -1.2165
  672MPD2     N10002   1.540   3.675   1.538  0.3870  0.9099 -0.1937
  672MPD2    H510003   1.579   3.644   1.627 -0.6380 -1.3870 -0.5288
  672MPD2    N110004   1.419   3.505   1.100 -0.1487 -0.1667  0.1733
  672MPD2    H710005   1.475   3.577   1.054 -1.0494  0.0228 -0.6184
  673TMC3    C110006   1.386   3.432   0.885 -0.1779 -0.9084  0.2787
  673TMC3    C210007   1.513   3.373   0.865  0.1473  0.1017 -0.3432
  673TMC3    C310008   1.549   3.343   0.735  0.3267  0.4164  0.6115
  673TMC3    C410009   1.295   3.464   0.783 -0.2073 -0.4272  0.0021
  673TMC3    C510010   1.341   3.435   0.651  0.0670  0.1448  1.0129
  673TMC3    C610011   1.461   3.376   0.633  0.2387  0.2853 -0.0758
  673TMC3     C10012   1.330   3.448   1.018 -0.6253 -0.2963 -0.1909
  673TMC3     O10013   1.221   3.398   1.053  0.1630  0.4946  0.0580
  673TMC3     H10014   1.576   3.348   0.950  0.4145  1.3502 -0.1617
  673TMC3    H110015   1.199   3.512   0.802 -1.9284 -3.9811  0.2439
  673TMC3    H210016   1.495   3.363   0.531  0.6771  1.1428 -0.0366
  673TMC3    C710017   1.295   3.501   0.541  0.1850  0.3369  0.1098
  673TMC3    C810018   1.666   3.265   0.699 -0.3437 -0.2799 -0.1039
  673TMC3    O110019   1.310   3.456   0.431  0.1141 -0.8933  0.5961
  673TMC3    O210020   1.665   3.207   0.594 -0.0514  0.0213  0.1588
  674MPD2     C10021   0.918   3.828  17.591 -0.3063  0.2463 -0.3439
  674MPD2    C110022   0.900   3.724  17.679 -0.3435  0.3584 -0.2840
  674MPD2    C210023   0.839   3.751   0.057 -0.0133  0.2890 -0.7644
  674MPD2    C310024   0.809   3.873   0.095  0.0185  0.3869 -0.0320
  674MPD2    C410025   0.833   3.974   0.008 -0.2011 -0.3725 -0.2252
  674MPD2    C510026   0.880   3.953  17.629 -0.3644  0.2014  0.3506
  674MPD2     H10027   0.810   3.670   0.123  2.4601 -0.1753 -0.2439
  674MPD2    H110028   0.809   4.078   0.027  1.2293 -0.0818  0.0030
  674MPD2    H210029   0.945   3.818  17.487 -2.2186 -0.1523 -0.7939
  674MPD2    H310030   0.883   4.037  17.561 -2.0679 -0.5442 -0.6376
  674MPD2     N10031   0.759   3.888   0.223  0.0127  0.2826 -0.3607
  674MPD2    H510032   0.759   3.803   0.279  1.0062 -0.3598 -1.3537
  674MPD2    N110033   0.957   3.599  17.650 -0.2751  0.6708  0.5570
  674MPD2    H710034   1.023   3.601  17.574 -0.7916  0.4382  0.1009
  675TMC3    C110035   1.097   3.431  17.734  0.1059  0.0463  0.0074
  675TMC3    C210036   1.097   3.326   0.077 -0.6829  0.0655  0.2146
  675TMC3    C310037   1.214   3.284   0.131 -0.4193  0.2527  0.5027
  675TMC3    C410038   1.209   3.502  17.701 -0.1290  0.4544  0.2001
  675TMC3    C510039   1.325   3.458   0.013 -0.6024 -1.0467 -0.1432
  675TMC3    C610040   1.327   3.349   0.100 -0.1679 -0.0902  0.1392
  675TMC3     C10041   0.969   3.502   0.002  0.2265 -0.0170 -0.4354
  675TMC3     O10042   0.897   3.476   0.100 -0.8410 -0.0140  0.2022
  675TMC3     H10043   1.005   3.269   0.082 -2.0154  2.1932 -0.4806
  675TMC3    H110044   1.206   3.588  17.636  0.6363 -1.0869 -1.8641
  675TMC3    H210045   1.419   3.303   0.133  0.0762  0.2134 -0.1138
  675TMC3    C710046   1.420   3.570   0.039  0.6042 -0.6255 -0.5313
  675TMC3    C810047   1.229   3.159   0.206 -0.4408  0.0209 -0.0391
  675TMC3    O110048   1.420   3.652  17.693 -0.0988  0.5446  0.7403
  675TMC3    O210049   1.326   3.088   0.184 -0.1811  0.2137  0.1140
  676MPD2     C10050   3.644   1.863  10.717 -0.3635  0.7688  0.3197
  676MPD2    C110051   3.597   1.755  10.795  0.2464 -0.6149  0.3063
  676MPD2    C210052   3.585   1.630  10.737  0.1628  0.6997  0.8832
  676MPD2    C310053   3.638   1.605  10.614  0.2133  0.4481  0.2515
  676MPD2    C410054   3.669   1.714  10.533 -0.5531 -0.3253  0.3472
  676MPD2    C510055   3.676   1.842  10.583 -0.1580  0.3620  0.1639
  676MPD2     H10056   3.547   1.545  10.792 -2.3585  0.7059 -0.8392
  676MPD2    H110057   3.695   1.702  10.429  1.4624  0.8456  0.7341
  676MPD2    H210058   3.643   1.961  10.762 -0.8671  0.4848  0.9300
  676MPD2    H310059   3.717   1.921  10.522 -2.4222  0.1475 -1.6088
  676MPD2     N10060   3.652   1.473  10.563 -0.0656 -0.2153  0.5933
  676MPD2    H510061   3.666   1.481  10.462 -0.3950  0.1844  0.5798
  676MPD2    N110062   3.558   1.777  10.931 -0.4702  0.6225 -0.2127
  676MPD2    H710063   3.510   1.706  10.985  1.9895 -0.3540  0.6889
  677TMC3    C110064   3.482   1.915  11.112  0.7035  0.6325  0.0981
  677TMC3    C210065   3.399   1.807  11.153  0.0496 -0.1237 -0.2119
  677TMC3    C310066   3.321   1.824  11.269  0.4130  0.4572  0.9952
  677TMC3    C410067   3.498   2.030  11.174 -0.4827  0.0322  0.2478
  677TMC3    C510068   3.404   2.050  11.272 -0.1172 -0.5133 -0.0690
  677TMC3    C610069   3.319   1.949  11.325  0.0874 -0.4312 -0.2169
  677TMC3     C10070   3.574   1.894  11.001  0.6020  0.9014  0.4897
  677TMC3     O10071   3.665   1.970  10.987 -0.2851 -0.6830 -0.5000
  677TMC3     H10072   3.387   1.713  11.100 -0.4265  0.0291 -0.3765
  677TMC3    H110073   3.548   2.113  11.126 -0.1941 -2.6296 -3.9941
  677TMC3    H210074   3.251   1.979  11.404  0.4404 -1.5243  0.4942
  677TMC3    C710075   3.420   2.164  11.365  0.3643 -0.0270  0.4291
  677TMC3    C810076   3.224   1.716  11.303  0.5876  0.0574 -0.5012
  677TMC3    O110077   3.322   2.193  11.429 -0.0576 -0.0792 -0.1021
  677TMC3    O210078   3.154   1.676  11.214  0.2014 -0.6542 -0.4285
  678MPD2     C10079   0.990   1.962   1.343  0.6621 -0.8161 -0.9942
  678MPD2    C110080   0.938   2.032   1.236 -0.0587  0.0024  0.7021
  678MPD2    C210081   0.804   2.065   1.225 -0.6817  0.1359  0.0243
  678MPD2    C310082   0.717   2.021   1.329  0.2405 -0.4643 -0.0261
  678MPD2    C410083   0.769   1.945   1.435  0.2055 -0.1658  0.1483
  678MPD2    C510084   0.907   1.922   1.442 -0.3578 -0.3015 -0.0217
  678MPD2     H10085   0.768   2.122   1.141  1.3710 -1.1789 -1.7215
  678MPD2    H110086   0.717   1.912   1.525  2.8075 -1.7313  1.0758
  678MPD2    H210087   1.096   1.948   1.361  0.4762 -0.8925  0.0666
  678MPD2    H310088   0.948   1.880   1.534 -2.3796 -1.3584  0.4154
  678MPD2     N10089   0.583   2.048   1.309  0.2449  0.4491 -0.2303
  678MPD2    H510090   0.553   2.088   1.221 -0.0024 -0.7148 -0.6700
  678MPD2    N110091   1.021   2.077   1.134  0.3960 -0.2364 -0.6152
  678MPD2    H710092   0.981   2.138   1.064  1.4468  1.4370  0.2582
  679TMC3    C110093   1.354   2.075   0.815  0.5208 -0.5011  0.2505
  679TMC3    C210094   1.304   2.020   0.928  0.2023 -0.0249 -0.3118
  679TMC3    C310095   1.211   2.093   1.005 -0.5128 -0.5394  0.0470
  679TMC3    C410096   1.317   2.200   0.776  0.2176 -0.0225 -0.3303
  679TMC3    C510097   1.231   2.267   0.857 -0.6808  0.8833  0.2100
  679TMC3    C610098   1.171   2.216   0.967 -0.0816 -0.0132  0.4278
  679TMC3     C10099   1.415   1.980   0.725 -0.3095 -0.4056  0.1385
  679TMC3     O10100   1.411   1.858   0.752  0.8363  0.1516 -0.3276
  679TMC3     H10101   1.324   1.916   0.950 -0.7389 -0.6666 -2.4543
  679TMC3    H110102   1.358   2.256   0.693 -0.1562  0.3660 -0.2512
  679TMC3    H210103   1.098   2.273   1.023  0.6746 -1.4886  2.9037
  679TMC3    C710104   1.120   2.326   0.778 -0.1770  0.1491 -0.3758
  679TMC3    C810105   1.140   2.021   1.107  0.2877 -0.5090  1.1769
  679TMC3    O110106   1.011   2.299   0.826 -0.8637  0.0616 -0.0634
  679TMC3    O210107   1.169   1.908   1.137  0.7604 -0.2189 -0.4987
  680MPD2     C10108   0.322   0.828  13.793  0.4601 -0.2450  0.3449
  680MPD2    C110109   0.435   0.753  13.818 -0.4361  0.0447  0.1464
  680MPD2    C210110   0.557   0.803  13.782 -0.5757 -0.6274  0.6131
  680MPD2    C310111   0.567   0.924  13.714  0.8168  0.0369 -0.0664
  680MPD2    C410112   0.454   0.997  13.686  0.2842  0.3873  0.5756
  680MPD2    C510113   0.332   0.946  13.729  0.4084 -0.2712 -0.4425
  680MPD2     H10114   0.644   0.740  13.797  0.3171  0.5961  0.5843
  680MPD2    H110115   0.457   1.089  13.629 -1.9173 -0.6404 -1.1945
  680MPD2    H210116   0.225   0.803  13.833 -0.0397  0.1737 -0.6021
  680MPD2    H310117   0.234   0.992  13.716 -0.1522 -1.9583 -2.1965
  680MPD2     N10118   0.694   0.981  13.691 -0.0383  0.2909 -0.6287
  680MPD2    H510119   0.694   1.076  13.655 -2.5653 -0.0289 -1.5016
  680MPD2    N110120   0.443   0.626  13.875 -0.5092 -0.1415  0.3757
  680MPD2    H710121   0.533   0.582  13.895 -0.5848 -0.3033  0.3622
  681TMC3    C110122   0.374   0.408  13.935  0.4411 -0.7518 -0.4198
  681TMC3    C210123   0.494   0.392  14.000  0.2246 -0.4690 -0.3669
  681TMC3    C310124   0.543   0.262  13.993  0.5203  0.8710 -0.3372
  681TMC3    C410125   0.303   0.310  13.882 -0.5021  0.0312 -0.2664
  681TMC3    C510126   0.352   0.183  13.891  0.1475  0.1944  0.1282
  681TMC3    C610127   0.480   0.161  13.933 -0.5501  0.0585 -0.0385
  681TMC3     C10128   0.340   0.542  13.900  0.6451  0.6242 -0.0388
  681TMC3     O10129   0.223   0.561  13.866 -0.5035  0.1314  0.2432
  681TMC3     H10130   0.548   0.460  14.064 -0.2633  1.2761 -1.8039
  681TMC3    H110131   0.202   0.325  13.845 -1.0580 -1.4744  0.6327
  681TMC3    H210132   0.534   0.069  13.915 -1.6227 -0.4437 -0.6490
  681TMC3    C710133   0.321   0.105  13.767 -0.1659  0.1131 -0.3038
  681TMC3    C810134   0.645   0.225  14.090 -0.1076  0.1525 -0.0676
  681TMC3    O110135   0.209   0.063  13.734  0.5088  0.3505 -0.1989
  681TMC3    O210136   0.631   0.113  14.140  0.2919 -0.3677 -0.6043
  682MPD2     C10137   2.918   1.639  10.339  0.4505  0.8583  0.4848
  682MPD2    C110138   2.868   1.516  10.349  0.4202 -0.2315 -0.3162
  682MPD2    C210139   2.847   1.468  10.481 -0.5152 -0.0357 -0.3508
  682MPD2    C310140   2.874   1.544  10.597 -1.2428  0.3835 -0.9836
  682MPD2    C410141   2.919   1.672  10.576 -0.7377 -0.0140 -0.2174
  682MPD2    C510142   2.949   1.714  10.450 -0.2134 -0.3302  0.2748
  682MPD2     H10143   2.791   1.377  10.496 -1.6979  1.0254  1.5473
  682MPD2    H110144   2.944   1.742  10.655  1.7699  0.5023 -1.4589
  682MPD2    H210145   2.937   1.692  10.246 -0.9624  0.8940  0.2123
  682MPD2    H310146   2.999   1.809  10.432  1.1903 -0.4589  3.4890
  682MPD2     N10147   2.873   1.495  10.730 -0.2401 -0.1804 -0.5158
  682MPD2    H510148   2.887   1.561  10.805 -0.1820 -2.0907  1.1491
  682MPD2    N110149   2.824   1.438  10.241  0.5218  0.3686 -0.9177
  682MPD2    H710150   2.767   1.357  10.261  0.7564  0.0171 -1.6750
  683TMC3    C110151   2.843   1.410  11.125 -0.2708  0.3774 -0.0774
  683TMC3    C210152   2.864   1.286  11.171 -0.1810  0.3252 -0.4452
  683TMC3    C310153   2.891   1.189  11.078  0.3018  0.1194 -0.1400
  683TMC3    C410154   2.836   1.440  10.990  0.4508 -0.4445 -0.1486
  683TMC3    C510155   2.862   1.342  10.902  0.6104  0.2783 -0.6683
  683TMC3    C610156   2.893   1.213  10.946 -0.1256  0.1015 -0.5808
  683TMC3     C10157   2.834   1.532  11.205 -0.1283  0.5280  1.0282
  683TMC3     O10158   2.853   1.639  11.145 -0.3330  0.3292  0.5918
  683TMC3     H10159   2.852   1.261  11.276 -2.5382 -0.8979 -1.0187
  683TMC3    H110160   2.798   1.537  10.962  1.3306  0.3428  1.4097
  683TMC3    H210161   2.915   1.133  10.877 -0.1749 -0.0475 -0.4247
  683TMC3    C710162   2.851   1.364  10.758 -0.9184 -0.2864  0.7316
  683TMC3    C810163   2.904   1.050  11.115  0.1173  0.1981 -0.1538
  683TMC3    O110164   2.829   1.261  10.695  0.2072 -0.8215  0.0046
  683TMC3    O210165   2.915   0.970  11.020 -0.0526 -0.3126  0.1185
  684MPD2     C10166   1.212   0.849  16.815  0.4239 -0.3472 -0.0804
  684MPD2    C110167   1.185   0.866  16.681  0.8825  0.8058  0.2412
  684MPD2    C210168   1.235   0.975  16.614  0.7439 -0.5849  0.3080
  684MPD2    C310169   1.297   1.075  16.688  1.4168  0.2683  0.5225
  684MPD2    C410170   1.311   1.057  16.823  0.4837  0.2465  0.1962
  684MPD2    C510171   1.277   0.941  16.889 -0.2866 -0.5638  0.3044
  684MPD2     H10172   1.212   0.986  16.508 -2.8156 -1.4929  0.9963
  684MPD2    H110173   1.356   1.130  16.889  1.5521 -1.5629  1.4907
  684MPD2    H210174   1.165   0.767  16.867 -0.9308  1.1745  1.0998
  684MPD2    H310175   1.285   0.939  16.997 -0.5041  1.2398  0.3482
  684MPD2     N10176   1.353   1.197  16.636  0.3227  0.7899 -0.1817
  684MPD2    H510177   1.421   1.246  16.694 -1.0957 -0.3645  2.4407
  684MPD2    N110178   1.130   0.761  16.603 -0.0566  0.1194 -0.3150
  684MPD2    H710179   1.126   0.786  16.504  1.4414  0.8440 -0.1921
  685TMC3    C110180   1.029   0.566  16.539  0.4886 -0.2219  0.1820
  685TMC3    C210181   0.954   0.642  16.456  0.3984 -0.1091 -0.0975
  685TMC3    C310182   0.902   0.573  16.345 -0.3013  0.3117  0.2687
  685TMC3    C410183   1.089   0.446  16.497  0.5668 -0.0064  0.2524
  685TMC3    C510184   1.047   0.386  16.372 -0.5133 -0.6891  0.2461
  685TMC3    C610185   0.951   0.449  16.307 -0.3884  0.5390  0.1500
  685TMC3     C10186   1.098   0.636  16.643 -0.0437 -0.1538  0.3290
  685TMC3     O10187   1.155   0.566  16.729  0.4716  0.5083 -0.2732
  685TMC3     H10188   0.909   0.736  16.488  2.7102  1.0893 -0.3803
  685TMC3    H110189   1.147   0.398  16.575 -1.1802 -2.4591  0.0701
  685TMC3    H210190   0.918   0.413  16.210 -2.0718  1.0052  0.5563
  685TMC3    C710191   1.160   0.344  16.293 -0.3944  0.1718 -0.0948
  685TMC3    C810192   0.853   0.653  16.231  0.1624  0.0170  0.1410
  685TMC3    O110193   1.143   0.335  16.175  0.3525 -0.4334 -0.3033
  685TMC3    O210194   0.848   0.597  16.120 -0.2007 -0.2202  0.4831
  686MPD2     C10195   1.780   0.842  15.524 -0.0261  0.6043 -0.2175
  686MPD2    C110196   1.858   0.804  15.630  0.5514  0.2028  0.4011
  686MPD2    C210197   1.959   0.881  15.671  0.1845  0.5635 -0.0464
  686MPD2    C310198   1.987   1.006  15.611 -0.3603 -0.5035 -0.3185
  686MPD2    C410199   1.919   1.035  15.493 -0.1595  0.1583  0.2779
  686MPD2    C510200   1.819   0.948  15.447  0.4359 -0.5647 -0.5792
  686MPD2     H10201   2.029   0.857  15.751  0.9290 -2.4340 -1.5905
  686MPD2    H110202   1.948   1.119  15.431  2.3910  1.0687  2.7333
  686MPD2    H210203   1.694   0.782  15.499  1.3924 -1.4661 -0.0812
  686MPD2    H310204   1.784   0.971  15.347  3.1343 -1.6957 -1.7693
  686MPD2     N10205   2.097   1.088  15.646 -0.3388 -0.2076  0.0468
  686MPD2    H510206   2.127   1.158  15.579  2.2653 -0.2767  1.1247
  686MPD2    N110207   1.833   0.672  15.696  0.0715  0.5711  0.2490
  686MPD2    H710208   1.765   0.611  15.651  2.8491 -0.5472 -2.3790
  687TMC3    C110209   2.292   1.155  15.743 -0.0019  0.2258  0.7368
  687TMC3    C210210   2.356   1.153  15.622 -0.3102 -0.3003 -0.2107
  687TMC3    C310211   2.486   1.195  15.617  0.9185  0.9872  0.3058
  687TMC3    C410212   2.371   1.184  15.857 -0.5990  0.2780  0.3641
  687TMC3    C510213   2.500   1.219  15.841 -0.3954 -0.0233  0.5176
  687TMC3    C610214   2.561   1.231  15.724  0.2620  0.3579  0.2421
  687TMC3     C10215   2.171   1.082  15.764 -0.0181 -0.1682  0.2815
  687TMC3     O10216   2.141   1.050  15.879  0.4082  0.0368 -0.1811
  687TMC3     H10217   2.304   1.126  15.530  1.6659 -0.3768 -1.3104
  687TMC3    H110218   2.328   1.178  15.956  0.9112 -0.5899  0.9625
  687TMC3    H210219   2.665   1.260  15.714  0.1883  0.4680 -0.1988
  687TMC3    C710220   2.575   1.247  15.954 -0.2632  0.5144  0.3810
  687TMC3    C810221   2.555   1.227  15.487  0.9685  0.3704  0.2168
  687TMC3    O110222   2.519   1.294  16.052  0.3567 -0.4559  0.3514
  687TMC3    O210223   2.677   1.247  15.497 -0.2100  0.1141  0.8763
  688MPD2     C10224   1.725   0.076  17.508  0.5201 -0.4740 -0.3442
  688MPD2    C110225   1.721   4.683  17.552  0.0159 -0.2082 -0.1289
  688MPD2    C210226   1.751   4.586  17.466  0.1799 -0.0646  0.3571
  688MPD2    C310227   1.802   4.610  17.342 -0.5530  0.1183 -0.7436
  688MPD2    C410228   1.819   0.004  17.300  0.4498  0.2879 -0.1485
  688MPD2    C510229   1.775   0.108  17.379  0.4718 -0.0252  0.4307
  688MPD2     H10230   1.749   4.484  17.505  1.4377 -0.3327 -0.2516
  688MPD2    H110231   1.865   0.023  17.204 -0.4023  1.6988 -0.2716
  688MPD2    H210232   1.694   0.158  17.572 -1.0529 -1.8221  0.6315
  688MPD2    H310233   1.791   0.207  17.339 -2.1855  0.7974  1.4427
  688MPD2     N10234   1.853   4.507  17.259 -0.6759  0.5647 -0.2875
  688MPD2    H510235   1.889   4.539  17.169 -1.3900  5.3270  1.1496
  688MPD2    N110236   1.692   4.645  17.683  0.6642  0.1859 -0.1919
  688MPD2    H710237   1.691   4.545  17.704 -3.1850  0.4460  0.8249
  689TMC3    C110238   1.617   4.657   0.152 -0.3197  0.1188  0.0105
  689TMC3    C210239   1.654   4.711   0.270 -0.3421 -0.2020  0.0453
  689TMC3    C310240   1.631   4.626   0.382 -0.1032  0.0760 -0.0158
  689TMC3    C410241   1.562   4.530   0.135  0.7491  0.1810 -0.0750
  689TMC3    C510242   1.543   4.458   0.252 -0.8319  0.2395 -0.2304
  689TMC3    C610243   1.583   4.499   0.376 -0.3200  0.6163 -0.0129
  689TMC3     C10244   1.660   4.729   0.034 -0.0850 -0.7690  0.3633
  689TMC3     O10245   1.678   0.117   0.051 -0.2239  0.2402 -0.0149
  689TMC3     H10246   1.707   0.067   0.284 -0.2494 -0.6316  2.5708
  689TMC3    H110247   1.529   4.502   0.036  3.1453  1.8603 -1.3742
  689TMC3    H210248   1.558   4.442   0.465  2.4317 -0.1365  0.2863
  689TMC3    C710249   1.498   4.323   0.244  0.0286  0.6506 -0.4815
  689TMC3    C810250   1.589   4.682   0.503  0.8990  0.6249 -0.2767
  689TMC3    O110251   1.501   4.255   0.347 -0.2391  0.3565 -0.0975
  689TMC3    O210252   1.596   4.620   0.605  0.7481 -0.2234 -0.0159
  690MPD2     C10253   4.377   2.203  15.774  0.2109 -0.2604  0.1738
  690MPD2    C110254   4.278   2.204  15.673 -0.1138 -0.6038  0.4026
  690MPD2    C210255   4.322   2.240  15.547  0.3885  0.3271  0.6483
  690MPD2    C310256   4.455   2.273  15.521 -0.3170  0.4956  0.5428
  690MPD2    C410257   4.554   2.261  15.622 -0.3060 -0.1593 -0.5993
  690MPD2    C510258   4.514   2.221  15.748 -0.1796 -0.8623  0.0099
  690MPD2     H10259   4.249   2.249  15.468 -0.2643  1.0627  1.3457
  690MPD2    H110260   4.656   2.293  15.604  0.0677 -1.1540 -0.2347
  690MPD2    H210261   4.343   2.176  15.873  0.3376  0.1160  0.3173
  690MPD2    H310262   4.573   2.219  15.839  0.3976 -2.4196 -0.3988
  690MPD2     N10263   4.486   2.326  15.391 -0.7329  0.0145 -0.8601
  690MPD2    H510264   4.410   2.340  15.326  0.5449 -2.0441 -2.8094
  690MPD2    N110265   4.144   2.160  15.687 -0.0126  0.0464 -0.1963
  690MPD2    H710266   4.088   2.171  15.603 -0.6913 -0.8219  0.1377
  691TMC3    C110267   3.962   2.031  15.784 -0.1654  0.7642  0.0619
  691TMC3    C210268   3.925   1.993  15.654 -0.9026 -0.3377  0.1396
  691TMC3    C310269   3.813   1.913  15.644 -0.0276 -0.2233 -0.5737
  691TMC3    C410270   3.886   1.998  15.891 -0.1909  0.1284 -0.0013
  691TMC3    C510271   3.774   1.924  15.870 -0.3726  0.2801  0.7345
  691TMC3    C610272   3.732   1.884  15.751  0.7867 -0.8620 -0.6118
  691TMC3     C10273   4.087   2.111  15.804 -0.7324  0.0240  0.3713
  691TMC3     O10274   4.131   2.114  15.916  1.2965 -0.1894 -0.1100
  691TMC3     H10275   3.993   1.994  15.570  0.9646  1.1472  1.6713
  691TMC3    H110276   3.920   2.029  15.989 -0.3711  4.3050 -1.2499
  691TMC3    H210277   3.651   1.812  15.747 -0.3387  0.4615 -2.0780
  691TMC3    C710278   3.679   1.922  15.982 -0.1769 -1.0011 -0.4218
  691TMC3    C810279   3.757   1.893  15.505  0.2380  0.3340 -0.0722
  691TMC3    O110280   3.712   1.973  16.091  0.4540 -0.2139  0.1890
  691TMC3    O210281   3.800   1.969  15.423 -0.6333  0.2779  0.0719
  692TMC3    C110282   0.850   2.347  15.811  0.2514 -0.0626 -0.4271
  692TMC3    C210283   0.950   2.419  15.875 -1.3697  0.3320 -0.4426
  692TMC3    C310284   1.032   2.347  15.961 -0.0090  0.2357 -0.6014
  692TMC3    C410285   0.834   2.208  15.824  0.4060  0.0739  0.0481
  692TMC3    C510286   0.931   2.147  15.900 -0.4128 -0.2672  0.1677
  692TMC3    C610287   1.020   2.214  15.977 -0.0055  0.1072 -0.1334
  692TMC3     C10288   0.760   2.417  15.720  0.0036  0.1943 -0.0996
  692TMC3     O10289   0.646   2.369  15.713  0.0532 -0.9195  0.2238
  692TMC3     H10290   0.943   2.527  15.876 -0.9801  0.3585 -0.4447
  692TMC3    H110291   0.765   2.155  15.758 -0.2016 -0.2129  0.9067
  692TMC3    H210292   1.093   2.160  16.036 -0.5533 -1.9606 -1.3516
  692TMC3    C710293   0.947   2.000  15.891  0.1150 -0.7482 -1.1011
  692TMC3    C810294   1.056   2.417  16.091  0.0564  0.1216  0.0193
  692TMC3    O110295   0.879   1.950  15.806  0.0331 -0.0574 -0.0973
  692TMC3    O210296   1.084   2.343  16.182  0.0726  0.4391  0.0465
  693MPD2     C10297   0.010   0.420  10.508 -0.2095  0.3812 -0.2023
  693MPD2    C110298   4.702   0.367  10.630  0.1675  0.1874  0.3037
  693MPD2    C210299   0.053   0.290  10.707 -0.3951 -0.4269  0.9957
  693MPD2    C310300   0.188   0.273  10.675  0.0071  0.7068  0.4771
  693MPD2    C410301   0.231   0.330  10.556  0.1889  0.9548  0.1290
  693MPD2    C510302   0.141   0.399  10.471 -0.1441 -0.9582 -0.3822
  693MPD2     H10303   0.017   0.241  10.797  2.5886 -1.5356  1.5707
  693MPD2    H110304   0.334   0.309  10.529  0.1838 -0.0052  0.8542
  693MPD2    H210305   4.684   0.481  10.444 -2.1503  0.7579  2.0738
  693MPD2    H310306   0.172   0.439  10.375  0.2746  0.7450  0.4644
  693MPD2     N10307   0.283   0.207  10.763 -0.2706  0.2742 -0.2574
  693MPD2    H510308   0.371   0.190  10.715 -0.3908  0.8471 -0.6847
  693MPD2    N110309   4.570   0.381  10.673  0.2143 -0.5833  0.2408
  693MPD2    H710310   4.547   0.342  10.764  1.8082 -0.5181  0.6817
  694TMC3    C110311   4.345   0.444  10.669 -0.1482  0.6029 -0.1575
  694TMC3    C210312   4.226   0.450  10.607 -0.2365 -0.5271 -0.0839
  694TMC3    C310313   4.115   0.449  10.690 -0.1635  0.1238  0.1030
  694TMC3    C410314   4.355   0.449  10.809 -0.7771 -0.3490 -0.1940
  694TMC3    C510315   4.246   0.423  10.884  0.2375  0.2540  0.3029
  694TMC3    C610316   4.123   0.434  10.831  0.2170 -0.0637 -0.0130
  694TMC3     C10317   4.468   0.431  10.596 -0.3272  0.5419 -0.8166
  694TMC3     O10318   4.465   0.469  10.482 -0.1959  0.1363  0.0235
  694TMC3     H10319   4.216   0.446  10.499  2.8839  0.0515 -0.3986
  694TMC3    H110320   4.449   0.461  10.861 -0.1477  0.5035 -1.5423
  694TMC3    H210321   4.030   0.420  10.885 -1.0839 -0.4619 -2.3379
  694TMC3    C710322   4.255   0.368  11.014  0.9304 -0.0221  0.0435
  694TMC3    C810323   3.987   0.425  10.632 -0.0570 -0.5044  0.2806
  694TMC3    O110324   4.342   0.426  11.083  0.2930  0.3604  0.6800
  694TMC3    O210325   3.936   0.316  10.652 -0.4417  0.3110  0.0420
  695MPD2     C10326   1.127   2.440  13.370 -0.3135 -0.0975 -0.7068
  695MPD2    C110327   1.109   2.518  13.487 -0.1344 -0.7392  0.4255
  695MPD2    C210328   0.985   2.545  13.540  0.3893  0.6394  0.0188
  695MPD2    C310329   0.876   2.511  13.465 -0.5359  0.1645 -0.1907
  695MPD2    C410330   0.899   2.436  13.348 -0.2830  0.2804  0.5988
  695MPD2    C510331   1.024   2.388  13.307 -0.2945  0.4752 -0.1027
  695MPD2     H10332   0.965   2.603  13.629  1.8088  1.1604 -0.0030
  695MPD2    H110333   0.822   2.392  13.286 -0.0984 -0.6341  1.0143
  695MPD2    H210334   1.224   2.405  13.337 -1.1922 -0.6590 -2.6807
  695MPD2    H310335   1.024   2.324  13.219 -2.8462  0.1388  0.1351
  695MPD2     N10336   0.750   2.554  13.509  0.4336 -0.1636  0.3586
  695MPD2    H510337   0.744   2.591  13.603 -1.9026 -0.7812  0.4271
  695MPD2    N110338   1.212   2.571  13.569  0.0009  0.8102  0.6190
  695MPD2    H710339   1.182   2.631  13.646 -0.5511 -0.2269  1.2083
  696TMC3    C110340   0.521   2.623  13.492  0.2979  0.0460  1.0000
  696TMC3    C210341   0.521   2.638  13.630  0.1257  0.0055 -0.2212
  696TMC3    C310342   0.413   2.698  13.687 -0.4468 -0.1125 -0.0619
  696TMC3    C410343   0.432   2.676  13.405 -0.3973 -0.2814 -0.3469
  696TMC3    C510344   0.333   2.748  13.461  0.7706 -0.4517 -0.7601
  696TMC3    C610345   0.322   2.756  13.601 -0.5957 -0.3336 -0.4186
  696TMC3     C10346   0.642   2.572  13.429  0.4048  0.2944 -0.3621
  696TMC3     O10347   0.640   2.545  13.310 -0.1857 -0.0892 -0.5376
  696TMC3     H10348   0.586   2.587  13.700 -2.3406 -0.8805  1.4184
  696TMC3    H110349   0.433   2.663  13.297 -2.5868 -2.3783 -0.1215
  696TMC3    H210350   0.235   2.805  13.644 -0.5600 -1.3873  0.8517
  696TMC3    C710351   0.279   2.850  13.380  0.2336 -0.4716  0.3064
  696TMC3    C810352   0.434   2.767  13.817 -0.3313  0.3214  0.5519
  696TMC3    O110353   0.277   2.833  13.260  0.0068  0.6738 -0.3051
  696TMC3    O210354   0.550   2.783  13.853 -0.3650 -0.1238 -0.9012
  697MPD2     C10355   0.498   0.445  15.828  0.6576 -0.4316  0.0006
  697MPD2    C110356   0.499   0.362  15.727 -0.5704  0.5351  0.1140
  697MPD2    C210357   0.581   0.370  15.615  0.1124  0.4461  1.3098
  697MPD2    C310358   0.663   0.479  15.598 -0.4908 -0.6558 -0.7632
  697MPD2    C410359   0.667   0.561  15.706  0.0393 -0.5655 -0.0547
  697MPD2    C510360   0.587   0.549  15.812 -0.1991  0.4304  0.7115
  697MPD2     H10361   0.573   0.292  15.540  1.4977  2.2444 -0.7490
  697MPD2    H110362   0.729   0.650  15.710 -1.1207  0.2426  0.0435
  697MPD2    H210363   0.446   0.453  15.923  1.9931  0.9403  0.6232
  697MPD2    H310364   0.603   0.627  15.885  1.9534 -0.4082  1.1373
  697MPD2     N10365   0.738   0.487  15.478  0.1495 -0.2184  0.2430
  697MPD2    H510366   0.728   0.406  15.418  0.8575 -0.6308  0.6847
  697MPD2    N110367   0.401   0.258  15.715 -0.0993  1.0171 -0.1010
  697MPD2    H710368   0.397   0.207  15.627 -0.1312  0.1811  0.3782
  698TMC3    C110369   0.901   0.569  15.321 -0.2992 -0.3347  0.3963
  698TMC3    C210370   1.025   0.620  15.312 -0.2433 -1.1612  0.3528
  698TMC3    C310371   1.099   0.592  15.199  0.5742  0.1361 -0.7533
  698TMC3    C410372   0.850   0.487  15.227 -0.3600 -0.7593  0.2017
  698TMC3    C510373   0.921   0.464  15.110 -1.1776 -0.5005 -0.3481
  698TMC3    C610374   1.050   0.518  15.094 -0.2253 -0.3578 -0.1780
  698TMC3     C10375   0.837   0.579  15.453 -0.4516  0.1363  0.4228
  698TMC3     O10376   0.851   0.689  15.507 -0.6259  0.1507 -0.0658
  698TMC3     H10377   1.065   0.682  15.391 -0.4768 -1.3205  0.5959
  698TMC3    H110378   0.749   0.449  15.234 -0.9779  0.8320  0.0521
  698TMC3    H210379   1.103   0.496  15.002  2.0601  0.2729  0.9782
  698TMC3    C710380   0.860   0.376  15.003  1.1939 -0.0038  1.1542
  698TMC3    C810381   1.245   0.607  15.206  0.0806  0.0153  0.0900
  698TMC3    O110382   0.738   0.360  15.018  0.1473 -0.9123  0.3267
  698TMC3    O210383   1.306   0.591  15.313  0.0812  0.3975 -0.0311
  699TMC3    C110384   0.256   2.472  13.125 -0.6219  0.7183 -0.0425
  699TMC3    C210385   0.249   2.359  13.206  0.0095 -0.7051  0.2562
  699TMC3    C310386   0.152   2.356  13.299  0.9314 -0.4427 -0.0097
  699TMC3    C410387   0.157   2.572  13.131  0.4389  0.0151 -0.0366
  699TMC3    C510388   0.056   2.551  13.221  0.6958 -0.0762 -0.3723
  699TMC3    C610389   0.053   2.448  13.301 -0.1613  0.3965  0.3451
  699TMC3     C10390   0.352   2.488  13.018  0.1897  0.4638 -0.3268
  699TMC3     O10391   0.339   2.578  12.934  0.2313 -0.5944 -0.5131
  699TMC3     H10392   0.310   2.272  13.185 -1.0631 -1.5884  0.8466
  699TMC3    H110393   0.167   2.666  13.079 -0.3562 -0.3225 -0.8009
  699TMC3    H210394   4.706   2.441  13.369  0.2737  0.0967  0.8527
  699TMC3    C710395   4.698   2.661  13.252 -0.6374  0.0662  0.2527
  699TMC3    C810396   0.139   2.240  13.380  0.0331  0.1260 -0.4606
  699TMC3    O110397   4.638   2.644  13.356  0.0808  0.0524  0.4499
  699TMC3    O210398   0.022   2.204  13.403  0.5109  0.7267 -0.0640
  700TMC3    C110399   4.377   0.184  17.545 -0.2686 -0.4566  0.1787
  700TMC3    C210400   4.406   0.080  17.467  0.3842 -0.1572  0.4068
  700TMC3    C310401   4.537   0.055  17.439  0.0948  0.1863  0.7120
  700TMC3    C410402   4.479   0.270  17.591 -0.0681  0.3987 -0.4238
  700TMC3    C510403   4.608   0.233  17.563 -0.0649  0.2482  0.0039
  700TMC3    C610404   4.643   0.125  17.486 -0.8287  0.3436 -0.0722
  700TMC3     C10405   4.279   0.266  17.479  0.0447  0.5175 -0.3233
  700TMC3     O10406   4.164   0.227  17.465 -0.2674  0.6799  0.2532
  700TMC3     H10407   4.328   0.034  17.408  1.4246 -1.2619 -0.1117
  700TMC3    H110408   4.453   0.357  17.652 -2.3716  1.2553 -2.6411
  700TMC3    H210409   0.008   0.110  17.450 -1.4256 -1.4791 -0.9897
  700TMC3    C710410   4.698   0.343  17.579  0.9611  0.7843  0.7761
  700TMC3    C810411   4.573   4.693  17.339 -0.3806 -0.4600  0.3607
  700TMC3    O110412   4.661   0.458  17.557 -0.1552  0.1356 -0.4672
  700TMC3    O210413   4.689   4.687  17.302  0.0786  0.9677 -0.3452
  701TMC3    C110414   4.189   4.360  15.480 -0.7539  0.0451 -0.3158
  701TMC3    C210415   4.207   4.291  15.363  0.4371  0.7723 -0.2399
  701TMC3    C310416   4.271   4.357  15.261  0.2715  0.1491 -0.5254
  701TMC3    C410417   4.247   4.485  15.498  0.3906  0.3930 -0.2255
  701TMC3    C510418   4.317   4.543  15.396 -0.3751 -0.4928 -0.1536
  701TMC3    C610419   4.332   4.476  15.280 -0.2005 -0.4975 -0.0816
  701TMC3     C10420   4.144   4.291  15.599 -0.5349 -0.7767  1.1122
  701TMC3     O10421   4.171   4.332  15.710  0.1002  0.0960  0.6044
  701TMC3     H10422   4.182   4.188  15.341 -2.2259  1.0845  1.2482
  701TMC3    H110423   4.233   4.536  15.592 -0.0412 -1.6947  0.8338
  701TMC3    H210424   4.384   4.526  15.200 -1.5212  1.8190  0.5108
  701TMC3    C710425   4.400   4.664  15.414 -0.1101 -0.3814  0.7516
  701TMC3    C810426   4.323   4.288  15.145  0.0401 -0.0557  0.4467
  701TMC3    O110427   4.468   4.695  15.317  0.4258  0.0690 -0.0343
  701TMC3    O210428   4.436   4.318  15.099  0.0813 -0.3750 -0.2495
  702MPD2     C10429   3.994   1.132  10.021  0.3768 -0.5248 -0.1030
  702MPD2    C110430   3.920   1.241  10.072  0.0437 -0.1483  0.2258
  702MPD2    C210431   3.937   1.365  10.022 -0.0893 -0.3892  0.7687
  702MPD2    C310432   4.026   1.380   9.911  0.1736  0.5417 -0.2765
  702MPD2    C410433   4.105   1.273   9.861  0.5053  0.9209  0.2576
  702MPD2    C510434   4.079   1.151   9.916  0.3552  0.5228  0.5540
  702MPD2     H10435   3.879   1.440  10.075  0.6496  0.9484 -0.3298
  702MPD2    H110436   4.171   1.286   9.776  0.9379  0.0829  0.4686
  702MPD2    H210437   3.987   1.029  10.056 -0.1062 -1.2005 -2.2189
  702MPD2    H310438   4.143   1.070   9.884 -0.7469 -0.1103 -0.0485
  702MPD2     N10439   4.024   1.510   9.852  0.1532 -0.1778 -0.3993
  702MPD2    H510440   3.981   1.585   9.905  1.7067  1.8527 -2.0402
  702MPD2    N110441   3.837   1.230  10.185 -0.1963  0.7381  0.5839
  702MPD2    H710442   3.793   1.311  10.227 -0.1287  1.5947 -1.0090
  703TMC3    C110443   4.076   1.685   9.709  0.1604 -0.5629  0.7514
  703TMC3    C210444   3.951   1.740   9.730 -0.1792 -0.3345 -0.5575
  703TMC3    C310445   3.932   1.872   9.693 -0.4088  0.5926 -0.0977
  703TMC3    C410446   4.174   1.751   9.646  0.1559  0.2207  0.1335
  703TMC3    C510447   4.143   1.879   9.606 -0.3311  0.2702 -0.3738
  703TMC3    C610448   4.026   1.944   9.619  0.1017 -0.2254  0.0493
  703TMC3     C10449   4.097   1.543   9.740 -0.3901  1.1736 -0.7259
  703TMC3     O10450   4.166   1.477   9.664  0.3643 -0.1072  0.0869
  703TMC3     H10451   3.865   1.683   9.761 -0.3465 -0.6148 -1.5355
  703TMC3    H110452   4.273   1.710   9.629  0.3128  1.1480 -1.2190
  703TMC3    H210453   4.008   2.041   9.572 -2.6884  0.4382  2.5037
  703TMC3    C710454   4.245   1.962   9.552  0.1300  0.0998  0.0063
  703TMC3    C810455   3.817   1.946   9.739  0.1173  0.2068 -0.5080
  703TMC3    O110456   4.206   2.048   9.473 -0.1584 -0.2905 -0.2348
  703TMC3    O210457   3.820   2.066   9.716  0.6581 -0.1225 -0.5797
  704TMC3    C110458   1.765   4.706  12.340 -0.1751 -0.9807  0.5291
  704TMC3    C210459   1.814   4.676  12.215  0.3192  0.6285  0.4863
  704TMC3    C310460   1.948   4.647  12.201  0.0794 -0.6512 -0.4880
  704TMC3    C410461   1.841   4.680  12.453  0.0114 -0.3457  0.7424
  704TMC3    C510462   1.965   4.631  12.437  0.8827 -0.2643  0.1252
  704TMC3    C610463   2.027   4.620  12.309  0.4223  0.0841  0.0186
  704TMC3     C10464   1.622   4.705  12.357  0.4710  0.5433  0.4315
  704TMC3     O10465   1.588   0.010  12.467  0.3002  0.6519 -0.3938
  704TMC3     H10466   1.764   4.713  12.126  0.3408 -1.9994 -0.6077
  704TMC3    H110467   1.808   4.705  12.554  0.0318 -3.0549  1.4161
  704TMC3    H210468   2.125   4.575  12.304 -1.0210 -3.1846  0.9153
  704TMC3    C710469   2.057   4.619  12.547  0.0839 -0.1726 -0.1482
  704TMC3    C810470   1.986   4.603  12.070  0.0144 -0.5270  0.2343
  704TMC3    O110471   2.169   4.666  12.531  0.6465 -0.2742 -0.2118
  704TMC3    O210472   1.898   4.554  12.000  0.3560 -0.0746 -0.1456
  705MPD2     C10473   1.309   2.249  16.609 -0.0650 -0.2342 -0.0940
  705MPD2    C110474   1.229   2.283  16.504  0.3013 -0.2172  0.7600
  705MPD2    C210475   1.095   2.310  16.533 -0.2874 -0.2655 -0.8293
  705MPD2    C310476   1.046   2.316  16.662 -0.6395 -0.2771  0.0062
  705MPD2    C410477   1.137   2.298  16.762  0.3830  0.0658  0.7911
  705MPD2    C510478   1.258   2.245  16.737 -1.2314 -0.9240 -0.1215
  705MPD2     H10479   1.025   2.334  16.454  0.8608 -1.4969 -2.2343
  705MPD2    H110480   1.093   2.300  16.862 -0.5471 -2.1026  0.4173
  705MPD2    H210481   1.407   2.206  16.590 -0.5008 -1.1458 -0.2776
  705MPD2    H310482   1.317   2.221  16.824 -2.8866 -0.1880  1.2112
  705MPD2     N10483   0.908   2.349  16.700 -0.1292  0.2030 -0.2967
  705MPD2    H510484   0.893   2.358  16.800 -1.3143  1.2729 -0.5779
  705MPD2    N110485   1.270   2.309  16.375 -0.0862 -0.1645  0.0340
  705MPD2    H710486   1.211   2.347  16.302  1.2902  1.0927 -0.4247
  706TMC3    C110487   1.553   2.431  16.045  0.8658  0.2059  0.8118
  706TMC3    C210488   1.498   2.552  16.033 -0.2691  0.1332  0.2132
  706TMC3    C310489   1.401   2.587  16.120  0.0989  0.4070 -0.1056
  706TMC3    C410490   1.515   2.342  16.143 -0.7425 -0.2254  0.3120
  706TMC3    C510491   1.416   2.382  16.225  0.2344 -0.1082 -0.8813
  706TMC3    C610492   1.364   2.511  16.225  0.0528  0.6500 -0.2330
  706TMC3     C10493   1.629   2.378  15.933 -0.0655  0.1757 -0.3140
  706TMC3     O10494   1.688   2.273  15.947 -0.2861  0.1333  0.4349
  706TMC3     H10495   1.530   2.631  15.966  2.9564 -0.9009  0.5568
  706TMC3    H110496   1.569   2.249  16.152  0.8582  0.8678  1.9555
  706TMC3    H210497   1.297   2.540  16.306 -1.4626 -0.3790 -1.1179
  706TMC3    C710498   1.403   2.303  16.339 -0.2568 -0.2559 -0.0765
  706TMC3    C810499   1.359   2.724  16.125  0.7450  0.2541 -0.4507
  706TMC3    O110500   1.500   2.255  16.399 -0.1739 -0.1985 -0.0666
  706TMC3    O210501   1.344   2.774  16.012  0.4977 -0.0458 -0.5169
  707TMC3    C110502   3.328   1.989   1.794  0.6390 -0.3843 -0.3184
  707TMC3    C210503   3.440   1.940   1.862  0.5871  0.1680 -0.5350
  707TMC3    C310504   3.436   1.958   1.996 -0.4427  0.4317 -0.3057
  707TMC3    C410505   3.230   2.056   1.860 -0.0945 -0.0384 -0.1427
  707TMC3    C510506   3.244   2.074   1.993 -0.5303 -0.4654 -0.1468
  707TMC3    C610507   3.346   2.031   2.065  0.2756  0.3320  0.1927
  707TMC3     C10508   3.327   1.970   1.658 -0.0921  0.3477  0.3567
  707TMC3     O10509   3.428   1.923   1.609  0.2738  0.7633  0.0829
  707TMC3     H10510   3.524   1.900   1.806  0.1958 -0.0020 -0.9982
  707TMC3    H110511   3.160   2.117   1.804  1.9695  1.1485 -1.3914
  707TMC3    H210512   3.337   2.027   2.173 -0.1735 -0.4945  0.1289
  707TMC3    C710513   3.134   2.127   2.072  0.5944  0.0159 -0.4056
  707TMC3    C810514   3.536   1.886   2.071  0.4717  0.1960  0.4036
  707TMC3    O110515   3.020   2.109   2.038 -0.4809  0.0810  0.5522
  707TMC3    O210516   3.556   1.918   2.190  0.2323  0.8476  0.4669
  708MPD2     C10517   4.163   1.161  13.568  0.2169  1.0018 -0.0218
  708MPD2    C110518   4.087   1.149  13.680 -1.2130  0.8100 -0.0101
  708MPD2    C210519   4.144   1.114  13.801  0.0044  1.0674 -0.7539
  708MPD2    C310520   4.273   1.065  13.804 -0.1352 -0.4496  0.0806
  708MPD2    C410521   4.349   1.071  13.691 -0.4404  0.0172  0.0807
  708MPD2    C510522   4.297   1.118  13.574 -0.1621 -0.1561 -0.0793
  708MPD2     H10523   4.087   1.097  13.891  0.0074 -1.5382 -1.2355
  708MPD2    H110524   4.448   1.027  13.690 -1.7858 -2.9880 -0.8042
  708MPD2    H210525   4.119   1.176  13.470  1.7946  1.0708 -0.7058
  708MPD2    H310526   4.350   1.111  13.480  1.0648 -0.4667  0.6437
  708MPD2     N10527   4.317   1.017  13.932  0.0280  0.1272  0.0073
  708MPD2    H510528   4.257   1.024  14.014 -0.6515 -0.7253 -0.4165
  708MPD2    N110529   3.947   1.157  13.656  0.3393 -0.5945  0.1315
  708MPD2    H710530   3.914   1.163  13.560  0.5508 -0.3846  0.0740
  709TMC3    C110531   3.725   1.142  13.742 -0.0082 -0.5749  0.6445
  709TMC3    C210532   3.685   1.062  13.637 -0.6337  0.5670 -0.4112
  709TMC3    C310533   3.576   0.979  13.647 -0.3608 -0.2614 -0.1379
  709TMC3    C410534   3.655   1.137  13.860  0.3679  0.3581 -0.5302
  709TMC3    C510535   3.556   1.044  13.872 -0.0433  0.3029 -0.6595
  709TMC3    C610536   3.515   0.967  13.768  0.1288  0.8766  0.6165
  709TMC3     C10537   3.862   1.178  13.764  0.0651 -0.3601 -0.6515
  709TMC3     O10538   3.888   1.199  13.882 -0.1082 -0.1512  0.0675
  709TMC3     H10539   3.743   1.078  13.548 -0.4102 -4.3838 -1.1602
  709TMC3    H110540   3.680   1.203  13.942 -1.6236 -0.2875  0.5923
  709TMC3    H210541   3.452   0.884  13.795  1.7142 -0.7957 -0.8184
  709TMC3    C710542   3.568   0.966  13.993  0.3228  0.7102 -0.1277
  709TMC3    C810543   3.538   0.892  13.540 -0.0168 -0.5010  0.3821
  709TMC3    O110544   3.469   0.909  14.027  0.6007 -0.5354  0.2941
  709TMC3    O210545   3.457   0.801  13.557 -0.3764 -0.0278  0.6495
  710TMC3    C110546   0.287   2.277   0.639  0.0287 -0.4321  0.3373
  710TMC3    C210547   0.251   2.231   0.516 -0.5521 -0.0161  0.4035
  710TMC3    C310548   0.334   2.224   0.418 -0.5765  0.0875  0.2449
  710TMC3    C410549   0.415   2.314   0.656  0.8057  0.3498 -0.1278
  710TMC3    C510550   0.507   2.298   0.552 -0.4715  0.2314  0.3269
  710TMC3    C610551   0.469   2.247   0.435 -0.1572 -0.3824 -0.1867
  710TMC3     C10552   0.185   2.330   0.730  0.2283 -0.2002  0.8958
  710TMC3     O10553   0.074   2.284   0.737  0.3166 -0.1553 -0.8469
  710TMC3     H10554   0.147   2.211   0.494 -0.1202 -0.7960 -0.9504
  710TMC3    H110555   0.455   2.324   0.757  2.2393  0.5823 -0.7232
  710TMC3    H210556   0.533   2.226   0.350 -1.6014 -0.9949 -1.1351
  710TMC3    C710557   0.639   2.348   0.579 -0.6836  0.5764 -0.4492
  710TMC3    C810558   0.280   2.177   0.295 -0.0660 -0.0338  0.4340
  710TMC3    O110559   0.664   2.388   0.693 -0.3353  1.0910  0.4002
  710TMC3    O210560   0.212   2.073   0.299 -0.3667 -1.0627 -0.2256
  711TMC3    C110561   0.283   3.521  14.922  0.0354 -0.7026 -0.3613
  711TMC3    C210562   0.290   3.595  15.036 -0.3160 -0.2189 -0.7241
  711TMC3    C310563   0.355   3.538  15.142 -0.3375 -0.1380  0.2162
  711TMC3    C410564   0.349   3.400  14.905  0.4330  0.2064  0.2980
  711TMC3    C510565   0.415   3.349  15.011  0.2579 -0.4855 -0.3652
  711TMC3    C610566   0.419   3.413  15.129 -0.3951  0.1391  0.4671
  711TMC3     C10567   0.157   3.536  14.845  0.6414  0.6531  0.2026
  711TMC3     O10568   0.087   3.440  14.845  0.1298 -0.4915 -0.8660
  711TMC3     H10569   0.256   3.698  15.039 -2.8728 -1.0587 -0.7614
  711TMC3    H110570   0.347   3.370  14.801  0.3159 -1.2621  0.7191
  711TMC3    H210571   0.459   3.356  15.211  2.4330  2.0117  0.4087
  711TMC3    C710572   0.453   3.211  15.008  0.1058  0.6679 -0.3308
  711TMC3    C810573   0.341   3.610  15.269  0.4850  0.1836  0.8316
  711TMC3    O110574   0.512   3.167  15.104 -0.1251 -0.0239 -0.0821
  711TMC3    O210575   0.271   3.708  15.280 -0.6208 -0.4256  0.2697
  712MPD2     C10576   1.105   4.412  13.913 -0.6817 -0.3120  0.6004
  712MPD2    C110577   1.081   4.477  13.788 -0.6647 -0.3941 -0.7026
  712MPD2    C210578   1.150   4.591  13.762 -0.7468  0.8938 -0.5021
  712MPD2    C310579   1.234   4.653  13.849 -0.0870  0.3499 -0.5581
  712MPD2    C410580   1.241   4.591  13.975  0.2074  0.4663 -0.3008
  712MPD2    C510581   1.170   4.477  14.007  0.4683 -0.2954 -0.3154
  712MPD2     H10582   1.134   4.637  13.665 -1.3022  2.6642  0.4198
  712MPD2    H110583   1.305   4.631  14.053 -0.9510  1.1791  0.2860
  712MPD2    H210584   1.067   4.318  13.950  1.3556 -0.9568  1.0817
  712MPD2    H310585   1.186   4.436  14.107  1.3028  0.3487 -0.1898
  712MPD2     N10586   1.310   0.036  13.818  0.9806 -0.2265  0.0275
  712MPD2    H510587   1.369   0.079  13.888  0.9245 -1.9307  1.1320
  712MPD2    N110588   1.001   4.414  13.691 -0.0578 -0.4845 -0.2828
  712MPD2    H710589   0.990   4.459  13.601 -0.0520  0.9036  0.4184
  713TMC3    C110590   1.386   0.220  13.701 -0.2353 -0.2152 -0.1915
  713TMC3    C210591   1.483   0.227  13.801  0.2723  1.1124 -0.1212
  713TMC3    C310592   1.559   0.342  13.805 -0.6352 -0.3181  0.3640
  713TMC3    C410593   1.344   0.327  13.623  0.0250 -0.5147 -0.0008
  713TMC3    C510594   1.414   0.444  13.644  0.7429 -0.3680  0.0394
  713TMC3    C610595   1.527   0.452  13.725 -0.6168  0.1735 -0.8005
  713TMC3     C10596   1.302   0.111  13.707 -0.4244  0.1639 -0.2203
  713TMC3     O10597   1.225   0.094  13.611 -0.3705  0.2807 -0.0012
  713TMC3     H10598   1.543   0.147  13.843 -1.5821 -0.1965  0.0101
  713TMC3    H110599   1.256   0.325  13.560 -1.1736  0.1983  1.6639
  713TMC3    H210600   1.573   0.550  13.740  1.3445 -0.8029 -0.4881
  713TMC3    C710601   1.400   0.556  13.554 -0.3740  0.3495 -0.0878
  713TMC3    C810602   1.678   0.325  13.878  0.2167 -0.9328 -0.2078
  713TMC3    O110603   1.505   0.611  13.531 -0.0376  0.4339  0.7047
  713TMC3    O210604   1.669   0.259  13.983  0.0349  0.4839  0.0270
  714MPD2     C10605   4.366   3.313   2.213  0.1509  0.9648  0.3347
  714MPD2    C110606   4.360   3.254   2.090  0.1359  0.3504 -0.5489
  714MPD2    C210607   4.266   3.292   1.996  0.1321  0.1956 -0.6634
  714MPD2    C310608   4.174   3.399   2.028 -0.1017  0.3000 -0.0078
  714MPD2    C410609   4.187   3.461   2.148  0.1524 -0.6262  0.4502
  714MPD2    C510610   4.276   3.411   2.244  0.7743  0.7366  0.3043
  714MPD2     H10611   4.273   3.247   1.897 -0.5750 -0.5865 -0.3626
  714MPD2    H110612   4.128   3.545   2.182 -0.5898 -0.8482 -0.3025
  714MPD2    H210613   4.435   3.286   2.292 -0.2101  1.9454  0.9866
  714MPD2    H310614   4.279   3.450   2.345 -1.6052  1.1307  0.2232
  714MPD2     N10615   4.076   3.439   1.931 -0.0064 -0.1593  0.9915
  714MPD2    H510616   4.074   3.382   1.847 -3.4694 -0.0318  0.9929
  714MPD2    N110617   4.464   3.162   2.072 -0.6243 -0.2978 -0.3278
  714MPD2    H710618   4.532   3.159   2.147  0.1295 -0.5252 -1.0055
  715TMC3    C110619   4.602   2.997   1.964 -0.2822 -0.2355  0.2425
  715TMC3    C210620   4.620   2.903   1.864  0.0336  0.4391  0.3321
  715TMC3    C310621   0.000   2.864   1.818  0.2821 -0.1204  0.4166
  715TMC3    C410622   4.713   3.059   2.013 -0.4067 -0.0170 -0.8400
  715TMC3    C510623   0.101   3.005   1.971  0.0480 -0.3757  0.2963
  715TMC3    C610624   0.115   2.921   1.867  0.9402 -0.5102  0.3103
  715TMC3     C10625   4.469   3.061   1.977  0.7115  0.3043 -0.0253
  715TMC3     O10626   4.380   3.035   1.896 -0.2163 -0.3686 -0.1854
  715TMC3     H10627   4.532   2.848   1.832  0.8294  0.0926 -1.2393
  715TMC3    H110628   4.716   3.141   2.083 -0.2946 -0.1173 -0.7286
  715TMC3    H210629   0.217   2.900   1.836  0.1697 -2.0297 -1.1898
  715TMC3    C710630   0.219   3.076   2.021  0.2019 -0.0772  0.2686
  715TMC3    C810631   4.736   2.796   1.686 -0.0897 -0.0034  0.4461
  715TMC3    O110632   0.314   3.069   1.945 -0.3901 -0.0636 -0.6037
  715TMC3    O210633   4.637   2.753   1.631 -0.2660  0.5617 -0.4058
  716MPD2     C10634   3.166   0.997   9.747 -0.0519 -0.8809  0.4649
  716MPD2    C110635   3.230   1.022   9.621  0.5606 -0.2296  0.1854
  716MPD2    C210636   3.296   0.920   9.554  0.2011 -0.0435 -0.4921
  716MPD2    C310637   3.311   0.797   9.616  0.3463  0.1740  0.2682
  716MPD2    C410638   3.250   0.778   9.740 -1.2132  0.0128  0.5702
  716MPD2    C510639   3.186   0.880   9.809  0.5780 -0.1213 -0.0958
  716MPD2     H10640   3.334   0.937   9.454  0.7975  1.5884  0.0077
  716MPD2    H110641   3.252   0.680   9.786 -2.5987 -0.4398 -0.3347
  716MPD2    H210642   3.106   1.068   9.803 -0.9291 -0.2173 -1.2903
  716MPD2    H310643   3.126   0.866   9.899 -0.4520 -1.6913 -1.0321
  716MPD2     N10644   3.381   0.690   9.543  0.2141 -0.4425 -0.2447
  716MPD2    H510645   3.397   0.702   9.443 -0.6812  1.6731 -0.1412
  716MPD2    N110646   3.204   1.154   9.567  0.3124  0.1698  0.7799
  716MPD2    H710647   3.151   1.215   9.629  0.4666 -0.6819  1.7578
  717TMC3    C110648   3.497   0.495   9.512  0.0464 -0.4388 -0.1995
  717TMC3    C210649   3.444   0.467   9.390 -0.4392 -0.6367 -0.1437
  717TMC3    C310650   3.464   0.348   9.330  0.0847  0.1869 -0.4172
  717TMC3    C410651   3.577   0.405   9.572 -0.7154  0.9610 -0.0647
  717TMC3    C510652   3.599   0.284   9.503  0.4211  0.0617 -0.5574
  717TMC3    C610653   3.546   0.256   9.383  0.0096 -0.3960 -0.1181
  717TMC3     C10654   3.412   0.570   9.599  0.2667  0.2670 -0.4049
  717TMC3     O10655   3.417   0.539   9.716  0.7024  0.1196 -0.0501
  717TMC3     H10656   3.390   0.539   9.330 -0.4039 -1.5562 -1.2647
  717TMC3    H110657   3.632   0.436   9.660  1.8001 -3.9265  0.0889
  717TMC3    H210658   3.567   0.159   9.339 -2.1955 -1.1487  0.4511
  717TMC3    C710659   3.693   0.195   9.576  0.0597 -0.5780 -0.1068
  717TMC3    C810660   3.381   0.317   9.214  0.1972  0.4216  0.0171
  717TMC3    O110661   3.757   0.247   9.661 -0.2735  0.0353 -0.1204
  717TMC3    O210662   3.284   0.385   9.191 -0.2694 -0.6182  0.1534
  718MPD2     C10663   3.195   4.301  13.018 -0.2456  0.3440  0.0197
  718MPD2    C110664   3.138   4.296  12.891 -0.6384 -0.2474 -0.0358
  718MPD2    C210665   3.010   4.324  12.880  0.4090 -0.2258  0.1827
  718MPD2    C310666   2.930   4.344  12.989 -0.5268 -0.6101  0.0978
  718MPD2    C410667   2.983   4.353  13.116  0.0122 -0.4720  0.1623
  718MPD2    C510668   3.120   4.337  13.127  0.4992  0.5043  0.1068
  718MPD2     H10669   2.975   4.322  12.777  1.5008 -2.6071 -0.1405
  718MPD2    H110670   2.929   4.370  13.208  1.4908 -0.5926  1.0586
  718MPD2    H210671   3.302   4.287  13.028 -0.3339  0.6021  1.3483
  718MPD2    H310672   3.175   4.348  13.220 -1.0934  0.8366  1.0139
  718MPD2     N10673   2.792   4.360  12.966 -0.1160 -0.3732  0.3854
  718MPD2    H510674   2.759   4.361  12.870  0.4908 -0.1369  0.1814
  718MPD2    N110675   3.218   4.284  12.771  0.0309 -0.2481 -0.1145
  718MPD2    H710676   3.166   4.304  12.685  2.7409 -0.8732 -1.8894
  719TMC3    C110677   3.380   4.322  12.612  0.3988 -0.0123  0.5175
  719TMC3    C210678   3.267   4.300  12.531  0.2106 -0.9094 -0.3191
  719TMC3    C310679   3.236   4.396  12.436  0.1003  0.1965  0.1706
  719TMC3    C410680   3.472   4.419  12.580  0.0685 -0.4430  0.1716
  719TMC3    C510681   3.445   4.502  12.478 -0.5454  0.3610 -0.7378
  719TMC3    C610682   3.323   4.497  12.414 -0.1220  0.2707 -0.4539
  719TMC3     C10683   3.356   4.287  12.749 -0.0322 -0.5159 -0.4424
  719TMC3     O10684   3.442   4.293  12.831  0.6573 -0.0337  0.4805
  719TMC3     H10685   3.203   4.216  12.556  1.5968 -2.2136 -1.1373
  719TMC3    H110686   3.554   4.444  12.646 -0.8469 -0.1571  1.1983
  719TMC3    H210687   3.305   4.556  12.326 -2.2530  1.7692  0.9703
  719TMC3    C710688   3.553   4.551  12.392 -0.1840 -0.3468 -1.0612
  719TMC3    C810689   3.097   4.436  12.446 -0.1553  0.0194  0.7891
  719TMC3    O110690   3.536   4.633  12.298  0.0288 -0.4881  0.2666
  719TMC3    O210691   3.023   4.360  12.510 -0.3522  0.0764 -0.2195
  720MPD2     C10692   1.533   1.497  13.642  1.0826  0.1319  0.2846
  720MPD2    C110693   1.620   1.531  13.543  0.2467  0.2565  0.6368
  720MPD2    C210694   1.755   1.521  13.571  0.5147 -1.1163 -0.0315
  720MPD2    C310695   1.802   1.479  13.698 -0.3762  0.2765 -0.8746
  720MPD2    C410696   1.707   1.444  13.795 -0.8230 -0.0588 -0.5177
  720MPD2    C510697   1.576   1.451  13.760 -0.0988  0.4026 -0.0902
  720MPD2     H10698   1.825   1.548  13.492 -1.4425  1.3169 -0.9200
  720MPD2    H110699   1.736   1.411  13.895 -1.0071 -1.2236 -0.8500
  720MPD2    H210700   1.427   1.506  13.625  1.1089 -1.2809 -0.6997
  720MPD2    H310701   1.507   1.442  13.843  0.6709 -0.4997  0.4556
  720MPD2     N10702   1.940   1.491  13.718 -0.1235  0.6373  0.3276
  720MPD2    H510703   1.989   1.521  13.634 -0.2281 -2.8409 -0.9371
  720MPD2    N110704   1.576   1.588  13.416 -0.0623 -0.2611  0.2099
  720MPD2    H710705   1.645   1.606  13.344 -1.3070  0.2534 -0.8464
  721TMC3    C110706   2.137   1.531  13.835 -0.3533  0.1383  0.1537
  721TMC3    C210707   2.177   1.620  13.937  0.3725 -0.2043 -0.2623
  721TMC3    C310708   2.261   1.725  13.914 -0.3530  0.0514  0.0379
  721TMC3    C410709   2.195   1.546  13.714  0.5366 -0.4972  0.7308
  721TMC3    C510710   2.276   1.658  13.692 -0.5202  0.1401 -0.5897
  721TMC3    C610711   2.310   1.749  13.791  0.2806 -0.5959  0.2016
  721TMC3     C10712   2.001   1.482  13.842 -0.3858  0.1849  0.0026
  721TMC3     O10713   1.965   1.441  13.950 -0.8661 -0.0385  0.1025
  721TMC3     H10714   2.139   1.588  14.033  0.2616  0.3593 -0.1194
  721TMC3    H110715   2.168   1.497  13.621  0.8294  1.5371 -0.4351
  721TMC3    H210716   2.376   1.829  13.760 -1.2794 -0.0555 -1.6915
  721TMC3    C710717   2.313   1.691  13.559 -0.0653 -0.3196 -0.6200
  721TMC3    C810718   2.367   1.752  14.007  0.0420 -0.6254  0.2773
  721TMC3    O110719   2.335   1.609  13.472 -0.2066  0.5070 -0.1099
  721TMC3    O210720   2.481   1.732  13.960 -0.0082 -0.5158 -0.3479
  722MPD2     C10721   0.261   0.470  13.349  0.0748 -0.2388 -0.5523
  722MPD2    C110722   0.284   0.537  13.231 -0.7489  0.0253  0.1701
  722MPD2    C210723   0.251   0.469  13.111  1.1630 -0.6193 -0.4091
  722MPD2    C310724   0.178   0.352  13.112  0.4054 -0.9464  0.1948
  722MPD2    C410725   0.160   0.287  13.232  0.0972  0.0298  0.1771
  722MPD2    C510726   0.190   0.347  13.348  0.2648 -0.3993 -0.1761
  722MPD2     H10727   0.283   0.525  13.024 -2.0003 -0.4970 -1.5016
  722MPD2    H110728   0.093   0.203  13.246  0.2286 -0.0870  0.1021
  722MPD2    H210729   0.282   0.510  13.448 -1.2291 -0.3838 -0.2101
  722MPD2    H310730   0.148   0.307  13.440 -0.7240 -0.2827 -0.5824
  722MPD2     N10731   0.137   0.291  12.988  0.0672  0.2134  0.2318
  722MPD2    H510732   0.172   0.336  12.904 -1.1433  2.4857  0.9389
  722MPD2    N110733   0.355   0.660  13.225 -0.1855  0.6206  0.1068
  722MPD2    H710734   0.370   0.701  13.133  2.2028  1.1952  0.7663
  723TMC3    C110735   0.039   0.133  12.839  0.0008  0.6424  0.0691
  723TMC3    C210736   0.022   4.734  12.822 -0.2774 -0.1744 -0.3854
  723TMC3    C310737   0.000   4.693  12.694  0.4258  0.7559  0.0535
  723TMC3    C410738   0.049   0.223  12.733 -0.0002 -0.1968  0.5297
  723TMC3    C510739   0.023   0.170  12.611 -0.3026 -0.2840 -0.6045
  723TMC3    C610740   4.736   0.041  12.585 -0.1906 -0.1358 -0.0872
  723TMC3     C10741   0.075   0.172  12.977 -0.7475  0.2177  0.3400
  723TMC3     O10742   0.023   0.099  13.059 -0.2043 -0.0294 -0.2296
  723TMC3     H10743   0.033   4.660  12.900 -0.8922  2.0443  1.7896
  723TMC3    H110744   0.024   0.327  12.752  0.3266 -0.0171 -0.0362
  723TMC3    H210745   4.713   4.736  12.487 -1.2874  0.6710 -0.1651
  723TMC3    C710746   0.032   0.248  12.490  0.6491  0.4577  0.3672
  723TMC3    C810747   4.674   4.564  12.679 -0.0054 -0.0384  0.1236
  723TMC3    O110748   4.702   0.215  12.395 -0.2837  0.1638  0.1287
  723TMC3    O210749   4.693   4.516  12.567  0.3729  0.5728 -0.1390
  724TMC3    C110750   0.772   2.874   9.502  0.4194 -0.0744 -0.2582
  724TMC3    C210751   0.681   2.959   9.432  0.2740  0.1650 -0.6621
  724TMC3    C310752   0.732   3.077   9.382 -0.3073 -0.5305  0.1420
  724TMC3    C410753   0.905   2.897   9.494 -0.1444 -0.1378  0.0077
  724TMC3    C510754   0.959   3.003   9.421  0.4145  0.4629  0.1039
  724TMC3    C610755   0.873   3.100   9.381  0.9182 -0.2768 -0.1578
  724TMC3     C10756   0.743   2.750   9.578  0.7205 -0.0546 -0.0295
  724TMC3     O10757   0.831   2.683   9.629  0.4355 -0.3047 -0.1055
  724TMC3     H10758   0.576   2.932   9.433  0.2053  0.4695  0.0725
  724TMC3    H110759   0.972   2.845   9.562 -1.1066 -1.9434 -0.4276
  724TMC3    H210760   0.920   3.190   9.343  0.5460  0.9789  2.3500
  724TMC3    C710761   1.093   3.055   9.455 -0.1550 -1.1644  0.8796
  724TMC3    C810762   0.635   3.189   9.370  0.5347 -0.5039 -0.7544
  724TMC3    O110763   1.145   3.013   9.556  0.3962 -0.0836 -0.0103
  724TMC3    O210764   0.521   3.187   9.410 -0.0497  0.0135 -0.5267
  725TMC3    C110765   2.835   2.399  12.513 -0.3708  0.1802  0.4806
  725TMC3    C210766   2.785   2.420  12.386  0.1358 -0.1381 -0.0083
  725TMC3    C310767   2.656   2.456  12.378 -0.4465 -0.4147  0.2655
  725TMC3    C410768   2.752   2.394  12.621  0.7554  0.1977  0.3577
  725TMC3    C510769   2.619   2.418  12.596 -1.3994  0.3909  0.1333
  725TMC3    C610770   2.565   2.466  12.478  0.3414  0.2980  0.1782
  725TMC3     C10771   2.978   2.406  12.520  0.4150 -0.0181  0.1252
  725TMC3     O10772   3.044   2.353  12.430 -0.2690  0.1816 -0.0511
  725TMC3     H10773   2.856   2.443  12.308  0.1288  0.1612  0.0737
  725TMC3    H110774   2.786   2.351  12.714  0.0147 -0.2596  0.4100
  725TMC3    H210775   2.463   2.499  12.462  0.5863  1.2062  0.4897
  725TMC3    C710776   2.523   2.339  12.665 -0.3530 -0.0662 -0.4291
  725TMC3    C810777   2.603   2.494  12.250 -0.2325  0.7843  0.6535
  725TMC3    O110778   2.411   2.384  12.666 -0.3390  0.5877  0.0453
  725TMC3    O210779   2.494   2.543  12.242 -0.2655  0.9582  0.1340
  726MPD2     C10780   0.256   3.234  10.073 -0.4024 -0.3596  0.5083
  726MPD2    C110781   0.193   3.336  10.151 -0.5060 -0.2616 -0.5158
  726MPD2    C210782   0.077   3.301  10.212 -0.4085 -0.5134  0.7667
  726MPD2    C310783   0.006   3.184  10.191 -0.0036  1.2489 -0.8513
  726MPD2    C410784   0.059   3.096  10.094  0.2164 -0.1327 -0.4153
  726MPD2    C510785   0.182   3.125  10.041  0.4127  1.0706  0.5663
  726MPD2     H10786   0.035   3.377  10.276  1.4794  2.9635 -2.1600
  726MPD2    H110787   0.015   2.997  10.081 -0.7623  0.5730 -2.4348
  726MPD2    H210788   0.354   3.242  10.028 -0.4859  0.5906  0.4889
  726MPD2    H310789   0.222   3.041   9.986 -0.7601  2.2306 -2.0426
  726MPD2     N10790   4.613   3.156  10.243  0.0455 -0.4626 -0.1143
  726MPD2    H510791   4.570   3.072  10.205  0.6964 -0.4714 -0.8378
  726MPD2    N110792   0.242   3.462  10.182 -0.2465  0.0929 -0.0934
  726MPD2    H710793   0.185   3.525  10.237 -0.5258 -0.0755 -0.1929
  727TMC3    C110794   0.394   3.639  10.184  0.2886 -0.3976 -0.1675
  727TMC3    C210795   0.521   3.681  10.208 -0.1640  0.1950  0.5339
  727TMC3    C310796   0.541   3.814  10.241 -0.0835 -0.1457 -0.2571
  727TMC3    C410797   0.286   3.725  10.177  0.2966  0.3939 -0.9601
  727TMC3    C510798   0.309   3.861  10.207 -0.0508  0.1427  0.4443
  727TMC3    C610799   0.430   3.910  10.239 -0.0848 -0.4064 -0.0084
  727TMC3     C10800   0.371   3.505  10.152  0.3044  0.6193  0.4218
  727TMC3     O10801   0.469   3.449  10.100  0.2311 -0.9355  0.1167
  727TMC3     H10802   0.593   3.603  10.231 -1.8459 -1.2399  0.9055
  727TMC3    H110803   0.192   3.687  10.139 -0.3299 -0.7239  1.6546
  727TMC3    H210804   0.456   4.015  10.238 -0.6152 -0.2625  2.2023
  727TMC3    C710805   0.213   3.963  10.169  0.7606 -0.7341  0.9024
  727TMC3    C810806   0.675   3.859  10.277 -0.5742  0.3257  0.3586
  727TMC3    O110807   0.262   4.074  10.154 -0.0053  0.1115 -0.0263
  727TMC3    O210808   0.772   3.784  10.254 -0.2182  0.5568 -0.4379
  728TMC3    C110809   4.594   2.399  15.194 -0.0207  0.0484  1.2149
  728TMC3    C210810   4.710   2.414  15.117 -0.0313 -0.1235  0.7747
  728TMC3    C310811   4.701   2.460  14.989  0.5090 -0.0227 -0.5225
  728TMC3    C410812   4.464   2.435  15.146  0.0678 -0.5623  0.5409
  728TMC3    C510813   4.463   2.487  15.016 -0.9920  0.1815  0.7413
  728TMC3    C610814   4.581   2.500  14.943 -0.1806 -0.3814  0.0926
  728TMC3     C10815   4.613   2.363  15.339  0.8262  0.9593 -0.5191
  728TMC3     O10816   4.728   2.360  15.384 -0.0903  0.1155  0.3246
  728TMC3     H10817   0.063   2.370  15.159  0.7678  0.4874 -0.3000
  728TMC3    H110818   4.370   2.425  15.198  0.2292  1.0372  1.1223
  728TMC3    H210819   4.577   2.537  14.841 -0.3608 -2.6575 -0.7165
  728TMC3    C710820   4.336   2.525  14.949  0.2866 -0.2401 -0.3664
  728TMC3    C810821   0.055   2.410  14.888 -0.0673 -0.8125  0.0352
  728TMC3    O110822   4.240   2.457  14.981  0.1324 -0.0301  0.1111
  728TMC3    O210823   0.041   2.290  14.870  0.5224  0.1161 -0.0193
  729MPD2     C10824   2.613   2.862  16.729  0.4287 -0.1630 -0.2054
  729MPD2    C110825   2.478   2.888  16.745  0.4185 -0.3025 -1.1016
  729MPD2    C210826   2.433   2.867  16.873  0.3845  0.1710  0.2557
  729MPD2    C310827   2.510   2.824  16.982  0.3061  0.3909  0.0864
  729MPD2    C410828   2.643   2.820  16.962 -0.4212 -1.2087  0.1864
  729MPD2    C510829   2.684   2.833  16.840 -0.3906 -0.5363 -0.6354
  729MPD2     H10830   2.327   2.876  16.894  0.1427 -1.2865 -0.2896
  729MPD2    H110831   2.716   2.813  17.042  1.1152  0.0482 -1.0941
  729MPD2    H210832   2.672   2.865  16.638 -0.2547  1.3914 -0.5932
  729MPD2    H310833   2.787   2.816  16.809 -0.2490 -0.4313 -0.2289
  729MPD2     N10834   2.463   2.817  17.114 -0.3559  0.0625  0.5202
  729MPD2    H510835   2.367   2.850  17.121  0.3681  2.2686  0.0311
  729MPD2    N110836   2.393   2.932  16.637 -0.2703 -0.1077  1.0682
  729MPD2    H710837   2.444   2.949  16.551 -1.8488  0.1725  0.1894
  730TMC3    C110838   2.458   2.847  17.344  0.2536 -0.6412  0.0088
  730TMC3    C210839   2.519   2.835  17.462  0.0308 -0.1736  0.3769
  730TMC3    C310840   2.462   2.889  17.569 -0.5370  0.0550 -0.1198
  730TMC3    C410841   2.336   2.897  17.331  0.1310  0.7301 -0.3270
  730TMC3    C510842   2.273   2.951  17.438 -0.2205 -0.2365 -0.0774
  730TMC3    C610843   2.335   2.931  17.568 -0.4159  0.3584 -0.2416
  730TMC3     C10844   2.533   2.803  17.230 -0.9049 -1.1827 -0.9062
  730TMC3     O10845   2.642   2.754  17.246 -0.3715 -0.1875 -0.4025
  730TMC3     H10846   2.620   2.795  17.465 -0.6412 -1.9895 -1.2147
  730TMC3    H110847   2.289   2.921  17.237  2.3525  1.5617 -1.2139
  730TMC3    H210848   2.293   2.964  17.662  0.3289  1.7770 -0.3993
  730TMC3    C710849   2.175   3.057  17.405 -0.7466  1.0513 -0.6176
  730TMC3    C810850   2.538   2.893  17.691  0.3373 -0.1663  0.4674
  730TMC3    O110851   2.131   3.059  17.289  0.0178  1.0291  0.1911
  730TMC3    O210852   2.609   2.798  17.716 -0.3021  0.6080 -0.2404
  731MPD2     C10853   2.055   1.824  12.057  0.2107  0.0426  0.3274
  731MPD2    C110854   1.988   1.753  11.965 -0.6078  0.1621  0.2946
  731MPD2    C210855   1.866   1.702  11.999 -0.2629 -0.4607 -0.4240
  731MPD2    C310856   1.807   1.718  12.122  0.2280  0.0262  0.1345
  731MPD2    C410857   1.868   1.792  12.221  0.0136  0.0279 -0.3167
  731MPD2    C510858   1.995   1.848  12.179 -0.4128 -0.5553 -0.0203
  731MPD2     H10859   1.796   1.647  11.937 -0.4725 -1.7343  0.9301
  731MPD2    H110860   1.832   1.799  12.323 -0.9747 -0.0042 -0.6605
  731MPD2    H210861   2.151   1.871  12.037 -1.5129  3.2083 -0.5779
  731MPD2    H310862   2.052   1.912  12.245  0.3665 -2.0904  0.7931
  731MPD2     N10863   1.681   1.661  12.158  0.2691  0.1420  0.7615
  731MPD2    H510864   1.643   1.583  12.105 -0.3688  1.2536 -0.4226
  731MPD2    N110865   2.053   1.724  11.839  0.6106 -0.7148 -0.2099
  731MPD2    H710866   2.134   1.777  11.810 -1.5714  1.4409 -2.2375
  732TMC3    C110867   2.115   1.584  11.653 -0.5204 -0.3429  0.2881
  732TMC3    C210868   2.071   1.507  11.553 -0.4052 -1.0664 -0.2302
  732TMC3    C310869   2.154   1.430  11.481  0.8743 -0.2550  0.0344
  732TMC3    C410870   2.248   1.588  11.695 -0.6791 -0.3322 -0.4379
  732TMC3    C510871   2.327   1.506  11.620 -0.7382  0.1937  0.8554
  732TMC3    C610872   2.286   1.431  11.519 -0.3904  0.6584 -0.0591
  732TMC3     C10873   2.013   1.630  11.749  0.4550  0.2961 -0.5539
  732TMC3     O10874   1.908   1.570  11.744 -0.2336 -0.1861 -0.4874
  732TMC3     H10875   1.965   1.508  11.527 -0.3869 -0.0498 -0.2513
  732TMC3    H110876   2.293   1.661  11.761  1.1103 -0.7088 -1.2500
  732TMC3    H210877   2.361   1.379  11.460 -2.1735 -1.8155 -0.1423
  732TMC3    C710878   2.455   1.462  11.675  0.8000  0.1164 -0.9209
  732TMC3    C810879   2.106   1.291  11.457 -0.0019  0.7101 -0.5822
  732TMC3    O110880   2.540   1.427  11.596 -0.2767 -0.0251  0.3933
  732TMC3    O210881   2.190   1.205  11.427  0.0738  0.3522 -0.3580
  733TMC3    C110882   2.341   4.440  12.944 -0.1518  0.2877 -0.2554
  733TMC3    C210883   2.443   4.385  13.022  0.0460 -0.2187 -0.0426
  733TMC3    C310884   2.570   4.421  12.975  0.4426  0.1457 -0.5117
  733TMC3    C410885   2.357   4.518  12.834  0.4025 -0.1448  0.2136
  733TMC3    C510886   2.487   4.556  12.807  0.2734 -0.2931 -0.6818
  733TMC3    C610887   2.596   4.512  12.881  0.7061  0.4348  0.3282
  733TMC3     C10888   2.203   4.427  12.994 -0.7455 -0.6665 -0.0425
  733TMC3     O10889   2.129   4.519  12.961 -1.2390 -0.2807 -0.8039
  733TMC3     H10890   2.422   4.316  13.102  1.0916 -0.5237 -0.0295
  733TMC3    H110891   2.267   4.559  12.788 -0.8156 -1.1433  1.7118
  733TMC3    H210892   2.698   4.546  12.867  1.0291 -0.6521  0.0088
  733TMC3    C710893   2.520   4.618  12.682 -0.1643 -0.1577  0.0094
  733TMC3    C810894   2.691   4.381  13.052 -0.0355 -0.6708 -0.6167
  733TMC3    O110895   2.445   4.710  12.649  0.5157 -0.4590 -0.0846
  733TMC3    O210896   2.687   4.379  13.176 -0.5406 -0.5092 -1.0056
  734MPD2     C10897   4.643   2.383  12.103  0.4616 -0.2938  0.2793
  734MPD2    C110898   4.570   2.296  12.032 -0.0923  0.3939 -0.4529
  734MPD2    C210899   4.607   2.274  11.900  0.1264  1.0103 -0.0003
  734MPD2    C310900   4.708   2.335  11.834 -0.2975  0.2125 -0.8354
  734MPD2    C410901   0.037   2.436  11.902  0.0125  0.1038  0.3696
  734MPD2    C510902   0.006   2.454  12.039 -0.8003 -0.1081  0.5737
  734MPD2     H10903   4.567   2.188  11.847 -0.8588  1.8977 -0.7028
  734MPD2    H110904   0.111   2.499  11.854 -1.4611  1.6078  0.0665
  734MPD2    H210905   4.628   2.381  12.210  2.5726  0.4364  0.5791
  734MPD2    H310906   0.050   2.535  12.097  1.8505 -2.0923  1.3144
  734MPD2     N10907   4.736   2.287  11.703  0.3796  0.2369  1.0220
  734MPD2    H510908   4.689   2.206  11.665  2.4598 -0.4139 -0.1563
  734MPD2    N110909   4.467   2.213  12.095 -0.5748 -0.4275  0.2283
  734MPD2    H710910   4.465   2.205  12.197 -1.2470  0.4114  0.2835
  735TMC3    C110911   4.277   2.062  12.109  0.1168  0.4071 -0.1139
  735TMC3    C210912   4.171   2.022  12.031 -0.0761 -0.0469  0.0285
  735TMC3    C310913   4.150   1.885  12.018 -0.5394  0.4254 -0.1992
  735TMC3    C410914   4.356   1.976  12.182  0.1635 -0.4277  0.1220
  735TMC3    C510915   4.329   1.846  12.160  0.0576  0.4279  0.0089
  735TMC3    C610916   4.227   1.801  12.087  0.0294  0.0671  0.5394
  735TMC3     C10917   4.369   2.144  12.029  0.1071  0.0163  0.1492
  735TMC3     O10918   4.349   2.141  11.910  0.5572  0.0659  0.0904
  735TMC3     H10919   4.129   2.101  11.972 -3.6000 -0.9794  1.3012
  735TMC3    H110920   4.446   2.006  12.235  0.6844 -0.6758 -0.6285
  735TMC3    H210921   4.224   1.698  12.055  1.4294 -1.0965  4.1042
  735TMC3    C710922   4.449   1.763  12.173 -0.6729  0.3186  0.1241
  735TMC3    C810923   4.132   1.840  11.890  0.4692  0.6395  0.2722
  735TMC3    O110924   4.553   1.822  12.185 -0.1702  0.9515  0.1062
  735TMC3    O210925   4.107   1.722  11.868 -0.1040 -0.0256 -0.2556
  736MPD2     C10926   4.487   1.419  12.274  0.1163 -0.7842  0.3723
  736MPD2    C110927   4.527   1.528  12.207  1.2522 -1.0188 -0.6958
  736MPD2    C210928   4.660   1.533  12.165 -0.4291 -0.7397 -0.3664
  736MPD2    C310929   0.021   1.443  12.204 -0.0445  0.4473 -0.1321
  736MPD2    C410930   4.710   1.340  12.286  0.0134 -0.3402  0.2912
  736MPD2    C510931   4.577   1.322  12.310  0.2072  0.3393  0.0792
  736MPD2     H10932   4.684   1.623  12.110 -0.9162 -0.1797  0.3413
  736MPD2    H110933   0.052   1.267  12.305  0.9206  0.2363 -1.2595
  736MPD2    H210934   4.385   1.394  12.299 -0.2900 -0.3603 -0.8590
  736MPD2    H310935   4.536   1.230  12.351  1.6823 -1.5651 -2.7033
  736MPD2     N10936   0.155   1.458  12.174  0.5639 -0.2688 -0.3065
  736MPD2    H510937   0.226   1.401  12.218 -0.2435 -0.5605  0.6185
  736MPD2    N110938   4.422   1.625  12.186  0.4614 -0.7243 -0.0205
  736MPD2    H710939   4.327   1.589  12.192 -0.5592  2.0023  0.0026
  737TMC3    C110940   0.345   1.528  12.044  0.1768 -0.0148 -0.5354
  737TMC3    C210941   0.397   1.619  11.954  0.3294 -0.1125 -0.2331
  737TMC3    C310942   0.526   1.593  11.908 -0.4344 -0.4968 -0.0876
  737TMC3    C410943   0.421   1.424  12.089 -0.0193  0.6665 -0.0139
  737TMC3    C510944   0.547   1.396  12.045  0.3577 -0.7208 -0.0815
  737TMC3    C610945   0.603   1.483  11.952 -0.3207  0.2920 -0.1768
  737TMC3     C10946   0.202   1.541  12.076 -0.2117  0.4655  0.7124
  737TMC3     O10947   0.127   1.611  12.005  0.3659 -0.6572 -0.2081
  737TMC3     H10948   0.333   1.697  11.914  2.2517  1.4415 -0.2374
  737TMC3    H110949   0.379   1.344  12.149  0.9546  0.1768  0.0169
  737TMC3    H210950   0.705   1.471  11.917  0.0128 -0.4333  1.0313
  737TMC3    C710951   0.579   1.260  12.020 -0.3761  0.4105  0.3625
  737TMC3    C810952   0.589   1.693  11.822  0.3215  0.0610  0.2723
  737TMC3    O110953   0.533   1.184  12.103 -0.1623 -0.0799  0.0745
  737TMC3    O210954   0.712   1.693  11.812 -0.4942  0.9736  0.1462
  738MPD2     C10955   1.523   0.645  15.123  0.1072  0.4031 -0.3087
  738MPD2    C110956   1.419   0.683  15.040 -1.1583 -0.0166 -0.2732
  738MPD2    C210957   1.446   0.757  14.928 -0.4941  0.0612 -0.2064
  738MPD2    C310958   1.581   0.799  14.901  0.2414  0.5685 -0.2129
  738MPD2    C410959   1.675   0.764  14.989 -0.3060  0.0549 -0.0602
  738MPD2    C510960   1.649   0.697  15.105  0.1747  0.2576  0.5994
  738MPD2     H10961   1.369   0.781  14.855 -1.8421  0.6632  1.4093
  738MPD2    H110962   1.779   0.791  14.973  0.1768 -1.4802  0.5508
  738MPD2    H210963   1.509   0.579  15.208  0.0574  2.0363  0.9464
  738MPD2    H310964   1.727   0.682  15.178 -0.8153 -3.0912  0.9775
  738MPD2     N10965   1.619   0.886  14.803  0.8763  0.5556  0.1206
  738MPD2    H510966   1.714   0.920  14.791  0.0597  2.5241 -0.7330
  738MPD2    N110967   1.290   0.660  15.089 -0.6881  0.3807  0.0190
  738MPD2    H710968   1.218   0.682  15.021 -0.0165 -0.6488 -1.0266
  739TMC3    C110969   1.614   1.014  14.606  0.0369  0.5487  0.5170
  739TMC3    C210970   1.565   1.007  14.479 -0.0377  0.5344 -0.2682
  739TMC3    C310971   1.640   1.039  14.373 -0.6172 -0.0380 -0.1527
  739TMC3    C410972   1.749   1.026  14.627  0.2490 -0.2168 -0.0786
  739TMC3    C510973   1.825   1.042  14.512 -0.4088 -0.8635  0.4265
  739TMC3    C610974   1.778   1.057  14.389 -0.0619  0.2477 -0.2732
  739TMC3     C10975   1.551   0.916  14.695 -0.3777 -0.0092 -0.2041
  739TMC3     O10976   1.446   0.860  14.664  0.4931  0.2177 -0.3675
  739TMC3     H10977   1.458   0.993  14.470 -0.1703  1.8754 -0.7837
  739TMC3    H110978   1.792   1.043  14.725  0.4552 -2.0447  0.1398
  739TMC3    H210979   1.858   1.061  14.315 -3.3668 -0.6712 -3.8719
  739TMC3    C710980   1.962   1.083  14.532  0.7380 -0.6068 -0.0337
  739TMC3    C810981   1.584   1.035  14.242 -0.1910  0.5091 -0.4461
  739TMC3    O110982   2.025   1.042  14.630  0.0224  0.2582 -0.3545
  739TMC3    O210983   1.461   1.024  14.241 -0.4668  0.0290  0.3893
  740TMC3    C110984   1.769   2.111  14.065  0.3489 -0.0783  0.2672
  740TMC3    C210985   1.834   2.052  14.169 -0.6264  0.0675  0.4205
  740TMC3    C310986   1.948   1.970  14.142  0.1775  0.1097  0.2646
  740TMC3    C410987   1.805   2.101  13.937 -0.3861  0.0022  0.0839
  740TMC3    C510988   1.915   2.028  13.912 -0.3305 -0.0056 -0.2014
  740TMC3    C610989   1.987   1.965  14.007 -0.4695 -0.6687 -0.3609
  740TMC3     C10990   1.648   2.186  14.094  0.6489  0.4060  0.5828
  740TMC3     O10991   1.594   2.239  13.998  0.2009 -0.2957  0.0253
  740TMC3     H10992   1.801   2.062  14.272 -1.1658 -1.6804  0.4136
  740TMC3    H110993   1.740   2.142  13.860  0.1083  0.0886 -0.2814
  740TMC3    H210994   2.072   1.904  13.982 -1.0332 -0.5640 -2.4668
  740TMC3    C710995   1.946   1.982  13.780 -0.1682 -0.5142  0.9331
  740TMC3    C810996   1.954   1.838  14.203  0.1542  0.3493  0.3280
  740TMC3    O110997   2.046   1.913  13.753  0.0989  0.1153 -0.1909
  740TMC3    O210998   2.055   1.774  14.174  0.0886  0.3110  0.0384
  741TMC3    C110999   1.282   1.513  13.947 -0.3153  0.1806  0.7228
  741TMC3    C211000   1.271   1.378  13.912 -0.5307  0.1194 -0.0835
  741TMC3    C311001   1.297   1.285  14.008  0.7130  0.2336  0.6550
  741TMC3    C411002   1.323   1.556  14.067  0.8308 -0.0312 -0.0175
  741TMC3    C511003   1.376   1.458  14.156 -1.4593 -0.1907 -0.4579
  741TMC3    C611004   1.372   1.321  14.119 -0.3995  0.7518  0.4063
  741TMC3     C11005   1.200   1.603  13.873  0.0778 -1.0109 -0.3664
  741TMC3     O11006   1.199   1.588  13.754  0.3228  0.4407  0.0577
  741TMC3     H11007   1.218   1.341  13.825  0.4587  0.9733 -1.0474
  741TMC3    H111008   1.330   1.662  14.087 -2.3874  0.4037 -1.1692
  741TMC3    H211009   1.398   1.243  14.189 -0.3561  0.3737 -0.0316
  741TMC3    C711010   1.370   1.470  14.303 -0.0133  0.8004 -0.9899
  741TMC3    C811011   1.173   1.216  14.029  0.6267 -1.0786 -0.4146
  741TMC3    O111012   1.393   1.371  14.370  0.0100  0.3043  0.3644
  741TMC3    O211013   1.075   1.273  13.984 -0.4022 -0.0281 -0.8601
  742TMC3    C111014   0.440   4.413  15.211  0.2523 -0.1882  0.3913
  742TMC3    C211015   0.385   4.399  15.084 -0.1103 -0.3350  0.5169
  742TMC3    C311016   0.463   4.360  14.987  0.3218 -0.1150  0.5119
  742TMC3    C411017   0.571   4.396  15.238  0.2858  0.9017 -0.2836
  742TMC3    C511018   0.648   4.361  15.127  0.2902  0.1602  0.9412
  742TMC3    C611019   0.595   4.341  15.005 -0.2157 -0.1932  0.4534
  742TMC3     C11020   0.353   4.444  15.319 -0.0965  0.3418 -0.0515
  742TMC3     O11021   0.236   4.415  15.300  0.3186 -0.0354  0.0773
  742TMC3     H11022   0.284   4.437  15.072  0.7991  1.7253 -0.4937
  742TMC3    H111023   0.607   4.384  15.340  1.4159  0.0553 -0.7817
  742TMC3    H211024   0.663   4.308  14.928  0.4181  0.6171  0.6566
  742TMC3    C711025   0.790   4.338  15.133 -0.3455 -0.5381 -0.2363
  742TMC3    C811026   0.419   4.320  14.854  0.3198 -0.4372 -0.6702
  742TMC3    O111027   0.854   4.299  15.035 -0.3642  0.4473  0.5174
  742TMC3    O211028   0.507   4.297  14.771  0.0542  0.0920  0.7020
  743MPD2     C11029   4.402   1.193   1.951 -0.1671 -0.5546  0.1045
  743MPD2    C111030   4.339   1.114   1.855  0.5498 -0.2754 -0.6989
  743MPD2    C211031   4.414   1.068   1.745 -0.1897 -0.6615 -0.0352
  743MPD2    C311032   4.555   1.078   1.742 -0.7726 -0.4545 -0.3291
  743MPD2    C411033   4.625   1.144   1.844 -0.4678  0.0062  0.3915
  743MPD2    C511034   4.543   1.200   1.944 -0.5061  0.1522  0.0934
  743MPD2     H11035   4.358   1.019   1.667 -0.5859  3.2281 -2.2025
  743MPD2    H111036   4.731   1.163   1.845 -0.6291  1.0053 -1.9768
  743MPD2    H211037   4.351   1.245   2.032 -0.6735  2.2631 -2.0265
  743MPD2    H311038   4.597   1.263   2.015 -0.3373 -0.1547  0.2383
  743MPD2     N11039   4.625   1.023   1.632 -0.4718  0.3415 -0.2150
  743MPD2    H511040   4.566   0.973   1.566  0.1048  0.4525 -0.8189
  743MPD2    N111041   4.196   1.105   1.860  0.4370 -0.5473  0.4022
  743MPD2    H711042   4.153   1.144   1.943 -1.5595 -2.0584  0.0715
  744TMC3    C111043   3.982   1.024   1.795  0.1097  0.2424 -0.1880
  744TMC3    C211044   3.937   1.149   1.833  0.1126  0.2843  0.4900
  744TMC3    C311045   3.804   1.175   1.814 -0.5519  0.0280 -0.0430
  744TMC3    C411046   3.907   0.944   1.724 -0.1602  0.4817 -0.2285
  744TMC3    C511047   3.780   0.977   1.689 -0.0522 -0.0996  0.4430
  744TMC3    C611048   3.728   1.090   1.742  0.0321  0.4134  0.2890
  744TMC3     C11049   4.127   1.019   1.779  0.1725  0.1711  0.3216
  744TMC3     O11050   4.160   0.931   1.699  0.3201 -0.3584  0.6331
  744TMC3     H11051   3.997   1.224   1.884  2.6132 -2.3798  1.4558
  744TMC3    H111052   3.949   0.851   1.687  1.9008  2.0330 -1.7466
  744TMC3    H211053   3.626   1.118   1.717  0.1799 -0.5041 -1.2902
  744TMC3    C711054   3.722   0.934   1.566  0.4125  0.2581  0.0667
  744TMC3    C811055   3.754   1.307   1.843  0.2315 -0.0914  0.0783
  744TMC3    O111056   3.626   0.994   1.516 -0.3716 -0.4737 -0.3044
  744TMC3    O211057   3.679   1.362   1.767 -0.4574 -0.5771  0.1166
  745TMC3    C111058   0.860   4.264  13.584  0.4604 -0.3703  0.2728
  745TMC3    C211059   0.742   4.205  13.623  0.0566 -0.5579 -0.4807
  745TMC3    C311060   0.634   4.223  13.552  0.9149 -0.0926  0.5135
  745TMC3    C411061   0.866   4.347  13.478  0.3611  1.0219  0.7021
  745TMC3    C511062   0.753   4.357  13.399 -0.3208  0.4923 -0.3034
  745TMC3    C611063   0.634   4.296  13.435 -0.2737 -0.1926 -0.3236
  745TMC3     C11064   0.925   4.301  13.712 -0.2606 -1.2547  0.2818
  745TMC3     O11065   0.895   4.237  13.808 -0.0497 -0.2192 -0.2199
  745TMC3     H11066   0.745   4.119  13.689 -0.6615 -0.8640 -0.8407
  745TMC3    H111067   0.962   4.390  13.448  1.0598 -0.6704  0.5361
  745TMC3    H211068   0.544   4.340  13.395  0.5988  2.8786  1.0868
  745TMC3    C711069   0.743   4.458  13.296  0.0593 -0.0137  0.6599
  745TMC3    C811070   0.529   4.252  13.641 -0.1335  0.2154 -0.8859
  745TMC3    O111071   0.631   4.499  13.271  0.0157 -0.4003  0.0679
  745TMC3    O211072   0.419   4.278  13.596  0.3581 -0.2166 -0.4926
  746TMC3    C111073   3.650   1.243  10.553 -0.4214  0.3029 -0.1116
  746TMC3    C211074   3.711   1.245  10.433 -0.9341 -0.1878 -0.1413
  746TMC3    C311075   3.696   1.140  10.352 -0.7661 -0.2324 -0.2602
  746TMC3    C411076   3.573   1.135  10.592 -0.5057 -0.3386 -0.3887
  746TMC3    C511077   3.545   1.033  10.494  1.2300 -0.5795 -0.3953
  746TMC3    C611078   3.605   1.037  10.365 -0.1306 -0.1934 -0.7401
  746TMC3     C11079   3.642   1.360  10.632  0.2192  0.7638 -0.1186
  746TMC3     O11080   3.626   1.339  10.752 -0.1180 -0.4832 -0.3203
  746TMC3     H11081   3.786   1.320  10.413 -1.2151 -0.2782 -1.5489
  746TMC3    H111082   3.515   1.133  10.683 -0.9484 -2.0611 -0.7155
  746TMC3    H211083   3.602   0.949  10.302  0.9279 -0.5571 -0.2936
  746TMC3    C711084   3.480   0.911  10.536 -0.6116  0.2916 -0.2389
  746TMC3    C811085   3.794   1.110  10.248  0.0841  0.5381 -0.5721
  746TMC3    O111086   3.415   0.845  10.460 -0.0018  0.0850 -0.6226
  746TMC3    O211087   3.809   0.997  10.204 -0.5040 -0.2441 -0.3670
  747TMC3    C111088   0.797   0.869  11.067  0.1114  0.0393 -0.0025
  747TMC3    C211089   0.721   0.884  11.177 -0.5280 -0.2452 -0.0249
  747TMC3    C311090   0.783   0.925  11.292  0.4060 -1.0719 -0.4556
  747TMC3    C411091   0.929   0.882  11.074  0.2945  0.8635 -0.3593
  747TMC3    C511092   0.981   0.917  11.192  0.0019 -0.3711  0.2732
  747TMC3    C611093   0.912   0.957  11.305  0.4460 -0.2930 -0.4829
  747TMC3     C11094   0.729   0.902  10.943 -0.3760 -0.1002 -0.1648
  747TMC3     O11095   0.615   0.940  10.950  0.4067 -0.0119  0.4468
  747TMC3     H11096   0.621   0.841  11.179  0.1166 -1.7683 -0.5431
  747TMC3    H111097   1.004   0.878  10.996 -1.0311  0.3749 -1.6061
  747TMC3    H211098   0.956   0.984  11.400 -2.4283  0.6196  0.5902
  747TMC3    C711099   1.128   0.932  11.201  0.5578 -1.1368 -0.6382
  747TMC3    C811100   0.726   0.877  11.416 -0.8541  0.5106 -0.2505
  747TMC3    O111101   1.166   1.029  11.267 -0.3037 -0.2895  0.3421
  747TMC3    O211102   0.642   0.786  11.402  0.7042  0.2589  0.5805
  748MPD2     C11103   3.036   2.322   1.716 -0.2049  0.3970  0.5413
  748MPD2    C111104   3.111   2.335   1.603 -0.0995  0.1465 -0.1366
  748MPD2    C211105   3.232   2.407   1.604 -0.2252  0.2396 -0.0687
  748MPD2    C311106   3.287   2.439   1.728 -0.2146 -0.1645  0.3665
  748MPD2    C411107   3.210   2.413   1.838 -0.4795 -0.5684  0.6358
  748MPD2    C511108   3.090   2.355   1.837 -0.3189  0.4596 -0.2287
  748MPD2     H11109   3.285   2.421   1.511 -0.7973 -1.3201 -0.6208
  748MPD2    H111110   3.245   2.438   1.937 -1.8460  1.1342  0.6803
  748MPD2    H211111   2.949   2.258   1.711 -0.6138  0.7857  2.9731
  748MPD2    H311112   3.041   2.345   1.934  0.7450  0.1678  0.2777
  748MPD2     N11113   3.413   2.495   1.720 -0.5404  0.0919 -0.0419
  748MPD2    H511114   3.446   2.518   1.626 -1.0714  2.2344  0.2915
  748MPD2    N111115   3.049   2.280   1.483 -0.0853  0.1670  0.2485
  748MPD2    H711116   2.954   2.246   1.492 -0.3981  0.9646 -0.0694
  749TMC3    C111117   3.612   2.591   1.797 -0.1499 -0.9068 -0.9655
  749TMC3    C211118   3.718   2.543   1.868  0.3013 -0.9952  0.0394
  749TMC3    C311119   3.847   2.564   1.817  0.4685  0.2635 -0.7703
  749TMC3    C411120   3.628   2.666   1.683 -0.6953  0.2989 -0.0328
  749TMC3    C511121   3.751   2.671   1.630  0.8073 -1.6833  0.4831
  749TMC3    C611122   3.857   2.623   1.697  0.4711  0.2749 -0.0815
  749TMC3     C11123   3.486   2.529   1.829 -0.1545 -0.2211  0.4002
  749TMC3     O11124   3.467   2.477   1.936  0.8756  0.6780 -0.8009
  749TMC3     H11125   3.704   2.488   1.961 -3.9775 -0.8784 -0.5499
  749TMC3    H111126   3.546   2.713   1.632 -0.7929 -0.0503 -0.1958
  749TMC3    H211127   3.957   2.632   1.656  1.2045 -1.1942  1.3882
  749TMC3    C711128   3.774   2.751   1.515  0.6527 -0.0100 -0.2345
  749TMC3    C811129   3.944   2.463   1.859 -0.3221 -0.4226 -0.0320
  749TMC3    O111130   3.869   2.829   1.532  0.3363  0.4495 -0.0691
  749TMC3    O211131   3.933   2.417   1.970  0.4033 -0.2655 -0.1318
  750MPD2     C11132   3.469   3.304  10.747 -0.2364  0.9120 -0.7002
  750MPD2    C111133   3.528   3.258  10.869  0.1366  1.6480 -0.1586
  750MPD2    C211134   3.583   3.123  10.872  0.3189  0.5835  0.2543
  750MPD2    C311135   3.564   3.035  10.765  0.4822 -0.3337 -0.0043
  750MPD2    C411136   3.499   3.083  10.657  0.2415 -0.4199 -0.7039
  750MPD2    C511137   3.461   3.212  10.647 -0.7374  0.0724 -0.1696
  750MPD2     H11138   3.644   3.096  10.957 -1.5099 -0.7025  1.1519
  750MPD2    H111139   3.477   3.013  10.578  2.2826 -1.5392 -0.2692
  750MPD2    H211140   3.439   3.406  10.726  0.6210  1.4542  0.6922
  750MPD2    H311141   3.410   3.245  10.556 -0.7817  0.2226 -0.0907
  750MPD2     N11142   3.613   2.899  10.771  0.6943  0.0417  0.2254
  750MPD2    H511143   3.684   2.871  10.838  1.9191 -1.1443 -1.5539
  750MPD2    N111144   3.537   3.348  10.971 -0.1554 -0.8631  0.2447
  750MPD2    H711145   3.504   3.442  10.948  0.2835 -0.4295  1.3471
  751TMC3    C111146   3.638   2.676  10.738  0.2715  0.4784  0.3943
  751TMC3    C211147   3.587   2.580  10.815  0.4265  0.4260  0.4205
  751TMC3    C311148   3.644   2.461  10.810  0.1603 -0.0759 -0.1305
  751TMC3    C411149   3.734   2.648  10.649 -0.3764 -0.2034  0.3136
  751TMC3    C511150   3.791   2.523  10.647  0.2687 -0.5564 -0.1114
  751TMC3    C611151   3.760   2.430  10.742 -0.1855 -0.5069 -0.8330
  751TMC3     C11152   3.566   2.793  10.703  0.0906 -0.0464  0.1914
  751TMC3     O11153   3.463   2.789  10.641 -0.1225 -0.4460  0.2993
  751TMC3     H11154   3.491   2.600  10.862  0.6946  1.9985  0.3042
  751TMC3    H111155   3.770   2.725  10.581  1.3985  0.3506  1.8758
  751TMC3    H211156   3.803   2.331  10.734 -0.7468 -0.7944 -0.2610
  751TMC3    C711157   3.815   2.471  10.513  0.4437 -0.5300 -0.5300
  751TMC3    C811158   3.549   2.352  10.796 -0.3428 -0.2359 -0.7087
  751TMC3    O111159   3.866   2.542  10.428  0.4221 -0.3323 -0.6636
  751TMC3    O211160   3.569   2.288  10.697 -0.5654  0.0874 -0.0477
  752TMC3    C111161   2.987   2.588  15.951  1.0243 -0.0081  0.2245
  752TMC3    C211162   2.999   2.552  16.079  0.3137  0.0147  0.1325
  752TMC3    C311163   3.123   2.533  16.126  0.2338 -0.3817 -0.2545
  752TMC3    C411164   3.091   2.598  15.870 -0.2462  0.7910 -0.0877
  752TMC3    C511165   3.211   2.556  15.912  0.5963 -0.7810  0.3490
  752TMC3    C611166   3.232   2.524  16.044 -0.5894 -0.0824 -0.1337
  752TMC3     C11167   2.865   2.649  15.899  0.0900  0.0629  0.4230
  752TMC3     O11168   2.864   2.663  15.780  0.1233  0.7211  0.2324
  752TMC3     H11169   2.916   2.557  16.149 -0.7820  1.0867 -1.2485
  752TMC3    H111170   3.079   2.629  15.767  0.9268 -0.1251 -0.5000
  752TMC3    H211171   3.334   2.519  16.079 -0.1625  1.1135 -1.1784
  752TMC3    C711172   3.317   2.644  15.864 -0.7299 -0.2791  0.5718
  752TMC3    C811173   3.141   2.575  16.263 -0.3785  0.3189  0.2642
  752TMC3    O111174   3.433   2.603  15.868 -0.0148  0.2069  0.7179
  752TMC3    O211175   3.056   2.660  16.295 -0.2771  0.1236 -0.1692
  753TMC3    C111176   4.537   4.393  13.515 -0.3383 -0.6278 -0.1415
  753TMC3    C211177   4.579   4.394  13.646 -0.8241 -0.1823 -0.6129
  753TMC3    C311178   4.573   4.276  13.712  0.2700  0.6207 -0.5310
  753TMC3    C411179   4.501   4.283  13.447 -0.3773  0.4761 -0.1346
  753TMC3    C511180   4.505   4.165  13.516  0.1073 -0.0401 -0.0403
  753TMC3    C611181   4.525   4.166  13.647 -0.2151  0.3825 -0.3243
  753TMC3     C11182   4.513   4.520  13.455  0.8718  0.1568  0.0332
  753TMC3     O11183   4.552   4.618  13.511  0.6359  0.6522  0.2290
  753TMC3     H11184   4.597   4.491  13.692 -0.1857  0.7811 -2.8935
  753TMC3    H111185   4.468   4.281  13.344  0.3624  2.2091 -0.4126
  753TMC3    H211186   4.502   4.075  13.702  1.7857 -0.1269 -0.3047
  753TMC3    C711187   4.417   4.063  13.464 -0.0042 -0.8965 -0.3818
  753TMC3    C811188   4.603   4.274  13.849  0.0706 -0.6023  0.6067
  753TMC3    O111189   4.348   3.994  13.542 -0.1701 -0.0228  0.3273
  753TMC3    O211190   4.557   4.173  13.906 -0.4018  0.0835  0.0791
  754MPD2     C11191   3.843   3.013  13.096 -0.3727 -0.0208  0.2434
  754MPD2    C111192   3.746   3.040  13.187  0.3809  0.9537 -0.2444
  754MPD2    C211193   3.646   3.128  13.144  0.0689  0.1372 -0.1495
  754MPD2    C311194   3.640   3.179  13.017 -0.6274 -1.0318  0.2601
  754MPD2    C411195   3.744   3.150  12.931  0.4792 -0.3614 -0.0086
  754MPD2    C511196   3.845   3.078  12.977 -0.7646  0.0250  0.3931
  754MPD2     H11197   3.564   3.147  13.212  0.3622 -1.0944  0.5486
  754MPD2    H111198   3.747   3.176  12.826  0.9212  0.0721  0.1141
  754MPD2    H211199   3.922   2.940  13.113 -0.3723  0.0749  0.6588
  754MPD2    H311200   3.926   3.054  12.910  0.7065 -1.8777  2.8720
  754MPD2     N11201   3.517   3.240  12.973 -0.0181  0.4130 -0.8012
  754MPD2    H511202   3.500   3.238  12.872 -0.0538 -0.3566 -0.7861
  754MPD2    N111203   3.731   2.959  13.303 -0.0225 -0.2314  0.7104
  754MPD2    H711204   3.812   2.904  13.330  0.3023  0.7012  1.6529
  755MPD2     C11205   2.656   3.662  13.307  0.2151 -0.1555 -0.1855
  755MPD2    C111206   2.622   3.537  13.274  0.5342 -0.1063 -1.1744
  755MPD2    C211207   2.726   3.452  13.231  0.3826  0.7136 -0.1861
  755MPD2    C311208   2.858   3.486  13.217  0.2468  0.2092 -0.0054
  755MPD2    C411209   2.883   3.618  13.251 -0.2729 -0.3044  0.1533
  755MPD2    C511210   2.782   3.703  13.287 -0.3996  0.3404 -0.4269
  755MPD2     H11211   2.691   3.352  13.210 -0.3449  1.2132 -1.3658
  755MPD2    H111212   2.983   3.658  13.237 -0.5106  0.4241  0.5873
  755MPD2    H211213   2.583   3.737  13.336 -2.3600 -1.7458 -2.5829
  755MPD2    H311214   2.809   3.805  13.313 -1.3493  0.9468 -1.8561
  755MPD2     N11215   2.963   3.400  13.170 -0.0882 -0.0450  0.0897
  755MPD2    H511216   3.059   3.434  13.171 -0.7050  1.6528  2.0200
  755MPD2    N111217   2.502   3.471  13.296  0.6929  0.7529 -0.3437
  755MPD2    H711218   2.500   3.374  13.269 -0.3426 -0.1478  2.9756
  756MPD2     C11219   2.845   3.514   9.666  0.4040 -0.0188  0.7733
  756MPD2    C111220   2.787   3.390   9.686 -0.1130  0.2605  1.1024
  756MPD2    C211221   2.648   3.378   9.670  0.1514  0.1014  0.0109
  756MPD2    C311222   2.572   3.484   9.629 -0.3604  0.8752  0.0288
  756MPD2    C411223   2.638   3.601   9.598 -0.8200  0.2722 -0.2476
  756MPD2    C511224   2.771   3.614   9.612 -0.0890  0.6320 -0.9649
  756MPD2     H11225   2.600   3.281   9.682  0.7603 -0.1802  0.1799
  756MPD2    H111226   2.578   3.681   9.557 -1.8177 -0.1018  0.4859
  756MPD2    H211227   2.948   3.532   9.695 -0.5551  1.7951  3.0941
  756MPD2    H311228   2.811   3.712   9.588 -1.4963  1.2854 -0.6300
  756MPD2     N11229   2.431   3.474   9.630  0.3169  0.8172  0.5394
  756MPD2    H511230   2.396   3.382   9.655 -0.0105  1.0758  1.0199
  756MPD2    N111231   2.854   3.281   9.739 -0.0040  0.0198 -0.5503
  756MPD2    H711232   2.797   3.201   9.765 -1.2414  1.3030  0.6686
  757MPD2     C11233   2.030   2.796   9.902  0.2606 -0.3642  0.3006
  757MPD2    C111234   2.154   2.827   9.850  0.4958 -0.2820 -0.0318
  757MPD2    C211235   2.159   2.950   9.798 -0.1664 -0.7963  0.1195
  757MPD2    C311236   2.049   3.026   9.772  0.2648 -0.1919 -1.2047
  757MPD2    C411237   1.928   2.989   9.820  0.0551  0.3448  0.5631
  757MPD2    C511238   1.922   2.869   9.885  0.2853  0.1680  0.6750
  757MPD2     H11239   2.255   2.990   9.766 -0.2241 -0.8935 -0.1722
  757MPD2    H111240   1.836   3.046   9.811  0.7308  1.1756 -0.9441
  757MPD2    H211241   2.019   2.702   9.955 -0.1559 -0.2043  0.4976
  757MPD2    H311242   1.831   2.842   9.937  0.0430  1.1843  0.7943
  757MPD2     N11243   2.076   3.159   9.732  0.9909  0.3933  0.1538
  757MPD2    H511244   2.173   3.186   9.720  1.2898  0.2283  2.2801
  757MPD2    N111245   2.265   2.741   9.867  0.7800 -0.5301 -0.7049
  757MPD2    H711246   2.244   2.648   9.902 -0.2579 -0.2957 -0.7139
  758MPD2     C11247   3.579   2.805  16.159  0.5690 -0.4592 -0.0822
  758MPD2    C111248   3.669   2.754  16.243 -0.0234 -0.1990  0.3140
  758MPD2    C211249   3.691   2.811  16.366  0.0965 -0.4015  0.0216
  758MPD2    C311250   3.615   2.926  16.403  0.2527 -0.5866  0.5633
  758MPD2    C411251   3.513   2.973  16.321  0.6682 -1.2143  0.2922
  758MPD2    C511252   3.500   2.917  16.194  0.2936 -0.5048  0.5435
  758MPD2     H11253   3.767   2.766  16.429 -0.5414 -0.7145  0.5656
  758MPD2    H111254   3.451   3.057  16.352  0.6517 -1.3757  0.6984
  758MPD2    H211255   3.563   2.757  16.063  0.6388 -0.8942  0.1234
  758MPD2    H311256   3.437   2.964  16.120  2.3891  0.5337 -0.5797
  758MPD2     N11257   3.624   2.989  16.531  0.2841 -0.6293 -0.5477
  758MPD2    H511258   3.544   3.043  16.562  0.5990  0.6442 -1.9496
  758MPD2    N111259   3.751   2.651  16.194  0.0772 -0.6566  0.0520
  758MPD2    H711260   3.756   2.634  16.095 -1.2318 -1.3982  0.1109
  759MPD2     C11261   1.739   0.113  10.293 -0.1797  1.0481 -0.2015
  759MPD2    C111262   1.656   0.037  10.212 -0.2490 -0.4715 -0.4226
  759MPD2    C211263   1.670   0.039  10.078  0.0635 -0.0500 -0.5585
  759MPD2    C311264   1.766   0.119  10.021 -1.2328 -0.5822 -0.2449
  759MPD2    C411265   1.853   0.192  10.103 -0.4971  0.4058  0.9087
  759MPD2    C511266   1.839   0.193  10.237 -0.3756 -0.0984 -0.1997
  759MPD2     H11267   1.614   4.710  10.013 -0.2784 -0.1712 -0.1451
  759MPD2    H111268   1.928   0.256  10.057 -0.5773 -0.0673  0.1307
  759MPD2    H211269   1.726   0.102  10.400 -0.6046  0.4595 -0.3108
  759MPD2    H311270   1.904   0.252  10.301  0.9731 -0.9306 -0.7933
  759MPD2     N11271   1.782   0.121   9.878  0.0722  0.3163 -0.3982
  759MPD2    H511272   1.724   0.059   9.822 -0.5934  0.0447  0.6044
  759MPD2    N111273   1.557   4.682  10.254 -0.1300 -0.6041 -0.1100
  759MPD2    H711274   1.510   4.624  10.186 -0.9566 -1.4870  1.1994
  760MPD2     C11275   1.719   3.332  11.894  0.1771 -0.1193  0.1247
  760MPD2    C111276   1.846   3.321  11.941  0.1892  0.3295  0.5832
  760MPD2    C211277   1.916   3.216  11.896 -0.1175  0.2075  0.8417
  760MPD2    C311278   1.866   3.124  11.810  0.2455  0.5739  0.4994
  760MPD2    C411279   1.736   3.133  11.764  0.5229  0.2155  0.0528
  760MPD2    C511280   1.665   3.241  11.813 -0.1210  0.3870 -0.3330
  760MPD2     H11281   2.018   3.202  11.930 -0.6578  1.9862  3.2386
  760MPD2    H111282   1.681   3.068  11.696  1.0890 -3.0944  2.7703
  760MPD2    H211283   1.648   3.406  11.929  0.0016 -0.2675  0.0826
  760MPD2    H311284   1.565   3.260  11.774  0.3507  3.4443 -0.0996
  760MPD2     N11285   1.947   3.019  11.754 -0.2557 -0.4007  0.1202
  760MPD2    H511286   1.897   2.962  11.687 -0.4580 -0.2345  0.1297
  760MPD2    N111287   1.914   3.422  12.014 -0.3902  0.5216 -0.3446
  760MPD2    H711288   2.010   3.401  12.039  0.8666  1.7069 -4.1819
  761MPD2     C11289   3.186   2.030  10.931 -0.1998  0.0628  0.1251
  761MPD2    C111290   3.267   2.037  10.822 -0.1405  0.0709  0.8728
  761MPD2    C211291   3.349   2.145  10.801 -0.6681 -0.8056 -0.4493
  761MPD2    C311292   3.356   2.244  10.895  0.2505 -0.6401 -0.0486
  761MPD2    C411293   3.270   2.236  11.006 -0.3647 -0.0794 -0.2483
  761MPD2    C511294   3.191   2.127  11.027 -0.0722 -0.1746 -0.2242
  761MPD2     H11295   3.415   2.139  10.715  1.8938  0.4148  1.4327
  761MPD2    H111296   3.265   2.304  11.090 -1.0699  0.4768 -0.7483
  761MPD2    H211297   3.123   1.943  10.949 -1.2089  0.7735  0.0463
  761MPD2    H311298   3.121   2.125  11.109  0.3284  0.5269  0.1336
  761MPD2     N11299   3.450   2.341  10.893 -0.3411  0.6058 -0.2422
  761MPD2    H511300   3.469   2.402  10.972  0.1199 -0.0557  0.1551
  761MPD2    N111301   3.256   1.932  10.731 -0.7909  0.2717 -0.2986
  761MPD2    H711302   3.196   1.857  10.763  0.0432  0.1949  1.0747
  762MPD2     C11303   3.354   2.004   9.967  0.4473  0.0300  0.6910
  762MPD2    C111304   3.419   1.901  10.020 -0.4400  0.4553  0.4687
  762MPD2    C211305   3.539   1.860   9.982  0.6240  0.0570 -0.5450
  762MPD2    C311306   3.612   1.928   9.880  0.3003 -0.0394  0.4067
  762MPD2    C411307   3.550   2.033   9.817  0.2495  0.3689  0.5877
  762MPD2    C511308   3.415   2.068   9.858 -0.0373 -0.5403 -0.3341
  762MPD2     H11309   3.587   1.771  10.019 -1.6469 -1.1998 -0.5944
  762MPD2    H111310   3.592   2.092   9.736  4.0549 -2.8316  0.2568
  762MPD2    H211311   3.253   2.036   9.992  0.5054  0.7014  0.0709
  762MPD2    H311312   3.363   2.151   9.812 -0.2119 -1.0377 -1.0323
  762MPD2     N11313   3.737   1.881   9.829  0.4204 -0.1397  0.2907
  762MPD2    H511314   3.768   1.792   9.866  0.5456 -0.2627 -0.1028
  762MPD2    N111315   3.351   1.831  10.121  0.2134 -0.1518  0.1531
  762MPD2    H711316   3.261   1.866  10.152  0.1445 -0.1098 -0.0978
  763MPD2     C11317   0.293   2.395  16.093 -0.2426  1.1231 -1.1055
  763MPD2    C111318   0.325   2.464  15.979  0.6805 -0.4602 -0.4500
  763MPD2    C211319   0.343   2.596  15.999  0.2505 -0.6055 -0.0232
  763MPD2    C311320   0.357   2.656  16.127  0.5451 -0.3799  0.0683
  763MPD2    C411321   0.331   2.579  16.232  0.7009  0.3369 -0.7121
  763MPD2    C511322   0.287   2.452  16.210 -0.1499  0.4324 -0.1164
  763MPD2     H11323   0.363   2.658  15.912 -0.8939  0.5445  0.5316
  763MPD2    H111324   0.334   2.616  16.333  1.3643  0.7016 -0.8682
  763MPD2    H211325   0.298   2.287  16.098 -2.0176  1.2116  2.1104
  763MPD2    H311326   0.274   2.378  16.288 -1.4350 -0.8321 -1.5253
  763MPD2     N11327   0.402   2.789  16.155  0.1198  0.0425 -0.8236
  763MPD2    H511328   0.406   2.816  16.253  0.9646  0.9208 -1.0975
  763MPD2    N111329   0.321   2.410  15.849 -0.7943 -0.2034 -0.4068
  763MPD2    H711330   0.334   2.475  15.773  0.5261 -0.5864 -0.5082
  764MPD2     C11331   3.947   4.459   0.273  0.0543 -0.6111 -0.3975
  764MPD2    C111332   3.816   4.477   0.267 -0.2013  0.5689 -0.5085
  764MPD2    C211333   3.744   4.452   0.385 -0.2268  0.3741  0.5704
  764MPD2    C311334   3.808   4.404   0.495 -0.5786  0.2570 -0.5077
  764MPD2    C411335   3.945   4.382   0.490 -0.0436 -0.1328  0.3731
  764MPD2    C511336   4.018   4.417   0.384  0.4414 -0.1851  0.0875
  764MPD2     H11337   3.637   4.473   0.383 -0.2065  0.6999  2.4755
  764MPD2    H111338   3.992   4.343   0.579 -2.2416 -1.3243  0.9870
  764MPD2    H211339   4.010   4.475   0.186  0.4151 -0.1915 -0.0534
  764MPD2    H311340   4.121   4.385   0.383  0.2942 -0.6666  0.3406
  764MPD2     N11341   3.717   4.366   0.598  0.2688  0.2593  0.0574
  764MPD2    H511342   3.620   4.352   0.572  0.0045  1.2397  0.5233
  764MPD2    N111343   3.741   4.509   0.143  0.0267  0.1286  0.4323
  764MPD2    H711344   3.648   4.549   0.152  0.0767  0.2246  0.5256
  765MPD2     C11345   3.375   1.794  15.178  0.0052  0.1446  0.0293
  765MPD2    C111346   3.329   1.790  15.312  0.4367 -0.5201  0.6574
  765MPD2    C211347   3.426   1.788  15.412  0.2747 -0.5170  0.7438
  765MPD2    C311348   3.557   1.813  15.394  0.2694 -0.4320 -0.4293
  765MPD2    C411349   3.599   1.831  15.260  0.2646 -0.0281 -0.5179
  765MPD2    C511350   3.508   1.816  15.158  0.0097 -0.2650 -0.0309
  765MPD2     H11351   3.398   1.784  15.517 -2.6730  1.9528  0.0587
  765MPD2    H111352   3.700   1.859  15.231 -0.0535  0.8440 -0.7686
  765MPD2    H211353   3.315   1.777  15.089 -1.9933 -0.4368  1.4997
  765MPD2    H311354   3.545   1.819  15.056 -0.1834 -2.9321 -0.1791
  765MPD2     N11355   3.638   1.820  15.506  0.1487 -0.6554  0.4859
  765MPD2    H511356   3.601   1.790  15.595  1.6943 -0.7111  1.1057
  765MPD2    N111357   3.189   1.819  15.337  0.1347  0.0727 -0.4761
  765MPD2    H711358   3.132   1.838  15.255 -1.9256  2.2112  1.4623
  766MPD2     C11359   2.623   1.896  14.970  0.7010  0.7960 -0.3654
  766MPD2    C111360   2.753   1.929  14.994 -0.4248  0.1932  0.2198
  766MPD2    C211361   2.829   1.970  14.892  0.2258  0.7349 -0.0505
  766MPD2    C311362   2.773   1.973  14.765 -0.6367  0.1290 -0.5885
  766MPD2    C411363   2.648   1.920  14.741  0.3272  0.0818  0.4119
  766MPD2    C511364   2.564   1.885  14.844  0.4328 -0.5168 -0.1112
  766MPD2     H11365   2.926   2.011  14.917  1.2418 -0.4270 -2.0854
  766MPD2    H111366   2.617   1.921  14.637 -0.3750  0.2113  0.6216
  766MPD2    H211367   2.560   1.868  15.053  2.8499 -0.7638  0.7489
  766MPD2    H311368   2.463   1.855  14.821 -0.2989  1.4485  0.5837
  766MPD2     N11369   2.830   2.049  14.663  0.6749  0.2740 -0.3895
  766MPD2    H511370   2.777   2.053  14.576 -0.0678  0.1456  0.0602
  766MPD2    N111371   2.802   1.939  15.133 -0.0833 -0.2893 -0.1750
  766MPD2    H711372   2.901   1.931  15.154 -0.7265 -2.8346  1.8762
  767MPD2     C11373   2.367   2.162  14.912  0.3572 -0.2391  0.2811
  767MPD2    C111374   2.472   2.221  14.839  0.2037 -0.3984 -0.6149
  767MPD2    C211375   2.461   2.243  14.702  0.4812 -0.2491 -0.7891
  767MPD2    C311376   2.357   2.185  14.629 -0.0160  0.0513 -0.0590
  767MPD2    C411377   2.256   2.115  14.697 -0.6810 -0.0804 -0.3832
  767MPD2    C511378   2.258   2.112  14.839  0.5147 -0.3893 -0.3207
  767MPD2     H11379   2.542   2.288  14.647  3.8207 -1.2507  3.3349
  767MPD2    H111380   2.169   2.075  14.646 -0.2714 -0.1779 -1.0081
  767MPD2    H211381   2.369   2.151  15.019  0.2499  1.6659  0.4801
  767MPD2    H311382   2.181   2.063  14.897 -0.0162  0.3106 -0.4339
  767MPD2     N11383   2.351   2.215  14.494 -0.7663 -0.0220  0.2467
  767MPD2    H511384   2.441   2.253  14.465 -0.8623  0.4738  0.5876
  767MPD2    N111385   2.578   2.277  14.917 -0.4271 -0.4747 -0.6583
  767MPD2    H711386   2.574   2.255  15.016 -2.2403 -0.2707 -0.6833
  768MPD2     C11387   3.016   0.489  10.462 -0.0179  0.5486  0.1952
  768MPD2    C111388   2.990   0.396  10.564  0.3407  0.4532  0.4009
  768MPD2    C211389   3.086   0.355  10.656 -0.2929  0.2980 -0.1838
  768MPD2    C311390   3.211   0.413  10.654 -0.1700 -0.0151 -0.1378
  768MPD2    C411391   3.239   0.510  10.554  0.0877  0.4141  0.6633
  768MPD2    C511392   3.146   0.543  10.459 -0.6255 -0.1389 -0.5005
  768MPD2     H11393   3.064   0.282  10.733 -1.9077  0.5341 -0.4145
  768MPD2    H111394   3.336   0.558  10.553 -0.2071  0.9791 -0.9563
  768MPD2    H211395   2.928   0.524  10.410  0.2024 -1.0101 -1.2472
  768MPD2    H311396   3.173   0.616  10.383  0.5013  1.7649  1.7420
  768MPD2     N11397   3.313   0.382  10.741 -0.1920 -0.5456 -0.4469
  768MPD2    H511398   3.401   0.432  10.734 -1.1082  1.0844 -0.2853
  768MPD2    N111399   2.853   0.356  10.571 -0.3062 -0.0926  0.1592
  768MPD2    H711400   2.782   0.395  10.510 -0.6087  1.7030  1.6621
  769MPD2     C11401   4.267   3.937  14.772  0.0368  0.5774 -0.5014
  769MPD2    C111402   4.159   3.931  14.850  0.4331  0.5443 -0.3924
  769MPD2    C211403   4.149   4.019  14.956  0.4587  0.5374  0.1274
  769MPD2    C311404   4.250   4.106  14.991 -0.5324  0.0106 -0.3723
  769MPD2    C411405   4.363   4.106  14.906  0.1991 -0.3816 -0.5129
  769MPD2    C511406   4.373   4.018  14.805  0.7203  0.3524 -0.6626
  769MPD2     H11407   4.064   4.004  15.021 -0.0816  0.0589 -0.6897
  769MPD2    H111408   4.449   4.172  14.909 -1.7694  2.1265  0.7692
  769MPD2    H211409   4.272   3.869  14.687 -0.9495  0.3217 -0.3536
  769MPD2    H311410   4.458   4.013  14.739  0.5018 -0.8567 -0.8644
  769MPD2     N11411   4.232   4.198  15.100  0.6851  0.1628 -0.1411
  769MPD2    H511412   4.143   4.185  15.148  0.1037 -0.8723 -1.4761
  769MPD2    N111413   4.054   3.836  14.808  0.4485  0.8010 -0.0403
  769MPD2    H711414   4.080   3.764  14.742  1.2342 -0.3277  1.4845
  770MPD2     C11415   3.429   2.991  15.053 -0.1655 -0.2091  0.5237
  770MPD2    C111416   3.564   3.005  15.043 -0.3473 -0.2895  0.6490
  770MPD2    C211417   3.606   3.128  14.994 -0.1432  0.0234 -0.8851
  770MPD2    C311418   3.519   3.228  14.960 -0.8316 -0.0973 -0.4625
  770MPD2    C411419   3.389   3.204  14.959  0.2343  0.5808  0.3435
  770MPD2    C511420   3.340   3.089  15.007 -0.4730 -0.1856  0.4325
  770MPD2     H11421   3.711   3.140  14.971  0.1567 -2.1083 -0.6400
  770MPD2    H111422   3.322   3.274  14.910 -0.1744 -0.5967 -0.7790
  770MPD2    H211423   3.386   2.899  15.090 -0.1253 -0.1301  0.7695
  770MPD2    H311424   3.233   3.072  15.005 -0.4755 -0.1318  0.1840
  770MPD2     N11425   3.567   3.352  14.907 -0.2307 -0.5878  0.4072
  770MPD2    H511426   3.495   3.403  14.856 -0.6388 -1.9725 -0.3740
  770MPD2    N111427   3.653   2.894  15.076  0.3035 -0.9646 -0.0450
  770MPD2    H711428   3.606   2.813  15.115 -1.7207 -0.7866 -2.1289
  771MPD2     C11429   0.036   0.958  13.507  0.4104  0.2436  0.6728
  771MPD2    C111430   4.703   1.064  13.454  0.2776  0.1663 -0.6398
  771MPD2    C211431   4.689   1.072  13.315 -0.1948 -0.2462 -0.4535
  771MPD2    C311432   0.018   0.982  13.239  0.5582 -0.7633 -0.0701
  771MPD2    C411433   0.094   0.877  13.286  0.0376 -1.0664  0.3791
  771MPD2    C511434   0.103   0.865  13.426  0.1006 -0.6817 -0.7229
  771MPD2     H11435   4.640   1.151  13.260  0.8292  0.5607 -0.2044
  771MPD2    H111436   0.150   0.809  13.222 -1.3787 -0.4075 -1.5663
  771MPD2    H211437   0.028   0.934  13.612 -1.4435 -1.9219  0.0303
  771MPD2    H311438   0.171   0.794  13.472  3.3386  2.2624 -0.9423
  771MPD2     N11439   0.003   0.999  13.099  0.0198 -0.4356  0.6176
  771MPD2    H511440   4.668   1.064  13.068  0.3518 -0.6574 -0.5970
  771MPD2    N111441   4.656   1.164  13.543 -0.5414  0.0757 -0.0935
  771MPD2    H711442   4.681   1.162  13.641  0.3609  1.7036 -0.2905
  772MPD2     C11443   4.031   1.710  13.619  0.3995  0.4821  0.1264
  772MPD2    C111444   4.093   1.596  13.568  0.4682 -0.1734  0.5960
  772MPD2    C211445   4.006   1.496  13.527 -0.3879  0.2561  0.5172
  772MPD2    C311446   3.869   1.518  13.512  0.5932  0.2155 -0.4751
  772MPD2    C411447   3.817   1.636  13.562  0.5263 -0.6594  0.7526
  772MPD2    C511448   3.898   1.733  13.614 -0.2724  0.0406 -0.0345
  772MPD2     H11449   4.053   1.405  13.490 -2.5536  0.4236 -2.6258
  772MPD2    H111450   3.712   1.663  13.565 -0.0538 -2.7989 -0.3406
  772MPD2    H211451   4.093   1.792  13.651  1.0302 -0.7596  2.0317
  772MPD2    H311452   3.857   1.828  13.645  1.6514  0.2596  1.8520
  772MPD2     N11453   3.773   1.437  13.448  0.2393 -0.3211 -0.9110
  772MPD2    H511454   3.682   1.480  13.435  0.8298  1.1183 -0.3653
  772MPD2    N111455   4.234   1.571  13.569 -0.1269 -0.3119  0.0015
  772MPD2    H711456   4.252   1.476  13.537 -1.3172 -1.3168  2.3660
  773MPD2     C11457   4.550   3.098   0.264  0.1022 -0.3807  0.2529
  773MPD2    C111458   4.440   3.026   0.230  0.4273  0.5879 -0.7276
  773MPD2    C211459   4.389   2.940   0.322  0.5623  0.3063  0.1418
  773MPD2    C311460   4.454   2.914   0.440  0.1847 -0.1159  0.5649
  773MPD2    C411461   4.576   2.979   0.473 -0.0710  0.3147  0.2153
  773MPD2    C511462   4.620   3.077   0.381 -0.0023 -0.3061  0.6746
  773MPD2     H11463   4.298   2.891   0.292  1.0321 -0.3229 -0.2498
  773MPD2    H111464   4.640   2.967   0.559 -0.4689 -0.6872  0.3722
  773MPD2    H211465   4.583   3.188   0.212 -0.7930  0.6315  1.4236
  773MPD2    H311466   4.704   3.142   0.401  0.6136 -0.8864 -0.0301
  773MPD2     N11467   4.392   2.824   0.529  0.3024 -0.5953 -0.1195
  773MPD2    H511468   4.311   2.772   0.496  1.5446 -2.9307  0.5166
  773MPD2    N111469   4.359   3.056   0.116 -0.4756  0.0670  0.3872
  773MPD2    H711470   4.262   3.026   0.114  0.4755 -3.0379  0.9997
  774MPD2     C11471   3.295   2.265  12.760  0.0103  0.3999 -0.0908
  774MPD2    C111472   3.190   2.297  12.844  0.2829 -0.0098  0.6777
  774MPD2    C211473   3.184   2.418  12.910  0.7847  0.8615 -0.3710
  774MPD2    C311474   3.301   2.503  12.914  0.0380  0.0785  0.3203
  774MPD2    C411475   3.407   2.469  12.832 -0.2079  0.5800 -0.3318
  774MPD2    C511476   3.399   2.357  12.750 -0.4826 -0.0645 -0.3147
  774MPD2     H11477   3.113   2.447  12.987  0.1408 -3.0348  0.4557
  774MPD2    H111478   3.493   2.535  12.822 -1.0001  1.4965 -1.1041
  774MPD2    H211479   3.303   2.177  12.697  0.3857 -0.5656  1.3081
  774MPD2    H311480   3.496   2.337  12.704 -0.9593 -1.6904 -0.6013
  774MPD2     N11481   3.311   2.612  13.002  0.0464 -0.6038  0.0538
  774MPD2    H511482   3.235   2.628  13.068  0.9238  1.0669  0.6850
  774MPD2    N111483   3.086   2.199  12.860 -0.2878 -0.9340 -0.3999
  774MPD2    H711484   3.106   2.105  12.828  1.0701 -0.2445 -1.5621
  775MPD2     C11485   4.435   4.172  15.832 -0.1207 -0.1315  0.1246
  775MPD2    C111486   4.487   4.258  15.924  0.5254  0.8021  0.0210
  775MPD2    C211487   4.560   4.370  15.894 -0.0691 -0.2323  0.6853
  775MPD2    C311488   4.592   4.390  15.761 -0.6159 -0.2128  0.8210
  775MPD2    C411489   4.546   4.299  15.666  0.2152 -0.0300 -0.4870
  775MPD2    C511490   4.473   4.190  15.704  0.3491  0.6238 -0.8769
  775MPD2     H11491   4.606   4.441  15.962  2.1180  0.6369 -1.7169
  775MPD2    H111492   4.571   4.313  15.562 -0.8942  0.4955 -0.6792
  775MPD2    H211493   4.378   4.083  15.860 -0.4680 -0.3810 -1.3936
  775MPD2    H311494   4.439   4.119  15.628 -0.2372 -2.0937  1.8983
  775MPD2     N11495   4.665   4.505  15.723 -0.8462 -0.3557  0.1541
  775MPD2    H511496   4.692   4.503  15.625 -2.5521 -1.7925 -0.2994
  775MPD2    N111497   4.461   4.221  16.056 -0.3662 -0.0761  0.2831
  775MPD2    H711498   4.394   4.146  16.069 -0.8085  0.2971  0.1728
  776MPD2     C11499   3.457   4.019  10.926  0.4676  0.5734  0.6193
  776MPD2    C111500   3.556   3.976  11.017 -0.9733 -0.5711  1.1781
  776MPD2    C211501   3.673   4.051  11.034  0.4593 -0.2804 -0.1588
  776MPD2    C311502   3.698   4.161  10.949  0.3548  0.8054 -0.1559
  776MPD2    C411503   3.596   4.207  10.871  0.3650  0.4780 -0.1641
  776MPD2    C511504   3.474   4.144  10.864 -0.0875  0.6203 -0.0074
  776MPD2     H11505   3.751   4.012  11.100  0.8044 -0.4974 -0.6953
  776MPD2    H111506   3.614   4.298  10.815  2.3575  0.4537  0.4370
  776MPD2    H211507   3.359   3.973  10.925 -0.1272  1.9094 -2.9867
  776MPD2    H311508   3.393   4.191  10.808 -1.8627 -0.3448  1.7626
  776MPD2     N11509   3.816   4.238  10.950 -0.2424 -0.5357 -0.4600
  776MPD2    H511510   3.819   4.305  10.874 -1.4988  0.3034  0.2299
  776MPD2    N111511   3.535   3.853  11.082  0.0565 -0.9270  0.0825
  776MPD2    H711512   3.457   3.799  11.044 -2.0654  1.7949  0.6439
  777MPD2     C11513   3.950   1.841   0.896 -0.2386  0.0479 -0.5969
  777MPD2    C111514   4.049   1.763   0.953 -0.3008 -0.2470  0.2033
  777MPD2    C211515   4.041   1.622   0.935  0.3136  0.0358  0.1734
  777MPD2    C311516   3.951   1.570   0.849  0.2849 -0.5552  0.2397
  777MPD2    C411517   3.863   1.654   0.784 -0.3493  0.1881  0.5472
  777MPD2    C511518   3.865   1.787   0.809 -0.4268 -0.4142  0.4421
  777MPD2     H11519   4.109   1.552   0.982  0.6741  0.9899  1.0730
  777MPD2    H111520   3.788   1.617   0.716  0.1969 -1.0223  0.6134
  777MPD2    H211521   3.958   1.948   0.915  0.4683  0.2224 -1.9096
  777MPD2    H311522   3.794   1.841   0.748  1.7316  1.4780 -0.3571
  777MPD2     N11523   3.932   1.431   0.843 -0.5702  0.2781  0.0827
  777MPD2    H511524   3.970   1.372   0.916 -0.0354  0.7018  0.1507
  777MPD2    N111525   4.155   1.819   1.027  0.2979  0.7488 -0.3942
  777MPD2    H711526   4.143   1.917   1.049 -1.1143  0.4122  0.3663
  778MPD2     C11527   0.688   2.063  14.866 -0.0726 -0.4350  0.0056
  778MPD2    C111528   0.627   1.970  14.783 -0.3396 -0.4903  0.1206
  778MPD2    C211529   0.674   1.957  14.653  0.4408  0.0663  0.3033
  778MPD2    C311530   0.775   2.045  14.602  0.3752  0.2793  0.4464
  778MPD2    C411531   0.823   2.141  14.686  0.9058 -0.5327  0.2768
  778MPD2    C511532   0.780   2.146  14.812 -0.1662  0.0275 -0.4899
  778MPD2     H11533   0.625   1.878  14.598  1.3880 -0.9506  0.9269
  778MPD2    H111534   0.902   2.213  14.665 -0.4455  0.4889 -1.3140
  778MPD2    H211535   0.668   2.066  14.972  0.3815  0.5719  0.0610
  778MPD2    H311536   0.829   2.220  14.874 -0.8842  0.5386 -0.5400
  778MPD2     N11537   0.837   2.017  14.474 -0.2272 -0.3301  0.1791
  778MPD2    H511538   0.808   1.931  14.428  2.5225 -0.2257 -1.7349
  778MPD2    N111539   0.547   1.869  14.841  0.1287 -0.4754  0.0480
  778MPD2    H711540   0.527   1.786  14.785 -0.1556 -1.9414  2.3425
  779MPD2     C11541   0.040   0.570  14.160 -0.5204  0.4349 -0.0452
  779MPD2    C111542   0.157   0.573  14.232  0.4362  0.3042 -0.1348
  779MPD2    C211543   0.223   0.694  14.235  0.3846 -0.3230 -0.7133
  779MPD2    C311544   0.176   0.804  14.163  0.0027  0.4056 -0.9163
  779MPD2    C411545   0.056   0.793  14.089  0.9168  0.3817 -0.4563
  779MPD2    C511546   4.728   0.670  14.079  0.1677 -0.0818 -0.2883
  779MPD2     H11547   0.322   0.707  14.277  0.5520  2.4311 -1.9841
  779MPD2    H111548   0.027   0.869  14.018  0.6608  0.1716 -0.5751
  779MPD2    H211549   4.722   0.476  14.150  0.9230 -0.4018 -0.0900
  779MPD2    H311550   4.638   0.647  14.022  0.3011 -0.2917 -0.4136
  779MPD2     N11551   0.257   0.923  14.160  0.1940 -0.2296  0.1066
  779MPD2    H511552   0.347   0.916  14.205  1.7168 -4.2230 -3.5659
  779MPD2    N111553   0.199   0.454  14.294  0.1922 -0.6088 -0.3463
  779MPD2    H711554   0.149   0.368  14.273  0.0524 -0.3362 -1.1551
  780MPD2     C11555   0.635   0.295   0.892  0.8603  0.0838  0.0726
  780MPD2    C111556   0.517   0.228   0.882  0.1234  0.0335  0.1317
  780MPD2    C211557   0.438   0.242   0.771  0.0152 -0.4340 -0.9171
  780MPD2    C311558   0.476   0.332   0.675 -0.1702 -0.4157  0.5296
  780MPD2    C411559   0.584   0.408   0.692 -0.1061 -0.1447 -0.3559
  780MPD2    C511560   0.669   0.388   0.796  0.2752  0.3878  0.0901
  780MPD2     H11561   0.344   0.190   0.757 -0.2753 -0.6597  1.9033
  780MPD2    H111562   0.625   0.471   0.615 -0.9558  0.0859 -0.6139
  780MPD2    H211563   0.700   0.282   0.979  1.0538  2.6313  0.3073
  780MPD2    H311564   0.759   0.448   0.797 -0.2981  1.2604 -0.8554
  780MPD2     N11565   0.397   0.339   0.557  0.8661  0.6517  0.7079
  780MPD2    H511566   0.320   0.274   0.562  0.0811  1.4725 -0.6001
  780MPD2    N111567   0.475   0.154   0.993 -0.5747  0.4748  0.0476
  780MPD2    H711568   0.539   0.150   1.071 -3.3549 -0.0222  2.2913
  781MPD2     C11569   1.839   1.997  11.462  0.0166 -0.1056 -0.4902
  781MPD2    C111570   1.822   1.878  11.530  0.2522 -0.2392  0.2559
  781MPD2    C211571   1.821   1.753  11.458  0.6232 -0.1884 -0.4609
  781MPD2    C311572   1.845   1.752  11.315 -0.5943  0.0933 -0.3549
  781MPD2    C411573   1.859   1.876  11.254 -0.0874  0.4849  0.0007
  781MPD2    C511574   1.858   1.994  11.327 -0.1145 -0.0510  0.6596
  781MPD2     H11575   1.789   1.663  11.509 -0.3469 -0.6096 -1.7903
  781MPD2    H111576   1.891   1.874  11.150  0.9050 -0.1156  0.3195
  781MPD2    H211577   1.827   2.096  11.504  1.8849  0.2241 -0.7726
  781MPD2    H311578   1.866   2.090  11.277 -0.9045  1.3331  3.1607
  781MPD2     N11579   1.846   1.639  11.236 -0.0634  0.3641  0.1523
  781MPD2    H511580   1.882   1.646  11.141  1.0107  1.2566  0.6196
  781MPD2    N111581   1.781   1.885  11.664 -0.8151 -0.2939  1.0280
  781MPD2    H711582   1.717   1.816  11.702 -1.2314 -1.7826 -2.3737
  782MPD2     C11583   4.112   2.769   9.766  0.0840 -0.3224  0.4214
  782MPD2    C111584   4.141   2.695   9.881  0.2472  0.4563  0.7198
  782MPD2    C211585   4.152   2.759  10.004 -0.4685 -0.3304  0.0652
  782MPD2    C311586   4.133   2.898  10.017  1.0338  0.0446 -0.7618
  782MPD2    C411587   4.107   2.964   9.903 -0.1074 -0.2864  0.0896
  782MPD2    C511588   4.095   2.903   9.780 -0.2146  0.3949  0.1463
  782MPD2     H11589   4.187   2.702  10.089 -1.3612  0.0282  0.6748
  782MPD2    H111590   4.094   3.071   9.899 -0.4441 -0.3509 -0.5476
  782MPD2    H211591   4.101   2.726   9.667  1.3844  0.8355 -0.2276
  782MPD2    H311592   4.068   2.965   9.695 -0.5467 -0.6389 -0.4953
  782MPD2     N11593   4.176   2.967  10.129  0.6742  0.0512  0.0147
  782MPD2    H511594   4.181   3.068  10.120 -0.7421 -0.0412 -1.6609
  782MPD2    N111595   4.163   2.554   9.883  0.1636  0.3607 -0.3972
  782MPD2    H711596   4.157   2.503   9.971 -3.2923 -0.9760 -1.3828
  783MPD2     C11597   3.676   2.161  10.386  0.1134  0.6835 -0.4671
  783MPD2    C111598   3.764   2.266  10.384  0.0762  0.2110  0.1349
  783MPD2    C211599   3.857   2.285  10.285  0.0243 -0.0123 -0.5979
  783MPD2    C311600   3.876   2.174  10.193 -0.8039  0.4073  0.1604
  783MPD2    C411601   3.791   2.068  10.197  0.0350  0.2000 -0.0212
  783MPD2    C511602   3.684   2.067  10.282  0.3347  0.0626  0.6831
  783MPD2     H11603   3.917   2.375  10.285  1.4201 -0.9350 -0.4772
  783MPD2    H111604   3.791   1.998  10.115  1.0928 -0.2077  0.3317
  783MPD2    H211605   3.604   2.150  10.466  1.1747  2.5649  0.7450
  783MPD2    H311606   3.612   1.987  10.272  1.7482 -0.8823 -1.8800
  783MPD2     N11607   3.984   2.188  10.102  0.2529 -0.7299 -0.1040
  783MPD2    H511608   4.012   2.285  10.098 -0.3916 -0.6285 -2.5518
  783MPD2    N111609   3.748   2.353  10.494  0.4248 -0.2201  0.1345
  783MPD2    H711610   3.681   2.330  10.567  1.2294  1.9025  1.5226
  784MPD2     C11611   2.091   3.033   0.833  0.0845 -0.6831  0.3210
  784MPD2    C111612   2.031   3.071   0.951 -0.1728 -0.3194  0.4258
  784MPD2    C211613   1.919   3.151   0.932 -0.1219 -0.9990 -0.6038
  784MPD2    C311614   1.863   3.173   0.807 -0.6461 -0.4864  0.2483
  784MPD2    C411615   1.934   3.135   0.693 -0.1512 -0.2432  0.0979
  784MPD2    C511616   2.047   3.058   0.704 -0.8422 -0.5447 -0.3759
  784MPD2     H11617   1.881   3.212   1.013 -1.9004 -1.1883 -1.2889
  784MPD2    H111618   1.900   3.157   0.592  0.9915  1.1093  0.0190
  784MPD2    H211619   2.176   2.966   0.828  2.0232  1.6313  2.0067
  784MPD2    H311620   2.088   3.005   0.619  1.4360 -1.9979  1.6230
  784MPD2     N11621   1.751   3.255   0.804  0.5136 -0.5163 -0.3693
  784MPD2    H511622   1.726   3.294   0.894 -0.7304 -1.2727 -0.3904
  784MPD2    N111623   2.082   3.055   1.085 -0.0683 -0.9424 -0.5621
  784MPD2    H711624   2.041   3.116   1.155  2.4917 -0.3762  0.4610
  785MPD2     C11625   1.426   0.749  10.214  0.2797  0.0620 -0.0076
  785MPD2    C111626   1.379   0.792  10.335  0.2093 -0.1429 -0.4239
  785MPD2    C211627   1.264   0.864  10.340 -0.2192 -0.4930  0.9776
  785MPD2    C311628   1.197   0.898  10.222  0.4197 -0.2459  0.4488
  785MPD2    C411629   1.250   0.860  10.106  0.2424 -0.0137  0.2508
  785MPD2    C511630   1.360   0.785  10.100  0.3954 -0.3647  0.2498
  785MPD2     H11631   1.220   0.901  10.432 -0.1463 -0.1364  0.8672
  785MPD2    H111632   1.206   0.889  10.012 -0.9020 -1.2312  0.4155
  785MPD2    H211633   1.520   0.695  10.204 -0.5500 -1.1996 -0.9240
  785MPD2    H311634   1.406   0.774  10.003 -0.2642 -0.0529 -0.0977
  785MPD2     N11635   1.077   0.976  10.221  0.0274  0.3660 -0.4687
  785MPD2    H511636   1.047   1.005  10.314  1.1028  0.6266 -0.1923
  785MPD2    N111637   1.450   0.774  10.449 -0.1646 -0.6970 -0.0373
  785MPD2    H711638   1.401   0.811  10.530  0.6521 -1.2860  0.7216
  786MPD2     C11639   0.067   4.142  14.528 -0.5525 -0.9886  0.0585
  786MPD2    C111640   0.195   4.188  14.501  0.3815  1.6257  0.2361
  786MPD2    C211641   0.270   4.234  14.601 -0.2693  0.0361 -0.1440
  786MPD2    C311642   0.216   4.234  14.732  0.4214 -0.1082 -0.4700
  786MPD2    C411643   0.087   4.192  14.756 -0.6360  0.0681 -0.1802
  786MPD2    C511644   0.015   4.144  14.650 -0.0635 -0.3400 -0.1069
  786MPD2     H11645   0.359   4.288  14.571  0.2380 -0.2496  0.8435
  786MPD2    H111646   0.044   4.184  14.855  0.7609 -1.3242  0.3066
  786MPD2    H211647   0.007   4.093  14.452 -0.3161  1.8764 -1.9882
  786MPD2    H311648   4.657   4.098  14.676 -0.8057 -0.0404 -2.3235
  786MPD2     N11649   0.286   4.279  14.852  0.5902 -0.6734  0.1488
  786MPD2    H511650   0.235   4.273  14.940  0.6555 -1.9119  0.1130
  786MPD2    N111651   0.247   4.189  14.368 -0.1514  0.6001  0.1661
  786MPD2    H711652   0.341   4.226  14.358  0.9217 -2.4110 -0.7814
  787MPD2     C11653   0.840   3.820  13.893 -0.1784 -0.0937 -0.5967
  787MPD2    C111654   0.805   3.935  13.953  0.6343 -0.4094  0.3717
  787MPD2    C211655   0.909   4.009  14.011  0.2532  0.6070 -0.2526
  787MPD2    C311656   1.043   3.978  13.996 -0.6770  0.7844  0.3084
  787MPD2    C411657   1.073   3.855  13.938 -0.1818 -0.0227  0.6006
  787MPD2    C511658   0.969   3.780  13.897 -0.9523 -0.0118  0.0504
  787MPD2     H11659   0.898   4.100  14.068 -0.2923 -0.0232  0.6502
  787MPD2    H111660   1.172   3.813  13.928 -1.7267 -3.6693  0.5050
  787MPD2    H211661   0.762   3.756  13.853 -0.9267  0.2324  0.3288
  787MPD2    H311662   1.001   3.686  13.855  0.9301 -1.0969  3.9351
  787MPD2     N11663   1.142   4.056  14.060 -0.0427  0.1344  0.1353
  787MPD2    H511664   1.103   4.122  14.127 -3.2599  0.3040 -1.9024
  787MPD2    N111665   0.664   3.973  13.956 -0.0112  0.4922  0.0618
  787MPD2    H711666   0.605   3.915  13.897  0.2855  0.4741 -0.2221
  788MPD2     C11667   2.701   3.044   1.296 -0.3676  0.2592 -0.3706
  788MPD2    C111668   2.661   2.998   1.170 -0.1017  0.4516  0.8521
  788MPD2    C211669   2.571   3.074   1.099  0.0487  0.0557 -0.2552
  788MPD2    C311670   2.547   3.204   1.140  0.1631 -0.6014 -0.3133
  788MPD2    C411671   2.603   3.246   1.258  0.5771  0.2186 -0.2261
  788MPD2    C511672   2.666   3.158   1.347  0.3884  0.0720  0.0399
  788MPD2     H11673   2.535   3.038   1.004  1.4061 -2.4545  0.1892
  788MPD2    H111674   2.598   3.351   1.287  0.1511  0.0248  0.3984
  788MPD2    H211675   2.740   2.976   1.371  0.8672  0.8141 -0.5149
  788MPD2    H311676   2.700   3.193   1.444 -0.0942 -0.3368  0.3593
  788MPD2     N11677   2.477   3.300   1.069 -0.0691  0.3182 -0.0898
  788MPD2    H511678   2.478   3.399   1.089 -1.1892  0.2108  0.4997
  788MPD2    N111679   2.695   2.871   1.110  1.2219 -0.6319 -0.5644
  788MPD2    H711680   2.659   2.850   1.018  0.4876 -0.2799 -0.3594
  789MPD2     C11681   3.012   2.317  16.588  0.0968  0.3343 -0.0008
  789MPD2    C111682   2.912   2.307  16.487  0.1992 -0.3256  0.3824
  789MPD2    C211683   2.791   2.367  16.507 -1.1279  0.6783 -0.0067
  789MPD2    C311684   2.770   2.436  16.630 -0.2269 -0.4744 -0.3056
  789MPD2    C411685   2.864   2.437  16.723 -0.6053 -0.9983 -0.6791
  789MPD2    C511686   2.986   2.375  16.710 -0.3680  0.7864 -0.0297
  789MPD2     H11687   2.713   2.356  16.432 -2.3023 -1.0617  1.4877
  789MPD2    H111688   2.838   2.490  16.814 -1.1450 -2.2149 -0.1320
  789MPD2    H211689   3.112   2.283  16.565  0.5670  1.4850  0.3453
  789MPD2    H311690   3.070   2.379  16.778  0.3452 -1.1033 -0.8048
  789MPD2     N11691   2.642   2.487  16.669 -0.0957 -0.0325  0.4269
  789MPD2    H511692   2.621   2.510  16.766  1.5132  0.7650  0.5904
  789MPD2    N111693   2.934   2.237  16.366 -0.3005  0.0468  0.1224
  789MPD2    H711694   2.858   2.236  16.299  0.0849 -0.9639 -0.2882
  790MPD2     C11695   3.936   4.037  13.615  0.4485 -0.3364  0.1701
  790MPD2    C111696   3.804   3.996  13.629  0.0671  0.0531  0.4133
  790MPD2    C211697   3.743   3.926  13.526  0.4604 -0.1547  0.0150
  790MPD2    C311698   3.817   3.913  13.406 -0.2436  0.1300 -0.3075
  790MPD2    C411699   3.948   3.957  13.399  0.6804 -0.2820  0.5086
  790MPD2    C511700   4.005   4.024  13.500 -0.9134 -0.0142 -0.5294
  790MPD2     H11701   3.639   3.895  13.523  0.3175  0.1289  1.8870
  790MPD2    H111702   4.014   3.934  13.316 -1.8456 -0.5978 -1.4018
  790MPD2    H211703   3.970   4.094  13.700 -0.1452  0.1509  0.0802
  790MPD2    H311704   4.106   4.064  13.499 -0.2196 -1.7546 -1.4809
  790MPD2     N11705   3.750   3.847  13.297 -0.3635  0.0878 -0.3562
  790MPD2    H511706   3.650   3.838  13.315 -0.4453 -0.2619 -0.9852
  790MPD2    N111707   3.745   4.021  13.751  0.0929 -0.8425 -0.2196
  790MPD2    H711708   3.784   4.087  13.817 -1.0761 -0.1254 -0.2505
  791MPD2     C11709   3.141   3.919  13.080  0.0091  0.1803 -0.9069
  791MPD2    C111710   3.177   3.798  13.022 -0.2513 -0.0895  0.3033
  791MPD2    C211711   3.081   3.711  12.965  0.3971 -0.0289  0.1820
  791MPD2    C311712   2.951   3.755  12.948 -0.6396 -0.8733  0.1190
  791MPD2    C411713   2.917   3.883  12.995  0.0941  0.3195 -0.2592
  791MPD2    C511714   3.011   3.960  13.058  0.3213 -0.3523  0.7739
  791MPD2     H11715   3.103   3.616  12.917  3.0843  0.2470  0.8498
  791MPD2    H111716   2.821   3.930  12.981  0.0487 -0.1063 -1.3893
  791MPD2    H211717   3.216   3.973  13.135  0.0164 -0.5729 -0.1780
  791MPD2    H311718   2.986   4.062  13.084  0.3793  0.3480 -1.8770
  791MPD2     N11719   2.851   3.667  12.884 -0.5868 -0.7827  0.4188
  791MPD2    H511720   2.880   3.574  12.856 -1.2750 -0.9975  0.4262
  791MPD2    N111721   3.316   3.773  13.029  0.4583 -0.6240  0.3211
  791MPD2    H711722   3.371   3.855  13.054 -0.8554  0.5138 -0.5186
  792MPD2     C11723   3.210   3.851  10.644  0.7524 -0.7640  0.2794
  792MPD2    C111724   3.297   3.757  10.699  0.3056  0.6690  0.4930
  792MPD2    C211725   3.249   3.653  10.779  0.2979 -0.3404  0.3880
  792MPD2    C311726   3.113   3.629  10.789 -0.4311 -0.6858 -0.6056
  792MPD2    C411727   3.022   3.710  10.733  0.0897  0.3727  0.1231
  792MPD2    C511728   3.077   3.820  10.666 -0.4879  0.0110 -0.1423
  792MPD2     H11729   3.319   3.588  10.829  0.4827  0.0728  0.6718
  792MPD2    H111730   2.916   3.695  10.749  0.1586  2.6099  2.7054
  792MPD2    H211731   3.240   3.941  10.592  1.7491 -0.9690  0.5037
  792MPD2    H311732   2.998   3.889  10.637  0.4910  0.6858 -1.1997
  792MPD2     N11733   3.059   3.513  10.845  0.0933 -0.2742 -0.0946
  792MPD2    H511734   2.961   3.494  10.824  0.6306 -2.2700 -0.7286
  792MPD2    N111735   3.435   3.781  10.678 -0.9223  0.7491 -0.0078
  792MPD2    H711736   3.456   3.853  10.609  0.0738  0.9323  0.4855
  793MPD2     C11737   2.674   2.979  10.324 -0.1438  0.3036  0.5819
  793MPD2    C111738   2.805   3.024  10.330 -0.5697 -0.2100 -0.1918
  793MPD2    C211739   2.858   3.061  10.451 -0.5312 -0.3119  0.3710
  793MPD2    C311740   2.776   3.070  10.561 -0.5020  0.1640 -0.3108
  793MPD2    C411741   2.644   3.036  10.554  0.1570  0.9125 -0.4741
  793MPD2    C511742   2.596   2.982  10.437 -0.8804  0.0342  0.1187
  793MPD2     H11743   2.961   3.089  10.469 -0.8337 -0.2953  2.0456
  793MPD2    H111744   2.569   3.044  10.632 -0.4333 -1.1133 -0.8502
  793MPD2    H211745   2.631   2.937  10.234 -0.4859  1.7849  0.0550
  793MPD2    H311746   2.490   2.959  10.434 -0.4441 -2.0843  1.1718
  793MPD2     N11747   2.828   3.107  10.688  0.0660  0.7408 -0.8256
  793MPD2    H511748   2.928   3.122  10.697  0.2581 -0.9120 -0.0603
  793MPD2    N111749   2.890   3.006  10.221 -0.2265 -0.7819 -0.1254
  793MPD2    H711750   2.990   3.008  10.236 -0.2023  2.9169 -0.7914
  794MPD2     C11751   4.261   3.532  17.127  0.2609  0.9230 -0.2002
  794MPD2    C111752   4.151   3.503  17.205  0.4343  1.1996 -0.1473
  794MPD2    C211753   4.032   3.555  17.164 -0.0712  0.0121  0.4158
  794MPD2    C311754   4.023   3.641  17.053  0.3492 -0.6072 -0.4059
  794MPD2    C411755   4.139   3.671  16.982  0.6669 -0.4395  0.2642
  794MPD2    C511756   4.256   3.606  17.010  0.5977  0.1638 -0.2923
  794MPD2     H11757   3.952   3.532  17.233 -0.1515  0.0601  0.3377
  794MPD2    H111758   4.138   3.738  16.898 -0.0769  0.3654  0.9138
  794MPD2    H211759   4.361   3.505  17.158 -0.7634  0.8630  3.0274
  794MPD2    H311760   4.346   3.620  16.950  0.2396  0.4899 -0.7482
  794MPD2     N11761   3.908   3.697  17.003  0.5148 -0.6754  0.7788
  794MPD2    H511762   3.916   3.775  16.937 -2.1836 -1.4555 -0.4858
  794MPD2    N111763   4.149   3.435  17.321 -0.1958 -0.0328  0.3186
  794MPD2    H711764   4.058   3.434  17.366 -1.2924 -0.8478 -1.9736
  795MPD2     C11765   1.113   0.916  13.336  0.7049  1.0641  0.1082
  795MPD2    C111766   1.032   0.816  13.377  1.0021  0.1800 -0.5452
  795MPD2    C211767   1.086   0.707  13.438 -0.2672  0.0625  0.2794
  795MPD2    C311768   1.224   0.692  13.453 -0.6915 -0.1376  0.5606
  795MPD2    C411769   1.306   0.794  13.420  0.2979  0.4739 -0.1187
  795MPD2    C511770   1.249   0.907  13.374  0.4323  0.3789  0.6415
  795MPD2     H11771   1.023   0.624  13.467  0.1942 -0.5100 -0.3447
  795MPD2    H111772   1.414   0.797  13.433  0.2254 -1.8620  1.0567
  795MPD2    H211773   1.095   1.007  13.279 -1.2690  0.3058 -0.4605
  795MPD2    H311774   1.311   0.990  13.341  0.0264  0.0726 -0.8968
  795MPD2     N11775   1.275   0.575  13.516 -0.3139 -0.3174 -0.1940
  795MPD2    H511776   1.205   0.508  13.546 -0.2659 -1.3673 -2.4482
  795MPD2    N111777   0.893   0.819  13.359 -0.1495  0.5571  0.2114
  795MPD2    H711778   0.843   0.732  13.371  0.8050  0.1324  1.1153
  796MPD2     C11779   1.127   1.543  16.008 -0.0404 -0.2957 -0.4067
  796MPD2    C111780   1.183   1.629  16.092  0.8021 -0.3737  0.3454
  796MPD2    C211781   1.139   1.762  16.094 -0.7058 -0.8315 -0.2419
  796MPD2    C311782   1.052   1.804  15.996  0.1527 -0.4281  0.5988
  796MPD2    C411783   1.015   1.719  15.894  0.3578 -0.0324 -0.5161
  796MPD2    C511784   1.054   1.586  15.901  0.6981  0.5496  0.3729
  796MPD2     H11785   1.165   1.827  16.176  1.8027 -2.5951  0.3530
  796MPD2    H111786   0.975   1.749  15.797 -0.0749 -1.6202 -0.8299
  796MPD2    H211787   1.154   1.439  16.021  1.3906  0.1085 -0.2075
  796MPD2    H311788   1.020   1.517  15.825 -0.6654  2.6208 -0.8835
  796MPD2     N11789   1.003   1.941  16.000 -0.5218 -0.3487  0.8021
  796MPD2    H511790   1.041   2.001  16.073 -0.9485 -1.2763  1.7996
  796MPD2    N111791   1.274   1.581  16.190 -0.1768  0.1270  0.4386
  796MPD2    H711792   1.303   1.484  16.187  1.6421  0.6617  1.2053
  797MPD2     C11793   2.342   2.223  17.097  0.0733  0.3663 -0.4876
  797MPD2    C111794   2.357   2.193  17.236  0.4301  0.7459 -0.4676
  797MPD2    C211795   2.276   2.086  17.276  0.6830  0.5620  0.0244
  797MPD2    C311796   2.177   2.027  17.195  0.1831  0.1934 -0.4250
  797MPD2    C411797   2.165   2.068  17.066 -0.2165  0.7382 -0.0921
  797MPD2    C511798   2.255   2.161  17.019 -0.4231  0.4292  0.0668
  797MPD2     H11799   2.284   2.053  17.379  0.9940 -0.1422 -0.2234
  797MPD2    H111800   2.098   2.025  16.992 -0.2713  0.6094  0.0323
  797MPD2    H211801   2.404   2.298  17.049  0.2441  0.0746 -0.7246
  797MPD2    H311802   2.248   2.190  16.915 -4.3323 -2.3231 -0.4410
  797MPD2     N11803   2.084   1.937  17.247 -0.4956  0.3065 -0.1689
  797MPD2    H511804   2.010   1.906  17.185 -0.2082 -0.9357  0.1152
  797MPD2    N111805   2.434   2.261  17.328  0.3618 -0.4254  0.1150
  797MPD2    H711806   2.417   2.247  17.427 -1.4978 -4.2857 -0.7582
  798MPD2     C11807   1.885   2.255   0.031  0.3591  0.0828  0.1979
  798MPD2    C111808   1.960   2.180  17.685 -0.1537  0.0342  0.3993
  798MPD2    C211809   2.087   2.231  17.654 -0.6538 -0.3846  0.2226
  798MPD2    C311810   2.120   2.359  17.680  0.3698  0.6188  0.4486
  798MPD2    C411811   2.028   2.437   0.013 -0.3158 -0.4044 -0.1868
  798MPD2    C511812   1.920   2.380   0.062 -0.3304  0.6471  0.3709
  798MPD2     H11813   2.154   2.167  17.597 -1.2920  2.5030 -3.8132
  798MPD2    H111814   2.046   2.539   0.044  0.2895 -0.5410 -0.0881
  798MPD2    H211815   1.799   2.212   0.080  2.2522 -0.9809  2.5580
  798MPD2    H311816   1.858   2.432   0.134 -0.1061 -0.4920  1.3997
  798MPD2     N11817   2.248   2.405  17.650 -0.1112 -0.0144  0.5214
  798MPD2    H511818   2.299   2.329  17.607 -4.0175 -0.3490 -3.5606
  798MPD2    N111819   1.927   2.043  17.656 -0.2651  0.5730 -0.0960
  798MPD2    H711820   2.005   1.985  17.626 -0.4692 -0.3189  1.0881
  799MPD2     C11821   0.389   3.737  14.561 -0.7379 -0.4886 -0.0088
  799MPD2    C111822   0.435   3.630  14.493  0.1211  0.4980 -0.0697
  799MPD2    C211823   0.391   3.616  14.363 -0.1082  0.3130 -0.1852
  799MPD2    C311824   0.309   3.709  14.301 -0.5439  0.5661  0.4872
  799MPD2    C411825   0.260   3.810  14.372  0.9299  0.5454  0.1468
  799MPD2    C511826   0.301   3.828  14.505 -0.1441 -0.3936 -0.8646
  799MPD2     H11827   0.416   3.522  14.314 -2.1502  0.4234 -1.4216
  799MPD2    H111828   0.186   3.876  14.327 -0.8960 -0.1774  2.0522
  799MPD2    H211829   0.408   3.756  14.666 -1.5905  1.1659 -0.1491
  799MPD2    H311830   0.254   3.902  14.568  0.6710 -0.2085 -0.4680
  799MPD2     N11831   0.273   3.702  14.163  0.2284 -0.1543  0.3476
  799MPD2    H511832   0.219   3.780  14.127  2.0592  1.2188  0.5709
  799MPD2    N111833   0.516   3.536  14.551 -0.1775 -0.6589  0.9044
  799MPD2    H711834   0.523   3.450  14.498  2.5441  0.9877 -1.4191
  800MPD2     C11835   0.480   4.564  14.039  0.5562 -0.1896  0.4526
  800MPD2    C111836   0.606   4.511  14.045  0.3121  0.5489 -0.1459
  800MPD2    C211837   0.637   4.409  13.956 -0.0734  0.2836  0.2827
  800MPD2    C311838   0.548   4.375  13.853  0.0100  0.4162 -0.7502
  800MPD2    C411839   0.421   4.427  13.842 -0.8898  0.1640  0.1946
  800MPD2    C511840   0.398   4.537  13.929  0.6101  0.4118 -0.5164
  800MPD2     H11841   0.737   4.368  13.948  0.4155  1.2030  1.7560
  800MPD2    H111842   0.348   4.411  13.764  1.7773 -1.4118 -1.9650
  800MPD2    H211843   0.458   4.649  14.102 -1.5244 -2.3714  2.6595
  800MPD2    H311844   0.305   4.592  13.930 -0.1528 -0.8730 -1.3947
  800MPD2     N11845   0.595   4.286  13.757 -0.2748 -0.1594 -0.3273
  800MPD2    H511846   0.691   4.259  13.778 -0.0698  0.0935 -0.9392
  800MPD2    N111847   0.697   4.557  14.139 -0.4218  0.5858 -0.0246
  800MPD2    H711848   0.675   4.648  14.179 -1.2215 -0.3938  1.7709
  801MPD2     C11849   1.047   0.416  13.814  0.4770  0.1699 -0.0753
  801MPD2    C111850   1.136   0.379  13.913 -0.0463 -0.4521  0.1925
  801MPD2    C211851   1.249   0.449  13.940  0.1426 -0.2207  0.1270
  801MPD2    C311852   1.259   0.575  13.885  1.0918 -0.6524  0.8395
  801MPD2    C411853   1.169   0.620  13.794 -0.3518 -0.3206  0.2859
  801MPD2    C511854   1.062   0.546  13.771  0.0644  0.4539 -0.7491
  801MPD2     H11855   1.317   0.405  14.011  0.1518 -0.5482 -0.0860
  801MPD2    H111856   1.174   0.724  13.763 -1.7778 -0.0046  1.1282
  801MPD2    H211857   0.952   0.363  13.805  0.3646  0.1058  1.5888
  801MPD2    H311858   0.987   0.594  13.710 -0.3446 -1.0288 -1.4166
  801MPD2     N11859   1.350   0.672  13.938  0.0016  0.2662  0.0187
  801MPD2    H511860   1.330   0.770  13.919  0.8703  0.8521  2.1399
  801MPD2    N111861   1.125   0.265  13.989 -0.3838  0.2093  0.7697
  801MPD2    H711862   1.207   0.245  14.045  1.6486 -0.8509 -2.6442
  802MPD2     C11863   0.683   1.552   0.425  0.3287  0.6245 -0.6763
  802MPD2    C111864   0.606   1.442   0.451  0.0134  0.3313 -0.4252
  802MPD2    C211865   0.665   1.320   0.436 -0.9139  0.2177  0.5690
  802MPD2    C311866   0.801   1.313   0.417  0.3418 -0.4197 -0.8946
  802MPD2    C411867   0.881   1.424   0.411 -0.5659 -0.5847  0.1387
  802MPD2    C511868   0.820   1.544   0.418  0.3490  0.4315 -0.0233
  802MPD2     H11869   0.608   1.228   0.447 -0.3977 -0.5681 -3.2054
  802MPD2    H111870   0.990   1.426   0.413 -0.6168  1.1338  1.5165
  802MPD2    H211871   0.652   1.655   0.438 -0.9891  0.0504  0.7812
  802MPD2    H311872   0.877   1.635   0.404 -0.5212  0.8351 -0.8923
  802MPD2     N11873   0.852   1.185   0.393 -0.4164  0.5340  0.1277
  802MPD2    H511874   0.782   1.111   0.392  0.1059  0.0422 -0.5970
  802MPD2    N111875   0.467   1.447   0.483  0.0677  0.1865 -0.0045
  802MPD2    H711876   0.415   1.359   0.481  1.2550 -0.5278  0.1918
  803MPD2     C11877   1.588   3.897  11.583  0.1402 -0.4184  0.4196
  803MPD2    C111878   1.647   4.006  11.650  0.8742  0.2095  0.1685
  803MPD2    C211879   1.636   4.018  11.789 -0.0858  0.3186 -0.1349
  803MPD2    C311880   1.575   3.924  11.865 -0.0747  0.4600 -0.2479
  803MPD2    C411881   1.527   3.812  11.800  0.2806 -0.1007 -0.2163
  803MPD2    C511882   1.520   3.806  11.662  0.4870 -0.1831  0.3870
  803MPD2     H11883   1.681   4.106  11.834  0.4016 -2.0404  4.0689
  803MPD2    H111884   1.495   3.724  11.855  1.7691 -1.1022 -0.9802
  803MPD2    H211885   1.587   3.893  11.475  0.6490 -2.4978  0.5007
  803MPD2    H311886   1.473   3.721  11.613  0.5930  0.7836 -1.3795
  803MPD2     N11887   1.572   3.917  12.004  0.4646  0.0593 -0.5598
  803MPD2    H511888   1.526   3.835  12.044 -1.0644  1.1577 -0.0665
  803MPD2    N111889   1.721   4.106  11.588  0.4378  0.1663 -0.4213
  803MPD2    H711890   1.765   4.175  11.648 -0.7368  0.8108 -0.3030
  804MPD2     C11891   1.732   0.248  17.038  0.3380 -0.1427 -0.9587
  804MPD2    C111892   1.642   0.293  17.137 -0.1479  0.1961 -0.0482
  804MPD2    C211893   1.669   0.408  17.204 -0.4805 -0.0716  0.5487
  804MPD2    C311894   1.769   0.495  17.154  0.0558  0.3135 -0.2754
  804MPD2    C411895   1.841   0.457  17.044 -0.5946 -0.5981 -0.1799
  804MPD2    C511896   1.818   0.337  16.982 -0.3501 -0.0642 -0.4849
  804MPD2     H11897   1.611   0.439  17.291 -1.3592  0.5448 -0.2596
  804MPD2    H111898   1.919   0.517  16.999  0.5490 -1.5577  0.5026
  804MPD2    H211899   1.732   0.150  16.994 -3.5061 -0.9121  0.6892
  804MPD2    H311900   1.878   0.294  16.903 -0.4963 -0.8481 -0.1754
  804MPD2     N11901   1.792   0.622  17.215 -0.3367  0.1192  0.0220
  804MPD2    H511902   1.737   0.645  17.297 -0.2705  0.9956 -0.1777
  804MPD2    N111903   1.534   0.211  17.181  0.0713  1.2106 -0.2430
  804MPD2    H711904   1.474   0.252  17.251  0.3896  0.4019  0.5073
  805MPD2     C11905   0.356   3.659  15.559 -0.1155 -0.1829 -0.3748
  805MPD2    C111906   0.452   3.585  15.489  0.3627  0.6259 -0.4169
  805MPD2    C211907   0.556   3.534  15.554  0.2593 -0.2017 -0.0990
  805MPD2    C311908   0.583   3.563  15.687 -0.1725 -0.1847 -0.2298
  805MPD2    C411909   0.491   3.639  15.755 -0.1659 -0.9202 -0.3694
  805MPD2    C511910   0.372   3.683  15.693 -0.6094 -0.6154  0.3865
  805MPD2     H11911   0.623   3.477  15.492  2.8697  1.9422  0.7674
  805MPD2    H111912   0.511   3.668  15.857 -2.1518 -0.9747  0.0430
  805MPD2    H211913   0.260   3.694  15.523  0.4452  2.4559  0.7027
  805MPD2    H311914   0.305   3.751  15.745 -0.6084  0.1926 -0.6679
  805MPD2     N11915   0.708   3.514  15.734  0.1001 -0.3648 -0.3546
  805MPD2    H511916   0.759   3.457  15.668 -1.4367 -2.3447  0.1771
  805MPD2    N111917   0.434   3.550  15.354 -0.0345 -0.0159  0.5234
  805MPD2    H711918   0.499   3.487  15.307 -0.0502 -1.0873  1.9496
  806MPD2     C11919   1.056   2.836   0.568  0.1949  0.3512  0.6741
  806MPD2    C111920   1.007   2.958   0.591  0.2914 -1.4455  0.3530
  806MPD2    C211921   1.037   3.057   0.500 -1.4675 -0.5441  0.2377
  806MPD2    C311922   1.118   3.035   0.396  0.6331  0.4751 -0.4033
  806MPD2    C411923   1.170   2.908   0.375 -0.2693 -0.0339  0.4841
  806MPD2    C511924   1.138   2.811   0.467  0.2251 -0.2169 -0.3395
  806MPD2     H11925   0.998   3.154   0.527 -1.3728 -0.2695 -0.6183
  806MPD2    H111926   1.238   2.887   0.294 -2.0905  0.5057 -1.1993
  806MPD2    H211927   1.019   2.754   0.629  1.8291 -0.9363 -0.0645
  806MPD2    H311928   1.172   2.708   0.461  0.1627 -0.2111 -0.7775
  806MPD2     N11929   1.134   3.139   0.303 -0.1417  0.1556  0.1732
  806MPD2    H511930   1.080   3.222   0.327 -1.1736 -0.2849 -0.6435
  806MPD2    N111931   0.942   2.973   0.719  0.6007 -0.2807 -0.3579
  806MPD2    H711932   0.927   2.889   0.773 -0.3310  0.7251  0.9260
  807MPD2     C11933   0.707   2.521   1.244  0.4591  0.0904 -0.0160
  807MPD2    C111934   0.728   2.646   1.307 -0.2270 -0.3702 -0.1282
  807MPD2    C211935   0.720   2.656   1.444  0.6482 -0.5918  0.6280
  807MPD2    C311936   0.693   2.543   1.521  0.2309 -0.0737 -0.3247
  807MPD2    C411937   0.673   2.422   1.457  0.1682 -0.3960 -0.2925
  807MPD2    C511938   0.677   2.409   1.321  0.3488 -0.8104  0.3979
  807MPD2     H11939   0.728   2.754   1.490 -1.0235 -0.3223  0.3497
  807MPD2    H111940   0.634   2.335   1.508  1.3508 -1.3006 -0.9388
  807MPD2    H211941   0.711   2.507   1.136 -0.0947  1.1166 -0.1626
  807MPD2    H311942   0.640   2.320   1.272 -0.4127  0.0521 -0.5900
  807MPD2     N11943   0.679   2.556   1.663 -0.8267 -0.0781  0.6415
  807MPD2    H511944   0.703   2.650   1.693 -2.0971  0.3461  0.3068
  807MPD2    N111945   0.767   2.766   1.242  0.3212  0.2498  0.1148
  807MPD2    H711946   0.790   2.850   1.294  1.3277 -0.3399  0.6384
  808MPD2     C11947   1.055   4.409   9.676 -0.4303  0.2444 -0.3753
  808MPD2    C111948   1.097   4.419   9.544  0.8550  0.1182  0.0717
  808MPD2    C211949   1.147   4.533   9.493  0.9758 -0.0162  0.2285
  808MPD2    C311950   1.137   4.648   9.566 -0.1133  0.6240 -0.2623
  808MPD2    C411951   1.102   4.639   9.698 -0.0118 -0.1166  0.9869
  808MPD2    C511952   1.065   4.522   9.752 -0.6065 -0.3927  0.1294
  808MPD2     H11953   1.173   4.546   9.389  0.2392 -3.5282 -0.3853
  808MPD2    H111954   1.101   4.727   9.761  1.9912 -0.8338  2.0264
  808MPD2    H211955   1.017   4.320   9.725 -1.1451  1.8636  1.9964
  808MPD2    H311956   1.035   4.519   9.856 -1.2754  0.5550 -0.0363
  808MPD2     N11957   1.163   0.043   9.518  0.0716  0.7409  0.8053
  808MPD2    H511958   1.175   0.118   9.586 -2.6253 -0.1078  2.2272
  808MPD2    N111959   1.110   4.299   9.474  0.1186  0.6231 -0.4220
  808MPD2    H711960   1.164   4.309   9.388  0.1094 -3.3589 -0.8867
  809MPD2     C11961   1.868   0.684   9.114 -0.7207 -0.6263  0.1193
  809MPD2    C111962   1.847   0.552   9.106 -0.1109  0.1533  0.1086
  809MPD2    C211963   1.753   0.495   9.185  0.4110 -0.0222  0.1760
  809MPD2    C311964   1.666   0.570   9.269  0.3822  0.7236 -0.0307
  809MPD2    C411965   1.690   0.707   9.277 -0.6790 -0.1355 -0.4951
  809MPD2    C511966   1.803   0.764   9.207 -0.5271  0.1398 -0.1463
  809MPD2     H11967   1.745   0.387   9.175  1.0282  0.0254 -0.8876
  809MPD2    H111968   1.638   0.770   9.347 -0.2983 -0.7746  0.3598
  809MPD2    H211969   1.947   0.729   9.055 -0.3234 -0.4999  0.7542
  809MPD2    H311970   1.828   0.868   9.224  1.6411 -0.1946 -1.3023
  809MPD2     N11971   1.552   0.521   9.331  0.2056  0.3296  0.0206
  809MPD2    H511972   1.514   0.588   9.397 -1.6998 -1.3514  0.6532
  809MPD2    N111973   1.924   0.458   9.025  0.4654  0.2817 -0.3531
  809MPD2    H711974   1.920   0.357   9.037 -0.7165  0.5622  1.7190
  810MPD2     C11975   1.162   3.531   9.496  0.2667 -0.1032  0.1203
  810MPD2    C111976   1.105   3.561   9.621  0.0283  0.6096 -0.0015
  810MPD2    C211977   1.170   3.644   9.708 -0.0763  0.1060  0.8150
  810MPD2    C311978   1.300   3.692   9.696 -0.3072 -0.4694 -0.2696
  810MPD2    C411979   1.348   3.677   9.564  0.5029  0.7149  0.3181
  810MPD2    C511980   1.275   3.607   9.469 -0.0060  0.2861 -0.3986
  810MPD2     H11981   1.117   3.647   9.802  1.1941  1.1622  1.5016
  810MPD2    H111982   1.439   3.725   9.532  0.2455  1.6744  1.0178
  810MPD2    H211983   1.113   3.469   9.422 -0.0704  1.4091 -0.9113
  810MPD2    H311984   1.312   3.598   9.368 -0.6436 -2.3291 -0.4007
  810MPD2     N11985   1.372   3.764   9.795  0.0893 -0.2018 -0.3116
  810MPD2    H511986   1.461   3.802   9.764 -0.5985  1.1625 -0.6090
  810MPD2    N111987   0.977   3.517   9.652  0.1186  0.4277 -0.2886
  810MPD2    H711988   0.946   3.554   9.742 -0.9155  0.7161 -0.7710
  811MPD2     C11989   0.152   3.573   9.876 -0.0500 -0.0243 -0.0912
  811MPD2    C111990   0.261   3.644   9.839  0.6905  0.3987 -0.3352
  811MPD2    C211991   0.260   3.783   9.821  0.2920 -0.1650  0.0591
  811MPD2    C311992   0.138   3.847   9.829 -0.2521 -0.7416  0.2992
  811MPD2    C411993   0.023   3.768   9.845  0.5365 -0.6069 -0.4947
  811MPD2    C511994   0.039   3.639   9.873  0.2238 -0.4338 -0.6968
  811MPD2     H11995   0.349   3.838   9.791  0.5441 -1.9761 -2.4804
  811MPD2    H111996   4.664   3.817   9.858  1.6429  1.2773  0.5042
  811MPD2    H211997   0.152   3.465   9.875  1.2132 -0.0665  3.2705
  811MPD2    H311998   4.687   3.577   9.887  0.4226 -0.2876  1.2044
  811MPD2     N11999   0.134   3.987   9.807  0.1071 -0.5569  0.0281
  811MPD2    H512000   0.221   4.039   9.812 -0.6138  0.5730  0.6805
  811MPD2    N112001   0.375   3.562   9.810 -0.2629 -0.4647  0.1308
  811MPD2    H712002   0.363   3.463   9.829 -1.1397  0.0847  2.4151
  812MPD2     C12003   4.445   3.616  11.828  0.7519 -0.6214 -0.3248
  812MPD2    C112004   4.398   3.663  11.949 -0.2654 -0.4977 -0.0838
  812MPD2    C212005   4.373   3.566  12.050  1.2447  0.4015 -0.2473
  812MPD2    C312006   4.381   3.429  12.025  0.8072 -0.0291  0.4676
  812MPD2    C412007   4.423   3.384  11.899 -0.0400  0.2806  0.0209
  812MPD2    C512008   4.456   3.476  11.801 -0.1507  0.8837 -0.0225
  812MPD2     H12009   4.323   3.592  12.143 -1.6626 -3.1264 -0.8405
  812MPD2    H112010   4.435   3.280  11.873 -1.1573  0.2462 -0.3676
  812MPD2    H212011   4.467   3.685  11.747 -2.0475  2.3049  1.3931
  812MPD2    H312012   4.491   3.449  11.702 -0.2525 -1.8252  0.6610
  812MPD2     N12013   4.362   3.342  12.129 -0.2241 -1.2989 -0.7866
  812MPD2    H512014   4.353   3.384  12.221  2.0935 -1.1339 -0.6402
  812MPD2    N112015   4.380   3.803  11.961 -0.1677 -0.1874  0.2274
  812MPD2    H712016   4.403   3.862  11.881 -1.7820 -2.1060 -1.6273
  813MPD2     C12017   3.530   0.553  12.693 -0.5744 -0.6830  0.3902
  813MPD2    C112018   3.541   0.689  12.690  0.7129  0.1506  0.0678
  813MPD2    C212019   3.438   0.767  12.755 -0.4621  0.1216 -0.4040
  813MPD2    C312020   3.323   0.708  12.807 -0.5838 -0.0085 -0.1947
  813MPD2    C412021   3.326   0.572  12.800  0.4149 -0.5379  0.5379
  813MPD2    C512022   3.418   0.498  12.743  0.1319  0.1156 -0.1076
  813MPD2     H12023   3.457   0.872  12.775 -0.0488  0.4940 -2.8113
  813MPD2    H112024   3.239   0.524  12.844 -0.8027  0.4425 -0.7945
  813MPD2    H212025   3.600   0.496  12.633  0.7910  1.9613 -0.5044
  813MPD2    H312026   3.402   0.392  12.726  1.4496 -0.1229  0.1404
  813MPD2     N12027   3.228   0.792  12.877 -0.1796  0.3327 -0.3013
  813MPD2    H512028   3.239   0.892  12.861 -0.9307  0.6468  1.1760
  813MPD2    N112029   3.662   0.744  12.642 -0.4144  0.5300  0.0532
  813MPD2    H712030   3.740   0.680  12.634  0.5565  1.5618  1.2321
  814MPD2     C12031   4.093   2.369  11.949  0.2454  0.1155 -0.0844
  814MPD2    C112032   4.155   2.355  11.827  0.0301 -0.2568  0.7934
  814MPD2    C212033   4.266   2.428  11.793  0.3168 -0.1089  0.1115
  814MPD2    C312034   4.317   2.516  11.885 -0.6506 -0.5218 -0.7566
  814MPD2    C412035   4.259   2.527  12.007  0.2086 -0.7125 -0.2552
  814MPD2    C512036   4.138   2.465  12.033  0.4298  0.1917  0.7302
  814MPD2     H12037   4.312   2.417  11.696 -0.6413 -1.9982 -0.1284
  814MPD2    H112038   4.298   2.594  12.082 -0.6463  0.4654 -0.8629
  814MPD2    H212039   4.003   2.317  11.981 -0.7217  1.2713 -0.9039
  814MPD2    H312040   4.074   2.485  12.119  0.8609  2.5276  0.4891
  814MPD2     N12041   4.430   2.599  11.859  0.2128 -0.1614 -0.3766
  814MPD2    H512042   4.461   2.658  11.936 -0.4425  1.6532 -1.5047
  814MPD2    N112043   4.103   2.270  11.727 -0.2956  0.1314 -0.2779
  814MPD2    H712044   4.154   2.265  11.640  0.8553  2.3223  0.2576
  815MPD2     C12045   4.471   0.516  11.347 -1.3592 -0.2838 -0.4225
  815MPD2    C112046   4.515   0.391  11.390  0.0360  0.8927  0.5696
  815MPD2    C212047   4.471   0.347  11.511 -0.5395 -0.5193  0.4274
  815MPD2    C312048   4.369   0.411  11.585  0.4255  0.5509  0.5847
  815MPD2    C412049   4.321   0.528  11.533  0.3985  0.3998 -0.2672
  815MPD2    C512050   4.380   0.582  11.424  0.1923  0.2944  0.6038
  815MPD2     H12051   4.497   0.244  11.533  0.6620 -0.7415 -2.0929
  815MPD2    H112052   4.244   0.592  11.574  0.1647 -0.7330  1.0553
  815MPD2    H212053   4.521   0.568  11.267 -0.3403  0.0795  0.4485
  815MPD2    H312054   4.358   0.685  11.396  1.1650  0.9065  2.1008
  815MPD2     N12055   4.291   0.339  11.684  0.7772  0.7868 -0.0449
  815MPD2    H512056   4.208   0.379  11.727  0.8829  0.8071  0.1398
  815MPD2    N112057   4.603   0.308  11.307 -0.3645 -0.1216 -0.2110
  815MPD2    H712058   4.617   0.344  11.213  1.4919 -1.5909 -0.4944
  816MPD2     C12059   4.368   4.416  17.203  0.6984 -0.4811 -0.4979
  816MPD2    C112060   4.466   4.516  17.204  0.1666  0.1757 -0.2306
  816MPD2    C212061   4.561   4.523  17.101 -0.2018 -0.5656  0.0541
  816MPD2    C312062   4.555   4.436  16.992 -0.3591 -0.0962 -0.0804
  816MPD2    C412063   4.461   4.334  16.990  0.0510 -0.4652 -0.1221
  816MPD2    C512064   4.370   4.323  17.101 -0.4326 -1.3022  0.2517
  816MPD2     H12065   4.640   4.598  17.106 -0.6652 -0.0639 -0.1410
  816MPD2    H112066   4.454   4.255  16.916  0.2644  1.4536 -2.1887
  816MPD2    H212067   4.295   4.411  17.283 -1.1154  0.9002 -2.0651
  816MPD2    H312068   4.292   4.249  17.102 -1.1901 -0.5591 -3.7773
  816MPD2     N12069   4.649   4.443  16.882 -0.6779 -0.3055  0.6602
  816MPD2    H512070   4.729   4.503  16.899 -0.5808  0.0004 -0.8547
  816MPD2    N112071   4.471   4.609  17.311  0.3644 -0.8346  0.2014
  816MPD2    H712072   4.385   4.621  17.364  0.5439  1.3841  0.0024
  817MPD2     C12073   3.312   1.218   9.956 -0.5652  0.9348  0.1836
  817MPD2    C112074   3.408   1.228   9.853 -0.5487  0.6360  0.2772
  817MPD2    C212075   3.414   1.345   9.775 -0.6597  0.8217 -0.8167
  817MPD2    C312076   3.343   1.456   9.804 -0.2260 -0.3347 -0.3400
  817MPD2    C412077   3.257   1.442   9.915 -0.3255 -0.1858 -0.1515
  817MPD2    C512078   3.240   1.327   9.980 -0.3072  0.1789  0.2365
  817MPD2     H12079   3.490   1.350   9.698 -0.4223 -0.1251 -0.6459
  817MPD2    H112080   3.190   1.525   9.929 -2.0533 -1.5074 -0.5527
  817MPD2    H212081   3.297   1.125  10.009 -1.1047  0.2248 -1.2051
  817MPD2    H312082   3.168   1.332  10.061 -2.4830 -0.5706 -1.6439
  817MPD2     N12083   3.362   1.567   9.726  0.7459  0.0352  0.7533
  817MPD2    H512084   3.423   1.556   9.645  0.4715  0.8289  0.4310
  817MPD2    N112085   3.495   1.119   9.821 -0.3671  0.0059  0.1968
  817MPD2    H712086   3.536   1.117   9.729 -0.6833  1.3422  0.0341
  818MPD2     C12087   2.898   0.987   9.506  0.5102  0.0277 -0.3077
  818MPD2    C112088   2.787   0.963   9.585  0.3301  0.2165  0.8219
  818MPD2    C212089   2.697   0.864   9.548  0.1066 -0.3142  0.1393
  818MPD2    C312090   2.734   0.777   9.452 -0.1148  0.3349 -0.4838
  818MPD2    C412091   2.848   0.793   9.375 -0.4649 -0.2821 -0.1592
  818MPD2    C512092   2.928   0.901   9.401 -0.0238  0.3146  0.3070
  818MPD2     H12093   2.613   0.846   9.614 -1.2287  2.5737 -0.7796
  818MPD2    H112094   2.881   0.723   9.299  2.2043  0.6476  0.1814
  818MPD2    H212095   2.972   1.065   9.518  0.2041 -0.0700  2.1042
  818MPD2    H312096   3.023   0.901   9.348 -1.8593  2.1604 -2.9816
  818MPD2     N12097   2.655   0.673   9.407 -0.3101 -0.5596  0.4326
  818MPD2    H512098   2.663   0.634   9.314 -0.1098 -0.9068  0.5952
  818MPD2    N112099   2.748   1.037   9.699  0.8553  0.4497 -0.2825
  818MPD2    H712100   2.668   1.004   9.753 -0.7816  0.7703 -2.4705
  819MPD2     C12101   1.079   3.034  15.438 -0.1724 -0.7487 -0.0539
  819MPD2    C112102   1.118   2.898  15.419  1.0843 -0.8893 -0.0726
  819MPD2    C212103   1.237   2.850  15.476 -0.3740 -0.4922 -0.4564
  819MPD2    C312104   1.310   2.933  15.555  0.1096 -0.1850  0.9177
  819MPD2    C412105   1.270   3.068  15.574 -1.1899  0.2444  0.0405
  819MPD2    C512106   1.166   3.121  15.498 -0.0563 -0.1609 -0.2173
  819MPD2     H12107   1.272   2.748  15.461  0.3776 -0.2301 -0.5131
  819MPD2    H112108   1.335   3.130  15.634 -1.7037 -0.4086  1.2810
  819MPD2    H212109   0.998   3.084  15.387  0.5008  0.2727 -0.1307
  819MPD2    H312110   1.144   3.227  15.497 -0.8577 -0.3226  0.9926
  819MPD2     N12111   1.428   2.873  15.618  0.1148  0.0529 -0.8136
  819MPD2    H512112   1.461   2.785  15.578  3.7695  1.6832 -1.4401
  819MPD2    N112113   1.026   2.816  15.343 -0.0674  0.1447  0.0190
  819MPD2    H712114   0.939   2.854  15.306 -0.8627  0.3419  2.0526
  820MPD2     C12115   0.444   2.994  14.707 -1.1720  0.1355  0.5941
  820MPD2    C112116   0.456   3.025  14.842 -0.1254 -0.2583  0.4491
  820MPD2    C212117   0.505   2.928  14.927  0.4096 -0.4167  0.0433
  820MPD2    C312118   0.543   2.802  14.885  0.2605  0.2260 -0.4409
  820MPD2    C412119   0.521   2.777  14.748 -0.0541  0.1631 -0.7889
  820MPD2    C512120   0.481   2.871  14.661  0.0126  0.2807 -0.1661
  820MPD2     H12121   0.539   2.950  15.027 -0.2767  0.1103  0.1552
  820MPD2    H112122   0.565   2.689  14.703 -0.0328  0.0529 -0.5481
  820MPD2    H212123   0.405   3.065  14.635  0.4863 -0.0118 -0.4392
  820MPD2    H312124   0.464   2.845  14.557 -0.6690  1.0981 -0.2555
  820MPD2     N12125   0.596   2.705  14.967 -0.2298 -0.6085 -0.2014
  820MPD2    H512126   0.616   2.616  14.923  1.7874  0.2302 -0.9715
  820MPD2    N112127   0.432   3.155  14.883 -0.2328  0.0147  0.5588
  820MPD2    H712128   0.403   3.217  14.808  1.6434  0.3069  0.0982
  821MPD2     C12129   0.820   4.704  13.139 -0.0185  0.2612 -0.4783
  821MPD2    C112130   0.905   4.600  13.169  0.5555 -0.1238 -0.5880
  821MPD2    C212131   1.037   4.603  13.138  0.3057  0.2676 -0.6273
  821MPD2    C312132   1.079   4.711  13.069 -0.5918  0.4836  0.0248
  821MPD2    C412133   0.999   0.072  13.032 -0.1087  0.3685  0.1290
  821MPD2    C512134   0.865   0.070  13.060 -0.5421  0.2213  0.4139
  821MPD2     H12135   1.104   4.520  13.162  1.1522  0.4545 -2.2694
  821MPD2    H112136   1.037   0.157  12.976 -0.7290  1.7101  1.7604
  821MPD2    H212137   0.716   4.708  13.168 -0.2127  0.8868 -1.2788
  821MPD2    H312138   0.790   0.136  13.019 -1.0926 -0.6696 -0.0011
  821MPD2     N12139   1.217   0.001  13.048  0.0657  0.2219 -0.0907
  821MPD2    H512140   1.244   0.088  13.004 -0.1529  0.3805  0.0927
  821MPD2    N112141   0.867   4.489  13.246  0.5703  0.1828 -0.4697
  821MPD2    H712142   0.939   4.422  13.270 -1.5865 -2.2532 -0.7968
  822MPD2     C12143   1.887   3.967  16.059 -0.7138  0.0946  0.5885
  822MPD2    C112144   1.881   3.921  16.188  0.2926  0.2551  0.6332
  822MPD2    C212145   1.813   3.997  16.281  0.7293 -0.2357  0.0540
  822MPD2    C312146   1.765   4.124  16.252  0.3775 -0.0689  0.7615
  822MPD2    C412147   1.777   4.165  16.120 -0.5171 -0.3083 -0.2879
  822MPD2    C512148   1.834   4.088  16.022 -0.4966  0.4016 -0.2893
  822MPD2     H12149   1.802   3.961  16.383 -1.2702  1.5211  0.4699
  822MPD2    H112150   1.729   4.253  16.076 -0.8217  0.1941  1.0538
  822MPD2    H212151   1.929   3.907  15.978 -2.6689  0.4383 -0.6958
  822MPD2    H312152   1.842   4.122  15.920 -1.3791  2.0876  0.2133
  822MPD2     N12153   1.720   4.201  16.363  0.4192 -0.7881 -0.7464
  822MPD2    H512154   1.723   4.165  16.457  1.5911  3.7934  0.9505
  822MPD2    N112155   1.933   3.799  16.228 -0.2225 -0.1253  0.1527
  822MPD2    H712156   1.909   3.772  16.323  0.2719 -0.0142  0.3116
  823MPD2     C12157   1.539   4.380  17.191  0.3700  0.5329 -0.0600
  823MPD2    C112158   1.555   4.308  17.073 -0.6661  0.5222  0.0001
  823MPD2    C212159   1.544   4.169  17.088  0.5574  0.1659  0.6366
  823MPD2    C312160   1.512   4.107  17.207 -0.6508  0.7822  0.0699
  823MPD2    C412161   1.509   4.181  17.322 -0.3088 -0.4731  0.2182
  823MPD2    C512162   1.510   4.318  17.310  0.4833  0.2287  0.2709
  823MPD2     H12163   1.569   4.103  17.006 -0.1729  2.4965 -1.4784
  823MPD2    H112164   1.511   4.141  17.423 -0.7100 -1.6029 -0.2212
  823MPD2    H212165   1.541   4.488  17.196  2.8904  0.4343  1.2643
  823MPD2    H312166   1.513   4.381  17.398  0.6391  0.9789 -0.2744
  823MPD2     N12167   1.517   3.968  17.223 -0.1782 -0.4038 -0.5589
  823MPD2    H512168   1.517   3.933  17.318  1.2562  0.7826 -0.1330
  823MPD2    N112169   1.583   4.374  16.947  0.0752  0.2206 -0.2842
  823MPD2    H712170   1.603   4.473  16.952  0.7870  0.0766 -0.2802
  824MPD2     C12171   2.656   3.324  16.262  0.5976 -0.5635  0.1408
  824MPD2    C112172   2.565   3.350  16.159  0.6171 -0.3120 -0.4306
  824MPD2    C212173   2.593   3.309  16.031  0.1676 -0.2808 -0.0690
  824MPD2    C312174   2.707   3.226  16.006 -0.2801  0.2149 -0.1541
  824MPD2    C412175   2.784   3.176  16.110 -0.1530 -0.4958  0.3217
  824MPD2    C512176   2.762   3.233  16.235 -0.0347  0.0420  0.1034
  824MPD2     H12177   2.536   3.354  15.951  0.0061 -1.0781 -0.3975
  824MPD2    H112178   2.855   3.094  16.102 -2.1473 -1.9314 -2.3911
  824MPD2    H212179   2.648   3.366  16.362  0.0469 -1.8260  0.6251
  824MPD2    H312180   2.821   3.205  16.321 -1.0023 -0.1144  0.7149
  824MPD2     N12181   2.740   3.187  15.877  1.0176  0.0254 -0.0621
  824MPD2    H512182   2.685   3.229  15.803  1.0202 -1.5717 -0.9875
  824MPD2    N112183   2.441   3.415  16.185 -0.3236  0.0075 -0.0585
  824MPD2    H712184   2.381   3.423  16.103  1.7464 -2.9746 -1.8802
  825MPD2     C12185   3.263   3.411  15.210  0.6536  0.2235  0.2112
  825MPD2    C112186   3.137   3.427  15.262 -0.0198 -0.2021 -0.1301
  825MPD2    C212187   3.067   3.544  15.239  0.8165  0.0042 -0.2840
  825MPD2    C312188   3.117   3.642  15.161  0.4747 -0.2274 -0.3527
  825MPD2    C412189   3.246   3.623  15.100 -0.3940 -0.1204  0.6661
  825MPD2    C512190   3.316   3.513  15.135  1.0186  0.0100  0.0440
  825MPD2     H12191   2.972   3.561  15.287  0.2463 -1.8805 -0.7379
  825MPD2    H112192   3.290   3.697  15.035  0.0358 -0.6299  0.3710
  825MPD2    H212193   3.321   3.320  15.218  0.2353 -0.0781 -0.1818
  825MPD2    H312194   3.420   3.503  15.106  0.0757  1.4874 -3.8547
  825MPD2     N12195   3.054   3.764  15.135  0.5054  0.3304  0.4853
  825MPD2    H512196   3.098   3.837  15.079 -0.8637  2.6678  2.4811
  825MPD2    N112197   3.091   3.329  15.355  0.1587  0.3862  0.1423
  825MPD2    H712198   3.158   3.255  15.376 -1.7786 -0.1239  4.4767
  826MPD2     C12199   2.255   3.654  13.676  0.4823  0.1229 -0.2950
  826MPD2    C112200   2.350   3.753  13.674  0.2213  0.5333 -0.2531
  826MPD2    C212201   2.300   3.882  13.668  0.6514 -0.0353 -0.2447
  826MPD2    C312202   2.167   3.906  13.668  0.1674  0.3947  0.3864
  826MPD2    C412203   2.072   3.802  13.690  1.1249  0.3231 -0.0594
  826MPD2    C512204   2.122   3.678  13.680  0.6446  0.4237 -0.0645
  826MPD2     H12205   2.366   3.965  13.648 -2.7125  2.8951  0.9336
  826MPD2    H112206   1.969   3.829  13.712  1.0261  0.0186 -0.1481
  826MPD2    H212207   2.289   3.554  13.651 -0.3304 -0.1364 -0.3492
  826MPD2    H312208   2.060   3.589  13.687  0.5529  0.4050 -0.9927
  826MPD2     N12209   2.118   4.037  13.659 -0.0965  0.1135 -0.0284
  826MPD2    H512210   2.020   4.040  13.686 -0.2861  0.9387 -0.8093
  826MPD2    N112211   2.493   3.723  13.667  0.1977 -0.3617  0.5323
  826MPD2    H712212   2.524   3.628  13.679 -0.7309 -0.4735  2.0242
  827MPD2     C12213   3.230   0.267   9.857  0.6048  0.8843 -0.6756
  827MPD2    C112214   3.131   0.209   9.940 -0.3596  0.5985 -0.7369
  827MPD2    C212215   3.031   0.135   9.889 -0.3199  0.2372 -0.5384
  827MPD2    C312216   3.023   0.112   9.749 -0.2245 -0.7680 -0.2441
  827MPD2    C412217   3.114   0.166   9.664 -0.7101  0.0910 -0.6977
  827MPD2    C512218   3.215   0.248   9.722 -0.5789 -0.4083  0.1215
  827MPD2     H12219   2.971   0.076   9.956  0.2547  1.3027  0.9181
  827MPD2    H112220   3.115   0.140   9.559 -2.5964  2.3855 -1.2749
  827MPD2    H212221   3.308   0.330   9.897  1.7063  1.0851 -3.0967
  827MPD2    H312222   3.287   0.291   9.654 -0.1197  0.0168  0.8815
  827MPD2     N12223   2.915   0.033   9.712  0.0064 -0.1074 -0.2878
  827MPD2    H512224   2.852   4.733   9.782  0.9722 -0.6511  0.3082
  827MPD2    N112225   3.171   0.215  10.080  0.1810  0.1541 -0.1525
  827MPD2    H712226   3.252   0.270  10.105  0.0317 -0.0574  0.8128
  828MPD2     C12227   1.988   0.309  12.302  0.0732  0.2404 -0.0730
  828MPD2    C112228   1.871   0.300  12.226 -0.0159 -1.0532 -0.5787
  828MPD2    C212229   1.889   0.256  12.094 -0.2261 -0.1270  0.8371
  828MPD2    C312230   2.014   0.226  12.041 -0.0639 -0.0547  0.1764
  828MPD2    C412231   2.128   0.245  12.118  0.2632 -0.4219 -0.1991
  828MPD2    C512232   2.109   0.277  12.250  0.4566 -0.2934 -0.3143
  828MPD2     H12233   1.799   0.242  12.035  0.2694  0.8961 -0.1680
  828MPD2    H112234   2.230   0.228  12.085  1.0651  1.7615  1.1661
  828MPD2    H212235   1.988   0.336  12.407 -1.0172  1.2275 -0.3252
  828MPD2    H312236   2.197   0.273  12.314  1.2372  3.3946 -1.1810
  828MPD2     N12237   2.033   0.179  11.909  0.1487 -0.2948  0.8933
  828MPD2    H512238   2.129   0.175  11.876 -0.5159  0.9822 -1.1923
  828MPD2    N112239   1.740   0.313  12.283  0.3702  0.0771 -0.0096
  828MPD2    H712240   1.657   0.289  12.230 -1.2623  0.7671  2.2966
  829MPD2     C12241   1.079   0.262  11.798  0.2490 -0.0568  0.6747
  829MPD2    C112242   1.009   0.256  11.913 -0.0217  1.2272  0.0531
  829MPD2    C212243   1.076   0.297  12.030  0.2059  0.3374  0.1005
  829MPD2    C312244   1.205   0.338  12.024  0.3308 -0.1094  0.4402
  829MPD2    C412245   1.277   0.336  11.905 -0.0038 -0.6229  0.6583
  829MPD2    C512246   1.216   0.287  11.789  0.1331  0.4603 -0.7669
  829MPD2     H12247   1.011   0.306  12.117 -0.1205  1.1570 -0.2212
  829MPD2    H112248   1.379   0.369  11.892 -0.3546  0.2497  0.0620
  829MPD2    H212249   1.025   0.217  11.715  0.1465  1.9865 -0.3607
  829MPD2    H312250   1.269   0.271  11.695  1.8053  0.5271  0.1550
  829MPD2     N12251   1.285   0.370  12.134  0.3950  0.4278  0.4205
  829MPD2    H512252   1.377   0.410  12.120 -0.6952  2.4334 -1.0175
  829MPD2    N112253   0.868   0.233  11.897  0.0212 -0.4540 -0.4614
  829MPD2    H712254   0.840   0.223  11.800  0.0916 -1.5320 -0.3635
  830MPD2     C12255   2.276   2.704  15.628  0.3548 -0.4170 -0.6364
  830MPD2    C112256   2.160   2.732  15.564 -0.1778 -0.0597  0.1527
  830MPD2    C212257   2.172   2.784  15.436  0.2071  0.7978  0.1910
  830MPD2    C312258   2.294   2.807  15.375 -0.4639 -0.7212  0.3811
  830MPD2    C412259   2.406   2.767  15.438  0.0215  0.4663  0.0518
  830MPD2    C512260   2.398   2.715  15.565  0.0340  0.0861 -0.4031
  830MPD2     H12261   2.081   2.809  15.383 -0.3192 -0.4154  0.5286
  830MPD2    H112262   2.503   2.784  15.392 -0.8088  0.0276 -1.8216
  830MPD2    H212263   2.281   2.656  15.725  1.2160 -2.2092 -1.5780
  830MPD2    H312264   2.489   2.695  15.618 -0.5232 -0.2014  0.4414
  830MPD2     N12265   2.310   2.877  15.256 -0.0224  0.1332 -0.2146
  830MPD2    H512266   2.403   2.903  15.226  0.1527  0.8283  0.9336
  830MPD2    N112267   2.041   2.720  15.640 -0.1092 -0.0994  0.0501
  830MPD2    H712268   2.062   2.682  15.731 -0.5534 -3.5105 -1.2662
  831MPD2     C12269   2.101   4.234  16.566 -0.3274  0.6351 -0.3849
  831MPD2    C112270   2.113   4.117  16.505  0.5076 -0.1444 -0.2062
  831MPD2    C212271   2.028   4.010  16.546  0.0217 -0.2691 -0.2554
  831MPD2    C312272   1.922   4.023  16.631 -0.1863 -0.3769 -0.1122
  831MPD2    C412273   1.904   4.156  16.688 -0.5516  0.1926 -0.3590
  831MPD2    C512274   1.999   4.249  16.650  0.9182  0.2115 -0.8147
  831MPD2     H12275   2.039   3.914  16.496 -0.2842 -0.7364  0.5804
  831MPD2    H112276   1.826   4.184  16.757 -0.3462  0.5224 -0.2573
  831MPD2    H212277   2.172   4.312  16.543 -1.9697  2.0948 -0.5417
  831MPD2    H312278   2.000   4.348  16.694  2.5206  0.0958 -0.5879
  831MPD2     N12279   1.840   3.918  16.648  0.3350 -0.4026 -0.0937
  831MPD2    H512280   1.848   3.833  16.593 -0.6088  0.0309 -0.8944
  831MPD2    N112281   2.199   4.113  16.392 -0.3570  0.2516  0.4763
  831MPD2    H712282   2.230   4.204  16.360  0.8425 -0.0352  0.8515
  832MPD2     C12283   0.575   0.905  17.436 -0.4425 -0.0214  0.0588
  832MPD2    C112284   0.550   1.019  17.356 -0.4690 -0.7076 -0.7768
  832MPD2    C212285   0.431   1.031  17.288  0.0600 -0.3868  0.2246
  832MPD2    C312286   0.341   0.922  17.293  0.6775 -0.3930  0.4673
  832MPD2    C412287   0.371   0.807  17.364 -0.2126 -0.6306 -0.1448
  832MPD2    C512288   0.486   0.804  17.437  0.3880 -0.5825 -0.0205
  832MPD2     H12289   0.398   1.129  17.254 -0.8531 -0.8334 -0.1486
  832MPD2    H112290   0.302   0.723  17.365 -2.6544  1.4106  2.8836
  832MPD2    H212291   0.664   0.898  17.498 -1.2673  1.8784  1.4783
  832MPD2    H312292   0.509   0.716  17.496  0.7258  0.2799  1.1367
  832MPD2     N12293   0.220   0.924  17.221  0.0604  0.0128  0.6332
  832MPD2    H512294   0.164   0.840  17.232 -1.1881  0.5682 -1.4023
  832MPD2    N112295   0.644   1.122  17.359  0.2062 -1.0190 -0.5903
  832MPD2    H712296   0.719   1.093  17.421 -2.9576 -1.5984  2.9554
  833MPD2     C12297   3.061   2.519  12.098 -0.6357  0.4941  0.5506
  833MPD2    C112298   3.041   2.602  11.991 -0.3116 -0.1783 -0.2931
  833MPD2    C212299   3.057   2.561  11.859  0.1284 -0.6497 -0.1730
  833MPD2    C312300   3.089   2.428  11.835 -0.1984 -0.1522 -0.0999
  833MPD2    C412301   3.116   2.346  11.946 -0.0652 -0.3000 -0.1638
  833MPD2    C512302   3.106   2.391  12.077  0.0192 -0.1935  0.0419
  833MPD2     H12303   3.056   2.634  11.779 -0.1547 -1.1348 -0.6077
  833MPD2    H112304   3.136   2.242  11.925 -2.1009 -0.3373 -1.8800
  833MPD2    H212305   3.059   2.549  12.202 -1.3643  2.3591 -0.0033
  833MPD2    H312306   3.135   2.328  12.161 -0.4804  1.1527  1.2196
  833MPD2     N12307   3.098   2.372  11.701  0.0358 -0.1872  0.3089
  833MPD2    H512308   3.117   2.273  11.688 -1.7744 -0.7986  2.3175
  833MPD2    N112309   2.973   2.721  12.019  0.1897 -0.3976  0.6507
  833MPD2    H712310   2.951   2.737  12.116 -0.9119 -1.1368  0.5254
  834MPD2     C12311   2.867   1.547  11.575 -0.6284  0.2531  0.4209
  834MPD2    C112312   2.856   1.598  11.445 -0.4332 -0.6815 -0.0823
  834MPD2    C212313   2.868   1.732  11.417  0.4386 -0.2608 -0.1091
  834MPD2    C312314   2.889   1.820  11.523  0.0116 -0.1982 -0.9036
  834MPD2    C412315   2.891   1.762  11.652  0.4355 -0.3698  0.4855
  834MPD2    C512316   2.875   1.633  11.680  0.4572 -0.7135  0.4668
  834MPD2     H12317   2.870   1.776  11.318  0.3970  2.0958  0.9318
  834MPD2    H112318   2.919   1.820  11.740 -0.1179  2.2541 -1.0744
  834MPD2    H212319   2.856   1.440  11.586 -0.0872  0.2335  0.7484
  834MPD2    H312320   2.867   1.595  11.781  1.3599 -0.6977  0.5433
  834MPD2     N12321   2.922   1.956  11.509 -0.2324  0.0015 -1.0483
  834MPD2    H512322   2.935   2.005  11.597  1.1121  0.0313 -1.2562
  834MPD2    N112323   2.830   1.503  11.341 -0.5333 -0.1451 -0.0608
  834MPD2    H712324   2.812   1.407  11.370 -2.2682  0.1880 -0.0320
  835MPD2     C12325   2.728   0.282  11.145 -0.8772 -0.6017 -0.2509
  835MPD2    C112326   2.610   0.330  11.193  0.0033 -0.0665  0.8960
  835MPD2    C212327   2.605   0.374  11.324 -0.3885  0.6453 -0.2503
  835MPD2    C312328   2.717   0.385  11.406  0.0046  0.2936  0.4043
  835MPD2    C412329   2.838   0.354  11.350  0.2693  0.3177 -0.2183
  835MPD2    C512330   2.841   0.294  11.221 -0.1491 -0.8602 -0.0791
  835MPD2     H12331   2.506   0.400  11.358 -0.8044 -0.2742 -0.7716
  835MPD2    H112332   2.934   0.362  11.399  0.0549  1.3214  0.0402
  835MPD2    H212333   2.738   0.255  11.041  1.9006 -0.6845  0.0442
  835MPD2    H312334   2.933   0.273  11.168  0.9987  0.7289  1.2748
  835MPD2     N12335   2.695   0.435  11.533  0.1289 -0.7798  0.1181
  835MPD2    H512336   2.605   0.471  11.562  1.3845  1.3587  1.3650
  835MPD2    N112337   2.490   0.324  11.119  0.6281  0.1346 -0.3501
  835MPD2    H712338   2.407   0.368  11.158 -0.2527 -1.3663 -0.5570
  836MPD2     C12339   2.131   0.445  11.736 -0.4320  0.1555 -0.0458
  836MPD2    C112340   2.203   0.487  11.848 -0.5378  0.7503  0.0362
  836MPD2    C212341   2.123   0.529  11.953  0.0237 -0.2221  0.7974
  836MPD2    C312342   1.984   0.547  11.946  0.3884 -0.7140  0.6027
  836MPD2    C412343   1.923   0.483  11.837  0.1030 -0.3519  0.1553
  836MPD2    C512344   1.996   0.439  11.730 -0.2181  0.2805 -0.4431
  836MPD2     H12345   2.175   0.557  12.044 -0.8508 -2.2545  1.9150
  836MPD2    H112346   1.815   0.481  11.837  0.0363  2.5157  1.4159
  836MPD2    H212347   2.181   0.399  11.652  0.3943  2.4790 -0.8306
  836MPD2    H312348   1.955   0.392  11.642  1.6626  0.1522 -1.2414
  836MPD2     N12349   1.897   0.593  12.049  0.7904 -1.0059  0.1324
  836MPD2    H512350   1.799   0.575  12.026  1.5339 -2.5197 -1.9162
  836MPD2    N112351   2.347   0.478  11.848 -0.1299 -0.0506 -0.1843
  836MPD2    H712352   2.383   0.444  11.759 -1.4260  1.4422 -1.2743
  837MPD2     C12353   0.462   4.704   9.918 -0.5639  0.2740 -0.4302
  837MPD2    C112354   0.333   4.693   9.944 -0.3624  0.6504 -0.6007
  837MPD2    C212355   0.265   0.063   9.996 -0.5142  0.2800 -0.4451
  837MPD2    C312356   0.325   0.185  10.000 -0.2420  0.2466  0.3417
  837MPD2    C412357   0.461   0.200   9.972 -0.8547  0.9016  0.0164
  837MPD2    C512358   0.525   0.090   9.925 -0.0111  0.6173 -0.6623
  837MPD2     H12359   0.160   0.058  10.024 -0.0423 -4.1829  0.5440
  837MPD2    H112360   0.505   0.297   9.956  0.0675  0.8563  2.3521
  837MPD2    H212361   0.520   4.618   9.886 -1.0690 -0.7946  1.5447
  837MPD2    H312362   0.630   0.099   9.899  0.8053 -1.9088  1.7724
  837MPD2     N12363   0.241   0.295  10.035  0.2413  0.1854 -0.1053
  837MPD2    H512364   0.142   0.275  10.049  0.6365  1.5492  4.5403
  837MPD2    N112365   0.260   4.574   9.923  0.1658  0.2219 -0.0907
  837MPD2    H712366   0.160   4.578   9.941  0.1534  0.5212 -0.2411
  838MPD2     C12367   3.714   2.996  11.449  0.5111 -0.3791 -0.1461
  838MPD2    C112368   3.785   2.930  11.547 -0.2707  0.1928  0.5612
  838MPD2    C212369   3.702   2.889  11.652  0.0191  0.2283 -0.0042
  838MPD2    C312370   3.568   2.912  11.656  0.0944 -0.2046 -0.0490
  838MPD2    C412371   3.509   2.984  11.559 -0.0687  0.1679 -0.2569
  838MPD2    C512372   3.582   3.027  11.456 -0.2075 -0.3038  0.3120
  838MPD2     H12373   3.743   2.834  11.737  1.1752 -1.1254 -1.4218
  838MPD2    H112374   3.408   3.020  11.549 -0.2567  0.2254  1.8734
  838MPD2    H212375   3.772   3.021  11.361 -0.6489  0.3188 -0.7096
  838MPD2    H312376   3.527   3.080  11.379 -0.8554 -0.0116  0.9742
  838MPD2     N12377   3.489   2.852  11.753 -0.2762 -0.0688  0.1767
  838MPD2    H512378   3.545   2.790  11.812 -1.3291 -1.5396 -0.3509
  838MPD2    N112379   3.921   2.900  11.515  0.0536  0.1757 -0.0259
  838MPD2    H712380   3.958   2.935  11.427 -0.9157  2.7335  0.5897
  839MPD2     C12381   3.518   2.393  11.537 -0.1723  0.4320  0.0574
  839MPD2    C112382   3.596   2.316  11.460 -0.2042  0.4532 -0.0933
  839MPD2    C212383   3.737   2.342  11.464  0.0756 -0.6120  0.2206
  839MPD2    C312384   3.784   2.454  11.525  0.4373 -0.1332 -0.0559
  839MPD2    C412385   3.697   2.539  11.582  0.7831  0.4001  0.3921
  839MPD2    C512386   3.566   2.507  11.593  0.7113  0.3189  0.5108
  839MPD2     H12387   3.809   2.275  11.419 -0.9643  0.1040 -2.4962
  839MPD2    H112388   3.720   2.634  11.627 -0.7291  0.8574  0.1955
  839MPD2    H212389   3.414   2.366  11.545 -0.2214  0.6797  0.2696
  839MPD2    H312390   3.500   2.568  11.654  1.8416 -0.7483  2.8178
  839MPD2     N12391   3.915   2.507  11.521  0.3112  0.4457 -0.3344
  839MPD2    H512392   3.939   2.585  11.580  0.0859  1.4676 -1.5895
  839MPD2    N112393   3.548   2.208  11.374 -0.1119 -0.6724 -0.1921
  839MPD2    H712394   3.612   2.160  11.311  0.2069 -2.7361  1.7081
  840MPD2     C12395   3.592   0.575  10.353 -0.0422 -0.2626 -0.8579
  840MPD2    C112396   3.604   0.456  10.415  0.2213 -0.7205 -0.4718
  840MPD2    C212397   3.724   0.433  10.486 -0.0993  0.2510  0.3634
  840MPD2    C312398   3.822   0.535  10.490  0.3861 -0.1717 -0.1071
  840MPD2    C412399   3.796   0.661  10.427  0.0277  0.1602  0.2700
  840MPD2    C512400   3.681   0.677  10.358 -0.9706 -0.0999  0.2216
  840MPD2     H12401   3.752   0.339  10.531 -1.1923 -0.0297  0.4749
  840MPD2    H112402   3.881   0.727  10.428  1.2355 -1.3788 -0.0664
  840MPD2    H212403   3.510   0.623  10.301 -0.8333  0.1124  0.7209
  840MPD2    H312404   3.667   0.755  10.284  0.3257 -0.2854 -0.2276
  840MPD2     N12405   3.951   0.524  10.552  0.4298  0.4060  0.2873
  840MPD2    H512406   4.015   0.602  10.559  0.7178  0.2763 -0.8295
  840MPD2    N112407   3.498   0.361  10.411  0.6817 -0.0758 -0.0308
  840MPD2    H712408   3.420   0.363  10.346 -0.4820 -0.0510  1.3685
  841MPD2     C12409   4.346   0.385  14.202  0.2780 -0.4901  0.3526
  841MPD2    C112410   4.274   0.320  14.303 -0.0771 -0.3520  0.9006
  841MPD2    C212411   4.304   0.354  14.440 -0.1235  0.3332  0.4640
  841MPD2    C312412   4.400   0.444  14.473 -0.1572 -0.8483  1.1735
  841MPD2    C412413   4.463   0.508  14.370 -0.3426 -0.0969  0.2662
  841MPD2    C512414   4.440   0.482  14.239 -0.3586 -0.0217  0.2541
  841MPD2     H12415   4.246   0.307  14.518 -0.5670 -0.0793 -0.1139
  841MPD2    H112416   4.534   0.586  14.392 -0.5459  0.0950  0.2357
  841MPD2    H212417   4.346   0.360  14.096  1.2108  1.4328 -0.0886
  841MPD2    H312418   4.490   0.538  14.161  0.7614  0.3095  1.2177
  841MPD2     N12419   4.427   0.472  14.610 -0.2039 -0.1034 -0.3848
  841MPD2    H512420   4.357   0.451  14.681  1.9997  0.6190  1.9897
  841MPD2    N112421   4.190   0.219  14.276  0.1911 -0.0618 -0.2001
  841MPD2    H712422   4.142   0.176  14.354 -0.9667 -2.0759 -2.0218
  842MPD2     C12423   4.513   1.365  16.885  0.1166 -0.3451  0.2979
  842MPD2    C112424   4.382   1.315  16.901  1.0659 -0.3183 -0.2994
  842MPD2    C212425   4.338   1.255  17.023  0.2570  0.5237  0.4108
  842MPD2    C312426   4.423   1.243  17.130  0.1205 -0.4963  0.3332
  842MPD2    C412427   4.552   1.279  17.111 -0.1538 -0.2417  1.1950
  842MPD2    C512428   4.593   1.338  16.987  0.3001 -0.5612  0.0352
  842MPD2     H12429   4.239   1.211  17.024  0.5239 -0.0963 -0.7635
  842MPD2    H112430   4.629   1.286  17.188  0.0034 -0.0442  1.0222
  842MPD2    H212431   4.557   1.405  16.794 -0.8365  2.3898  1.0231
  842MPD2    H312432   4.698   1.366  16.991  0.3629 -1.0129  1.5223
  842MPD2     N12433   4.385   1.201  17.257 -0.4769 -0.7515 -0.8063
  842MPD2    H512434   4.455   1.218  17.329 -2.7464 -0.9478  1.4478
  842MPD2    N112435   4.298   1.330  16.787  0.5628 -0.9124 -0.0871
  842MPD2    H712436   4.327   1.357  16.693 -0.5338 -0.2037 -0.2122
  843MPD2     C12437   2.099   1.881   0.198  0.8221  0.1582 -0.3870
  843MPD2    C112438   2.223   1.907   0.146 -0.1802 -0.4569 -0.1390
  843MPD2    C212439   2.274   2.033   0.162 -0.3836  0.1940 -0.3867
  843MPD2    C312440   2.198   2.132   0.224  0.0359 -0.7102 -0.0641
  843MPD2    C412441   2.079   2.102   0.274  0.0430 -0.4430 -0.2772
  843MPD2    C512442   2.024   1.979   0.248 -0.1015 -0.1854  0.6475
  843MPD2     H12443   2.373   2.047   0.119 -0.1075  0.9291  0.4748
  843MPD2    H112444   2.017   2.169   0.332 -0.3684  0.6654 -1.9913
  843MPD2    H212445   2.051   1.785   0.181 -1.5108  1.1777  0.5122
  843MPD2    H312446   1.927   1.952   0.286 -0.4584 -0.5081 -0.4856
  843MPD2     N12447   2.255   2.261   0.246  0.0900 -0.8884  0.1750
  843MPD2    H512448   2.187   2.328   0.282  1.3980  1.2687 -1.3653
  843MPD2    N112449   2.283   1.809   0.060  0.2453  0.3793 -0.0316
  843MPD2    H712450   2.241   1.720   0.039  1.7027 -0.4881  0.7190
  844MPD2     C12451   4.665   0.669  16.800  0.1621  0.0654  0.1019
  844MPD2    C112452   0.020   0.699  16.695  0.4843 -0.4245 -0.3103
  844MPD2    C212453   0.156   0.705  16.723 -0.6540  0.6050  0.3520
  844MPD2    C312454   0.202   0.699  16.859  0.1683 -0.0125 -0.1045
  844MPD2    C412455   0.114   0.673  16.961  0.1383 -0.3454 -0.1694
  844MPD2    C512456   4.716   0.654  16.934 -0.0428  0.3749  0.0457
  844MPD2     H12457   0.226   0.734  16.646 -0.1658  1.5556  1.1472
  844MPD2    H112458   0.146   0.660  17.064 -0.4399 -2.1992 -0.2238
  844MPD2    H212459   4.558   0.657  16.789  0.1029  1.5986 -0.9218
  844MPD2    H312460   4.652   0.616  17.013  2.2793 -0.9942  1.2703
  844MPD2     N12461   0.335   0.730  16.875 -0.1494 -0.3770 -0.3579
  844MPD2    H512462   0.382   0.771  16.795  2.4524 -0.9090  0.9044
  844MPD2    N112463   4.712   0.724  16.563  0.1956 -0.4278 -0.1893
  844MPD2    H712464   0.047   0.755  16.498 -0.8507 -0.1238 -1.1948
  845MPD2     C12465   0.492   1.661  16.755  0.0691 -0.4419  0.4621
  845MPD2    C112466   0.554   1.636  16.876 -0.4203 -0.3626 -0.3592
  845MPD2    C212467   0.583   1.503  16.915  0.0640  0.4532  0.5907
  845MPD2    C312468   0.529   1.397  16.847 -0.4235 -0.3138  0.7100
  845MPD2    C412469   0.467   1.426  16.726 -0.1262  0.5420 -0.0963
  845MPD2    C512470   0.454   1.552  16.680  0.6061  0.5642 -0.8729
  845MPD2     H12471   0.625   1.483  17.013 -0.5289 -2.3231  0.2794
  845MPD2    H112472   0.422   1.356  16.657 -0.3951  0.5939  0.0282
  845MPD2    H212473   0.473   1.762  16.721  0.1444 -0.8032 -0.6812
  845MPD2    H312474   0.411   1.570  16.582 -1.8130  0.7759  0.2102
  845MPD2     N12475   0.550   1.269  16.901  0.4076 -0.6385  0.2972
  845MPD2    H512476   0.599   1.269  16.990  0.1401 -0.7896  0.4428
  845MPD2    N112477   0.588   1.749  16.955 -0.1445  0.3297 -0.1419
  845MPD2    H712478   0.575   1.839  16.909 -0.6135 -0.1043 -0.8472
  846MPD2     C12479   1.869   1.926  13.289 -0.1140 -0.2021  0.3405
  846MPD2    C112480   1.818   2.048  13.329  0.5038 -0.1231 -0.0457
  846MPD2    C212481   1.812   2.083  13.460  0.3184 -0.5163 -0.0369
  846MPD2    C312482   1.851   1.989  13.553 -0.1141  0.3797  0.5279
  846MPD2    C412483   1.899   1.861  13.514 -0.1387 -0.9141 -0.7676
  846MPD2    C512484   1.906   1.831  13.381  0.0719  0.7750  0.7583
  846MPD2     H12485   1.781   2.183  13.486  1.1973 -0.7227  1.7639
  846MPD2    H112486   1.924   1.784  13.586  1.8014 -0.6175 -1.1205
  846MPD2    H212487   1.869   1.900  13.184  0.7125 -2.6573  0.9615
  846MPD2    H312488   1.915   1.733  13.334 -0.2086  1.9062 -1.6520
  846MPD2     N12489   1.853   2.027  13.689  0.1648  0.5092 -0.3717
  846MPD2    H512490   1.803   2.111  13.717  0.4252  0.3382  0.5786
  846MPD2    N112491   1.798   2.157  13.235 -0.0421  0.2464  0.1003
  846MPD2    H712492   1.781   2.249  13.274 -1.0798 -0.0367  0.3109
  847MPD2     C12493   1.986   2.903  14.239  0.7807 -0.3564 -0.2939
  847MPD2    C112494   2.067   2.981  14.317  0.3307  0.6103 -0.7578
  847MPD2    C212495   2.173   2.930  14.389  0.6003  0.0004  0.7610
  847MPD2    C312496   2.186   2.793  14.398  0.0542  0.0751 -0.1400
  847MPD2    C412497   2.091   2.715  14.335 -0.3476 -0.1483 -0.3942
  847MPD2    C512498   1.993   2.769  14.253 -0.3855 -0.1511 -0.1301
  847MPD2     H12499   2.241   3.000  14.436  2.7413 -0.6372 -1.3859
  847MPD2    H112500   2.103   2.607  14.328  0.2257 -0.1824  1.0049
  847MPD2    H212501   1.909   2.947  14.177  0.4815 -0.4958 -0.0240
  847MPD2    H312502   1.928   2.701  14.199  0.7527 -0.5061 -1.0559
  847MPD2     N12503   2.305   2.746  14.455  0.5989 -0.4160  0.5134
  847MPD2    H512504   2.363   2.815  14.502  1.1941  0.6853 -1.8176
  847MPD2    N112505   2.050   3.123  14.323  0.1719  0.1648  0.6231
  847MPD2    H712506   2.136   3.172  14.342  1.4227 -1.4541 -0.9096
  848MPD2     C12507   4.498   1.103  16.508  0.3319  0.2839 -0.3899
  848MPD2    C112508   4.621   1.133  16.568  0.3462 -0.8148 -0.2573
  848MPD2    C212509   4.717   1.196  16.487  0.8138  0.5898  0.2573
  848MPD2    C312510   4.679   1.247  16.367 -0.5309 -0.2695 -0.3078
  848MPD2    C412511   4.552   1.222  16.320 -0.5808 -0.0899 -0.1622
  848MPD2    C512512   4.464   1.143  16.385 -0.3319 -0.9755 -0.3597
  848MPD2     H12513   0.078   1.218  16.528  0.0509  2.1457  1.2609
  848MPD2    H112514   4.527   1.263  16.223  0.5011  0.5251 -0.1911
  848MPD2    H212515   4.418   1.049  16.557 -0.8798  1.2265 -1.3534
  848MPD2    H312516   4.364   1.115  16.353  0.1339 -0.3549 -2.3532
  848MPD2     N12517   0.033   1.318  16.281  0.5351 -0.3672 -0.0507
  848MPD2    H512518   4.732   1.358  16.196 -2.5420  0.4837  1.7250
  848MPD2    N112519   4.650   1.097  16.701  0.4874  0.2351 -0.1544
  848MPD2    H712520   4.726   1.151  16.741  0.0966 -1.3725  2.7156
  849MPD2     C12521   3.684   0.808  14.211 -0.1116 -0.0804 -0.4134
  849MPD2    C112522   3.756   0.900  14.129 -0.4352  0.0031 -0.1457
  849MPD2    C212523   3.895   0.914  14.135  0.0094 -0.3479 -1.0461
  849MPD2    C312524   3.960   0.850  14.236  0.0459 -0.4285  0.2258
  849MPD2    C412525   3.893   0.772  14.332 -0.0577  0.1428 -0.4440
  849MPD2    C512526   3.757   0.750  14.316  0.0792  1.1076 -0.6841
  849MPD2     H12527   3.958   0.972  14.068 -1.0685 -0.2667 -1.9877
  849MPD2    H112528   3.946   0.714  14.407  1.5143  0.0996 -1.5981
  849MPD2    H212529   3.576   0.793  14.210 -0.1904  0.3754  1.6793
  849MPD2    H312530   3.702   0.694  14.391  0.4235 -1.0550 -2.0536
  849MPD2     N12531   4.104   0.868  14.235  0.1542  0.1559  0.1788
  849MPD2    H512532   4.141   0.925  14.160  0.9382 -0.7994 -0.1644
  849MPD2    N112533   3.698   0.973  14.033  0.6105 -0.8444 -0.6099
  849MPD2    H712534   3.761   1.030  13.977  0.0067  1.8309  1.4159
  850MPD2     C12535   1.821   4.086  14.692  0.3478 -0.3628  0.5459
  850MPD2    C112536   1.809   3.992  14.790 -0.2706  0.3287 -0.2779
  850MPD2    C212537   1.922   3.923  14.830  0.2192  0.1056  0.2155
  850MPD2    C312538   2.050   3.955  14.783 -0.2833  0.3196  0.1046
  850MPD2    C412539   2.055   4.062  14.697 -0.5857  0.4785  0.6956
  850MPD2    C512540   1.945   4.121  14.649 -0.4103 -0.1572 -0.1644
  850MPD2     H12541   1.898   3.847  14.904 -0.7795  0.5747  0.3754
  850MPD2    H112542   2.149   4.092  14.653 -1.6684  3.4500  0.4518
  850MPD2    H212543   1.732   4.128  14.646  0.1176  0.0342  1.3582
  850MPD2    H312544   1.950   4.204  14.579 -1.2428 -1.8227 -2.1910
  850MPD2     N12545   2.171   3.886  14.813  0.2879  0.4734  0.1436
  850MPD2    H512546   2.256   3.929  14.779 -0.5919  1.7247 -0.4937
  850MPD2    N112547   1.687   3.957  14.851 -0.0610 -0.5646 -0.9134
  850MPD2    H712548   1.691   3.864  14.891  2.5241  0.4066  1.0476
  851MPD2     C12549   1.909   3.693  15.402 -0.4311  0.1028  0.3171
  851MPD2    C112550   1.842   3.651  15.288  0.0250  0.3519  0.0290
  851MPD2    C212551   1.911   3.559  15.208 -0.0992 -0.5020 -0.9359
  851MPD2    C312552   2.036   3.509  15.236 -0.0339  0.2006  0.2785
  851MPD2    C412553   2.099   3.552  15.346 -0.5587 -0.6558 -0.1206
  851MPD2    C512554   2.039   3.647  15.429  0.2751 -0.0210 -0.4035
  851MPD2     H12555   1.870   3.533  15.112  1.5430  0.7325 -1.9797
  851MPD2    H112556   2.200   3.527  15.377 -0.5009 -1.4580 -0.9612
  851MPD2    H212557   1.863   3.773  15.459  2.0112  2.6796 -1.3171
  851MPD2    H312558   2.090   3.682  15.518 -1.1114 -0.1808  0.4557
  851MPD2     N12559   2.089   3.413  15.144  0.5062  0.5351  0.0304
  851MPD2    H512560   2.030   3.382  15.068 -0.9245 -1.2038  1.8877
  851MPD2    N112561   1.725   3.726  15.255 -0.2781 -0.2703  0.1482
  851MPD2    H712562   1.695   3.795  15.323 -1.2825  1.5435 -2.1424
  852MPD2     C12563   1.072   1.762  10.137 -0.3055 -0.3298  0.9263
  852MPD2    C112564   1.129   1.637  10.141  0.6747  0.0510 -0.2586
  852MPD2    C212565   1.267   1.636  10.111  0.0468 -0.1548  0.2060
  852MPD2    C312566   1.333   1.754  10.083  0.0891  0.0107 -0.2222
  852MPD2    C412567   1.278   1.872  10.068  0.3220 -0.4691 -1.0715
  852MPD2    C512568   1.141   1.877  10.091  0.1552 -0.0260 -0.4173
  852MPD2     H12569   1.310   1.538  10.129  1.2451  0.8032  2.5175
  852MPD2    H112570   1.328   1.966  10.050  0.2999 -0.1798  0.3357
  852MPD2    H212571   0.967   1.763  10.163 -0.4535 -2.7036  0.3889
  852MPD2    H312572   1.097   1.976  10.096 -1.3458 -0.7393  0.6736
  852MPD2     N12573   1.472   1.737  10.073 -0.0012  0.4490 -0.3810
  852MPD2    H512574   1.507   1.646  10.099 -2.3027 -0.4742 -0.4819
  852MPD2    N112575   1.064   1.512  10.173 -0.1330  0.0182  0.0404
  852MPD2    H712576   1.113   1.425  10.156 -1.7003 -0.9479  0.4353
  853MPD2     C12577   3.875   1.241  12.022  1.2544 -0.1792 -0.2269
  853MPD2    C112578   3.765   1.310  11.983  0.0092 -0.2880 -0.2481
  853MPD2    C212579   3.713   1.290  11.854  0.4624 -0.5217 -0.0834
  853MPD2    C312580   3.770   1.196  11.770  0.1547  0.9178  0.7059
  853MPD2    C412581   3.875   1.115  11.813 -0.0096  0.2028 -0.1679
  853MPD2    C512582   3.932   1.146  11.939 -0.1693 -0.3098 -0.0777
  853MPD2     H12583   3.617   1.329  11.825  1.4273  0.2403 -2.2475
  853MPD2    H112584   3.920   1.038  11.752  3.0100  1.4450  0.4841
  853MPD2    H212585   3.924   1.259  12.116  3.7866 -0.3471 -1.5219
  853MPD2    H312586   4.026   1.100  11.966 -0.6758 -0.6453  1.0912
  853MPD2     N12587   3.723   1.160  11.643 -0.1534  0.0068  0.3564
  853MPD2    H512588   3.787   1.096  11.596 -0.9778  0.5675 -1.5329
  853MPD2    N112589   3.707   1.399  12.073 -0.5064 -0.0752  0.6657
  853MPD2    H712590   3.761   1.426  12.155 -1.1057  3.3309 -0.0669
  854MPD2     C12591   0.731   1.825  12.081  0.3142  0.0781 -0.2702
  854MPD2    C112592   0.618   1.807  12.162 -0.3667 -0.4641  0.8191
  854MPD2    C212593   0.603   1.693  12.243 -0.4118 -0.1791 -0.6316
  854MPD2    C312594   0.705   1.604  12.248  0.4106  0.4244 -0.1527
  854MPD2    C412595   0.818   1.620  12.167 -0.0921  0.3784  0.0914
  854MPD2    C512596   0.826   1.733  12.083  0.5048  0.1399 -0.0779
  854MPD2     H12597   0.505   1.675  12.287  0.1896 -1.3118  0.2537
  854MPD2    H112598   0.904   1.556  12.181  0.7207  1.7265  1.3156
  854MPD2    H212599   0.748   1.907  12.012  0.5599 -0.2222 -0.5658
  854MPD2    H312600   0.918   1.742  12.026 -1.0915  2.6734 -2.1992
  854MPD2     N12601   0.704   1.494  12.337  0.3517 -0.9677 -0.1627
  854MPD2    H512602   0.791   1.442  12.342  0.9200 -0.0196 -0.1721
  854MPD2    N112603   0.523   1.912  12.147  0.1333 -0.4667  0.1293
  854MPD2    H712604   0.545   1.975  12.070 -2.1166  1.1252  0.8125
  855MPD2     C12605   1.034   1.480  13.235 -0.2986 -0.1680  0.5525
  855MPD2    C112606   0.977   1.359  13.231 -0.8364 -0.0644 -0.1766
  855MPD2    C212607   0.907   1.315  13.121  0.3582 -0.1400  0.3886
  855MPD2    C312608   0.902   1.398  13.010 -0.1401 -0.3582 -0.0125
  855MPD2    C412609   0.955   1.530  13.020  0.1145 -0.2857  0.2368
  855MPD2    C512610   1.016   1.565  13.132 -0.9573  0.2035  0.1658
  855MPD2     H12611   0.861   1.218  13.112  0.3711 -0.0625 -0.5250
  855MPD2    H112612   0.956   1.600  12.938 -0.3661 -2.5685 -1.6918
  855MPD2    H212613   1.105   1.506  13.313  0.4464 -0.0723 -0.1531
  855MPD2    H312614   1.066   1.660  13.139  1.0852 -0.6899 -2.2694
  855MPD2     N12615   0.859   1.366  12.882  0.3787  0.4236  0.0972
  855MPD2    H512616   0.844   1.444  12.818  1.8683  0.4150 -0.2535
  855MPD2    N112617   0.979   1.272  13.346 -0.3389  0.5728  0.0235
  855MPD2    H712618   0.933   1.182  13.339  1.2328 -0.4184  2.4954
  856MPD2     C12619   2.525   2.545  13.751 -0.9418  0.0639  0.4844
  856MPD2    C112620   2.553   2.675  13.777  0.2698  0.2294  0.8780
  856MPD2    C212621   2.460   2.761  13.830  0.3328  0.2212  0.1910
  856MPD2    C312622   2.336   2.716  13.859 -0.8097 -0.3031  0.3366
  856MPD2    C412623   2.305   2.583  13.833  0.0760  0.5981 -0.1217
  856MPD2    C512624   2.398   2.496  13.774 -0.6125 -0.4986  0.1716
  856MPD2     H12625   2.474   2.867  13.848 -0.0137  0.5024 -1.1568
  856MPD2    H112626   2.202   2.554  13.851  0.0856  1.0695  0.6893
  856MPD2    H212627   2.603   2.478  13.717 -1.7400 -0.7136  0.1944
  856MPD2    H312628   2.389   2.390  13.756 -2.7527 -0.6360  1.9964
  856MPD2     N12629   2.229   2.793  13.906  0.3159 -0.2369  0.3737
  856MPD2    H512630   2.140   2.744  13.914  0.0709  0.3008  0.8971
  856MPD2    N112631   2.684   2.713  13.756  0.8716 -0.1180  0.6669
  856MPD2    H712632   2.736   2.645  13.700 -0.5610  1.0382 -2.0587
  857MPD2     C12633   4.412   4.154  12.844  0.1238 -0.6444 -0.2147
  857MPD2    C112634   4.491   4.167  12.732 -0.2270  0.1009 -0.2705
  857MPD2    C212635   4.569   4.282  12.714 -0.8318 -0.7950 -0.2313
  857MPD2    C312636   4.566   4.385  12.808 -0.0045 -0.2380 -0.0093
  857MPD2    C412637   4.497   4.364  12.926  0.3150  0.0530  0.3034
  857MPD2    C512638   4.412   4.256  12.941  1.0971  0.4533 -0.1566
  857MPD2     H12639   4.614   4.292  12.616  0.1968 -1.3037  0.1903
  857MPD2    H112640   4.495   4.448  12.995 -0.1104  1.2582 -1.1811
  857MPD2    H212641   4.351   4.065  12.852  0.0619 -0.6185 -0.3960
  857MPD2    H312642   4.363   4.252  13.037  0.6675 -0.4641 -0.4113
  857MPD2     N12643   4.627   4.513  12.796 -0.5204 -0.1880 -0.2900
  857MPD2    H512644   4.635   4.572  12.878 -0.0720  1.3984 -1.4810
  857MPD2    N112645   4.492   4.062  12.644 -0.0792  0.2212 -0.7871
  857MPD2    H712646   4.425   3.987  12.653  0.9517 -0.4090  1.5278
  858MPD2     C12647   0.364   3.014  16.744 -0.1983  0.9557  0.0305
  858MPD2    C112648   0.451   3.092  16.675  0.3771  0.1701 -0.0178
  858MPD2    C212649   0.529   3.191  16.742 -0.5849 -0.1317 -0.5807
  858MPD2    C312650   0.516   3.197  16.876  0.1691  0.3454  0.6130
  858MPD2    C412651   0.429   3.117  16.950  0.5139  0.0951 -0.2081
  858MPD2    C512652   0.351   3.024  16.878 -0.3178 -0.8364  0.3001
  858MPD2     H12653   0.593   3.256  16.684  0.2465  0.6800  1.2590
  858MPD2    H112654   0.426   3.125  17.058  2.0700 -0.8958 -0.0858
  858MPD2    H212655   0.305   2.937  16.695  3.1506 -0.6096 -1.5178
  858MPD2    H312656   0.279   2.965  16.934 -1.2091 -0.6001 -0.6009
  858MPD2     N12657   0.583   3.293  16.950  0.1645 -0.5856 -0.1593
  858MPD2    H512658   0.586   3.285  17.052  0.3078  1.0977 -0.0366
  858MPD2    N112659   0.455   3.080  16.533  0.0550 -0.6059 -0.5291
  858MPD2    H712660   0.385   3.014  16.502 -0.8294 -0.0110  0.1883
  859MPD2     C12661   3.743   1.478  15.352  0.2967  0.1507  0.3933
  859MPD2    C112662   3.871   1.431  15.356 -0.1982 -0.2222 -0.2306
  859MPD2    C212663   3.917   1.356  15.462 -0.0201  0.4454  0.7531
  859MPD2    C312664   3.825   1.319  15.556 -0.2989 -0.6117 -1.0117
  859MPD2    C412665   3.691   1.356  15.551 -0.9422  0.9350  0.7927
  859MPD2    C512666   3.651   1.441  15.448 -0.1954  0.1106 -0.4424
  859MPD2     H12667   4.017   1.317  15.472  0.0423  0.7734  1.3520
  859MPD2    H112668   3.614   1.322  15.619  0.2014 -1.8403  0.7289
  859MPD2    H212669   3.714   1.546  15.272 -1.9641 -1.4463 -0.1252
  859MPD2    H312670   3.554   1.490  15.443  0.6661  1.8941  0.3996
  859MPD2     N12671   3.866   1.224  15.660  0.0097  0.0668  0.4867
  859MPD2    H512672   3.792   1.191  15.720  1.0174 -1.7012  0.7578
  859MPD2    N112673   3.955   1.466  15.244 -1.0361 -0.1328 -0.0825
  859MPD2    H712674   3.910   1.515  15.167 -2.5515 -1.5094 -0.0939
  860MPD2     C12675   1.941   1.048  11.416  0.2938  0.5430 -0.2746
  860MPD2    C112676   1.891   1.162  11.480  0.1181  0.1473 -0.3347
  860MPD2    C212677   1.753   1.174  11.508 -0.7075  0.0425  0.2845
  860MPD2    C312678   1.677   1.063  11.483  0.4605 -0.4357 -0.6572
  860MPD2    C412679   1.725   0.954  11.412  0.0208 -0.5591  0.2376
  860MPD2    C512680   1.858   0.949  11.376 -0.3600  0.1380 -0.0125
  860MPD2     H12681   1.718   1.266  11.552 -1.7377 -0.6425  0.8819
  860MPD2    H112682   1.659   0.876  11.376 -1.3118  0.9627 -0.6038
  860MPD2    H212683   2.039   1.044  11.369  0.1643 -2.1319 -0.3560
  860MPD2    H312684   1.885   0.868  11.309 -2.5632  0.2483 -1.0457
  860MPD2     N12685   1.542   1.081  11.516  0.3161  0.0865  0.3644
  860MPD2    H512686   1.513   1.176  11.534 -1.7180 -0.4405 -0.1479
  860MPD2    N112687   1.970   1.285  11.483  0.3481  0.0712 -0.1352
  860MPD2    H712688   1.920   1.371  11.503 -0.8798 -0.9158  1.0429
  861MPD2     C12689   0.250   3.765  10.795  0.5846 -0.7902 -0.2951
  861MPD2    C112690   0.132   3.796  10.858  0.3467  0.0003 -0.0582
  861MPD2    C212691   0.035   3.871  10.792  0.1144  0.0380  0.0811
  861MPD2    C312692   0.062   3.926  10.672  0.1729  0.1268 -0.4778
  861MPD2    C412693   0.183   3.894  10.618 -0.1920 -0.7079  0.5350
  861MPD2    C512694   0.275   3.806  10.669  0.1654 -0.8209  0.5586
  861MPD2     H12695   4.678   3.883  10.846  0.4506  1.9532  0.2369
  861MPD2    H112696   0.199   3.944  10.523  0.9756 -1.5604  0.2825
  861MPD2    H212697   0.329   3.706  10.841  0.3022 -0.2220  0.9185
  861MPD2    H312698   0.362   3.782  10.609 -2.5483 -0.3796 -3.6416
  861MPD2     N12699   4.709   4.008  10.592  0.2522  0.2618  0.3925
  861MPD2    H512700   0.005   4.062  10.513  0.0051  0.0554  0.1528
  861MPD2    N112701   0.096   3.751  10.981  0.6190 -0.0171  0.5467
  861MPD2    H712702   0.007   3.779  11.021  0.3556  1.5074 -1.1422
  862MPD2     C12703   3.912   3.873  10.288  0.2253  1.3725 -0.1550
  862MPD2    C112704   4.001   3.844  10.388  0.3062  0.1414  0.2686
  862MPD2    C212705   3.981   3.730  10.469 -0.3901  0.5916  0.1163
  862MPD2    C312706   3.865   3.656  10.449  0.4548 -0.4071 -0.5238
  862MPD2    C412707   3.781   3.691  10.347 -0.4213 -0.1788 -0.7235
  862MPD2    C512708   3.806   3.797  10.258  0.1509  0.7943 -0.1843
  862MPD2     H12709   4.050   3.696  10.545 -0.1662 -0.8491 -0.7318
  862MPD2    H112710   3.690   3.633  10.340 -0.6376  0.0465  0.3431
  862MPD2    H212711   3.926   3.963  10.231 -1.3588  1.5944 -0.1959
  862MPD2    H312712   3.727   3.823  10.187 -0.2094  2.3339  0.7693
  862MPD2     N12713   3.832   3.543  10.530  0.4853  0.9401  0.5245
  862MPD2    H512714   3.750   3.491  10.503  1.1305 -0.4147  1.1463
  862MPD2    N112715   4.109   3.925  10.420  0.2745  0.3338  0.1543
  862MPD2    H712716   4.161   3.911  10.506 -1.1332  0.1649  0.9796
  863MPD2     C12717   3.386   2.777  17.341 -0.1647 -0.5106 -0.0516
  863MPD2    C112718   3.508   2.795  17.288 -0.0460 -0.6389 -0.6274
  863MPD2    C212719   3.622   2.763  17.359 -0.6914  0.5446 -0.1560
  863MPD2    C312720   3.608   2.675  17.469  0.0232  0.1695 -0.2575
  863MPD2    C412721   3.480   2.640  17.503  0.4094  0.0936  0.0930
  863MPD2    C512722   3.370   2.696  17.452 -0.4416 -0.1970  0.3123
  863MPD2     H12723   3.717   2.804  17.325  0.2314 -1.0424  0.5526
  863MPD2    H112724   3.452   2.566  17.578  1.4853  0.0727  0.4785
  863MPD2    H212725   3.294   2.825  17.307  0.7744  0.2885 -1.4865
  863MPD2    H312726   3.274   2.670  17.493 -1.5996  0.7978 -1.7781
  863MPD2     N12727   3.719   2.616  17.537 -0.4115  0.2078  0.2717
  863MPD2    H512728   3.700   2.543  17.605 -0.3499 -0.4934 -0.4652
  863MPD2    N112729   3.518   2.876  17.170 -0.2759 -0.1600 -0.5737
  863MPD2    H712730   3.430   2.914  17.137 -1.5660 -1.0289  1.8803
  864MPD2     C12731   4.501   3.121  17.207  0.0216 -0.4149 -0.5152
  864MPD2    C112732   4.478   3.165  17.079  0.1182  0.3786  0.2050
  864MPD2    C212733   4.582   3.195  16.986 -0.2389 -0.0319 -0.0509
  864MPD2    C312734   4.708   3.192  17.034 -0.7887 -0.3437  0.2926
  864MPD2    C412735   4.730   3.159  17.161 -0.2089  0.2948 -0.1258
  864MPD2    C512736   4.631   3.110  17.244  0.2131  1.3904  0.2349
  864MPD2     H12737   4.559   3.214  16.881 -1.2652  1.1393  0.3877
  864MPD2    H112738   0.092   3.151  17.207 -0.1161  1.1768 -0.1722
  864MPD2    H212739   4.423   3.108  17.281  1.6260  0.2105  1.2897
  864MPD2    H312740   4.662   3.083  17.344  1.7890  1.5960 -0.2032
  864MPD2     N12741   0.082   3.243  16.964  0.3854  0.4168 -0.1010
  864MPD2    H512742   0.168   3.255  17.016 -0.4934  5.9305  0.1698
  864MPD2    N112743   4.340   3.189  17.050 -0.6332  0.2461 -0.3985
  864MPD2    H712744   4.278   3.161  17.125 -0.2582 -0.7289 -0.4500
  865MPD2     C12745   4.688   4.008  16.937 -0.1841 -0.2275  0.2663
  865MPD2    C112746   4.714   3.984  16.805 -0.4006 -0.1134 -0.1757
  865MPD2    C212747   0.075   3.897  16.770 -0.3391 -0.5194 -0.1328
  865MPD2    C312748   0.159   3.843  16.868  0.5261  0.4554 -0.4961
  865MPD2    C412749   0.141   3.869  16.999  0.4699  0.7886  0.3216
  865MPD2    C512750   0.037   3.947  17.029  1.0065 -0.4707 -0.7748
  865MPD2     H12751   0.079   3.852  16.671  0.4134 -0.2827 -0.2086
  865MPD2    H112752   0.206   3.834  17.078 -1.0249  0.7309  1.5297
  865MPD2    H212753   4.609   4.075  16.969 -0.3854 -0.3661  0.0577
  865MPD2    H312754   0.022   3.980  17.131  0.3514 -4.0409  0.3061
  865MPD2     N12755   0.249   3.746  16.826  0.5577  0.2986  0.2746
  865MPD2    H512756   0.245   3.721  16.728 -0.5627 -0.7483  0.5976
  865MPD2    N112757   4.625   4.030  16.707  0.1776 -0.1456 -0.0906
  865MPD2    H712758   4.533   4.062  16.734 -0.1059 -1.8362  0.9408
  866MPD2     C12759   0.695   3.743  11.073  0.5033  0.0395 -0.0289
  866MPD2    C112760   0.700   3.807  10.948  0.3724 -0.2122 -0.4678
  866MPD2    C212761   0.603   3.904  10.918 -0.6060 -0.2431 -0.0823
  866MPD2    C312762   0.491   3.921  10.997  0.3802  0.7997 -0.0424
  866MPD2    C412763   0.491   3.856  11.114  0.6973  0.1059  0.7044
  866MPD2    C512764   0.593   3.769  11.153  0.5890 -0.2044  0.1579
  866MPD2     H12765   0.608   3.949  10.819  0.5024 -2.3473 -0.9800
  866MPD2    H112766   0.408   3.866  11.183 -1.0206  2.9782 -1.7417
  866MPD2    H212767   0.778   3.694  11.123  0.7750  2.2012  1.6752
  866MPD2    H312768   0.592   3.729  11.254 -0.7027 -1.8259 -0.5062
  866MPD2     N12769   0.389   4.015  10.983 -0.0290  0.2507 -0.4000
  866MPD2    H512770   0.318   4.021  11.055  2.3376 -0.3479  1.9739
  866MPD2    N112771   0.808   3.767  10.869  0.1095  0.6812  0.3846
  866MPD2    H712772   0.869   3.698  10.912  2.3506  3.6150  1.8879
  867MPD2     C12773   3.296   4.317  16.944 -0.3883 -0.3257 -0.5859
  867MPD2    C112774   3.413   4.273  16.995 -0.1175 -0.4638  0.3544
  867MPD2    C212775   3.466   4.344  17.104 -0.6407 -0.0831 -0.0641
  867MPD2    C312776   3.407   4.456  17.163  0.7440 -0.0103 -0.4188
  867MPD2    C412777   3.291   4.497  17.101 -0.1467 -0.2923  0.4795
  867MPD2    C512778   3.232   4.429  17.002  0.2714 -0.5598  0.2537
  867MPD2     H12779   3.564   4.309  17.136 -0.0066  1.0613 -0.7360
  867MPD2    H112780   3.246   4.586  17.142  1.1611  0.9485 -0.7764
  867MPD2    H212781   3.245   4.259  16.868 -1.0486 -0.0833 -0.3338
  867MPD2    H312782   3.138   4.461  16.958  0.3270 -0.5470  0.1453
  867MPD2     N12783   3.462   4.524  17.277 -0.0045  0.3485  0.3797
  867MPD2    H512784   3.412   4.609  17.302  1.1187  0.6392  1.6298
  867MPD2    N112785   3.458   4.145  16.953 -0.8654 -0.7376  0.1524
  867MPD2    H712786   3.405   4.105  16.877  0.6172 -0.2758 -1.1289
  868MPD2     C12787   4.606   2.976  13.084  0.5646  0.0723 -0.0745
  868MPD2    C112788   4.621   2.889  13.191  0.5357 -0.1010  0.2740
  868MPD2    C212789   4.624   2.941  13.323  0.1241 -0.0719 -0.0929
  868MPD2    C312790   4.579   3.064  13.356 -0.1304 -0.2053  0.9443
  868MPD2    C412791   4.545   3.143  13.249 -0.3061 -0.0369 -0.7402
  868MPD2    C512792   4.560   3.100  13.122 -0.5435  0.3975  0.2527
  868MPD2     H12793   4.665   2.882  13.405  1.5788  1.2197  0.0945
  868MPD2    H112794   4.510   3.244  13.272  0.8894  0.9167 -3.1269
  868MPD2    H212795   4.594   2.934  12.985 -0.4787  0.7310 -0.2337
  868MPD2    H312796   4.523   3.165  13.044 -1.7286 -0.9639 -0.3148
  868MPD2     N12797   4.580   3.097  13.490 -0.1473  0.1193 -0.0498
  868MPD2    H512798   4.614   3.025  13.553  2.2438  1.3949  0.1361
  868MPD2    N112799   4.682   2.766  13.161  0.3639 -0.0217  0.0317
  868MPD2    H712800   4.721   2.751  13.068  0.4088 -0.0456  0.0544
  869MPD2     C12801   1.117   0.852   0.636 -0.0848 -0.0919  0.1166
  869MPD2    C112802   1.104   0.984   0.658 -0.5243 -0.5188 -0.0019
  869MPD2    C212803   1.214   1.053   0.612  0.4373 -0.2634  0.5143
  869MPD2    C312804   1.323   0.995   0.549  0.5504  0.5001 -0.2426
  869MPD2    C412805   1.328   0.863   0.533  0.7232  0.9153 -0.8666
  869MPD2    C512806   1.225   0.785   0.581 -0.0295 -0.8207 -0.0726
  869MPD2     H12807   1.219   1.161   0.615  0.8909 -0.1863 -2.5548
  869MPD2    H112808   1.405   0.815   0.475 -0.4021  0.6910 -2.1806
  869MPD2    H212809   1.043   0.788   0.684 -1.1400 -0.0525 -1.4656
  869MPD2    H312810   1.237   0.678   0.572 -2.0742 -1.1012  0.5484
  869MPD2     N12811   1.418   1.087   0.511 -0.3530 -0.3926 -0.2624
  869MPD2    H512812   1.400   1.186   0.523 -0.2497 -0.2816 -1.0352
  869MPD2    N112813   0.990   1.042   0.713  0.3851  0.6256  0.9552
  869MPD2    H712814   0.919   0.976   0.741 -1.2183  1.8305 -0.3026
  870MPD2     C12815   1.134   4.518   2.097  0.2848 -0.5203 -0.1772
  870MPD2    C112816   1.212   4.497   1.990 -0.0423  0.6825 -0.0591
  870MPD2    C212817   1.161   4.530   1.874 -0.1697  0.0694 -0.7566
  870MPD2    C312818   1.060   4.620   1.857  0.4893 -0.7824  0.1156
  870MPD2    C412819   0.995   4.652   1.975 -0.8164  0.3330  0.1674
  870MPD2    C512820   1.022   4.591   2.085  0.6919 -0.3831  0.3247
  870MPD2     H12821   1.222   4.513   1.786 -1.5604 -1.5605 -1.3942
  870MPD2    H112822   0.905   4.713   1.967 -1.8167 -1.4642 -2.4809
  870MPD2    H212823   1.169   4.488   2.195  2.2907 -0.9835 -1.0417
  870MPD2    H312824   0.975   4.613   2.181 -0.1676  1.8067 -0.5935
  870MPD2     N12825   1.031   4.673   1.735  0.1803 -0.6049 -0.0210
  870MPD2    H512826   1.083   4.633   1.657  0.7871 -0.1801  0.1645
  870MPD2    N112827   1.333   4.423   2.009 -0.1210 -0.5778  0.3774
  870MPD2    H712828   1.342   4.372   2.096  0.3086 -1.4246 -0.1557
  871MPD2     C12829   1.507   3.427  16.582 -0.3174 -0.1996  0.0533
  871MPD2    C112830   1.606   3.431  16.680 -0.3176  0.2498  0.2471
  871MPD2    C212831   1.724   3.362  16.652 -0.1569  0.3048  0.3390
  871MPD2    C312832   1.743   3.290  16.534  0.0332  0.0425 -0.6720
  871MPD2    C412833   1.637   3.287  16.439  0.7520 -0.0671  0.6722
  871MPD2    C512834   1.523   3.349  16.469 -0.2142  0.8048  0.3548
  871MPD2     H12835   1.801   3.363  16.729  1.9030 -0.0123 -1.6999
  871MPD2    H112836   1.638   3.230  16.346  0.6317  0.9300  0.0579
  871MPD2    H212837   1.410   3.472  16.599  0.0529  1.4494 -2.1904
  871MPD2    H312838   1.439   3.354  16.401 -0.9130  1.0755  1.2385
  871MPD2     N12839   1.863   3.222  16.514  0.4379 -0.1152 -0.6553
  871MPD2    H512840   1.926   3.221  16.594 -0.5103 -1.5943  0.0795
  871MPD2    N112841   1.583   3.504  16.808  0.2291 -0.4456 -0.2469
  871MPD2    H712842   1.495   3.553  16.819  0.2334 -0.6761  0.8219
  872MPD2     C12843   2.298   2.057  13.209  0.0741 -0.3660 -0.4019
  872MPD2    C112844   2.393   1.956  13.234  0.0333 -0.6450  0.3508
  872MPD2    C212845   2.377   1.866  13.338 -0.0194  0.7295 -0.7119
  872MPD2    C312846   2.284   1.891  13.430  0.1426  0.3440  0.4272
  872MPD2    C412847   2.195   2.002  13.417 -0.1732  0.2795  0.1005
  872MPD2    C512848   2.201   2.071  13.300  0.4241  0.1497 -0.4638
  872MPD2     H12849   2.447   1.786  13.359 -0.2925  0.5670 -0.3975
  872MPD2    H112850   2.116   2.025  13.487 -1.0824  2.6474 -1.7145
  872MPD2    H212851   2.304   2.131  13.130 -0.5883  0.2429  0.1213
  872MPD2    H312852   2.114   2.134  13.284 -0.2220 -0.2596  1.4305
  872MPD2     N12853   2.272   1.815  13.541  0.2391 -0.1418  0.1900
  872MPD2    H512854   2.203   1.848  13.608  2.3421  1.3581  1.6399
  872MPD2    N112855   2.505   1.936  13.151 -0.0668 -0.2463 -0.2492
  872MPD2    H712856   2.561   1.855  13.175 -0.7418 -0.4971  0.4954
  873MPD2     C12857   0.317   1.984   0.817 -0.5074 -0.0463 -0.0209
  873MPD2    C112858   0.213   1.940   0.894  0.1490 -0.4279  0.4155
  873MPD2    C212859   0.112   1.865   0.841 -0.1263  0.3630  0.6915
  873MPD2    C312860   0.111   1.845   0.705 -0.5102  0.4316 -0.2625
  873MPD2    C412861   0.213   1.895   0.623  0.6636 -0.4086  0.8303
  873MPD2    C512862   0.319   1.962   0.683 -0.5245  0.2921 -1.0122
  873MPD2     H12863   0.028   1.831   0.900 -0.5003 -0.5570 -0.3809
  873MPD2    H112864   0.225   1.864   0.520 -1.6634 -1.0149  0.7498
  873MPD2    H212865   0.402   2.041   0.853 -0.1712  0.9322 -2.3818
  873MPD2    H312866   0.397   1.994   0.615  0.2279 -0.1309 -0.3555
  873MPD2     N12867   0.018   1.758   0.642  0.4733 -0.7194  0.2349
  873MPD2    H512868   0.006   1.771   0.542  0.1680  0.3740  0.4136
  873MPD2    N112869   0.219   1.972   1.031  0.6538 -0.0586  0.3977
  873MPD2    H712870   0.305   2.018   1.060  0.9041  0.3514 -0.9706
  874MPD2     C12871   4.177   1.727  16.084  0.2207  0.0116 -0.4813
  874MPD2    C112872   4.239   1.618  16.143 -0.5138  0.7551  0.7082
  874MPD2    C212873   4.366   1.590  16.101  0.1930 -0.3252  0.2146
  874MPD2    C312874   4.439   1.685  16.022  0.8532 -0.3803  0.2562
  874MPD2    C412875   4.377   1.793  15.967 -0.6909  0.6318  0.0778
  874MPD2    C512876   4.243   1.812  15.990  0.4712  0.4982 -0.3712
  874MPD2     H12877   4.422   1.500  16.125  1.6969  0.6321  0.3326
  874MPD2    H112878   4.420   1.868  15.901 -0.5161  0.6874  0.2544
  874MPD2    H212879   4.076   1.759  16.109  0.5777  1.0567 -0.3682
  874MPD2    H312880   4.199   1.903  15.952  1.0706  1.1553  0.4990
  874MPD2     N12881   4.578   1.669  15.997 -0.0607 -0.3221  0.0420
  874MPD2    H512882   4.619   1.739  15.935  0.7643 -1.0861 -0.2701
  874MPD2    N112883   4.159   1.554  16.239 -0.0423  0.2113  0.0730
  874MPD2    H712884   4.060   1.576  16.240 -0.0081  0.4033 -0.9834
  875MPD2     C12885   0.830   4.730  14.660  0.5819  0.0867 -0.1518
  875MPD2    C112886   0.734   0.092  14.700 -0.1080 -0.1352 -0.3867
  875MPD2    C212887   0.784   0.188  14.789  0.4408 -0.1849  0.3536
  875MPD2    C312888   0.909   0.185  14.852  0.1070  0.2350  0.2733
  875MPD2    C412889   0.997   0.088  14.811 -0.2228  0.2429  1.0621
  875MPD2    C512890   0.956   4.733  14.713  0.0922  0.0918 -0.5333
  875MPD2     H12891   0.723   0.275  14.811 -1.1906 -1.7859  2.1132
  875MPD2    H112892   1.085   0.073  14.872 -0.0103 -0.5112  0.5778
  875MPD2    H212893   0.798   4.647  14.597  0.7041 -1.1173  1.3827
  875MPD2    H312894   1.020   4.649  14.688 -0.4128  0.0794 -1.8153
  875MPD2     N12895   0.944   0.285  14.943 -0.2624  0.3109  0.1927
  875MPD2    H512896   1.041   0.283  14.975  0.5770  0.1644 -2.3520
  875MPD2    N112897   0.609   0.121  14.635 -0.0028  0.0481  0.1186
  875MPD2    H712898   0.566   0.212  14.652 -0.6567 -0.1120 -0.6769
  876MPD2     C12899   4.155   1.799  15.400  0.5909  0.5240 -0.3109
  876MPD2    C112900   4.275   1.814  15.462  0.0080 -0.3964 -0.0903
  876MPD2    C212901   4.301   1.745  15.579  0.3911  0.4438 -0.3429
  876MPD2    C312902   4.209   1.649  15.635  0.0240 -0.2160 -0.7524
  876MPD2    C412903   4.082   1.658  15.586  0.0988  0.3377  0.5301
  876MPD2    C512904   4.054   1.730  15.466 -0.1056 -0.1044 -0.1623
  876MPD2     H12905   4.399   1.752  15.623  0.9750  1.0274 -1.7359
  876MPD2    H112906   4.003   1.592  15.621 -0.8468  0.6823 -0.9385
  876MPD2    H212907   4.125   1.859  15.315  0.1554  0.3897 -0.2536
  876MPD2    H312908   3.953   1.726  15.426  0.4476  1.0338 -1.6487
  876MPD2     N12909   4.245   1.568  15.737 -0.4372  0.4794  0.3167
  876MPD2    H512910   4.340   1.562  15.773 -1.2682  0.1519  2.4493
  876MPD2    N112911   4.375   1.889  15.392  0.0110 -0.0912  0.7978
  876MPD2    H712912   4.355   1.926  15.300 -2.2444  0.8954  1.7002
  877MPD2     C12913   4.356   2.176  14.730  0.3762 -0.5200  0.0163
  877MPD2    C112914   4.488   2.134  14.754  1.0729  0.0284 -0.2295
  877MPD2    C212915   4.567   2.101  14.640 -0.0648 -0.1491  0.5827
  877MPD2    C312916   4.505   2.100  14.515 -0.0743 -0.4404  0.2695
  877MPD2    C412917   4.374   2.134  14.488  0.6062 -0.2004  0.1918
  877MPD2    C512918   4.302   2.175  14.600 -0.4246 -0.3857  0.9011
  877MPD2     H12919   4.669   2.066  14.649  0.2305  0.2497 -1.0745
  877MPD2    H112920   4.329   2.140  14.390  4.1181 -0.4322 -1.4158
  877MPD2    H212921   4.297   2.217  14.811  0.5554 -2.4845  1.1546
  877MPD2    H312922   4.198   2.202  14.583 -0.6918 -1.3830  0.9948
  877MPD2     N12923   4.574   2.055  14.393 -0.7307  0.4227  0.0383
  877MPD2    H512924   4.524   2.054  14.304 -0.0819  0.8212 -0.3315
  877MPD2    N112925   4.538   2.121  14.885 -0.4749  0.0515  0.4400
  877MPD2    H712926   4.633   2.085  14.894 -0.0282  1.3877  0.9783
  878MPD2     C12927   3.580   0.731  13.057  0.6867 -0.8224  0.5526
  878MPD2    C112928   3.682   0.814  13.083 -0.4270 -0.1880  0.5777
  878MPD2    C212929   3.694   0.871  13.209 -0.2447  0.0502 -0.9030
  878MPD2    C312930   3.593   0.851  13.302  0.2724 -0.3803  0.4667
  878MPD2    C412931   3.485   0.771  13.275 -0.0453  0.4812 -0.1347
  878MPD2    C512932   3.487   0.710  13.156  0.1866  0.1785  0.8947
  878MPD2     H12933   3.777   0.932  13.243 -1.8292  1.0143  1.2418
  878MPD2    H112934   3.397   0.752  13.337  2.4534 -1.5328  2.7712
  878MPD2    H212935   3.575   0.670  12.968  0.0140  0.0556 -0.0129
  878MPD2    H312936   3.397   0.656  13.128  1.4828 -1.4555 -0.1145
  878MPD2     N12937   3.610   0.920  13.427 -0.7587  0.4419  0.5615
  878MPD2    H512938   3.691   0.980  13.421  0.7946 -1.9666 -2.1130
  878MPD2    N112939   3.774   0.832  12.976  0.0529  0.6191  0.0804
  878MPD2    H712940   3.744   0.802  12.884  3.6019 -1.1527 -0.4807
  879MPD2     C12941   0.076   2.248  16.958  0.2603  0.5858 -0.0532
  879MPD2    C112942   0.021   2.170  17.055 -0.3257  0.3416  0.8085
  879MPD2    C212943   4.692   2.054  17.020 -0.1203 -0.0878 -0.6930
  879MPD2    C312944   4.681   2.013  16.888  0.3766  0.0558  0.3929
  879MPD2    C412945   0.003   2.091  16.789 -0.4716  0.7383 -0.4495
  879MPD2    C512946   0.064   2.208  16.824 -0.7989 -0.2701  0.1237
  879MPD2     H12947   4.667   1.993  17.106 -1.7247  2.2022  0.4937
  879MPD2    H112948   0.011   2.049  16.690  0.1951  1.0777 -0.5386
  879MPD2    H212949   0.119   2.344  16.982 -0.9007  0.9766  0.4643
  879MPD2    H312950   0.109   2.265  16.743 -1.8121 -1.3017 -1.1554
  879MPD2     N12951   4.627   1.895  16.842 -0.4856 -0.1163 -0.4750
  879MPD2    H512952   4.647   1.865  16.747  1.4784 -1.1448  0.2589
  879MPD2    N112953   0.023   2.228  17.187  0.2766  0.5368 -0.2026
  879MPD2    H712954   0.049   2.326  17.191  1.4522  0.3009 -1.8538
  880MPD2     C12955   1.120   3.917   0.311 -0.3926 -0.2537 -0.1143
  880MPD2    C112956   1.165   3.950   0.436 -0.2549  0.1178  0.1305
  880MPD2    C212957   1.193   3.848   0.524 -0.0865 -0.1275  0.6644
  880MPD2    C312958   1.195   3.720   0.487  0.0553 -0.2553 -0.2641
  880MPD2    C412959   1.138   3.682   0.365  0.5894  0.4196  0.2405
  880MPD2    C512960   1.105   3.782   0.275  0.5175 -0.2042  0.1198
  880MPD2     H12961   1.231   3.866   0.624  0.6011  2.7339 -0.0914
  880MPD2    H112962   1.132   3.582   0.325  0.8202  0.1664  0.8328
  880MPD2    H212963   1.094   3.988   0.233  0.8067  0.2633 -0.0447
  880MPD2    H312964   1.086   3.748   0.174 -0.2538  1.4880 -0.2916
  880MPD2     N12965   1.264   3.633   0.575  0.7008 -0.1553 -0.5370
  880MPD2    H512966   1.300   3.670   0.662  2.1342  0.7024 -1.4970
  880MPD2    N112967   1.186   4.090   0.471 -0.1000 -0.1562  0.2282
  880MPD2    H712968   1.151   4.155   0.401  1.8283  0.6318 -0.0235
  881MPD2     C12969   1.348   0.216   0.029 -0.0345  0.5586  0.3114
  881MPD2    C112970   1.321   0.082  17.734  0.2561 -0.3909  0.9235
  881MPD2    C212971   1.291   4.728   0.091  0.7457  0.1629  0.3368
  881MPD2    C312972   1.283   0.030   0.225  0.3132 -0.5653 -0.0643
  881MPD2    C412973   1.300   0.164   0.260  0.7262  0.0919 -0.1879
  881MPD2    C512974   1.334   0.253   0.161  0.1393 -0.0185 -0.4150
  881MPD2     H12975   1.255   4.631   0.059  1.7589  0.7052 -2.4276
  881MPD2    H112976   1.280   0.206   0.358 -0.0310  2.5587 -1.4341
  881MPD2    H212977   1.366   0.285  17.691  0.2788  0.0379 -0.0555
  881MPD2    H312978   1.341   0.357   0.191 -0.0411 -0.1072 -0.0596
  881MPD2     N12979   1.262   4.679   0.339  0.1602 -0.7306 -0.4164
  881MPD2    H512980   1.252   4.721   0.431  1.2431 -0.9765 -0.1914
  881MPD2    N112981   1.351   0.051  17.598  0.1087  0.0607 -0.0055
  881MPD2    H712982   1.386   0.130  17.545  2.2595  0.7472  2.4630
  882MPD2     C12983   4.511   1.487  13.944  0.4877 -0.3770 -0.2458
  882MPD2    C112984   4.476   1.619  13.955 -0.5285  0.0987 -0.4463
  882MPD2    C212985   4.340   1.652  13.955 -0.4707  0.2127 -0.3716
  882MPD2    C312986   4.239   1.553  13.944 -0.0290 -0.2577 -0.1218
  882MPD2    C412987   4.275   1.423  13.943  0.2203 -0.2710  0.2880
  882MPD2    C512988   4.410   1.388  13.947 -0.1270  0.3388 -1.0075
  882MPD2     H12989   4.319   1.756  13.973 -0.9642  0.3986 -1.9959
  882MPD2    H112990   4.201   1.346  13.922 -0.5481  0.4717  0.2728
  882MPD2    H212991   4.617   1.465  13.956 -0.0725 -3.3852 -0.8431
  882MPD2    H312992   4.440   1.285  13.933 -1.6180 -0.2937  0.3694
  882MPD2     N12993   4.097   1.578  13.960 -0.7440  0.2692  0.0354
  882MPD2    H512994   4.043   1.496  13.985 -1.3554  0.0958 -1.8079
  882MPD2    N112995   4.577   1.704  13.987  0.1359  0.1355  0.0740
  882MPD2    H712996   4.651   1.653  14.035  0.9365  2.0053  0.8378
  883MPD2     C12997   1.382   1.294  15.948 -0.6603  0.4253  0.3106
  883MPD2    C112998   1.433   1.397  15.875 -0.2251 -0.7330 -0.1201
  883MPD2    C212999   1.533   1.479  15.931 -0.2328 -0.2551  0.7227
  883MPD2    C313000   1.589   1.458  16.053  0.1083  0.1146 -0.4205
  883MPD2    C413001   1.554   1.338  16.115 -0.4773  0.2242  0.0068
  883MPD2    C513002   1.458   1.258  16.065 -0.1611 -0.6021 -0.2970
  883MPD2     H13003   1.572   1.560  15.870 -2.3727  0.3598  0.1513
  883MPD2    H113004   1.599   1.315  16.211  2.1540 -0.6490 -1.4324
  883MPD2    H213005   1.300   1.230  15.914 -2.0377  1.3401  1.9399
  883MPD2    H313006   1.415   1.176  16.122 -2.2044  0.3865 -0.4162
  883MPD2     N13007   1.679   1.554  16.101  0.5766 -0.2232 -0.3990
  883MPD2    H513008   1.691   1.638  16.045 -1.5464  0.2364 -0.1770
  883MPD2    N113009   1.385   1.440  15.744 -0.0779 -0.1560 -0.9454
  883MPD2    H713010   1.433   1.519  15.704 -0.0727  0.3809  0.1083
  884MPD2     C13011   3.516   2.226  15.294 -0.1259  0.0100 -0.4648
  884MPD2    C113012   3.498   2.351  15.244  0.3002 -0.4434 -0.7621
  884MPD2    C213013   3.367   2.382  15.200  0.2900  0.6627  0.4403
  884MPD2    C313014   3.264   2.292  15.207 -0.5620 -0.4285  0.0379
  884MPD2    C413015   3.281   2.172  15.265 -0.0361 -0.9579  0.0732
  884MPD2    C513016   3.410   2.139  15.302  0.5282 -1.2653 -0.0036
  884MPD2     H13017   3.344   2.481  15.163  0.2372  1.2537  2.0484
  884MPD2    H113018   3.197   2.103  15.276 -0.5044 -0.0951  1.8720
  884MPD2    H213019   3.610   2.186  15.330 -0.3710  1.8019  2.1216
  884MPD2    H313020   3.429   2.040  15.341  1.6973 -1.8251 -2.0139
  884MPD2     N13021   3.134   2.346  15.185 -0.0512  0.5439  0.1722
  884MPD2    H513022   3.131   2.445  15.167  0.0971  0.9236  2.2401
  884MPD2    N113023   3.599   2.446  15.230  0.1285 -0.0760  0.5106
  884MPD2    H713024   3.570   2.539  15.200 -0.7683 -1.4391 -2.9215
  885MPD2     C13025   1.725   3.283   0.297  0.2624 -0.7532 -0.2418
  885MPD2    C113026   1.736   3.148   0.256 -0.2390 -0.7796  1.0816
  885MPD2    C213027   1.709   3.114   0.128 -0.3304  0.5573  0.0877
  885MPD2    C313028   1.668   3.212   0.035 -0.4272  0.8857 -0.3933
  885MPD2    C413029   1.662   3.345   0.069  0.0365  0.4147  0.0021
  885MPD2    C513030   1.697   3.379   0.205  0.2999  0.1440 -0.2135
  885MPD2     H13031   1.722   3.011   0.094 -0.7372  0.4336  0.3045
  885MPD2    H113032   1.649   3.432   0.005 -0.6426  0.6906  0.5077
  885MPD2    H213033   1.745   3.305   0.402 -1.5490  1.0860 -0.2934
  885MPD2    H313034   1.704   3.485   0.228  0.1378  0.6759 -2.6159
  885MPD2     N13035   1.645   3.171  17.650  0.6350  0.1389 -0.6703
  885MPD2    H513036   1.659   3.072  17.631 -0.4242 -0.3685  1.1928
  885MPD2    N113037   1.770   3.049   0.355  0.3005 -0.6923  0.5949
  885MPD2    H713038   1.782   3.081   0.451  1.8554 -0.5696  0.3581
  886MPD2     C13039   2.640   1.637  15.353 -0.3416  0.6655 -0.7824
  886MPD2    C113040   2.764   1.579  15.374 -0.2953  0.7959 -0.1082
  886MPD2    C213041   2.851   1.574  15.271 -0.1907 -0.6084 -0.1010
  886MPD2    C313042   2.816   1.606  15.140 -0.2395  0.1184  0.5236
  886MPD2    C413043   2.684   1.635  15.115 -0.1747  0.2838 -0.0041
  886MPD2    C513044   2.603   1.663  15.226  0.9352 -0.9516  0.1851
  886MPD2     H13045   2.953   1.549  15.298  0.6364  0.8454 -1.8758
  886MPD2    H113046   2.638   1.639  15.017  1.4709 -0.9396 -0.8187
  886MPD2    H213047   2.560   1.649  15.425 -0.6344 -0.0025 -1.0023
  886MPD2    H313048   2.502   1.693  15.200  1.1844  0.0471  0.3889
  886MPD2     N13049   2.904   1.600  15.033  0.3014  0.3960  0.3626
  886MPD2    H513050   2.867   1.611  14.939  0.6034  0.5847  0.2686
  886MPD2    N113051   2.813   1.544  15.501 -0.3663  0.4014  0.2390
  886MPD2    H713052   2.909   1.511  15.504 -0.4778  0.0198 -0.3845
  887MPD2     C13053   3.207   1.821  16.167 -0.6323  0.5693  0.3103
  887MPD2    C113054   3.223   1.753  16.049 -0.3911  0.1287 -0.0351
  887MPD2    C213055   3.340   1.765  15.983 -0.2066  0.3395 -0.2213
  887MPD2    C313056   3.444   1.839  16.034 -0.4206  0.0581 -0.6803
  887MPD2    C413057   3.428   1.905  16.156  0.2306 -0.1451  0.1931
  887MPD2    C513058   3.304   1.896  16.220  0.3685  0.0534 -0.3523
  887MPD2     H13059   3.351   1.712  15.890 -2.3100  0.2947 -0.4480
  887MPD2    H113060   3.510   1.943  16.215  0.4501  0.9102 -0.7999
  887MPD2    H213061   3.108   1.820  16.211 -1.4860 -0.2657 -1.6086
  887MPD2    H313062   3.288   1.960  16.307 -1.0396 -0.5447 -0.1876
  887MPD2     N13063   3.566   1.843  15.958  0.1951  0.0299  0.0338
  887MPD2    H513064   3.549   1.810  15.864  2.8085 -2.5369  0.4635
  887MPD2    N113065   3.125   1.669  15.988 -0.6243 -0.3260 -0.2746
  887MPD2    H713066   3.155   1.621  15.904  0.8359 -1.4067  0.8551
  888MPD2     C13067   0.885   1.247  14.536 -0.3957  0.0377 -0.7263
  888MPD2    C113068   0.945   1.262  14.660 -0.5200  0.2790  0.0204
  888MPD2    C213069   1.000   1.390  14.689 -0.4493  1.5110 -0.7312
  888MPD2    C313070   0.987   1.501  14.603  0.3101  0.2711 -0.5899
  888MPD2    C413071   0.930   1.481  14.481  0.4026  0.2283 -0.2314
  888MPD2    C513072   0.892   1.356  14.446  0.3199  0.5968 -0.4061
  888MPD2     H13073   1.048   1.403  14.785 -2.0141  0.8630  0.1321
  888MPD2    H113074   0.925   1.563  14.410  1.0206  0.8544  0.4535
  888MPD2    H213075   0.866   1.148  14.495 -0.4081 -0.3305  0.1762
  888MPD2    H313076   0.840   1.343  14.352 -1.7948 -0.8335  0.9873
  888MPD2     N13077   1.023   1.629  14.657 -0.1623 -0.1213 -0.1871
  888MPD2    H513078   1.067   1.640  14.748 -2.1081 -0.7521  0.8367
  888MPD2    N113079   0.957   1.161  14.759 -0.3369  0.0561  0.0772
  888MPD2    H713080   1.018   1.180  14.839 -0.8551  2.6999 -0.1356
  889MPD2     C13081   0.049   0.482  12.308  0.1576  0.2354 -0.1695
  889MPD2    C113082   0.117   0.474  12.429 -0.2193 -1.0374  0.3058
  889MPD2    C213083   0.160   0.591  12.489  0.3303  0.0628 -0.0945
  889MPD2    C313084   0.112   0.714  12.451  0.7249 -0.1888  0.5409
  889MPD2    C413085   0.066   0.722  12.319  0.3304 -0.2434  1.0943
  889MPD2    C513086   0.028   0.608  12.253 -0.3746 -0.4494  0.3053
  889MPD2     H13087   0.182   0.582  12.594 -0.9768 -0.1822  0.1582
  889MPD2    H113088   0.041   0.817  12.274 -1.6250 -1.6330 -0.7738
  889MPD2    H213089   0.002   0.394  12.264 -0.3783  0.6602 -0.4405
  889MPD2    H313090   4.723   0.619  12.153 -0.8074  2.3151  0.7770
  889MPD2     N13091   0.137   0.821  12.542 -0.2811  0.8817 -0.6373
  889MPD2    H513092   0.183   0.801  12.630 -0.0621 -0.2989 -1.0231
  889MPD2    N113093   0.101   0.364  12.517 -0.1234  0.0762  0.4366
  889MPD2    H713094   0.151   0.359  12.606  0.8567 -2.6449 -0.2787
  890MPD2     C13095   4.052   2.831  14.657  0.2977  0.8014 -0.0143
  890MPD2    C113096   4.185   2.866  14.647 -0.3800 -0.0783 -0.1807
  890MPD2    C213097   4.279   2.816  14.736 -0.7680 -0.3204  0.3310
  890MPD2    C313098   4.247   2.709  14.818 -0.3945 -0.6527 -0.2834
  890MPD2    C413099   4.117   2.673  14.825 -0.2873  0.0788 -0.2351
  890MPD2    C513100   4.021   2.734  14.745 -0.0267  0.6927 -0.5582
  890MPD2     H13101   4.384   2.841  14.744 -0.8485  0.4592 -1.0103
  890MPD2    H113102   4.085   2.602  14.900 -0.4868  0.4009 -0.0139
  890MPD2    H213103   3.976   2.869  14.590 -0.1140  1.7835  1.0169
  890MPD2    H313104   3.918   2.703  14.752 -0.1266  0.6190 -2.5160
  890MPD2     N13105   4.351   2.643  14.881  0.0547  0.0601  0.0902
  890MPD2    H513106   4.445   2.677  14.866  0.1102  0.7384  1.9703
  890MPD2    N113107   4.217   2.966  14.554  0.2767 -0.4681  0.3033
  890MPD2    H713108   4.140   3.003  14.499  1.7187 -0.8513 -2.0001
  891MPD2     C13109   2.211   1.121  16.344 -0.1976 -0.0624 -0.2266
  891MPD2    C113110   2.197   1.086  16.478 -0.5356 -0.2400  0.1849
  891MPD2    C213111   2.294   1.138  16.571 -0.1636  0.5048  0.3025
  891MPD2    C313112   2.400   1.214  16.527  0.8221 -0.2741  0.0248
  891MPD2    C413113   2.420   1.234  16.388 -0.2456  0.2079  0.2460
  891MPD2    C513114   2.326   1.180  16.301  0.9514  0.6903 -0.2296
  891MPD2     H13115   2.277   1.126  16.677  2.2056  0.0679  0.6376
  891MPD2    H113116   2.500   1.298  16.351 -0.3492 -0.3356 -0.9346
  891MPD2    H213117   2.130   1.092  16.278  0.5360 -0.9148 -0.7518
  891MPD2    H313118   2.338   1.199  16.195 -1.8723  0.0619 -0.6578
  891MPD2     N13119   2.483   1.272  16.626 -0.5735 -0.1336 -0.2556
  891MPD2    H513120   2.473   1.239  16.722 -1.7609  0.0267 -0.3299
  891MPD2    N113121   2.087   1.001  16.508 -0.5548 -0.4409 -0.1530
  891MPD2    H713122   2.031   0.975  16.427  1.6103 -1.2271 -1.4115
  892MPD2     C13123   3.473   2.307  14.234  1.2672  0.2939  0.6714
  892MPD2    C113124   3.418   2.195  14.280 -0.0153 -0.1504 -0.0522
  892MPD2    C213125   3.484   2.079  14.276 -0.2286 -0.0432  0.0903
  892MPD2    C313126   3.614   2.076  14.217  0.7932  0.2063  0.0634
  892MPD2    C413127   3.668   2.187  14.159 -0.8217 -0.0854  0.4953
  892MPD2    C513128   3.598   2.301  14.181  0.0130 -1.0082  0.3292
  892MPD2     H13129   3.435   1.997  14.327 -0.4553 -0.1102 -0.2299
  892MPD2    H113130   3.764   2.193  14.108 -0.6872 -1.2616  0.6140
  892MPD2    H213131   3.416   2.399  14.239  2.0244  0.6363  2.9372
  892MPD2    H313132   3.636   2.397  14.148 -0.4144 -0.9065  0.1388
  892MPD2     N13133   3.691   1.957  14.185 -0.3451  0.5650  0.1369
  892MPD2    H513134   3.785   1.968  14.148 -0.7839  0.6056 -0.9745
  892MPD2    N113135   3.291   2.203  14.336  0.0541 -0.4580  0.2632
  892MPD2    H713136   3.274   2.124  14.399 -0.8750 -0.4163  0.0713
  893MPD2     C13137   4.602   0.583   1.669 -0.1692  0.0931  0.5865
  893MPD2    C113138   4.632   0.600   1.532 -0.4526  0.1784 -0.2390
  893MPD2    C213139   4.544   0.684   1.468 -0.1340 -0.5048 -0.6331
  893MPD2    C313140   4.437   0.744   1.523  0.7619  0.3397  0.7220
  893MPD2    C413141   4.412   0.719   1.656  0.1728 -0.1497 -0.6450
  893MPD2    C513142   4.497   0.647   1.729 -0.3448  0.3451 -0.5564
  893MPD2     H13143   4.579   0.720   1.372  2.0252 -1.8721 -0.3556
  893MPD2    H113144   4.325   0.757   1.709  1.0097  1.3715 -0.3686
  893MPD2    H213145   4.668   0.529   1.736  0.7147 -0.2856 -0.5883
  893MPD2    H313146   4.489   0.629   1.836 -1.0827  1.5218 -0.4160
  893MPD2     N13147   4.343   0.826   1.468 -0.3507  0.3564  0.3093
  893MPD2    H513148   4.263   0.843   1.528 -1.8495 -0.1475 -1.5413
  893MPD2    N113149   0.017   0.553   1.479  0.1508  0.6860 -0.2000
  893MPD2    H713150   0.063   0.489   1.543 -2.2491  1.3113  2.1392
  894MPD2     C13151   3.379   3.034   1.515  0.6088  1.0067 -0.0791
  894MPD2    C113152   3.432   3.021   1.645  0.2684 -0.0210  0.0068
  894MPD2    C213153   3.530   3.113   1.683  0.0918 -0.0670 -1.0106
  894MPD2    C313154   3.559   3.219   1.595  0.3322 -0.2684  0.5161
  894MPD2    C413155   3.515   3.223   1.466  0.4628 -0.5545 -0.0402
  894MPD2    C513156   3.416   3.133   1.432  1.0850  0.7540 -0.0999
  894MPD2     H13157   3.586   3.112   1.775 -1.2181  2.2594 -0.1878
  894MPD2    H113158   3.530   3.302   1.394 -0.8932  0.3659  0.6690
  894MPD2    H213159   3.303   2.968   1.475 -0.5696  1.7646  0.8505
  894MPD2    H313160   3.367   3.130   1.335 -0.9708  1.8501  0.8963
  894MPD2     N13161   3.660   3.314   1.642  0.7974  0.0371 -0.0174
  894MPD2    H513162   3.692   3.301   1.737 -3.3216 -2.9257  0.9565
  894MPD2    N113163   3.374   2.935   1.743 -0.7053  0.2356  0.3587
  894MPD2    H713164   3.387   2.958   1.841 -0.0560 -1.7413  0.7286
  895MPD2     C13165   2.416   1.022  13.260 -0.8993  0.0745  0.2837
  895MPD2    C113166   2.318   0.935  13.217  0.0438  0.5709  0.4369
  895MPD2    C213167   2.343   0.803  13.244 -0.1114 -1.1478 -0.0231
  895MPD2    C313168   2.452   0.752  13.311 -0.5391 -0.0309  0.7089
  895MPD2    C413169   2.549   0.841  13.352  0.4971  0.9107  0.0175
  895MPD2    C513170   2.527   0.970  13.330  0.3591 -0.0413 -0.4684
  895MPD2     H13171   2.265   0.732  13.223  0.3980 -1.9850  0.9342
  895MPD2    H113172   2.638   0.817  13.409  0.0355  0.6434  0.6296
  895MPD2    H213173   2.400   1.129  13.259 -2.2886 -0.1268  1.4187
  895MPD2    H313174   2.595   1.040  13.377 -1.5414 -0.8644  3.5245
  895MPD2     N13175   2.449   0.612  13.325  0.0335 -0.2402  0.7760
  895MPD2    H513176   2.372   0.558  13.288 -0.2677  0.6068  0.1620
  895MPD2    N113177   2.199   0.977  13.151  0.1009 -0.2051  0.4430
  895MPD2    H713178   2.130   0.912  13.116  2.3916 -1.3251 -2.0345
  896MPD2     C13179   0.710   3.577   2.067 -0.5409 -0.1363  0.1847
  896MPD2    C113180   0.678   3.552   1.937  0.2144 -0.7001  0.3978
  896MPD2    C213181   0.547   3.512   1.903  0.3931 -0.7138  0.1218
  896MPD2    C313182   0.453   3.504   2.004  0.5434  0.1752 -1.0677
  896MPD2    C413183   0.500   3.513   2.134  0.2234  0.1022 -0.2103
  896MPD2    C513184   0.624   3.549   2.167 -0.2424 -0.2390 -0.1317
  896MPD2     H13185   0.518   3.497   1.800  1.0042  0.5358 -0.2320
  896MPD2    H113186   0.436   3.491   2.219  0.7014  0.3240  0.2027
  896MPD2    H213187   0.811   3.591   2.104  0.3134  1.0044 -2.5759
  896MPD2    H313188   0.660   3.561   2.269 -2.7113  0.6986  0.6304
  896MPD2     N13189   0.315   3.480   1.978  0.4114  0.9041 -0.4838
  896MPD2    H513190   0.295   3.472   1.879 -1.0075  0.2387 -0.1426
  896MPD2    N113191   0.775   3.578   1.845 -0.3527 -0.1134 -0.3672
  896MPD2    H713192   0.866   3.611   1.875 -0.1139 -0.8303 -0.3094
  897MPD2     C13193   0.733   4.605  10.239 -0.1406  0.4734  0.0910
  897MPD2    C113194   0.716   4.731  10.296 -0.1339  0.4550 -0.2544
  897MPD2    C213195   0.656   4.733  10.421 -0.0345  0.7867 -0.1990
  897MPD2    C313196   0.641   4.620  10.493  0.1910 -0.0639  0.3921
  897MPD2    C413197   0.662   4.496  10.437  0.7899  0.1996  0.0765
  897MPD2    C513198   0.703   4.487  10.309  0.2061  0.6351 -0.0343
  897MPD2     H13199   0.631   0.089  10.472  1.3010 -0.4050  2.6413
  897MPD2    H113200   0.646   4.401  10.488 -0.2874  1.0371  1.3185
  897MPD2    H213201   0.781   4.578  10.146  0.3125  0.6183  0.2878
  897MPD2    H313202   0.734   4.393  10.265 -2.1984  0.7391 -1.9217
  897MPD2     N13203   0.591   4.639  10.622  0.0839  0.3453 -0.2041
  897MPD2    H513204   0.571   4.736  10.645 -1.4345 -0.0727  0.2282
  897MPD2    N113205   0.743   0.111  10.218  0.6419  0.0438 -0.0778
  897MPD2    H713206   0.764   0.086  10.122 -1.0131 -0.7852 -0.2388
  898MPD2     C13207   3.468   1.402  17.512 -0.2776  0.4833 -0.1657
  898MPD2    C113208   3.448   1.424  17.648  0.7783 -0.4618 -0.5964
  898MPD2    C213209   3.440   1.555  17.678 -0.1405  0.0421 -0.6676
  898MPD2    C313210   3.448   1.657  17.586  0.0577  0.1373  0.0001
  898MPD2    C413211   3.466   1.625  17.450 -0.0251  0.2301  0.1252
  898MPD2    C513212   3.467   1.493  17.419 -0.1963 -0.4031  0.2014
  898MPD2     H13213   3.421   1.586   0.036  1.5255  0.7789 -0.5776
  898MPD2    H113214   3.466   1.689  17.363  0.5679  1.6775  1.1969
  898MPD2    H213215   3.474   1.303  17.466 -0.3077  0.6332 -0.4942
  898MPD2    H313216   3.482   1.459  17.317 -0.7498  0.0698 -0.0420
  898MPD2     N13217   3.442   1.791  17.639 -0.0721 -0.0250 -0.1818
  898MPD2    H513218   3.440   1.805  17.739  1.3687  0.6133 -0.2304
  898MPD2    N113219   3.435   1.322   0.001 -0.5726 -0.0718 -0.1023
  898MPD2    H713220   3.411   1.357   0.093  1.6786  0.6798  0.2041
  899MPD2     C13221   3.705   2.348   0.436 -0.1754  0.3342 -0.7145
  899MPD2    C113222   3.803   2.439   0.398 -0.1021 -0.4753  0.2622
  899MPD2    C213223   3.825   2.546   0.482 -0.7302  0.7415 -0.5452
  899MPD2    C313224   3.773   2.551   0.607  0.5347 -0.0112 -0.1568
  899MPD2    C413225   3.692   2.452   0.646 -0.5961 -0.4114  0.4333
  899MPD2    C513226   3.660   2.347   0.569  0.2821 -0.7478  0.1156
  899MPD2     H13227   3.901   2.616   0.450 -0.9656  1.9240  1.4837
  899MPD2    H113228   3.656   2.456   0.748  1.1981 -1.3430  1.0999
  899MPD2    H213229   3.675   2.267   0.370 -0.0431  0.8570 -1.4247
  899MPD2    H313230   3.583   2.286   0.613 -2.0064  1.4454 -0.8563
  899MPD2     N13231   3.788   2.660   0.696  0.7179  0.1134  0.2131
  899MPD2    H513232   3.745   2.661   0.788  3.9461 -0.1183  1.7444
  899MPD2    N113233   3.855   2.426   0.268 -0.5615 -0.2380 -0.4542
  899MPD2    H713234   3.813   2.356   0.208 -0.2566 -0.7702 -0.0488
  900MPD2     C13235   3.744   3.666  12.412 -0.3062  0.8288 -0.2487
  900MPD2    C113236   3.664   3.553  12.404  0.7261 -0.1479 -0.0897
  900MPD2    C213237   3.532   3.566  12.437 -0.4375 -0.5255  0.2592
  900MPD2    C313238   3.475   3.690  12.477 -0.0820 -0.3390 -0.7620
  900MPD2    C413239   3.555   3.795  12.498  0.5484  0.0034  0.3108
  900MPD2    C513240   3.693   3.780  12.467  0.4129  0.1256 -0.3438
  900MPD2     H13241   3.466   3.480  12.430  1.2680 -1.8127  0.0242
  900MPD2    H113242   3.529   3.888  12.547 -1.2385  0.4645 -1.5249
  900MPD2    H213243   3.850   3.665  12.390 -0.6745  0.4698 -1.9413
  900MPD2    H313244   3.754   3.870  12.467 -0.3482  0.6382  1.8006
  900MPD2     N13245   3.335   3.692  12.502 -0.2602  0.2898  0.4517
  900MPD2    H513246   3.287   3.608  12.471  0.1232  0.7883 -1.4746
  900MPD2    N113247   3.728   3.428  12.370  0.0137  0.0919 -0.4446
  900MPD2    H713248   3.820   3.432  12.327 -0.0752 -1.7006 -0.7749
  901MPD2     C13249   3.937   2.441  12.750  0.6600 -0.4280  0.0483
  901MPD2    C113250   3.983   2.449  12.622 -0.1248  0.0554  0.1257
  901MPD2    C213251   3.993   2.567  12.558  0.2192 -0.4358 -0.4166
  901MPD2    C313252   3.937   2.684  12.610 -0.3412 -0.0006 -0.7007
  901MPD2    C413253   3.876   2.672  12.734 -0.4709 -0.5279 -0.4038
  901MPD2    C513254   3.882   2.551  12.807 -0.1553  0.4496  0.9869
  901MPD2     H13255   4.037   2.580  12.460  2.8210 -1.0712  0.6525
  901MPD2    H113256   3.841   2.761  12.784 -0.7393  0.0279 -1.5686
  901MPD2    H213257   3.944   2.350  12.810  2.7415 -0.1907  0.1690
  901MPD2    H313258   3.832   2.548  12.903 -3.8156 -1.0056 -0.9572
  901MPD2     N13259   3.949   2.803  12.531 -0.0914  0.0472  0.5841
  901MPD2    H513260   3.999   2.789  12.443 -2.5294  1.8085 -1.0934
  901MPD2    N113261   4.024   2.322  12.568 -0.2322  0.0523 -0.3351
  901MPD2    H713262   4.020   2.237  12.623 -1.0866  1.6540  2.1357
  902MPD2     C13263   2.328   2.132  12.773  0.2976  0.3241  0.8361
  902MPD2    C113264   2.462   2.110  12.741  0.1670 -0.6799 -0.1906
  902MPD2    C213265   2.510   1.985  12.753 -0.6888  0.1935  0.0329
  902MPD2    C313266   2.427   1.878  12.787  0.0423 -0.6665  0.6923
  902MPD2    C413267   2.292   1.893  12.811  0.1310 -0.6476 -0.1441
  902MPD2    C513268   2.248   2.021  12.810  0.0098  0.4027  0.4624
  902MPD2     H13269   2.609   1.959  12.719 -1.2696 -0.6072 -1.0185
  902MPD2    H113270   2.230   1.812  12.849 -0.2865  0.2653  1.1595
  902MPD2    H213271   2.274   2.223  12.750 -0.8334 -0.4315  0.5198
  902MPD2    H313272   2.146   2.033  12.844 -0.3165  1.0741 -0.7493
  902MPD2     N13273   2.460   1.748  12.761  0.0678  0.5025  0.4845
  902MPD2    H513274   2.389   1.677  12.749 -1.5536  2.3481 -0.8788
  902MPD2    N113275   2.555   2.204  12.687 -0.2978 -0.2194 -0.3303
  902MPD2    H713276   2.646   2.173  12.658 -0.3428  0.2386 -0.9576
  903MPD2     C13277   2.745   1.309  12.074 -0.1802  0.0439  0.0093
  903MPD2    C113278   2.647   1.402  12.120 -0.5796  0.1183  0.0091
  903MPD2    C213279   2.558   1.453  12.032 -0.1671 -0.6259 -0.0824
  903MPD2    C313280   2.570   1.429  11.894 -0.0234 -0.3822 -0.5595
  903MPD2    C413281   2.674   1.352  11.850 -0.8056 -0.3951  0.3240
  903MPD2    C513282   2.755   1.293  11.940  0.0982 -0.1457  0.2800
  903MPD2     H13283   2.472   1.510  12.067 -1.5581 -2.9815  0.3143
  903MPD2    H113284   2.676   1.330  11.744  0.4986  1.9147 -0.1305
  903MPD2    H213285   2.803   1.260  12.151  0.9371  1.8491  0.3042
  903MPD2    H313286   2.822   1.215  11.906 -0.3416  0.1091 -1.1654
  903MPD2     N13287   2.462   1.475  11.817  0.7318  0.1925  0.3084
  903MPD2    H513288   2.382   1.513  11.865 -1.0292 -1.6075 -1.2466
  903MPD2    N113289   2.642   1.414  12.261  0.4364  0.2961 -0.4751
  903MPD2    H713290   2.715   1.362  12.310  0.4935  2.6665  2.0061
  904MPD2     C13291   2.128   0.687  13.671  0.1881 -0.0242  0.0294
  904MPD2    C113292   2.108   0.709  13.813 -0.1367 -0.1375 -0.2214
  904MPD2    C213293   2.221   0.680  13.892  0.5288  0.0466  0.4684
  904MPD2    C313294   2.347   0.669  13.837  0.5044  0.2938  0.0277
  904MPD2    C413295   2.361   0.672  13.697  0.2032  0.5799 -0.1509
  904MPD2    C513296   2.249   0.670  13.617  0.2487 -0.1967 -0.6700
  904MPD2     H13297   2.213   0.674  13.999  1.8497  1.0986  0.6254
  904MPD2    H113298   2.461   0.664  13.657  0.6035 -1.3947  1.2535
  904MPD2    H213299   2.046   0.703  13.602 -0.3354 -1.6629  0.2505
  904MPD2    H313300   2.263   0.671  13.510  2.3393 -0.3731 -0.3954
  904MPD2     N13301   2.470   0.651  13.906 -0.8324  0.5510 -0.1926
  904MPD2    H513302   2.557   0.646  13.854 -1.5830 -2.3077 -1.1420
  904MPD2    N113303   1.991   0.742  13.879  0.1449 -0.2348 -0.4135
  904MPD2    H713304   1.988   0.735  13.981 -1.4388  2.4035 -0.2563
  905MPD2     C13305   1.714   0.380  13.442 -0.2550  0.3448 -0.2538
  905MPD2    C113306   1.812   0.478  13.407  0.0923  0.2405  0.0183
  905MPD2    C213307   1.942   0.436  13.382 -0.5051 -0.1138 -0.5747
  905MPD2    C313308   1.971   0.307  13.385  0.3108  0.7673  0.5137
  905MPD2    C413309   1.879   0.215  13.411 -0.6785 -0.8186  0.1571
  905MPD2    C513310   1.753   0.252  13.442  0.2039  0.3007  0.4223
  905MPD2     H13311   2.016   0.507  13.348 -1.3286  0.9788 -0.0835
  905MPD2    H113312   1.896   0.109  13.396  0.4452 -0.7951  1.1429
  905MPD2    H213313   1.608   0.401  13.455 -0.0856  2.1397 -1.7473
  905MPD2    H313314   1.676   0.179  13.467 -0.7305  1.0201 -0.3438
  905MPD2     N13315   2.100   0.263  13.355  0.1701  0.6561 -0.5321
  905MPD2    H513316   2.117   0.164  13.371 -0.9593  0.1116 -2.6965
  905MPD2    N113317   1.766   0.614  13.412  0.5075  0.8682  0.3001
  905MPD2    H713318   1.671   0.629  13.443  0.0197  0.8246 -1.1734
  906MPD2     C13319   4.261   0.200  11.252 -0.1245  0.2991  0.2945
  906MPD2    C113320   4.167   0.179  11.151  0.0492 -0.8042 -0.1230
  906MPD2    C213321   4.071   0.082  11.161 -0.0129 -0.3648  0.0078
  906MPD2    C313322   4.056   0.014  11.283 -0.8165 -0.8952  0.2182
  906MPD2    C413323   4.129   0.053  11.394 -0.4286  0.7098  0.3220
  906MPD2    C513324   4.237   0.139  11.379  0.4150 -0.2966 -0.1692
  906MPD2     H13325   4.002   0.071  11.078  0.5487 -2.8018 -0.1353
  906MPD2    H113326   4.122   0.013  11.494  1.0795  2.2734  1.0498
  906MPD2    H213327   4.348   0.264  11.241  0.6230 -1.1032 -1.9623
  906MPD2    H313328   4.309   0.147  11.460 -1.0484  2.6624  0.8346
  906MPD2     N13329   3.953   4.656  11.300  0.3752  0.4796  0.8318
  906MPD2    H513330   3.950   4.617  11.394 -1.2090  0.8829  0.9417
  906MPD2    N113331   4.172   0.260  11.034  0.1398  0.1764 -0.0423
  906MPD2    H713332   4.109   0.226  10.962  0.1352 -1.5223  0.7786
  907MPD2     C13333   2.568   4.229  15.649 -0.0926 -0.8027  0.1269
  907MPD2    C113334   2.679   4.151  15.629  0.0011 -0.5773 -0.6179
  907MPD2    C213335   2.744   4.104  15.742  0.2666  0.2911  0.1093
  907MPD2    C313336   2.696   4.112  15.869  0.0573  0.2460 -0.4497
  907MPD2    C413337   2.595   4.202  15.888  0.2011 -0.3079 -0.6838
  907MPD2    C513338   2.533   4.269  15.782  0.0502  0.4610  1.0022
  907MPD2     H13339   2.826   4.034  15.733 -0.3789 -0.6580  1.7151
  907MPD2    H113340   2.553   4.216  15.988 -0.6573 -2.2508 -0.7680
  907MPD2    H213341   2.511   4.278  15.570  1.3091  0.9335  0.1913
  907MPD2    H313342   2.449   4.335  15.798 -1.7103 -1.0324 -1.9703
  907MPD2     N13343   2.771   4.057  15.970  0.2009 -0.7751 -0.6011
  907MPD2    H513344   2.858   4.010  15.945  2.6652  1.7277  3.1062
  907MPD2    N113345   2.723   4.113  15.498 -0.1196 -0.0354  0.5254
  907MPD2    H713346   2.797   4.044  15.496 -0.0377  0.0314  1.3812
  908MPD2     C13347   0.815   0.250   9.357  0.9991 -0.0246 -0.2561
  908MPD2    C113348   0.801   0.141   9.445 -0.2258 -0.4942  0.7206
  908MPD2    C213349   0.807   0.171   9.578 -0.0840 -0.4361  1.0957
  908MPD2    C313350   0.819   0.300   9.635 -0.5057 -0.2013  0.7823
  908MPD2    C413351   0.825   0.402   9.540  0.0263 -0.9783  0.4801
  908MPD2    C513352   0.818   0.376   9.409 -0.5299  0.3445 -0.0715
  908MPD2     H13353   0.787   0.091   9.648 -1.2293 -0.1924  1.0431
  908MPD2    H113354   0.835   0.507   9.563 -1.3984 -1.1580  1.9157
  908MPD2    H213355   0.820   0.231   9.250  0.9034 -0.1086 -0.2459
  908MPD2    H313356   0.819   0.464   9.345 -1.8359 -0.1066 -0.7243
  908MPD2     N13357   0.814   0.323   9.776  0.0722  0.1832 -0.3981
  908MPD2    H513358   0.822   0.239   9.833  0.2218  1.7607  1.9039
  908MPD2    N113359   0.801   0.007   9.395  0.0317  0.6244 -0.3575
  908MPD2    H713360   0.824   0.001   9.296 -0.2126  0.7908 -0.4237
  909MPD2     C13361   1.143   3.701  11.741  0.5385  0.3100 -0.4211
  909MPD2    C113362   1.051   3.679  11.642  0.1750 -0.4195 -0.0925
  909MPD2    C213363   0.916   3.682  11.670  0.3633  0.4606 -0.8189
  909MPD2    C313364   0.870   3.722  11.798  0.0687  0.2764 -0.4617
  909MPD2    C413365   0.962   3.752  11.897 -0.1337  0.7726  0.1998
  909MPD2    C513366   1.098   3.745  11.863 -0.0360 -0.3384 -0.7286
  909MPD2     H13367   0.837   3.650  11.603  0.0836  0.1257 -0.3353
  909MPD2    H113368   0.946   3.777  12.001 -0.2398  0.8968  0.1537
  909MPD2    H213369   1.250   3.699  11.721  0.5811 -0.2262 -0.1372
  909MPD2    H313370   1.162   3.769  11.947  1.5097 -0.2185 -1.9360
  909MPD2     N13371   0.732   3.717  11.830  0.5223  0.0494 -0.0634
  909MPD2    H513372   0.671   3.698  11.752  0.3370 -0.3125  0.1733
  909MPD2    N113373   1.089   3.628  11.513  0.0538 -0.4439  0.4793
  909MPD2    H713374   1.018   3.626  11.441  1.1329  2.9845 -0.7035
  910MPD2     C13375   2.677   0.890  15.713 -0.4261  0.3139  0.3700
  910MPD2    C113376   2.546   0.838  15.710 -0.1673  0.1686 -0.5950
  910MPD2    C213377   2.485   0.835  15.585 -0.1731  0.4067  0.6935
  910MPD2    C313378   2.549   0.870  15.471  0.1719 -0.6337 -0.3768
  910MPD2    C413379   2.677   0.913  15.481  0.0680  0.2294  0.3262
  910MPD2    C513380   2.746   0.924  15.598  0.1715  0.5903 -0.4903
  910MPD2     H13381   2.383   0.799  15.580  0.7476 -1.9630 -0.9580
  910MPD2    H113382   2.723   0.949  15.390  0.7360  2.9113  1.7488
  910MPD2    H213383   2.731   0.893  15.806 -0.9439  0.2674  0.6705
  910MPD2    H313384   2.850   0.952  15.610  0.1231  0.5217  0.0733
  910MPD2     N13385   2.494   0.875  15.341  0.4554 -0.2494 -0.3119
  910MPD2    H513386   2.555   0.918  15.271  1.2699  0.8271  1.0471
  910MPD2    N113387   2.472   0.805  15.826 -0.4933 -0.2203 -0.2748
  910MPD2    H713388   2.382   0.763  15.807  1.0593 -4.4688  1.6934
  911MPD2     C13389   0.624   0.612  16.662  0.4447  0.8961 -0.5615
  911MPD2    C113390   0.721   0.683  16.730 -0.0169  0.4917  0.1560
  911MPD2    C213391   0.746   0.819  16.700 -0.6501  0.0562  0.9200
  911MPD2    C313392   0.677   0.869  16.591  0.5136 -0.0808 -0.2506
  911MPD2    C413393   0.577   0.794  16.524  0.5763  0.1330 -0.3001
  911MPD2    C513394   0.551   0.663  16.558  0.0212  0.6738  0.4985
  911MPD2     H13395   0.828   0.872  16.749  0.4501  0.0198 -0.8900
  911MPD2    H113396   0.534   0.840  16.436  1.9206 -0.3976 -1.2186
  911MPD2    H213397   0.601   0.510  16.689  0.6925  0.9218 -0.2590
  911MPD2    H313398   0.480   0.594  16.513  0.1380  1.3806 -0.7786
  911MPD2     N13399   0.696   0.996  16.530  0.5790  0.7023 -0.2674
  911MPD2    H513400   0.632   1.038  16.464  0.5212  3.0028  1.2817
  911MPD2    N113401   0.790   0.616  16.835  0.5593  0.2839  0.2874
  911MPD2    H713402   0.761   0.519  16.844 -1.4094  0.8694  0.1877
  912MPD2     C13403   0.367   1.214  15.974 -0.1260  0.3425 -0.1480
  912MPD2    C113404   0.373   1.175  16.104 -0.2513 -0.3078  0.0085
  912MPD2    C213405   0.277   1.096  16.156 -0.2344 -0.7234 -0.7231
  912MPD2    C313406   0.180   1.041  16.075  0.3442 -0.0737 -0.8598
  912MPD2    C413407   0.178   1.068  15.940 -0.6341 -0.2571 -0.2186
  912MPD2    C513408   0.270   1.155  15.890 -0.4561 -0.1916 -0.1201
  912MPD2     H13409   0.268   1.097  16.264 -2.7168 -0.7360 -0.9241
  912MPD2    H113410   0.104   1.032  15.870 -0.6948 -2.7745  1.1156
  912MPD2    H213411   0.427   1.286  15.920 -0.8685  1.0870  0.0253
  912MPD2    H313412   0.268   1.189  15.787  0.2651  0.8660  0.2157
  912MPD2     N13413   0.089   0.951  16.137  0.0239  0.1534 -0.2000
  912MPD2    H513414   0.105   0.945  16.237 -2.4256 -1.1566  0.1132
  912MPD2    N113415   0.466   1.243  16.191  0.6744  0.7870  0.0106
  912MPD2    H713416   0.505   1.329  16.153 -0.8830  0.0511 -3.2106
  913MPD2     C13417   0.582   1.305  10.817 -0.0060  0.1576 -0.0449
  913MPD2    C113418   0.651   1.408  10.875  0.3785 -0.2504 -0.0133
  913MPD2    C213419   0.669   1.530  10.806 -0.7267 -0.5876  0.5318
  913MPD2    C313420   0.624   1.554  10.679 -0.9851  0.5361 -0.6109
  913MPD2    C413421   0.550   1.450  10.619 -0.1556  0.0477  0.3879
  913MPD2    C513422   0.536   1.329  10.687 -0.1871 -0.6861  0.9106
  913MPD2     H13423   0.711   1.615  10.859 -1.0512 -1.1277  1.6736
  913MPD2    H113424   0.512   1.454  10.518  0.2476 -1.6325  0.1621
  913MPD2    H213425   0.557   1.214  10.871 -0.3072  0.1319 -0.2286
  913MPD2    H313426   0.477   1.249  10.645 -1.0104 -0.1519  1.0568
  913MPD2     N13427   0.644   1.678  10.611 -0.1843 -0.0082 -0.5700
  913MPD2    H513428   0.609   1.674  10.516 -0.1288 -0.5773 -0.5656
  913MPD2    N113429   0.691   1.400  11.010 -0.7640  0.1874  0.2915
  913MPD2    H713430   0.660   1.320  11.064 -2.1956 -0.8243 -2.0361
  914MPD2     C13431   3.437   2.236  11.910  0.3637  0.4091 -0.1936
  914MPD2    C113432   3.482   2.324  12.007 -1.3313  0.1634 -0.1726
  914MPD2    C213433   3.579   2.275  12.094  0.0440  0.0595 -0.2026
  914MPD2    C313434   3.640   2.160  12.080 -0.2168  0.1936 -0.4416
  914MPD2    C413435   3.606   2.085  11.965 -0.2844 -0.9826 -0.3835
  914MPD2    C513436   3.494   2.118  11.886  0.8439  0.1771  0.5242
  914MPD2     H13437   3.608   2.341  12.175  2.0443  1.2220 -1.8638
  914MPD2    H113438   3.661   1.995  11.942 -0.5829 -1.6022  1.2983
  914MPD2    H213439   3.352   2.267  11.852  1.1534  2.6188 -0.1847
  914MPD2    H313440   3.466   2.057  11.800 -0.6078  0.7991  0.5532
  914MPD2     N13441   3.743   2.115  12.163 -0.5533  0.2000  0.0948
  914MPD2    H513442   3.763   2.173  12.244 -1.1462 -0.1177  0.4759
  914MPD2    N113443   3.425   2.452  12.017  0.2504 -0.0737  0.4073
  914MPD2    H713444   3.351   2.486  11.957  1.3266  3.0664  0.8869
  915MPD2     C13445   1.849   2.412  15.480  0.4012 -0.4780  0.1580
  915MPD2    C113446   1.738   2.489  15.478 -0.0715 -0.0167  0.1206
  915MPD2    C213447   1.652   2.491  15.585 -0.1975  0.2981  0.6451
  915MPD2    C313448   1.688   2.427  15.699 -0.4852 -0.6437 -0.1509
  915MPD2    C413449   1.807   2.359  15.703 -0.3199 -0.0438 -0.1494
  915MPD2    C513450   1.880   2.338  15.589  0.1789 -0.3820 -0.1832
  915MPD2     H13451   1.551   2.529  15.576 -0.9614 -1.8291  0.2437
  915MPD2    H113452   1.853   2.313  15.789 -0.6886  1.4171  0.8264
  915MPD2    H213453   1.919   2.415  15.398  0.6810  0.2479  0.4317
  915MPD2    H313454   1.975   2.286  15.592  1.2452  1.5705 -0.0047
  915MPD2     N13455   1.611   2.449  15.814  0.6105  0.3382  0.0891
  915MPD2    H513456   1.522   2.497  15.799  1.1195  0.4328 -2.6309
  915MPD2    N113457   1.715   2.562  15.360  0.5148  0.0557  0.2441
  915MPD2    H713458   1.782   2.554  15.284  2.0510 -0.5872  1.6691
  916MPD2     C13459   0.071   1.340  15.584 -0.6420 -0.4282 -0.2427
  916MPD2    C113460   4.715   1.243  15.620  0.6347  0.1157  0.4955
  916MPD2    C213461   4.706   1.125  15.543  0.3085  0.0886 -0.2586
  916MPD2    C313462   0.060   1.101  15.441 -0.1867 -0.0411 -0.2727
  916MPD2    C413463   0.153   1.192  15.404 -0.6401 -0.3868 -0.1268
  916MPD2    C513464   0.148   1.310  15.472  0.1485 -0.6172  0.5414
  916MPD2     H13465   4.645   1.042  15.578 -2.1032  1.6362 -0.7839
  916MPD2    H113466   0.227   1.169  15.329  0.8536 -3.5679  2.2999
  916MPD2    H213467   0.084   1.439  15.626  0.1981 -0.7372  0.2115
  916MPD2    H313468   0.216   1.384  15.431  0.7689 -1.9922 -0.8798
  916MPD2     N13469   0.060   0.969  15.387  0.2547 -0.0182  0.2315
  916MPD2    H513470   4.725   0.907  15.425  1.1863 -1.0818  0.2589
  916MPD2    N113471   4.639   1.270  15.730  0.4074 -0.2351  0.3080
  916MPD2    H713472   4.639   1.367  15.758  0.3600 -0.5673  1.4401
  917MPD2     C13473   0.009   2.782  10.660 -0.2923  0.3654 -0.3152
  917MPD2    C113474   0.060   2.848  10.767  0.0987 -0.2468  0.5937
  917MPD2    C213475   0.104   2.982  10.757 -0.5112 -0.5150 -0.3631
  917MPD2    C313476   0.100   3.049  10.638 -0.2388  0.1683  0.6423
  917MPD2    C413477   0.065   2.979  10.524  0.6903  0.7231 -0.3729
  917MPD2    C513478   0.012   2.851  10.541  0.6525  0.3876 -0.5174
  917MPD2     H13479   0.126   3.045  10.843 -1.4136  2.5756 -2.4013
  917MPD2    H113480   0.043   3.024  10.428 -2.0526  0.9914  0.4020
  917MPD2    H213481   4.709   2.680  10.663 -0.1224  0.3453  0.8691
  917MPD2    H313482   4.714   2.802  10.451  0.3112 -0.2042 -0.0613
  917MPD2     N13483   0.115   3.187  10.632  0.4466 -0.7608  0.0475
  917MPD2    H513484   0.090   3.224  10.541  0.3633  0.0050  0.3844
  917MPD2    N113485   0.057   2.782  10.890  0.0827 -0.1775 -0.1524
  917MPD2    H713486   0.021   2.687  10.887  0.0264 -0.1579 -0.1063
  918MPD2     C13487   0.300   2.932  11.931  0.0246  0.4422 -0.0220
  918MPD2    C113488   0.281   2.795  11.924 -0.6738  0.0534 -0.0065
  918MPD2    C213489   0.237   2.746  11.799  0.8217  0.2006 -0.0306
  918MPD2    C313490   0.203   2.827  11.694 -0.5037 -0.0024 -0.3196
  918MPD2    C413491   0.221   2.960  11.707  0.4306  0.2658 -0.5816
  918MPD2    C513492   0.270   3.012  11.826  0.6700 -0.2034  0.2303
  918MPD2     H13493   0.223   2.640  11.785  4.2976 -0.2718  0.1192
  918MPD2    H113494   0.193   3.029  11.628 -0.9333 -0.7869 -1.0212
  918MPD2    H213495   0.337   2.981  12.021 -0.3458 -1.3673  1.1154
  918MPD2    H313496   0.287   3.119  11.835  1.5268 -0.4229  1.1614
  918MPD2     N13497   0.157   2.760  11.577  0.3662  0.4923 -0.1440
  918MPD2    H513498   0.154   2.659  11.587 -0.0014  0.5709  0.5166
  918MPD2    N113499   0.334   2.712  12.025  0.0859  0.6970  0.5001
  918MPD2    H713500   0.340   2.613  12.007  2.8271  0.9045  0.1630
  919MPD2     C13501   0.675   1.896  11.631 -0.1159  0.8237 -0.4246
  919MPD2    C113502   0.557   1.824  11.613 -0.2199  0.8617 -0.0034
  919MPD2    C213503   0.481   1.856  11.498 -0.0241  0.0887  0.1587
  919MPD2    C313504   0.523   1.944  11.398 -0.1453 -0.2698 -0.5028
  919MPD2    C413505   0.634   2.014  11.424  1.2772 -0.2319  0.2732
  919MPD2    C513506   0.713   1.982  11.536  0.0854  0.1728 -0.1211
  919MPD2     H13507   0.392   1.795  11.485 -0.2295  0.9539 -2.6439
  919MPD2    H113508   0.656   2.102  11.364 -0.9903 -1.2321 -2.0184
  919MPD2    H213509   0.743   1.892  11.715 -2.7769  0.5758  1.7252
  919MPD2    H313510   0.796   2.050  11.551  0.0505  0.3323 -0.6357
  919MPD2     N13511   0.456   1.968  11.274  0.7246  0.3652  0.7560
  919MPD2    H513512   0.496   2.040  11.215  1.2672 -0.4524  0.1230
  919MPD2    N113513   0.503   1.752  11.727  0.1624  0.4525 -0.0026
  919MPD2    H713514   0.408   1.714  11.723 -0.5484  1.8763  3.5451
  920MPD2     C13515   0.570   2.182  10.327 -0.6616 -0.5122 -0.0764
  920MPD2    C113516   0.501   2.064  10.328 -0.6133 -0.3028 -0.1122
  920MPD2    C213517   0.458   2.015  10.448 -1.1454 -0.4440  0.0181
  920MPD2    C313518   0.489   2.077  10.568  0.1794  0.2748  0.2797
  920MPD2    C413519   0.572   2.188  10.566 -0.2898  0.1468  0.3477
  920MPD2    C513520   0.614   2.240  10.444 -0.1708  0.9250 -0.8422
  920MPD2     H13521   0.401   1.925  10.466  0.9258 -1.8324 -0.3472
  920MPD2    H113522   0.596   2.248  10.653 -0.3275 -0.6234  0.8848
  920MPD2    H213523   0.588   2.232  10.233 -1.2938 -1.9432 -0.9602
  920MPD2    H313524   0.662   2.338  10.446  1.9891 -0.2205  2.4335
  920MPD2     N13525   0.413   2.030  10.681  0.1155  0.0179 -0.7001
  920MPD2    H513526   0.340   1.961  10.668 -0.1848  0.1671  0.1884
  920MPD2    N113527   0.443   2.010  10.209 -0.0355 -0.1366  0.1260
  920MPD2    H713528   0.409   1.915  10.220 -1.1021  0.0743 -1.3801
  921MPD2     C13529   1.562   0.969  17.097 -0.3747  0.2260  0.0550
  921MPD2    C113530   1.570   0.848  17.039  0.0781  0.9925  0.1252
  921MPD2    C213531   1.495   0.745  17.088 -0.0057  0.6817 -0.0849
  921MPD2    C313532   1.394   0.770  17.181  0.4049 -0.7318 -0.0295
  921MPD2    C413533   1.382   0.897  17.235 -0.6011  0.6275  0.2256
  921MPD2    C513534   1.470   0.994  17.196  0.5518  0.5573  0.3904
  921MPD2     H13535   1.506   0.642  17.054  1.9731  1.2062 -1.0503
  921MPD2    H113536   1.303   0.909  17.308 -0.3853 -0.3768  0.6395
  921MPD2    H213537   1.625   1.049  17.061  0.0121  0.3983  1.1362
  921MPD2    H313538   1.471   1.086  17.254 -0.5039  0.1068  1.1225
  921MPD2     N13539   1.284   0.685  17.209 -0.7628 -0.1681 -0.6425
  921MPD2    H513540   1.209   0.725  17.263  0.1560 -0.5406  0.9004
  921MPD2    N113541   1.659   0.835  16.929 -0.6755  0.1194 -0.5253
  921MPD2    H713542   1.701   0.922  16.899 -1.6257  0.7629  0.0093
  922MPD2     C13543   2.709   3.131   0.380 -0.5477  0.6223  0.5002
  922MPD2    C113544   2.635   3.228   0.308  0.1895 -0.6142  0.4449
  922MPD2    C213545   2.563   3.180   0.201  0.7655  0.0942  0.1449
  922MPD2    C313546   2.579   3.048   0.146 -0.0721  0.9060  0.8511
  922MPD2    C413547   2.654   2.962   0.219 -0.6476  0.3950  0.5135
  922MPD2    C513548   2.721   3.001   0.333 -0.3202  0.1676  0.0481
  922MPD2     H13549   2.490   3.244   0.152 -1.1461 -1.3537  1.0847
  922MPD2    H113550   2.666   2.857   0.192 -1.9927  0.1197  0.9667
  922MPD2    H213551   2.767   3.147   0.470  0.3097 -0.0268  0.0632
  922MPD2    H313552   2.769   2.918   0.385 -1.7002  0.1633  1.3084
  922MPD2     N13553   2.515   3.007   0.021  0.4202 -0.1597  0.3307
  922MPD2    H513554   2.462   3.080  17.719 -0.1122 -1.0161 -0.4001
  922MPD2    N113555   2.633   3.364   0.344 -0.5131 -0.7796 -0.0874
  922MPD2    H713556   2.580   3.426   0.282  0.3314  0.9129  0.8738
  923MPD2     C13557   3.288   0.047   8.783  0.1452  0.8276 -0.5627
  923MPD2    C113558   3.199   0.110   8.874  0.2068  0.0447  0.6814
  923MPD2    C213559   3.239   0.165   8.995  0.3446 -0.2148  1.0101
  923MPD2    C313560   3.377   0.154   9.022 -0.9662 -0.6899  0.8262
  923MPD2    C413561   3.462   0.087   8.940  0.1536 -0.3032  0.0575
  923MPD2    C513562   3.425   0.041   8.816 -0.4106 -0.7261  0.0637
  923MPD2     H13563   3.173   0.216   9.063  0.3869  1.0193  0.1312
  923MPD2    H113564   3.564   0.065   8.968 -0.1180 -1.4213  0.1607
  923MPD2    H213565   3.246   0.003   8.694 -3.4159  1.6255  0.7273
  923MPD2    H313566   3.497   4.733   8.748 -1.2143  0.5543 -1.6289
  923MPD2     N13567   3.433   0.217   9.137  0.5441 -0.3279 -0.7158
  923MPD2    H513568   3.528   0.193   9.163  0.4756 -0.3035 -0.4453
  923MPD2    N113569   3.061   0.109   8.836  0.0456 -0.0322  0.2778
  923MPD2    H713570   3.029   0.075   8.746 -1.8155  0.7550  0.6539
  924MPD2     C13571   2.693   4.286  16.928  0.1881  0.3465  0.7730
  924MPD2    C113572   2.774   4.350  16.833 -0.1248 -0.1949  0.1440
  924MPD2    C213573   2.837   4.277  16.730  0.1200 -0.7676  0.2431
  924MPD2    C313574   2.806   4.143  16.713 -0.2120  0.2780  0.5849
  924MPD2    C413575   2.731   4.083  16.808 -0.2775  0.4469 -0.0408
  924MPD2    C513576   2.680   4.153  16.916  0.3100  0.9343  0.1800
  924MPD2     H13577   2.906   4.307  16.652 -1.1308 -0.8545 -0.8805
  924MPD2    H113578   2.697   3.981  16.796  3.5595 -0.8063 -0.3728
  924MPD2    H213579   2.639   4.335  17.008  1.6390  0.8987  1.4131
  924MPD2    H313580   2.606   4.102  16.976 -0.5919  2.7653  0.6186
  924MPD2     N13581   2.857   4.074  16.600  0.2815  0.5365 -0.4608
  924MPD2    H513582   2.921   4.131  16.545  0.6417 -0.5876 -1.2123
  924MPD2    N113583   2.796   4.486  16.843  0.5483 -0.3090 -0.1124
  924MPD2    H713584   2.741   4.535  16.912  0.7250 -2.3332  1.4649
  925MPD2     C13585   2.533   1.743  14.262  0.3814  0.1682 -0.2681
  925MPD2    C113586   2.396   1.764  14.250  0.6034  0.5627 -0.7662
  925MPD2    C213587   2.322   1.761  14.367  0.0746 -0.3335 -0.3769
  925MPD2    C313588   2.376   1.736  14.489  1.2058 -0.3181  0.8256
  925MPD2    C413589   2.514   1.702  14.493  0.1676 -0.1548  0.6504
  925MPD2    C513590   2.591   1.714  14.382 -0.3219 -0.0122  0.0016
  925MPD2     H13591   2.214   1.773  14.360  0.1600  0.5980 -0.1658
  925MPD2    H113592   2.554   1.669  14.589 -0.2248  0.1684  0.9258
  925MPD2    H213593   2.594   1.732  14.173  0.9337  0.0953  0.1247
  925MPD2    H313594   2.696   1.687  14.391 -0.6107  0.0426  3.4057
  925MPD2     N13595   2.302   1.709  14.601  0.0355 -0.3772  0.4863
  925MPD2    H513596   2.346   1.667  14.683  1.1955  0.6862  0.4064
  925MPD2    N113597   2.323   1.781  14.132 -0.3456 -0.1647 -0.0910
  925MPD2    H713598   2.223   1.789  14.143 -0.5562 -2.7029 -0.3243
  926MPD2     C13599   0.341   4.716  13.493 -0.1000 -0.2151  0.0921
  926MPD2    C113600   0.426   0.076  13.546  0.1099  0.2103 -0.0274
  926MPD2    C213601   0.496   0.153  13.456 -0.2394  0.1900 -0.2411
  926MPD2    C313602   0.481   0.139  13.318  0.4383  0.8623 -0.3495
  926MPD2    C413603   0.392   0.047  13.271 -0.5108  0.5265 -0.1718
  926MPD2    C513604   0.317   4.708  13.355 -1.0434  0.5099  0.7046
  926MPD2     H13605   0.557   0.228  13.505  1.5388 -1.2631 -0.2618
  926MPD2    H113606   0.372   0.032  13.165 -1.1976 -0.9062  0.1595
  926MPD2    H213607   0.294   4.643  13.558  1.8044  0.4952  2.3036
  926MPD2    H313608   0.252   4.634  13.311  2.5371 -1.0514 -1.9515
  926MPD2     N13609   0.554   0.219  13.226 -0.0080  0.1926  0.2583
  926MPD2    H513610   0.523   0.207  13.130 -2.4644 -2.1174  1.3671
  926MPD2    N113611   0.430   0.114  13.678  0.3179 -0.0776  0.8008
  926MPD2    H713612   0.505   0.178  13.702 -1.1897  2.2190 -0.6219
  927MPD2     C13613   0.245   2.088  17.742  0.3358 -0.2259  0.1715
  927MPD2    C113614   0.326   2.188   0.042 -0.5536  1.0366 -0.4472
  927MPD2    C213615   0.394   2.261  17.691 -0.0543  0.0262 -0.0528
  927MPD2    C313616   0.376   2.250  17.558  0.9065  0.2011  0.6888
  927MPD2    C413617   0.301   2.147  17.508  0.0739  0.9510 -0.1567
  927MPD2    C513618   0.234   2.070  17.604  0.0029 -0.0459  0.3799
  927MPD2     H13619   0.455   2.344  17.724 -1.0394  1.3775 -1.6096
  927MPD2    H113620   0.287   2.135  17.402 -2.2867 -1.6953  0.4613
  927MPD2    H213621   0.192   2.017   0.060  0.2741 -0.2853  0.0538
  927MPD2    H313622   0.185   1.982  17.564  2.5163 -2.0751  1.7471
  927MPD2     N13623   0.451   2.328  17.473  0.1479 -0.7037  0.5733
  927MPD2    H513624   0.512   2.396  17.518  0.4596 -0.0646 -0.8155
  927MPD2    N113625   0.347   2.220   0.179  0.4247  0.4659  0.4413
  927MPD2    H713626   0.405   2.301   0.195 -1.9122  2.1040  0.6479
  928MPD2     C13627   3.784   0.629   1.398 -0.0746  0.1720 -0.1695
  928MPD2    C113628   3.761   0.761   1.408 -0.9369  0.6379  0.2727
  928MPD2    C213629   3.751   0.840   1.299 -0.6568  0.0074  0.0094
  928MPD2    C313630   3.767   0.780   1.172  0.6487  0.1726 -0.0482
  928MPD2    C413631   3.776   0.643   1.164  0.1649  0.4782 -0.2937
  928MPD2    C513632   3.791   0.569   1.275 -0.3559 -0.4751 -0.1849
  928MPD2     H13633   3.750   0.948   1.309 -0.9144  0.1021 -1.0085
  928MPD2    H113634   3.770   0.592   1.069 -1.2337  1.6165 -0.8230
  928MPD2    H213635   3.811   0.573   1.487 -3.1502  2.5101  2.2083
  928MPD2    H313636   3.824   0.466   1.273  1.8819  0.2292  0.3947
  928MPD2     N13637   3.766   0.863   1.053  0.1608  0.4094 -0.1459
  928MPD2    H513638   3.758   0.819   0.962  1.7570  2.0847 -1.1180
  928MPD2    N113639   3.763   0.809   1.536  0.4013 -0.5636 -0.6518
  928MPD2    H713640   3.804   0.755   1.611  1.1093 -1.8201 -1.9473
  929MPD2     C13641   3.038   0.522   9.513 -0.3852 -0.9340 -0.8990
  929MPD2    C113642   2.927   0.460   9.573  0.0538 -0.1452 -0.9552
  929MPD2    C213643   2.860   0.363   9.499  0.1830  0.2127 -0.4698
  929MPD2    C313644   2.890   0.325   9.370  0.6437  0.1258 -0.1649
  929MPD2    C413645   2.998   0.389   9.312  0.0437  0.4556 -0.3601
  929MPD2    C513646   3.067   0.494   9.380  0.3396  0.2975 -0.4138
  929MPD2     H13647   2.789   0.303   9.554  0.2972  0.5849  0.0767
  929MPD2    H113648   3.015   0.365   9.208 -0.4430  1.7567 -0.7423
  929MPD2    H213649   3.109   0.586   9.563 -0.2849 -0.0720 -2.1447
  929MPD2    H313650   3.152   0.546   9.339 -0.2650  2.0980  0.6244
  929MPD2     N13651   2.817   0.237   9.284 -0.9073  0.4915 -0.4160
  929MPD2    H513652   2.857   0.199   9.200 -0.9660 -0.8813  0.1785
  929MPD2    N113653   2.906   0.481   9.713  0.2465 -0.1697 -0.0819
  929MPD2    H713654   2.955   0.560   9.755 -1.3727  0.6280  0.3036
  930MPD2     C13655   0.242   3.164  14.089  0.1136  0.6411 -0.1911
  930MPD2    C113656   0.374   3.147  14.036  0.4395 -0.0340  0.4589
  930MPD2    C213657   0.403   3.016  13.983  0.0625  0.2793  0.8750
  930MPD2    C313658   0.303   2.917  13.966 -0.0551  0.0550 -0.1238
  930MPD2    C413659   0.181   2.932  14.034  0.0062  0.2132  0.5120
  930MPD2    C513660   0.159   3.053  14.098 -0.2438  0.7879  0.1180
  930MPD2     H13661   0.502   3.003  13.940 -0.4504 -0.2847 -0.1321
  930MPD2    H113662   0.090   2.873  14.023  2.2362 -2.9639 -0.8170
  930MPD2    H213663   0.221   3.262  14.132  0.2882  0.1646  0.9914
  930MPD2    H313664   0.061   3.067  14.142 -1.2878  0.2686 -2.0106
  930MPD2     N13665   0.318   2.810  13.881 -0.4602  0.3932 -0.2080
  930MPD2    H513666   0.235   2.755  13.862 -0.1742 -0.0002 -0.3221
  930MPD2    N113667   0.458   3.263  14.037  0.1423 -0.3890 -0.0843
  930MPD2    H713668   0.415   3.348  14.072  1.0839  0.3212 -0.6772
  931MPD2     C13669   0.910   2.387   0.321  0.3133 -0.3691 -0.7670
  931MPD2    C113670   0.850   2.375   0.444 -0.3684  0.1623 -0.5262
  931MPD2    C213671   0.933   2.370   0.550 -0.6947  0.7054  0.2798
  931MPD2    C313672   1.072   2.378   0.541  0.7879 -0.7043 -0.8119
  931MPD2    C413673   1.129   2.398   0.414 -0.5078 -0.1503  0.0794
  931MPD2    C513674   1.043   2.399   0.305  0.1092 -0.2706  0.1451
  931MPD2     H13675   0.887   2.349   0.646  1.7555 -2.5790  0.7266
  931MPD2    H113676   1.234   2.385   0.391 -0.3973 -1.9522  1.5872
  931MPD2    H213677   0.852   2.385   0.230 -1.1817  2.1416  0.1403
  931MPD2    H313678   1.081   2.396   0.203  0.0862  1.2394  0.1053
  931MPD2     N13679   1.156   2.366   0.648  0.3331  0.4108  0.4383
  931MPD2    H513680   1.255   2.382   0.633  0.1887 -0.2269 -1.1518
  931MPD2    N113681   0.709   2.361   0.459  0.2299  0.1302 -0.7606
  931MPD2    H713682   0.650   2.352   0.377 -1.0408 -2.3672  0.4139
  932MPD2     C13683   2.922   0.782  11.242 -0.1479 -0.1859  1.0936
  932MPD2    C113684   2.917   0.899  11.315 -0.7675 -0.7050  0.2420
  932MPD2    C213685   2.947   0.900  11.452  0.3851  0.1878 -0.1024
  932MPD2    C313686   2.984   0.779  11.512  0.2279  0.0705  0.4596
  932MPD2    C413687   2.985   0.667  11.443  0.3322  0.6732 -0.1808
  932MPD2    C513688   2.946   0.667  11.311  0.0113 -0.9454 -0.3900
  932MPD2     H13689   2.948   1.000  11.494  1.2495  0.1355  0.0070
  932MPD2    H113690   3.032   0.576  11.478 -0.2493  0.6248  0.4596
  932MPD2    H213691   2.928   0.777  11.134 -0.1057 -0.0512  1.0901
  932MPD2    H313692   2.955   0.580  11.248  3.0301 -1.9007  1.3652
  932MPD2     N13693   3.047   0.776  11.643 -0.1294  0.2911 -0.3451
  932MPD2    H513694   3.084   0.686  11.671 -2.1248 -0.6503 -0.6953
  932MPD2    N113695   2.902   1.025  11.250 -0.0248 -0.1553 -0.2210
  932MPD2    H713696   2.914   1.102  11.316  0.9234 -0.8527  0.4211
  933MPD2     C13697   3.862   1.487   2.143  0.7988  0.2394 -0.6607
  933MPD2    C113698   3.787   1.470   2.028 -0.5991  0.1775  0.3594
  933MPD2    C213699   3.697   1.566   1.987  0.4168 -0.1451 -0.2749
  933MPD2    C313700   3.681   1.681   2.058 -0.3898 -0.4504  0.4852
  933MPD2    C413701   3.751   1.697   2.169 -0.3553  0.4411  0.2199
  933MPD2    C513702   3.841   1.602   2.210  0.4414 -0.1315  0.0132
  933MPD2     H13703   3.640   1.560   1.895 -1.5832 -3.2657  1.1767
  933MPD2    H113704   3.736   1.779   2.238  0.1599 -0.1556  1.0489
  933MPD2    H213705   3.925   1.410   2.185  1.0326  1.4859  1.2782
  933MPD2    H313706   3.886   1.619   2.308 -0.6262 -1.1057  0.6795
  933MPD2     N13707   3.591   1.775   2.007 -0.2863 -0.1664 -0.7662
  933MPD2    H513708   3.551   1.751   1.917  0.1691 -0.0068 -1.0124
  933MPD2    N113709   3.815   1.355   1.959 -0.2593  0.0908  0.5625
  933MPD2    H713710   3.873   1.288   2.009  0.8442  0.2014 -0.5568
  934MPD2     C13711   0.516   3.201   2.418 -0.3481 -0.1299 -0.0301
  934MPD2    C113712   0.552   3.181   2.286  0.2118 -0.0569  0.1141
  934MPD2    C213713   0.453   3.141   2.195  0.1021  0.1212  0.3197
  934MPD2    C313714   0.317   3.152   2.234  0.1644  0.7498  0.0118
  934MPD2    C413715   0.281   3.178   2.365 -0.1660  0.3540  0.0234
  934MPD2    C513716   0.383   3.190   2.457 -0.0496  0.2046 -0.9746
  934MPD2     H13717   0.488   3.120   2.095  0.7113  2.6379  0.0014
  934MPD2    H113718   0.179   3.180   2.403 -1.0088 -0.1288 -2.2251
  934MPD2    H213719   0.594   3.210   2.491 -1.1727 -0.6383  0.9169
  934MPD2    H313720   0.350   3.204   2.559  0.9442 -2.4895 -0.2771
  934MPD2     N13721   0.211   3.106   2.150  0.5429  0.4571  0.4653
  934MPD2    H513722   0.125   3.095   2.201  1.4632  0.4591  2.0140
  934MPD2    N113723   0.680   3.189   2.239  0.2388 -0.2203 -0.2255
  934MPD2    H713724   0.690   3.179   2.138  3.1388 -1.5384  0.1658
  935MPD2     C13725   0.239   2.585   1.275  0.5212  0.2820  0.3567
  935MPD2    C113726   0.117   2.564   1.328  0.6207 -0.1774  0.0678
  935MPD2    C213727   0.072   2.633   1.440  0.3735  0.6572  0.2029
  935MPD2    C313728   0.159   2.719   1.507  0.3838 -0.4146  0.5179
  935MPD2    C413729   0.293   2.726   1.460  0.1200  0.4467  0.2507
  935MPD2    C513730   0.324   2.667   1.338 -0.3581 -0.3032  0.6808
  935MPD2     H13731   4.708   2.607   1.470 -0.3206  4.0142  0.7428
  935MPD2    H113732   0.367   2.784   1.514 -1.1421  1.0022  1.3816
  935MPD2    H213733   0.276   2.539   1.183 -0.2534 -0.8382  0.6014
  935MPD2    H313734   0.424   2.679   1.298 -0.8816 -0.2634 -0.6036
  935MPD2     N13735   0.130   2.787   1.626  0.4251  0.6561  0.4099
  935MPD2    H513736   0.209   2.831   1.674  2.9562 -0.5908 -2.6221
  935MPD2    N113737   0.030   2.467   1.271 -0.4476  0.2805 -0.9440
  935MPD2    H713738   4.672   2.475   1.308  0.4702 -0.1336  1.4284
  936MPD2     C13739   2.698   0.030  12.477  0.6030  0.3541  0.3449
  936MPD2    C113740   2.722   4.646  12.545 -0.1686  0.0171  0.2534
  936MPD2    C213741   2.845   4.587  12.518 -0.3452  0.1314 -0.5662
  936MPD2    C313742   2.949   4.635  12.437 -0.0095 -0.3557  0.1344
  936MPD2    C413743   2.919   0.015  12.377  0.2808 -0.4607 -0.9771
  936MPD2    C513744   2.800   0.078  12.395  0.8627 -0.5818  0.2508
  936MPD2     H13745   2.854   4.488  12.559 -1.1012  0.4270  0.3118
  936MPD2    H113746   2.987   0.057  12.304 -0.2444  2.6726  0.3348
  936MPD2    H213747   2.606   0.084  12.496 -0.4975 -1.2857 -0.3742
  936MPD2    H313748   2.788   0.179  12.357  1.1343 -0.2681  0.9817
  936MPD2     N13749   3.073   4.568  12.411  0.5738  0.7264  0.9278
  936MPD2    H513750   3.138   4.617  12.350  0.6406 -1.3411 -0.6379
  936MPD2    N113751   2.635   4.577  12.635 -0.4682 -0.5115  0.4819
  936MPD2    H713752   2.674   4.488  12.665 -1.2540 -0.6844  0.9760
  937MPD2     C13753   0.594   0.988  11.899  0.3957 -0.0655  0.7944
  937MPD2    C113754   0.648   1.099  11.845  0.5433 -0.3418  0.1641
  937MPD2    C213755   0.682   1.092  11.711  0.6147  0.4814  0.4977
  937MPD2    C313756   0.690   0.971  11.641 -0.4286  0.1909 -0.3209
  937MPD2    C413757   0.652   0.856  11.707  0.1918  0.2877 -0.1062
  937MPD2    C513758   0.605   0.867  11.839 -0.6845  0.3457 -0.3281
  937MPD2     H13759   0.719   1.179  11.658  0.1182 -0.8867 -2.0853
  937MPD2    H113760   0.654   0.763  11.652 -0.0432 -0.3801  1.0170
  937MPD2    H213761   0.560   0.993  12.002 -1.1085  0.6333  0.2535
  937MPD2    H313762   0.563   0.789  11.902  1.8323  1.0178  2.1881
  937MPD2     N13763   0.739   0.969  11.512 -0.6045 -0.1113  0.0148
  937MPD2    H513764   0.794   1.051  11.489  0.3363 -0.7468  0.0255
  937MPD2    N113765   0.623   1.229  11.893 -0.1641  0.8876 -0.1314
  937MPD2    H713766   0.645   1.308  11.833  0.1524  0.9233  0.0341
  938MPD2     C13767   3.580   3.001   1.113 -0.1919 -0.3706  0.0864
  938MPD2    C113768   3.679   3.039   1.200  0.2932  0.9303 -0.0098
  938MPD2    C213769   3.714   2.947   1.295 -0.1146  0.5665 -0.0685
  938MPD2    C313770   3.653   2.823   1.310 -0.1716  0.6721  0.3253
  938MPD2    C413771   3.546   2.795   1.228 -0.6343  0.3641  0.7035
  938MPD2    C513772   3.510   2.882   1.126  0.2068 -0.4413  0.3998
  938MPD2     H13773   3.784   2.978   1.372  0.1626 -1.4807  0.5096
  938MPD2    H113774   3.479   2.713   1.249  0.7430 -1.0317 -0.3745
  938MPD2    H213775   3.540   3.074   1.044 -0.5541 -0.8706 -0.2326
  938MPD2    H313776   3.420   2.869   1.068  0.1752 -1.8927  0.7834
  938MPD2     N13777   3.684   2.738   1.413  0.0802 -0.0430 -0.3323
  938MPD2    H513778   3.626   2.656   1.426 -0.2139  0.3407  0.7869
  938MPD2    N113779   3.748   3.161   1.200  0.7883  1.0568  0.2908
  938MPD2    H713780   3.829   3.163   1.260 -0.8149 -0.2258  2.4696
  939MPD2     C13781   0.032   3.207   1.012 -0.2076  0.3034  0.5496
  939MPD2    C113782   0.113   3.318   0.999  0.7471 -0.6419 -0.0519
  939MPD2    C213783   0.162   3.341   0.873 -0.2733 -0.5993 -0.8757
  939MPD2    C313784   0.148   3.253   0.768  0.6479  0.0716 -0.6519
  939MPD2    C413785   0.072   3.144   0.783 -0.2355  0.0467 -0.0384
  939MPD2    C513786   0.013   3.121   0.901  0.3276 -0.4937 -0.2267
  939MPD2     H13787   0.219   3.430   0.850  0.2781 -0.8168 -0.3557
  939MPD2    H113788   0.041   3.077   0.704  0.6937  0.2297 -0.5565
  939MPD2    H213789   4.728   3.175   1.108 -0.9301 -1.6922 -0.4150
  939MPD2    H313790   4.678   3.039   0.901  0.6731 -0.8112 -4.9179
  939MPD2     N13791   0.208   3.299   0.647  0.3031  0.3546  0.1310
  939MPD2    H513792   0.243   3.394   0.638  0.5631  0.0970 -1.6709
  939MPD2    N113793   0.136   3.411   1.109  0.3388 -0.7813  0.1627
  939MPD2    H713794   0.093   3.377   1.195 -0.3547 -0.5821 -0.1028
  940MPD2     C13795   4.082   4.137  12.760  0.7798 -0.1089 -0.2957
  940MPD2    C113796   3.946   4.126  12.784 -0.3371 -0.0637 -0.0486
  940MPD2    C213797   3.857   4.128  12.678  0.0696 -0.0650  1.2425
  940MPD2    C313798   3.900   4.137  12.548  0.1885  0.2578  0.4193
  940MPD2    C413799   4.041   4.152  12.523  0.1607 -0.0328  0.1156
  940MPD2    C513800   4.128   4.136  12.628  0.2202  0.2890  0.5765
  940MPD2     H13801   3.753   4.118  12.706 -0.2210 -2.4247 -0.6717
  940MPD2    H113802   4.080   4.162  12.422 -1.3837 -0.0801 -0.4828
  940MPD2    H213803   4.153   4.126  12.842  1.1073  0.1858 -0.5425
  940MPD2    H313804   4.233   4.149  12.604  0.5606 -2.5742  0.5079
  940MPD2     N13805   3.811   4.147  12.441 -0.5720 -0.2188  0.4944
  940MPD2    H513806   3.842   4.178  12.350  0.3371  2.8052  1.8409
  940MPD2    N113807   3.889   4.127  12.910 -0.2556  0.1167  0.2936
  940MPD2    H713808   3.788   4.127  12.903 -0.3402  0.1355  1.4228
  941MPD2     C13809   2.160   3.406  10.035 -0.0758  0.0585 -0.6896
  941MPD2    C113810   2.269   3.325  10.050 -0.0699 -0.5358  0.8053
  941MPD2    C213811   2.260   3.197  10.099 -0.4585 -0.1013  0.3398
  941MPD2    C313812   2.133   3.146  10.118 -0.3103  0.0408 -0.1055
  941MPD2    C413813   2.023   3.222  10.102  0.0476  0.1847  0.2120
  941MPD2    C513814   2.036   3.352  10.064 -0.1859  0.5459  0.3074
  941MPD2     H13815   2.353   3.142  10.115 -1.0744 -1.1205  0.4607
  941MPD2    H113816   1.924   3.187  10.130 -0.3096  0.2966 -0.9279
  941MPD2    H213817   2.145   3.512  10.016 -0.1462 -0.3364 -2.8380
  941MPD2    H313818   1.952   3.420  10.060 -2.2186 -1.9497  0.8218
  941MPD2     N13819   2.113   3.019  10.173 -0.0154  0.9679  0.7700
  941MPD2    H513820   2.017   2.985  10.182  0.6708 -1.1779  0.1830
  941MPD2    N113821   2.400   3.367  10.027 -0.1409  0.2385  0.6372
  941MPD2    H713822   2.466   3.290  10.037  1.0616  1.1358 -0.3257
  942MPD2     C13823   2.077   3.359   9.061 -0.6344  0.0648  0.9106
  942MPD2    C113824   2.202   3.333   9.119 -0.6786  0.3931  0.3821
  942MPD2    C213825   2.289   3.432   9.171 -0.6850  0.0114  0.1673
  942MPD2    C313826   2.245   3.558   9.167  0.3802  0.2154 -0.1158
  942MPD2    C413827   2.120   3.592   9.110 -0.3670  0.2354  0.5118
  942MPD2    C513828   2.042   3.494   9.058  0.2725 -0.1515  0.4110
  942MPD2     H13829   2.382   3.404   9.219  0.6426  2.3761 -1.0854
  942MPD2    H113830   2.078   3.692   9.100 -1.7972 -0.3281  0.8820
  942MPD2    H213831   2.011   3.280   9.027  0.6566  0.4935 -2.5968
  942MPD2    H313832   1.952   3.524   9.007 -0.6395 -2.2050  0.8007
  942MPD2     N13833   2.325   3.670   9.203  0.2029  0.4851 -0.0608
  942MPD2    H513834   2.295   3.764   9.181 -0.8258 -0.2070 -1.6471
  942MPD2    N113835   2.255   3.204   9.123  0.4804  0.2239  0.3048
  942MPD2    H713836   2.348   3.200   9.163  0.5151  2.6965  0.5205
  943MPD2     C13837   1.511   2.695  10.153  0.0914  0.0281  0.0887
  943MPD2    C113838   1.576   2.781  10.240  0.3695  0.6364 -0.0107
  943MPD2    C213839   1.589   2.914  10.202  0.3345  0.7640 -0.0156
  943MPD2    C313840   1.559   2.951  10.073  0.3440  1.0220  0.2824
  943MPD2    C413841   1.505   2.866   9.985 -0.5100 -0.5929  0.9802
  943MPD2    C513842   1.478   2.735  10.028  0.1887  0.0872 -0.0099
  943MPD2     H13843   1.623   2.989  10.272 -1.5839  1.5643  0.0588
  943MPD2    H113844   1.475   2.887   9.883  0.7658 -2.2176  0.2602
  943MPD2    H213845   1.491   2.592  10.179  1.1197 -0.5052 -1.2703
  943MPD2    H313846   1.441   2.660   9.960 -2.5544  0.4240  1.1280
  943MPD2     N13847   1.579   3.083  10.022  0.1105  0.5536 -0.1742
  943MPD2    H513848   1.546   3.094   9.926  1.5426  0.5733 -0.6587
  943MPD2    N113849   1.589   2.731  10.371 -0.1477  0.0739 -0.1680
  943MPD2    H713850   1.549   2.640  10.393 -0.3964  0.9821  3.1603
  944MPD2     C13851   2.196   2.542  11.938  0.1829 -0.5405 -0.3101
  944MPD2    C113852   2.106   2.516  11.835 -0.3520  0.8293  0.0124
  944MPD2    C213853   1.994   2.595  11.828  0.3351 -0.1134  0.4402
  944MPD2    C313854   1.962   2.688  11.923 -0.1554  0.5421 -0.2246
  944MPD2    C413855   2.055   2.714  12.025 -1.0744  0.4707 -0.0126
  944MPD2    C513856   2.170   2.641  12.028  0.3337  0.6383 -0.4088
  944MPD2     H13857   1.930   2.575  11.743  1.6644 -0.9555 -0.3617
  944MPD2    H113858   2.039   2.777  12.112  0.3248  0.6956  0.0873
  944MPD2    H213859   2.295   2.497  11.941 -0.3424 -1.7084 -0.3952
  944MPD2    H313860   2.229   2.636  12.119  1.4355 -2.4115 -1.2814
  944MPD2     N13861   1.836   2.758  11.912  0.9562 -0.5696 -0.0479
  944MPD2    H513862   1.785   2.721  11.832 -0.6180  0.3238  0.5510
  944MPD2    N113863   2.137   2.424  11.740 -0.0095  0.0805 -0.1480
  944MPD2    H713864   2.221   2.370  11.757 -0.4365 -0.9796 -1.3932
    1TMC1    C113865   4.014   0.016  15.210 -0.3966 -0.0893  0.4096
    1TMC1    C213866   3.929   4.706  15.111  0.4021 -0.9589 -0.1712
    1TMC1    C313867   3.818   4.633  15.148 -0.1618 -0.1954  0.2697
    1TMC1    C413868   3.980   0.013  15.340  0.5648 -0.9019 -0.3076
    1TMC1    C513869   3.863   4.678  15.374 -0.1431  0.0243  0.3261
    1TMC1    C613870   3.777   4.617  15.280 -0.1297  0.3505  0.1620
    1TMC1     C13871   4.127   0.105  15.173  0.4948 -0.8412  0.4023
    1TMC1     O13872   4.163   0.194  15.248  0.8480 -0.3042 -0.1479
    1TMC1     H13873   3.944   4.720  15.004  0.9518  2.0651  0.3059
    1TMC1    H113874   4.060   0.050  15.404 -0.5340 -1.2528  1.2702
    1TMC1    H213875   3.701   4.541  15.297  2.0007 -2.3575 -2.2975
    1TMC1    C713876   3.866   4.624  15.509  0.4146 -0.4468  0.6517
    1TMC1    C813877   3.727   4.574  15.040 -0.1560 -0.0140 -0.0344
    1TMC1    O113878   3.962   4.617  15.580 -0.4256 -0.1439 -0.5544
    1TMC1    O213879   3.612   4.545  15.066  0.2286 -0.3937 -0.1229
    1TMC1    O313880   3.747   4.569  15.523 -0.2940  0.0022  0.5204
    1TMC1    H313881   3.674   4.597  15.464  1.2058  0.5798 -1.0267
    1TMC1    O513882   3.797   4.525  14.940  0.4537  0.4083  0.5177
    1TMC1    H513883   3.890   4.551  14.927 -0.1126  2.6436  0.8666
    2MPD2     C13884   4.544   0.161  14.868  0.1512  0.3256  0.3623
    2MPD2    C113885   4.443   0.109  14.790  0.0081 -0.5992 -0.0849
    2MPD2    C213886   4.315   0.095  14.846 -0.2675 -0.5669  0.5765
    2MPD2    C313887   4.296   0.114  14.984 -0.4253  0.6791 -0.2371
    2MPD2    C413888   4.395   0.162  15.057  0.8546  0.1700  0.5510
    2MPD2    C513889   4.517   0.188  15.001 -0.1306  0.0359  0.2777
    2MPD2     H13890   4.241   0.040  14.789  1.4841 -0.1761 -2.0388
    2MPD2    H113891   4.381   0.155  15.165 -1.7673 -1.3921  0.1117
    2MPD2    H213892   4.637   0.175  14.814  0.5693  2.6342  1.6713
    2MPD2    H313893   4.595   0.227  15.065 -0.2674 -0.5709  0.8177
    2MPD2     N13894   4.175   0.068  15.047  0.6845  0.6488 -0.0931
    2MPD2    H513895   4.127   4.731  14.997 -0.4098  1.2315  0.1006
    2MPD2    N113896   4.466   0.086  14.651 -0.5104  0.2859 -0.1557
    2MPD2    H713897   4.562   0.094  14.618 -1.3052  1.4579 -2.2120
    3TMC2    C113898   4.455   4.713  14.438 -0.0044 -0.6319  0.1676
    3TMC2    C213899   4.511   0.096  14.392  0.3588  0.3423  0.2232
    3TMC2    C313900   4.552   0.093  14.259 -0.3248 -0.3457  0.3468
    3TMC2    C413901   4.409   4.609  14.362  0.4764  0.3208 -0.9427
    3TMC2    C513902   4.453   4.612  14.232  0.2761 -0.3869 -0.2206
    3TMC2    C613903   4.533   4.719  14.184  0.8795 -0.2966 -0.5785
    3TMC2     C13904   4.394   4.732  14.570  0.2216 -0.2583  0.8325
    3TMC2     O13905   4.283   4.680  14.588  0.0594  0.1035  0.0145
    3TMC2     H13906   4.525   0.189  14.446 -0.0228  0.5369 -0.0121
    3TMC2    H113907   4.356   4.527  14.409  1.4823 -0.7034 -1.6104
    3TMC2    H213908   4.569   4.723  14.082 -0.1762 -1.6604 -0.9991
    3TMC2    C713909   4.386   4.526  14.142 -0.5327  0.3291  0.1493
    3TMC2    C813910   4.657   0.184  14.228  0.0049 -0.2601 -0.1566
    3TMC2    O113911   4.340   4.419  14.176 -0.8638 -0.2834 -0.6771
    3TMC2    O213912   4.727   0.246  14.308 -0.7512 -0.0765 -0.2464
    3TMC2    O513913   4.656   0.219  14.095  1.3651  0.0284  0.2448
    3TMC2    H513914   4.596   0.170  14.035  1.9621 -0.8093  0.3329
    4TMC2    C113915   3.832   0.164  13.406  1.2310 -0.1282 -0.5478
    4TMC2    C213916   3.822   0.083  13.300  0.0996 -1.2275  0.2940
    4TMC2    C313917   3.922   4.720  13.284 -0.0328  0.0250  0.9286
    4TMC2    C413918   3.941   0.157  13.485  0.4103 -0.5046 -0.3118
    4TMC2    C513919   4.037   0.064  13.472 -0.1810  0.7200 -0.2483
    4TMC2    C613920   4.024   4.705  13.373 -0.4677 -0.1681  0.6793
    4TMC2     C13921   3.721   0.256  13.438 -0.4087 -0.5772 -0.1647
    4TMC2     O13922   3.709   0.308  13.544 -0.0740  0.1069 -0.4426
    4TMC2     H13923   3.739   0.085  13.231  1.3434  0.4564 -1.1503
    4TMC2    H113924   3.942   0.233  13.563 -0.2705 -2.5311  1.6526
    4TMC2    H213925   4.096   4.626  13.352 -1.7569 -1.2345  0.2469
    4TMC2    C713926   4.116   0.034  13.590 -0.1910 -0.1543 -0.1147
    4TMC2    C813927   3.931   4.635  13.167  0.5665 -0.3849 -0.3979
    4TMC2    O113928   4.151   0.118  13.669 -0.3006  0.5846  0.4910
    4TMC2    O213929   3.980   4.523  13.167  0.4434 -0.3543  0.1226
    4TMC2    O513930   3.890   4.710  13.060  0.2062 -0.5234  0.0596
    4TMC2    H513931   3.893   0.069  13.078  0.2404 -0.5085 -0.0272
    5MPD2     C13932   3.279   0.505  13.327 -0.0663  0.2833 -0.5803
    5MPD2    C113933   3.302   0.406  13.235 -0.9958 -0.2455  0.0695
    5MPD2    C213934   3.416   0.331  13.249  0.0468  0.6218  0.4942
    5MPD2    C313935   3.506   0.344  13.348 -1.3595  0.0968 -0.6620
    5MPD2    C413936   3.485   0.435  13.446 -0.2011 -0.1647  0.0605
    5MPD2    C513937   3.370   0.513  13.434  0.0501  0.0042  0.4301
    5MPD2     H13938   3.443   0.248  13.184  0.3540 -0.0286  1.4451
    5MPD2    H113939   3.546   0.452  13.533 -1.2942 -0.7636  0.9353
    5MPD2    H213940   3.190   0.568  13.328  0.0583  0.4581 -0.5861
    5MPD2    H313941   3.354   0.581  13.517  0.6085 -0.2056  0.7094
    5MPD2     N13942   3.625   0.260  13.341  0.1059 -0.4353  0.0508
    5MPD2    H513943   3.640   0.206  13.256 -1.5575 -0.9119  0.0600
    5MPD2    N113944   3.214   0.396  13.127  0.0761  0.6317 -0.1743
    5MPD2    H713945   3.144   0.470  13.124 -0.7596 -0.1351  0.6671
    6MPD1     C13946   2.070   1.236  11.816 -0.1610  0.0100 -0.0775
    6MPD1    C113947   2.066   1.273  11.951  0.0815  0.2855  0.1195
    6MPD1    C213948   2.168   1.231  12.031  0.2156  0.2667  0.0178
    6MPD1    C313949   2.287   1.185  11.977 -0.2213 -0.0039  0.4462
    6MPD1    C413950   2.294   1.159  11.849  0.3787 -0.2991  0.0723
    6MPD1    C513951   2.188   1.185  11.764 -0.2977  0.5307  0.7138
    6MPD1     H13952   2.155   1.262  12.134 -1.1095  0.8050 -0.3082
    6MPD1    H113953   2.388   1.116  11.816  1.2571 -0.4014  2.7011
    6MPD1    H213954   1.985   1.249  11.749 -0.5634 -0.7770  0.2857
    6MPD1    H313955   2.194   1.147  11.663  1.3780  0.8334  0.6882
    6MPD1     N13956   2.389   1.132  12.061  0.0428  0.1340 -0.1937
    6MPD1    H513957   2.462   1.078  12.016  1.2860  0.6672  1.1863
    6MPD1    N113958   1.954   1.348  11.996 -0.5135 -0.3164 -0.2710
    6MPD1    H613959   1.972   1.399  12.082 -1.3501  1.4016 -1.0999
    6MPD1    H713960   1.925   1.413  11.923  0.4903 -0.5955 -0.9022
    7MPD2     C13961   2.614   0.917  12.874 -0.0983 -0.2762  0.0333
    7MPD2    C113962   2.636   0.833  12.770 -0.4040 -0.4957  0.5514
    7MPD2    C213963   2.681   0.706  12.793  0.1279 -0.3594  0.3793
    7MPD2    C313964   2.710   0.661  12.914 -0.1010 -0.3770  0.2377
    7MPD2    C413965   2.692   0.746  13.020  0.2908  0.2545 -0.7574
    7MPD2    C513966   2.644   0.872  13.001  0.0051 -0.2045 -0.5365
    7MPD2     H13967   2.698   0.650  12.702 -2.6883 -0.4133 -0.1042
    7MPD2    H113968   2.713   0.709  13.119  0.9374 -0.3743 -1.1281
    7MPD2    H213969   2.567   1.015  12.868 -0.8347 -0.6231  0.0966
    7MPD2    H313970   2.637   0.941  13.084  2.5581 -0.0005 -0.5024
    7MPD2     N13971   2.762   0.533  12.946  0.1631 -0.0618 -0.1724
    7MPD2    H513972   2.781   0.506  13.041  0.4065 -1.0893 -0.5080
    7MPD2    N113973   2.615   0.871  12.635 -0.0260  0.7796 -0.3459
    7MPD2    H713974   2.645   0.797  12.573 -0.4827 -0.6995  1.2110
    8TMC3    C113975   2.881   0.336  12.886  0.7843  0.9821 -0.0551
    8TMC3    C213976   2.982   0.348  12.976  0.2811 -0.4489 -0.1051
    8TMC3    C313977   3.105   0.298  12.939 -0.6800 -0.4418  0.1794
    8TMC3    C413978   2.893   0.270  12.763  1.0845  0.9326  0.1659
    8TMC3    C513979   3.022   0.236  12.730  0.3538 -0.0968 -0.3969
    8TMC3    C613980   3.133   0.251  12.816  0.0018 -0.1968 -0.0611
    8TMC3     C13981   2.808   0.450  12.846  0.8126 -0.5027  0.3801
    8TMC3     O13982   2.797   0.459  12.723 -0.3984 -0.3578  0.1997
    8TMC3     H13983   2.961   0.367  13.081 -1.6400 -0.1465 -0.5375
    8TMC3    H113984   2.811   0.232  12.703  2.1811 -2.7091  1.0181
    8TMC3    H213985   3.225   0.204  12.783 -0.6871 -0.5161 -1.5134
    8TMC3    C713986   3.047   0.254  12.584 -0.5833 -0.6280 -0.1033
    8TMC3    C813987   3.212   0.302  13.026  0.0670  0.3390 -0.3807
    8TMC3    O113988   3.161   0.223  12.547  0.4541  0.2044 -0.3372
    8TMC3    O213989   3.284   0.204  13.012 -0.3602 -0.4038  0.6311
    9TMC3    C113990   2.501   1.058  12.254  0.0899  0.1273  0.5048
    9TMC3    C213991   2.575   0.969  12.183  0.5292 -0.3959  0.1496
    9TMC3    C313992   2.657   0.890  12.247 -0.0606  0.5652  0.3460
    9TMC3    C413993   2.511   1.082  12.389  0.6657 -0.0489  0.1654
    9TMC3    C513994   2.588   0.994  12.449 -0.3018 -0.2665 -0.1069
    9TMC3    C613995   2.660   0.894  12.386 -0.7500  0.1570 -0.0860
    9TMC3     C13996   2.394   1.143  12.197  0.0182  0.1244 -0.3066
    9TMC3     O13997   2.334   1.220  12.271  0.0180 -0.3761 -0.0696
    9TMC3     H13998   2.566   0.948  12.077 -0.0120  0.9695 -0.0783
    9TMC3    H113999   2.451   1.153  12.445 -0.3505  0.5692 -1.7035
    9TMC3    H214000   2.737   0.843  12.443  0.5992  1.8262 -0.3911
    9TMC3    C714001   2.580   0.994  12.590 -0.4021 -0.1278  0.4480
    9TMC3    C814002   2.733   0.783  12.184 -0.2579  0.4704  0.1366
    9TMC3    O114003   2.544   1.101  12.647 -0.4949  0.4510 -0.0664
    9TMC3    O214004   2.786   0.803  12.079  0.3773  0.2667  0.3507
   10MPD2     C14005   3.048   0.393  12.317  0.1698 -0.1386  0.3348
   10MPD2    C114006   2.944   0.397  12.403  0.4538  0.6277 -0.7576
   10MPD2    C214007   2.841   0.486  12.382  0.8564  0.0092 -0.0472
   10MPD2    C314008   2.838   0.572  12.270 -0.0038  0.7362 -0.2605
   10MPD2    C414009   2.953   0.573  12.190 -0.0010  0.4777 -0.1534
   10MPD2    C514010   3.048   0.476  12.213 -0.2647 -0.5273 -0.3750
   10MPD2     H14011   2.767   0.477  12.461  0.7920 -1.2068 -0.2418
   10MPD2    H114012   2.956   0.650  12.114  0.7985  2.5344  1.9482
   10MPD2    H214013   3.128   0.323  12.339 -0.1272 -0.9532 -1.1574
   10MPD2    H314014   3.131   0.470  12.143 -0.5636 -1.4778 -0.6452
   10MPD2     N14015   2.740   0.676  12.272  0.4907  0.1769  0.1317
   10MPD2    H514016   2.677   0.677  12.351  0.0606  1.3301 -0.2338
   10MPD2    N114017   2.944   0.327  12.528  0.3228 -0.4528 -0.2450
   10MPD2    H714018   2.876   0.367  12.591  0.4753 -1.1450  0.3673
   11MPD2     C14019   4.295   4.394  13.893  0.6129 -0.3805 -0.0324
   11MPD2    C114020   4.314   4.523  13.901 -0.3148 -0.0849 -0.8237
   11MPD2    C214021   4.266   4.612  13.804  0.1517  0.1878 -0.0356
   11MPD2    C314022   4.200   4.556  13.689  0.2149  0.1522  0.2567
   11MPD2    C414023   4.195   4.420  13.679  1.1058 -0.0595  0.3868
   11MPD2    C514024   4.241   4.343  13.779  0.3175  0.2212  0.0741
   11MPD2     H14025   4.264   4.718  13.827 -0.2816  0.0805  0.4176
   11MPD2    H114026   4.133   4.379  13.599  0.9793 -0.4950  0.7090
   11MPD2    H214027   4.324   4.321  13.967 -0.3578 -1.6948 -0.9469
   11MPD2    H314028   4.223   4.236  13.774 -0.4533  0.3782 -0.6036
   11MPD2     N14029   4.134   4.635  13.594  0.0620  0.6487 -0.0683
   11MPD2    H514030   4.092   4.586  13.515 -0.7336 -0.9278  1.3417
   11MPD2    N114031   4.374   4.579  14.019 -0.1908 -0.3260  0.0359
   11MPD2    H714032   4.401   4.676  14.005 -1.5281  0.5450  3.5755
    1MPD1     C14033   1.365   1.622  17.412 -0.3334 -0.5587  0.1322
    1MPD1    C114034   1.484   1.577  17.465 -0.0069  0.0021 -0.1053
    1MPD1    C214035   1.576   1.511  17.384 -0.2219  0.4251  0.5390
    1MPD1    C314036   1.547   1.481  17.251 -0.1293  0.5524 -0.5813
    1MPD1    C414037   1.416   1.510  17.208 -0.0848  0.0883 -0.2092
    1MPD1    C514038   1.335   1.592  17.285 -0.6369 -0.4299  1.2772
    1MPD1     H14039   1.672   1.477  17.421 -0.6147  0.6960  1.7916
    1MPD1    H114040   1.390   1.498  17.104 -2.3606 -0.4207  0.4181
    1MPD1    H214041   1.292   1.669  17.477 -0.1535 -0.7348  0.4607
    1MPD1    H314042   1.248   1.630  17.233  0.4751 -0.6738 -0.7548
    1MPD1     N14043   1.637   1.420  17.162  0.6403  0.2987  0.5003
    1MPD1    H514044   1.603   1.390  17.071 -2.4883  3.0462  0.7826
    1MPD1    N114045   1.523   1.608  17.600  0.2832 -0.4487 -0.3575
    1MPD1    H614046   1.599   1.551  17.636 -1.1272 -2.3068 -0.3371
    1MPD1    H714047   1.454   1.648  17.663 -0.8896  2.6273 -3.6166
    2MPD1     C14048   2.514   1.811  16.831  0.1148  0.3741  0.4251
    2MPD1    C114049   2.444   1.840  16.937 -0.1229  0.1900  0.1747
    2MPD1    C214050   2.339   1.755  16.968  0.3314 -0.5247  0.1173
    2MPD1    C314051   2.297   1.652  16.889  0.1215  0.5273 -0.1428
    2MPD1    C414052   2.369   1.628  16.774 -0.6936  0.1153 -0.1670
    2MPD1    C514053   2.482   1.701  16.753  0.0694  0.6265  0.4806
    2MPD1     H14054   2.284   1.764  17.062  1.8850 -0.7133  1.0355
    2MPD1    H114055   2.353   1.547  16.704  0.8820  0.2771 -0.7273
    2MPD1    H214056   2.603   1.868  16.807  0.4183  0.3281  1.4202
    2MPD1    H314057   2.542   1.674  16.666 -0.3078 -2.2194  1.1236
    2MPD1     N14058   2.181   1.586  16.918 -0.0022 -0.1214  0.1860
    2MPD1    H514059   2.127   1.621  16.997 -0.0810  0.6029 -0.1959
    2MPD1    N114060   2.482   1.930  17.036 -0.2452  0.2414  0.8836
    2MPD1    H614061   2.521   2.017  16.999  1.5188 -1.2420 -0.7568
    2MPD1    H714062   2.408   1.949  17.104 -0.9923  2.0413 -0.4483
    3TMC3    C114063   2.015   1.407  16.902 -0.1029 -0.5547  0.1865
    3TMC3    C214064   1.959   1.309  16.824  0.0359  0.0308  0.5118
    3TMC3    C314065   1.839   1.261  16.869  0.5758  0.7217 -0.1585
    3TMC3    C414066   1.953   1.464  17.010  0.2014  0.2725  0.1714
    3TMC3    C514067   1.827   1.409  17.042 -0.0591  0.2255 -0.2499
    3TMC3    C614068   1.770   1.303  16.978 -0.6046  0.4708  0.1825
    3TMC3     C14069   2.134   1.472  16.852 -0.1619  0.0651 -0.2611
    3TMC3     O14070   2.180   1.422  16.748 -0.3933  0.6809  0.5355
    3TMC3     H14071   2.011   1.264  16.740 -3.1510  0.0492 -1.4423
    3TMC3    H114072   1.985   1.551  17.066 -1.4089  0.2627  1.1033
    3TMC3    H214073   1.682   1.254  17.018 -1.3965  1.4420 -0.3558
    3TMC3    C714074   1.770   1.449  17.166  0.7729 -0.2342 -0.7319
    3TMC3    C814075   1.769   1.163  16.792 -0.2472  0.0028 -0.7017
    3TMC3    O114076   1.826   1.529  17.241  0.1038  0.1167 -0.0316
    3TMC3    O214077   1.708   1.081  16.859 -0.4006 -0.4833 -0.8061
    4MPD1     C14078   1.601   0.910  16.375  0.7267 -0.5241  0.0503
    4MPD1    C114079   1.657   1.030  16.331 -0.5369  0.3017 -0.4875
    4MPD1    C214080   1.713   1.112  16.431 -0.3219  0.5425 -0.3967
    4MPD1    C314081   1.705   1.090  16.565 -0.2256 -0.0387  0.6615
    4MPD1    C414082   1.642   0.967  16.602 -0.2469 -0.1514  0.2029
    4MPD1    C514083   1.593   0.882  16.509  0.3152  0.2689  0.1281
    4MPD1     H14084   1.758   1.203  16.395  0.4188  0.8317  1.2436
    4MPD1    H114085   1.616   0.937  16.702  0.3198 -2.9312 -0.4918
    4MPD1    H214086   1.548   0.837  16.314  0.9897  0.7139 -1.6521
    4MPD1    H314087   1.533   0.798  16.542  0.4373 -0.1813 -0.7911
    4MPD1     N14088   1.768   1.183  16.658  0.5167  0.3623  0.0034
    4MPD1    H514089   1.822   1.263  16.627  2.7010 -1.1591 -0.0819
    4MPD1    N114090   1.675   1.054  16.193 -0.5679 -0.3294 -0.0345
    4MPD1    H614091   1.684   1.152  16.167 -0.9150 -0.8386 -2.0482
    4MPD1    H714092   1.603   1.006  16.140 -0.0606 -2.5772  1.3270
    1TCq1    O114093   3.260   1.412  11.838 -0.3575  0.4918  0.0730
    1TCq1    C114094   3.213   1.314  11.755  0.0021  0.0798  0.4131
    1TCq1    O214095   3.092   1.315  11.720 -0.4665 -0.0371  0.7145
    1TCq1    C214096   3.305   1.201  11.749  0.2877  1.3379  0.6949
    1TCq1    C314097   3.385   1.192  11.856  0.0089 -0.4810 -0.0022
    1TCq1    C414098   3.455   1.075  11.869 -0.5576 -0.1574 -0.1542
    1TCq1    C514099   3.452   0.983  11.768 -0.3774  0.7679 -0.5170
    1TCq1    C614100   3.379   1.007  11.651  0.3375 -0.4840  0.2671
    1TCq1    C714101   3.290   1.109  11.648 -0.1924 -0.2514  0.2440
    1TCq1    C814102   3.371   0.905  11.546 -0.1424  0.1465  0.4367
    1TCq1    O414103   3.292   0.929  11.459 -0.4925 -0.0337 -0.4945
    1TCq1    C914104   3.485   1.025  11.999 -0.7733  0.5863 -0.3223
    1TCq1    O514105   3.503   0.901  12.007  0.5205  0.0149  0.2257
    1TCq1    O614106   3.480   1.103  12.097  0.1365  0.2590  0.2128
    1TCq1    H114107   3.358   1.413  11.849 -0.6620  2.9617  2.5127
    1TCq1    H214108   3.357   1.240  11.949 -0.1132 -1.8370  0.6783
    1TCq1    H314109   3.520   0.900  11.778 -1.0494  0.4484  1.3693
    1TCq1    H414110   3.232   1.136  11.561  0.1744  1.0593  0.4009
    2MPD1     C14111   3.462   0.430  11.358 -0.2935 -0.7188  0.3142
    2MPD1    C114112   3.571   0.470  11.426  0.7950 -0.3159  0.1420
    2MPD1    C214113   3.571   0.591  11.501  0.5264 -0.1212  0.1530
    2MPD1    C314114   3.466   0.681  11.490  0.0485  0.3620  0.1136
    2MPD1    C414115   3.366   0.648  11.401  0.1111 -0.4329  0.5496
    2MPD1    C514116   3.364   0.520  11.340 -0.3703  0.1958 -0.6519
    2MPD1     H14117   3.654   0.608  11.568 -0.1335  2.9778  0.1662
    2MPD1    H114118   3.286   0.719  11.384  0.0065 -0.7695 -0.3968
    2MPD1    H214119   3.460   0.336  11.302  2.7087 -0.4047 -0.3135
    2MPD1    H314120   3.274   0.486  11.290 -0.9005  0.6651 -0.0193
    2MPD1     N14121   3.464   0.801  11.562 -0.0068 -0.6014 -0.1959
    2MPD1    H514122   3.537   0.807  11.634 -0.1212 -0.5770 -0.0822
    2MPD1    N114123   3.671   0.375  11.446 -0.4742 -0.4816 -0.2285
    2MPD1    H614124   3.761   0.418  11.467 -0.7988 -0.7472  1.7762
    2MPD1    H714125   3.682   0.301  11.377  0.2513 -0.8469  0.2711
    1TMC1    C114126   0.546   1.900   0.231 -0.3293 -0.3201  0.0482
    1TMC1    C214127   0.426   1.849   0.265 -0.4527  0.4836  0.7052
    1TMC1    C314128   0.375   1.760   0.171 -0.1315  0.0193 -0.4392
    1TMC1    C414129   0.583   1.910   0.102 -0.1600 -0.3689  0.3324
    1TMC1    C514130   0.515   1.839   0.006  0.2879  0.2758  0.3566
    1TMC1    C614131   0.414   1.755   0.042 -0.2922  0.1663  0.4702
    1TMC1     C14132   0.639   1.960   0.329 -1.0354  0.2143  0.4107
    1TMC1     O14133   0.701   2.052   0.283 -0.0234  0.7376 -0.6330
    1TMC1     H14134   0.382   1.857   0.364 -1.1336  2.1559  0.2553
    1TMC1    H114135   0.676   1.960   0.075 -2.2005  2.9100 -0.6920
    1TMC1    H214136   0.360   1.710  17.704 -0.4607 -0.6390  1.0165
    1TMC1    C714137   0.537   1.862  17.606  0.4730  0.3296 -0.0909
    1TMC1    C814138   0.254   1.693   0.200  0.5000  0.5728  0.4471
    1TMC1    O114139   0.448   1.832  17.530 -0.8873 -0.4892  0.0633
    1TMC1    O214140   0.159   1.739   0.253 -0.5785  0.5407 -0.0274
    1TMC1    O314141   0.666   1.847  17.581 -0.0924  0.4025 -0.2501
    1TMC1    H314142   0.718   1.860  17.663 -0.9117  0.9754  0.1685
    1TMC1    O514143   0.260   1.581   0.119 -0.4748 -0.1388  0.5008
    1TMC1    H514144   0.352   1.551   0.101 -0.6939 -1.7835  2.0727
    2MPD1     C14145   0.915   1.997   0.766 -0.1592  0.2979 -0.0093
    2MPD1    C114146   0.809   1.908   0.786 -0.1837  0.6247 -0.2698
    2MPD1    C214147   0.717   1.884   0.683 -0.1236  0.2474  0.2437
    2MPD1    C314148   0.731   1.944   0.561 -0.4567  0.6416  0.2075
    2MPD1    C414149   0.847   2.022   0.538  0.0206  0.1638 -0.3352
    2MPD1    C514150   0.932   2.049   0.643  0.1742  0.8250 -0.6979
    2MPD1     H14151   0.632   1.817   0.691  0.5857 -0.5177  1.4221
    2MPD1    H114152   0.876   2.054   0.438  0.5059 -0.2444 -0.3256
    2MPD1    H214153   0.983   2.021   0.847 -1.0174  0.8913  0.5409
    2MPD1    H314154   1.024   2.103   0.624  2.0197 -1.9704  0.4121
    2MPD1     N14155   0.630   1.913   0.455  0.3429 -0.3294  0.2155
    2MPD1    H514156   0.558   1.846   0.480  0.6148 -0.8761 -0.4556
    2MPD1    N114157   0.788   1.857   0.916 -0.3192  0.1351  0.6996
    2MPD1    H614158   0.769   1.758   0.918  1.1323 -0.1775 -1.0708
    2MPD1    H714159   0.874   1.861   0.970 -0.5762 -0.6089  1.1567
    1MPD1     C14160   3.595   0.322  11.892 -0.6725  0.5375  0.5485
    1MPD1    C114161   3.615   0.279  12.023  0.2687 -0.2339 -0.2772
    1MPD1    C214162   3.742   0.289  12.067  0.4591 -0.1898  0.1160
    1MPD1    C314163   3.841   0.351  12.000 -0.5337 -0.5569  0.5847
    1MPD1    C414164   3.812   0.402  11.875  0.0985 -0.0968 -0.6893
    1MPD1    C514165   3.691   0.388  11.816  0.1979  0.2316  0.2432
    1MPD1     H14166   3.765   0.246  12.163  0.6566  1.0911  0.6514
    1MPD1    H114167   3.887   0.453  11.815  0.3827 -0.2343 -0.4474
    1MPD1    H214168   3.499   0.309  11.843 -0.5407  1.1766  0.1293
    1MPD1    H314169   3.681   0.427  11.716 -1.8290 -0.9932 -0.0415
    1MPD1     N14170   3.972   0.369  12.058  0.2408 -0.1585  0.6391
    1MPD1    H514171   3.982   0.343  12.155  0.3870  0.4364  0.7840
    1MPD1    N114172   3.527   0.187  12.082 -0.2035 -0.0008 -0.0386
    1MPD1    H614173   3.430   0.202  12.054 -0.3740 -0.9286  0.0607
    1MPD1    H714174   3.531   0.205  12.182  1.9737  0.3681 -0.1848
    2MPD1     C14175   3.994   2.479  11.036  0.0325  0.7325 -0.3370
    2MPD1    C114176   4.103   2.414  10.984  0.1660  0.2023 -0.4438
    2MPD1    C214177   4.081   2.279  10.955  0.2553 -0.1471  0.9888
    2MPD1    C314178   3.960   2.212  10.987 -0.3267  0.3254  0.1850
    2MPD1    C414179   3.854   2.283  11.042  0.0845  0.3963  0.1615
    2MPD1    C514180   3.877   2.414  11.061  0.2366  0.0741 -0.3352
    2MPD1     H14181   4.163   2.222  10.913 -0.1506  0.8749 -1.2064
    2MPD1    H114182   3.760   2.247  11.080 -0.4865  0.9588 -0.7228
    2MPD1    H214183   4.001   2.580  11.075  1.1826  1.1086 -1.5286
    2MPD1    H314184   3.798   2.471  11.108 -0.7767 -1.2135 -0.4542
    2MPD1     N14185   3.936   2.072  10.966  0.0649 -0.1716 -0.3928
    2MPD1    H514186   3.851   2.028  11.001  0.6036 -0.2535  0.7930
    2MPD1    N114187   4.211   2.486  10.930  0.4346 -0.0090 -0.6886
    2MPD1    H614188   4.229   2.581  10.963  0.3431 -0.2781  0.1139
    2MPD1    H714189   4.299   2.435  10.937 -0.7407 -1.4456  3.6048
    3MPD1     C14190   4.125   1.141  10.405  0.5356  0.8186 -0.1557
    3MPD1    C114191   4.062   1.121  10.524 -0.5356 -0.6658  0.4330
    3MPD1    C214192   4.031   1.215  10.620 -0.0489 -0.6065  0.1375
    3MPD1    C314193   4.048   1.349  10.579 -0.0343 -0.4352  0.4506
    3MPD1    C414194   4.097   1.379  10.451  0.3294 -0.4681 -0.1052
    3MPD1    C514195   4.135   1.275  10.371 -0.3459 -0.1131 -0.0074
    3MPD1     H14196   3.995   1.192  10.720  1.4130 -1.2371  0.5172
    3MPD1    H114197   4.114   1.476  10.407 -1.0863  0.2049  0.8402
    3MPD1    H214198   4.151   1.062  10.336 -0.0065 -0.5232  1.1764
    3MPD1    H314199   4.160   1.295  10.267 -1.2421 -0.1681 -0.2347
    3MPD1     N14200   4.022   1.444  10.680  0.2642 -0.1364 -0.3954
    3MPD1    H514201   4.015   1.406  10.774  0.0817 -0.0657 -0.3800
    3MPD1    N114202   4.026   0.989  10.546 -0.6535  0.0210  0.6177
    3MPD1    H614203   3.961   0.986  10.623 -1.0545  0.8866  0.3157
    3MPD1    H714204   4.005   0.931  10.465 -0.1820  0.9947 -0.2073
    4MPD2     C14205   4.131   0.966  12.379  0.4626  0.6046  0.2703
    4MPD2    C114206   4.228   0.919  12.290 -0.9894  0.1741  0.0875
    4MPD2    C214207   4.292   1.007  12.203  0.1253  0.3487  0.8553
    4MPD2    C314208   4.239   1.137  12.181 -0.2045 -0.5775 -0.1028
    4MPD2    C414209   4.139   1.181  12.262 -0.0458  0.3943  0.2696
    4MPD2    C514210   4.082   1.094  12.359 -0.3697  0.3265  0.2524
    4MPD2     H14211   4.373   0.973  12.139  0.8098 -1.4239  2.6721
    4MPD2    H114212   4.095   1.279  12.250 -1.7456 -0.4942 -0.8835
    4MPD2    H214213   4.080   0.912  12.458  2.4042 -1.2056  0.3023
    4MPD2    H314214   3.999   1.132  12.417 -0.6885  0.4243 -0.2669
    4MPD2     N14215   4.303   1.220  12.086 -0.0103 -0.1855  0.1964
    4MPD2    H514216   4.370   1.173  12.025  0.6217  0.7606  0.1540
    4MPD2    N114217   4.271   0.788  12.282 -0.0742  0.5341 -0.3384
    4MPD2    H714218   4.344   0.774  12.212 -0.4553  0.9689 -0.8147
    5TMC3    C114219   4.264   0.553  12.286 -0.1826 -0.0226  0.3646
    5TMC3    C214220   4.167   0.482  12.218 -0.0069 -0.4409  0.1699
    5TMC3    C314221   4.197   0.453  12.088  0.2302 -0.2281 -0.0138
    5TMC3    C414222   4.393   0.568  12.232 -0.2046 -0.3983  0.1383
    5TMC3    C514223   4.416   0.545  12.101 -0.2648 -0.1395 -0.0756
    5TMC3    C614224   4.318   0.485  12.035 -0.8818  0.4215 -0.4574
    5TMC3     C14225   4.210   0.678  12.338  0.1837 -0.2272 -0.2050
    5TMC3     O14226   4.123   0.677  12.422 -0.4008 -0.0636  0.2764
    5TMC3     H14227   4.063   0.493  12.249  0.6041 -2.6270  3.0557
    5TMC3    H114228   4.466   0.623  12.290  0.4020  0.5461 -1.5162
    5TMC3    H214229   4.343   0.435  11.942 -0.9905  2.8057 -1.7444
    5TMC3    C714230   4.474   0.652  12.031  0.3440 -0.1337 -0.2204
    5TMC3    C814231   4.088   0.414  11.999 -0.6015  0.4044  0.3660
    5TMC3    O114232   4.488   0.758  12.090  0.9897 -0.0639  0.4765
    5TMC3    O214233   4.105   0.433  11.882  0.2208 -0.1252 -0.0307
    6TMC3    C114234   3.960   1.854  10.895  0.2944 -0.1177  0.4799
    6TMC3    C214235   3.988   1.785  10.781  0.2261 -0.1925 -0.1197
    6TMC3    C314236   3.978   1.646  10.781  0.3600  0.3306 -0.4666
    6TMC3    C414237   3.907   1.789  11.003 -0.5608  0.3005  0.2730
    6TMC3    C514238   3.901   1.650  11.004 -0.2914 -0.3671 -0.3612
    6TMC3    C614239   3.930   1.578  10.892  0.3862 -0.5743  0.1765
    6TMC3     C14240   4.013   1.987  10.896 -0.0701  0.1968 -0.6625
    6TMC3     O14241   4.108   2.013  10.825  0.4048  0.1928  0.1234
    6TMC3     H14242   4.041   1.826  10.696 -1.5148  0.1522 -1.0362
    6TMC3    H114243   3.907   1.853  11.091  0.3781 -0.5954  0.9240
    6TMC3    H214244   3.926   1.470  10.902 -4.7231 -0.3547  0.3661
    6TMC3    C714245   3.943   1.579  11.125  0.8711 -0.3644 -0.8606
    6TMC3    C814246   4.008   1.576  10.657 -0.2725  0.0605 -0.0073
    6TMC3    O114247   4.053   1.523  11.126  0.6499  0.1950  0.3571
    6TMC3    O214248   4.024   1.634  10.552 -0.4293 -0.0054  0.2105
    7MPD2     C14249   4.623   0.879  11.589  0.4954 -0.4542  0.1097
    7MPD2    C114250   4.588   0.932  11.707 -0.2904 -0.0014  0.5092
    7MPD2    C214251   4.549   0.846  11.811 -0.2207  0.8354  1.2337
    7MPD2    C314252   4.563   0.710  11.803  0.0808 -0.0278  1.0919
    7MPD2    C414253   4.608   0.663  11.681  0.5380 -0.1171  0.1078
    7MPD2    C514254   4.649   0.747  11.584  1.0897 -0.4463  0.4911
    7MPD2     H14255   4.513   0.888  11.905  0.6819  0.4091  1.7659
    7MPD2    H114256   4.640   0.560  11.669  1.5927  0.2338 -0.0584
    7MPD2    H214257   4.642   0.944  11.504 -1.1435  1.1119  0.9342
    7MPD2    H314258   4.671   0.695  11.491  3.5435 -1.3281  1.5639
    7MPD2     N14259   4.510   0.617  11.901 -0.3455  0.2353  0.0946
    7MPD2    H514260   4.515   0.517  11.882 -0.6818  0.2818 -0.2553
    7MPD2    N114261   4.568   1.070  11.704 -0.4579 -0.0778  0.1722
    7MPD2    H714262   4.590   1.130  11.624  0.2636 -2.2632 -1.2745
    8TMC3    C114263   4.495   1.280  11.793 -0.1274  0.3114 -0.0758
    8TMC3    C214264   4.424   1.310  11.684  0.4375  0.7993  0.4392
    8TMC3    C314265   4.311   1.383  11.706 -0.3902  0.0150 -0.4125
    8TMC3    C414266   4.468   1.334  11.917 -0.9139  0.3362 -0.0874
    8TMC3    C514267   4.343   1.402  11.939  0.1491 -0.0011 -0.0479
    8TMC3    C614268   4.266   1.429  11.831  0.0441 -0.1014  0.4858
    8TMC3     C14269   4.528   1.137  11.812  0.3028 -0.1083  0.9621
    8TMC3     O14270   4.491   1.106  11.928 -0.1347 -0.5766  0.0120
    8TMC3     H14271   4.450   1.275  11.585  0.1576  0.6697  0.4104
    8TMC3    H114272   4.527   1.305  12.003 -0.1007 -0.6733 -0.9809
    8TMC3    H214273   4.182   1.495  11.848 -0.5846 -0.1440 -2.4447
    8TMC3    C714274   4.275   1.354  12.058 -0.4504  0.1867  0.1181
    8TMC3    C814275   4.219   1.390  11.592  0.6151  0.2188  0.7143
    8TMC3    O114276   4.183   1.423  12.096  0.0489 -0.3819  0.4650
    8TMC3    O214277   4.262   1.376  11.474 -0.4415 -0.1041 -0.0353
    9MPD2     C14278   3.865   1.493  11.641  0.0860 -0.0196 -0.6878
    9MPD2    C114279   3.976   1.467  11.559  0.0366  0.1547 -0.2026
    9MPD2    C214280   3.980   1.499  11.421 -0.5768  0.2662  0.6670
    9MPD2    C314281   3.857   1.545  11.358 -0.2437 -0.9456 -0.7760
    9MPD2    C414282   3.747   1.553  11.437  0.5677  0.8125  0.4316
    9MPD2    C514283   3.752   1.538  11.575  0.1199  0.3780 -0.3637
    9MPD2     H14284   4.067   1.485  11.359  0.3768  1.8716  1.6518
    9MPD2    H114285   3.661   1.604  11.393  0.0555 -0.2711  0.1697
    9MPD2    H214286   3.864   1.479  11.748 -2.5507 -0.0479 -0.7126
    9MPD2    H314287   3.661   1.564  11.628 -0.1463 -4.5397  1.6011
    9MPD2     N14288   3.844   1.582  11.222  0.2137  0.1039 -0.5263
    9MPD2    H514289   3.751   1.612  11.193  1.3076  2.3334 -1.7216
    9MPD2    N114290   4.091   1.412  11.630 -0.0884  0.2328 -0.0829
    9MPD2    H714291   4.079   1.432  11.729 -1.2646  1.0795 -0.3953
    1MPD1     C14292   3.520   0.819  15.701  0.4604 -0.7065 -0.2415
    1MPD1    C114293   3.645   0.764  15.688 -0.0103 -0.4438 -0.1092
    1MPD1    C214294   3.735   0.831  15.606 -0.4700 -0.2296 -0.5662
    1MPD1    C314295   3.694   0.938  15.521  0.1759 -0.0643 -0.7232
    1MPD1    C414296   3.565   0.986  15.541  0.2447  0.3501 -0.4836
    1MPD1    C514297   3.484   0.931  15.633 -0.6105 -0.5947  0.6981
    1MPD1     H14298   3.832   0.789  15.581  0.0001 -0.5720  1.7743
    1MPD1    H114299   3.533   1.067  15.477 -1.5205  0.3409  0.4020
    1MPD1    H214300   3.449   0.778  15.771 -0.7866  1.3902 -0.2687
    1MPD1    H314301   3.384   0.967  15.656 -0.9881 -0.9813 -0.3699
    1MPD1     N14302   3.774   1.000  15.418  0.0227  0.0073  0.4559
    1MPD1    H514303   3.732   1.082  15.374  1.6257  0.8341  0.4821
    1MPD1    N114304   3.698   0.679  15.788  1.2274 -0.5235 -0.1975
    1MPD1    H614305   3.633   0.606  15.817 -0.8541  0.7213 -1.7550
    1MPD1    H714306   3.767   0.627  15.735  1.4838 -0.6374  0.2429
    2TMC2    C114307   3.956   1.126  15.080 -0.2259  0.5851  1.1113
    2TMC2    C214308   4.098   1.118  15.070 -0.7229 -0.1968 -0.3162
    2TMC2    C314309   4.168   1.087  15.178 -0.0618 -0.4507  0.1049
    2TMC2    C414310   3.893   1.103  15.197 -0.1424  0.1240  0.7469
    2TMC2    C514311   3.967   1.073  15.302  0.5184 -1.0091 -0.5621
    2TMC2    C614312   4.104   1.060  15.289 -0.1461  0.1822  0.2105
    2TMC2     C14313   3.891   1.176  14.956  0.2161 -0.1916  0.0925
    2TMC2     O14314   3.959   1.216  14.861  0.2500 -0.2308  0.2018
    2TMC2     H14315   4.140   1.122  14.970 -0.8033 -1.0070 -0.3831
    2TMC2    H114316   3.785   1.092  15.201  0.0019 -1.0594  1.6805
    2TMC2    H214317   4.171   1.033  15.370 -0.1667  0.4663  0.3197
    2TMC2    C714318   3.910   0.979  15.400 -0.8085  0.7752 -0.2032
    2TMC2    C814319   4.291   1.017  15.162 -0.4840 -0.7726 -0.0088
    2TMC2    O114320   3.980   0.892  15.445 -0.2345 -0.0445 -0.9671
    2TMC2    O214321   4.390   1.050  15.230 -0.1587  0.0016  0.1490
    2TMC2    O514322   4.255   0.889  15.123  0.0363 -0.1092 -0.2257
    2TMC2    H514323   4.159   0.878  15.107  0.2381 -0.7109 -1.0335
    3MPD1     C14324   3.487   1.163  14.628  0.0671 -0.1318 -0.5477
    3MPD1    C114325   3.451   1.090  14.742  0.0896  0.3510  0.1695
    3MPD1    C214326   3.545   1.084  14.844  1.1098 -0.1783  0.0597
    3MPD1    C314327   3.673   1.139  14.830  0.1521  0.4495  0.9134
    3MPD1    C414328   3.709   1.198  14.712 -0.4913  0.1562 -0.4299
    3MPD1    C514329   3.612   1.216  14.615 -0.1555  0.3219  0.1510
    3MPD1     H14330   3.511   1.049  14.941 -0.6600  2.3770  0.3673
    3MPD1    H114331   3.806   1.243  14.696  1.0205 -2.1902  2.0872
    3MPD1    H214332   3.412   1.181  14.552 -0.6363 -0.2913  0.1217
    3MPD1    H314333   3.635   1.264  14.521  2.4714 -1.5184 -0.1396
    3MPD1     N14334   3.759   1.129  14.944 -0.7077  0.3872 -0.5024
    3MPD1    H514335   3.710   1.088  15.024 -0.4698  0.7163 -0.1878
    3MPD1    N114336   3.325   1.036  14.749  0.7390 -0.8201 -0.0983
    3MPD1    H614337   3.309   0.944  14.790  0.6615 -1.0771 -0.7089
    3MPD1    H714338   3.267   1.037  14.665 -1.4815 -1.4286  1.4059
    1TMC1    C114339   2.357   3.876  12.943 -0.3809 -0.2704  0.2928
    1TMC1    C214340   2.358   3.753  13.004  0.2607 -0.3380 -0.6123
    1TMC1    C314341   2.255   3.662  12.985  0.6939  0.3958 -0.2457
    1TMC1    C414342   2.255   3.907  12.855 -0.1107 -0.9517  0.1881
    1TMC1    C514343   2.164   3.816  12.831  0.7999  0.1004  0.4127
    1TMC1    C614344   2.163   3.699  12.897  0.6303  0.1708 -0.4180
    1TMC1     C14345   2.389   3.992  13.022  0.3283 -0.1016 -0.1972
    1TMC1     O14346   2.319   4.093  13.025 -0.0931  0.6202 -0.2952
    1TMC1     H14347   2.431   3.725  13.080  0.3543 -1.6774 -1.1864
    1TMC1    H114348   2.261   4.003  12.805 -0.6761 -1.5311 -0.9848
    1TMC1    H214349   2.097   3.616  12.876 -0.3805  0.5283  1.3715
    1TMC1    C714350   2.055   3.829  12.731  0.3962 -0.0946  0.2536
    1TMC1    C814351   2.281   3.525  13.032  0.2400  0.2379 -0.8181
    1TMC1    O114352   1.980   3.740  12.697 -0.1075  0.1723 -0.3504
    1TMC1    O214353   2.394   3.476  13.015  0.1025  0.1855  0.0977
    1TMC1    O314354   2.092   3.928  12.652 -0.2261  0.0069 -0.4191
    1TMC1    H314355   2.115   4.003  12.712  0.6922 -0.0898 -0.6413
    1TMC1    O514356   2.169   3.453  13.027  0.4773 -0.5042 -0.2425
    1TMC1    H514357   2.086   3.498  13.054  0.7129 -2.6394  4.0359
    2MPD2     C14358   2.478   4.120  13.273  0.1274 -0.1387 -0.1997
    2MPD2    C114359   2.559   4.040  13.193 -0.0683  0.5418  0.1498
    2MPD2    C214360   2.695   4.028  13.222  0.2351  0.4302 -0.6355
    2MPD2    C314361   2.750   4.095  13.324 -0.8359 -0.5390  0.5601
    2MPD2    C414362   2.671   4.172  13.404 -0.0993  0.7448 -0.4167
    2MPD2    C514363   2.538   4.179  13.380  0.7616 -0.4648 -0.2905
    2MPD2     H14364   2.752   3.953  13.168  2.4938  2.4902 -1.0791
    2MPD2    H114365   2.709   4.214  13.496 -2.7489 -1.7482  1.8077
    2MPD2    H214366   2.372   4.137  13.260 -0.4649 -4.1148 -0.5664
    2MPD2    H314367   2.472   4.234  13.447 -0.9084 -2.2630 -0.4557
    2MPD2     N14368   2.888   4.067  13.349  0.5498 -1.0259  0.5254
    2MPD2    H514369   2.932   4.006  13.281  1.9956  1.5716 -0.8648
    2MPD2    N114370   2.507   3.964  13.084  0.2007 -0.0018 -0.1967
    2MPD2    H714371   2.564   3.887  13.050 -0.4264 -0.0733 -1.0676
    3TCq1    O114372   3.347   4.270  13.743  0.3520  0.7633 -0.0138
    3TCq1    C114373   3.388   4.237  13.621 -0.6532 -1.2258 -0.3530
    3TCq1    O214374   3.508   4.243  13.598  0.1222  0.0464  0.2055
    3TCq1    C214375   3.303   4.130  13.581 -0.0714  0.7314 -0.0699
    3TCq1    C314376   3.351   4.013  13.525  0.0858 -0.2831  1.0088
    3TCq1    C414377   3.277   3.939  13.448  0.4527  0.1301 -0.0904
    3TCq1    C514378   3.148   3.966  13.415 -1.2145 -0.0072 -0.3085
    3TCq1    C614379   3.103   4.084  13.456  0.4347  0.1427 -0.0281
    3TCq1    C714380   3.176   4.164  13.537  0.1533  0.2061 -0.2042
    3TCq1    C814381   2.967   4.127  13.444  0.2834 -0.7328 -0.2347
    3TCq1    O414382   2.941   4.215  13.523 -0.8058  0.4669 -0.0447
    3TCq1    C914383   3.327   3.825  13.377  0.2286 -0.5592 -0.2474
    3TCq1    O514384   3.454   3.819  13.377  0.0764  0.5563  0.4722
    3TCq1    O614385   3.253   3.728  13.361  0.3802  0.1225  0.0638
    3TCq1    H114386   3.254   4.245  13.765 -0.0253  3.0275  0.9538
    3TCq1    H214387   3.455   3.987  13.545 -0.3141 -3.1322 -0.7150
    3TCq1    H314388   3.091   3.900  13.351 -1.0011  0.0677 -0.5749
    3TCq1    H414389   3.140   4.260  13.573 -2.2706 -0.8858  0.2664
    1MPD2     C14390   2.504   0.616  14.751 -0.3027 -0.7707  0.2170
    1MPD2    C114391   2.399   0.536  14.707 -0.1703  0.6623  0.3162
    1MPD2    C214392   2.346   0.443  14.801 -0.1715  0.2311 -0.1688
    1MPD2    C314393   2.372   0.444  14.937  0.1570 -0.1754  0.2416
    1MPD2    C414394   2.466   0.537  14.983 -0.2585 -0.0501  0.5175
    1MPD2    C514395   2.535   0.617  14.887  0.1090  0.2392  0.3644
    1MPD2     H14396   2.268   0.373  14.775  2.2795 -2.1138 -1.3228
    1MPD2    H114397   2.500   0.550  15.085  0.2921 -0.1556  0.3429
    1MPD2    H214398   2.569   0.676  14.689 -0.4695  1.4091  2.1848
    1MPD2    H314399   2.603   0.691  14.929  0.5900 -0.8570  1.5065
    1MPD2     N14400   2.302   0.358  15.020  0.5850  0.0535 -0.1845
    1MPD2    H514401   2.237   0.297  14.972  2.4111 -2.1040  0.1078
    1MPD2    N114402   2.346   0.555  14.574  0.6902  0.2305  0.0746
    1MPD2    H714403   2.383   0.630  14.516 -1.0815  2.1576  1.3987
    2TMC3    C114404   2.205   0.497  14.382 -0.2928 -0.0791  0.7795
    2TMC3    C214405   2.108   0.410  14.342 -0.9596 -0.0458  0.0485
    2TMC3    C314406   1.986   0.458  14.297  0.0448 -0.4948  0.0021
    2TMC3    C414407   2.186   0.636  14.365 -0.0244  0.9280  0.7299
    2TMC3    C514408   2.068   0.677  14.303 -0.2689 -0.1553  0.1599
    2TMC3    C614409   1.970   0.590  14.267 -0.2045  0.8018 -0.0406
    2TMC3     C14410   2.260   0.459  14.515  0.0189  0.1088 -0.6155
    2TMC3     O14411   2.207   0.360  14.562 -0.3699  0.4813 -0.0810
    2TMC3     H14412   2.136   0.306  14.347 -0.1559  0.2959  2.6756
    2TMC3    H114413   2.263   0.707  14.393  1.3043  0.0048 -0.6169
    2TMC3    H214414   1.870   0.617  14.234 -0.8076  0.1046  1.2222
    2TMC3    C714415   2.058   0.813  14.238  0.6999  0.5262  0.1753
    2TMC3    C814416   1.870   0.401  14.361 -0.0929  0.1827  0.7984
    2TMC3    O114417   1.956   0.828  14.174 -0.3566  0.1464  0.1863
    2TMC3    O214418   1.765   0.414  14.302  0.1148  0.7312  0.3489
    3TCq1    O114419   3.068   1.562  14.159  0.1753 -0.1606  0.3362
    3TCq1    C114420   2.947   1.609  14.137 -0.0545  0.4725 -0.0235
    3TCq1    O214421   2.911   1.668  14.038 -0.2181  0.1809  0.2869
    3TCq1    C214422   2.851   1.522  14.200 -0.2502  0.3664 -0.0699
    3TCq1    C314423   2.874   1.485  14.324 -0.1461 -0.0271  1.1671
    3TCq1    C414424   2.775   1.407  14.382  0.3080  0.2052  0.3719
    3TCq1    C514425   2.665   1.363  14.318 -0.2544  0.4459  0.3774
    3TCq1    C614426   2.650   1.391  14.191 -0.7673 -0.0419 -0.4842
    3TCq1    C714427   2.744   1.475  14.129  0.4952  0.2626 -0.5572
    3TCq1    C814428   2.535   1.350  14.110 -0.6130 -0.0133 -0.1113
    3TCq1    O414429   2.507   1.407  14.003 -0.1274  0.2757  0.6129
    3TCq1    C914430   2.798   1.383  14.527 -0.2691  0.5739 -0.1085
    3TCq1    O514431   2.917   1.385  14.561  0.0595 -0.1450 -0.5917
    3TCq1    O614432   2.695   1.384  14.598  0.1346 -0.0114 -0.5155
    3TCq1    H114433   3.058   1.491  14.226  3.4580 -0.4814  0.4575
    3TCq1    H214434   2.950   1.531  14.386  0.3204  0.0097  0.5705
    3TCq1    H314435   2.597   1.310  14.383 -0.8977  3.9495  2.5522
    3TCq1    H414436   2.747   1.506  14.025  0.3948 -1.1320 -0.9718
    4MPD2     C14437   2.260   1.235  14.029  0.0656  0.3434 -0.0586
    4MPD2    C114438   2.348   1.185  14.130  0.1393  0.1104 -0.0617
    4MPD2    C214439   2.302   1.079  14.210  0.3845 -0.3871 -1.2458
    4MPD2    C314440   2.187   1.010  14.173  0.0039 -0.0307 -0.6566
    4MPD2    C414441   2.107   1.061  14.073 -0.7306 -0.2148 -0.4982
    4MPD2    C514442   2.140   1.175  14.015 -0.2723  0.0540 -0.1764
    4MPD2     H14443   2.361   1.054  14.298  1.4966 -0.3892 -1.9964
    4MPD2    H114444   2.020   1.009  14.034  0.0482 -0.8839 -1.3448
    4MPD2    H214445   2.282   1.319  13.963  1.3912 -0.4308 -0.6003
    4MPD2    H314446   2.078   1.209  13.933 -1.8408  0.3034  1.1069
    4MPD2     N14447   2.171   0.886  14.242 -0.2742 -0.9043  0.0184
    4MPD2    H514448   2.242   0.868  14.313 -0.2205  0.1832  0.2356
    4MPD2    N114449   2.473   1.246  14.171  1.0851 -0.1132 -0.0415
    4MPD2    H714450   2.533   1.193  14.233  0.9992 -1.7701 -1.3849
    5TMC2    C114451   2.034   0.169  15.083  0.5065  0.4064  0.3133
    5TMC2    C214452   1.935   0.232  15.152 -0.0227 -0.8114  0.4233
    5TMC2    C314453   1.975   0.302  15.261 -0.5385 -0.5507 -0.6554
    5TMC2    C414454   2.165   0.178  15.115 -0.2315  0.2648 -0.0160
    5TMC2    C514455   2.201   0.269  15.207  0.3027 -1.2291 -0.1284
    5TMC2    C614456   2.109   0.324  15.287 -1.0465 -0.2718 -0.3428
    5TMC2     C14457   2.020   0.147  14.938 -0.2201 -0.2260  0.1272
    5TMC2     O14458   2.119   0.182  14.871 -0.6862  0.0001 -0.2528
    5TMC2     H14459   1.831   0.225  15.122  0.1766  0.0501 -0.4350
    5TMC2    H114460   2.236   0.125  15.051  0.0214 -1.1738  1.4610
    5TMC2    H214461   2.144   0.392  15.364  0.2483 -1.9548  0.5499
    5TMC2    C714462   2.299   0.358  15.156 -0.2578  0.3171  0.0731
    5TMC2    C814463   1.894   0.413  15.311  0.4984 -0.1415  0.0565
    5TMC2    O114464   2.351   0.429  15.237  0.3323  0.0710 -0.2007
    5TMC2    O214465   1.947   0.521  15.333 -0.2973  0.1837 -0.5190
    5TMC2    O514466   1.759   0.401  15.285  0.0255 -0.3317 -0.4963
    5TMC2    H514467   1.723   0.318  15.245 -1.1469  0.0426 -0.2212
    6MPD2     C14468   1.697   0.234  14.539 -0.6454  0.2508 -0.5619
    6MPD2    C114469   1.835   0.257  14.558  0.6202  0.0575  0.0022
    6MPD2    C214470   1.896   0.220  14.677  0.3200  0.0687  0.3974
    6MPD2    C314471   1.824   0.156  14.778 -1.1736  0.1479  0.1794
    6MPD2    C414472   1.689   0.129  14.758  0.1559 -0.6647 -0.0372
    6MPD2    C514473   1.629   0.167  14.637 -0.5111  0.2724 -0.5515
    6MPD2     H14474   2.002   0.240  14.688  0.0721  0.9907  1.0847
    6MPD2    H114475   1.638   0.089  14.844 -0.7542 -1.0920 -0.7724
    6MPD2    H214476   1.649   0.271  14.450 -1.4470  0.9059  0.1364
    6MPD2    H314477   1.523   0.145  14.626 -0.2741 -0.3237 -1.7147
    6MPD2     N14478   1.887   0.128  14.902  0.3983  0.1716 -0.0740
    6MPD2    H514479   1.831   0.086  14.976 -0.2563 -1.7286 -1.6372
    6MPD2    N114480   1.910   0.337  14.473 -0.0521 -0.5868  0.6491
    6MPD2    H714481   2.011   0.339  14.484  0.0656 -1.1817 -0.3159
  945NH4     N114482   4.245   0.584   9.811  0.6147 -0.2402  0.3161
  945NH4     H214483   4.320   0.549   9.875  0.6791 -0.7904 -0.0550
  945NH4     H314484   4.147   0.560   9.837  0.8463 -1.0865  0.4054
  945NH4     H414485   4.266   0.534   9.721 -1.2974 -0.3682 -0.0719
  945NH4     H514486   4.246   0.682   9.777  0.0870  0.4933  2.4334
  946SOD     NA14487   3.662   0.875  12.154  0.0031 -0.2133 -0.5799
  947SOD     NA14488   3.556   2.640   6.426  0.2517  0.1055 -0.6110
  948SOD     NA14489   1.127   1.566  13.544 -0.3187 -0.2292  0.0217
  949SOD     NA14490   4.329   2.322  17.030  0.1732  0.2938 -0.7080
  950SOD     NA14491   3.890   0.331  16.464 -0.3154 -0.0910  0.2167
  951SOD     NA14492   0.005   3.546   4.280 -0.5460  0.4019  0.8919
  952SOD     NA14493   3.442   3.614  13.492 -0.1493 -0.5216 -0.2147
  953SOL     OW14494   2.426   0.357   1.824  0.1465 -0.0616  0.2823
  953SOL    HW114495   2.351   0.303   1.848 -0.8091  0.8191 -0.7283
  953SOL    HW214496   2.414   0.445   1.861  1.6432  0.3907 -0.3068
  954SOL     OW14497   4.326   3.617   3.645  0.0881 -0.1989  0.1376
  954SOL    HW114498   4.380   3.627   3.567  0.0376 -2.2668 -0.1685
  954SOL    HW214499   4.294   3.527   3.640  0.0783 -0.1872  0.0073
  955SOL     OW14500   3.345   4.311   7.152  0.4948  0.1160  0.6189
  955SOL    HW114501   3.407   4.279   7.086  0.2817  0.1368  0.4109
  955SOL    HW214502   3.316   4.232   7.197 -0.1968  0.5017  0.8419
  956SOL     OW14503   0.743   4.525   2.269  0.0792  0.3017  0.0622
  956SOL    HW114504   0.722   4.602   2.216 -2.5192  0.3092  1.0969
  956SOL    HW214505   0.652   4.500   2.287 -0.2098  0.4193 -1.2225
  957SOL     OW14506   1.733   1.201   0.965  0.4475 -0.1769  0.5930
  957SOL    HW114507   1.755   1.161   0.882 -0.7647 -1.7488  1.0342
  957SOL    HW214508   1.695   1.137   1.025 -2.8688  0.4300 -0.8515
  958SOL     OW14509   2.840   1.323   4.177  0.3751 -0.1425 -0.6931
  958SOL    HW114510   2.908   1.329   4.244 -0.4439  0.0490  0.1185
  958SOL    HW214511   2.765   1.353   4.228 -0.8685 -1.3635 -1.8204
  959SOL     OW14512   0.487   3.981  11.413 -0.5548  0.1422 -0.0984
  959SOL    HW114513   0.573   3.939  11.416 -0.0206  1.3791  1.4658
  959SOL    HW214514   0.486   4.005  11.505  0.4767  0.4084 -0.1584
  960SOL     OW14515   0.759   3.151   3.272  0.4441  0.2535  0.7399
  960SOL    HW114516   0.765   3.106   3.188  0.8733 -0.7438  1.3047
  960SOL    HW214517   0.822   3.220   3.255  0.0016  0.6422  0.6730
  961SOL     OW14518   4.366   0.852   8.756 -0.0856 -0.5614 -0.3993
  961SOL    HW114519   4.452   0.843   8.798  1.5146  2.0091 -3.1598
  961SOL    HW214520   4.350   0.941   8.785  1.5046 -0.4020 -0.0261
  962SOL     OW14521   3.002   0.946  17.263 -0.0375 -0.3980 -0.1072
  962SOL    HW114522   3.025   1.017  17.203 -0.7527 -1.4473 -1.6294
  962SOL    HW214523   3.028   0.980  17.349  0.1194 -0.0531 -0.2905
  963SOL     OW14524   3.991   0.138   5.208 -0.0031 -0.1851 -0.3261
  963SOL    HW114525   4.032   0.057   5.238  0.2121 -0.4927 -1.4293
  963SOL    HW214526   3.990   0.196   5.284 -1.1700 -1.5958  0.7486
  964SOL     OW14527   2.902   4.153   7.536 -0.0900 -0.8412  0.1348
  964SOL    HW114528   2.928   4.190   7.452 -2.1354 -0.4417 -0.3102
  964SOL    HW214529   2.808   4.159   7.523  0.0220  1.0470  0.1409
  965SOL     OW14530   1.174   1.976   7.693  0.6982  0.2559 -0.1610
  965SOL    HW114531   1.121   1.972   7.773  1.7571 -1.6193  0.4261
  965SOL    HW214532   1.256   2.017   7.722  1.5227 -0.1253 -1.9624
  966SOL     OW14533   3.944   3.865   4.742  0.2988  0.8236  0.1319
  966SOL    HW114534   3.854   3.880   4.714  0.3757  1.7388  0.3902
  966SOL    HW214535   3.951   3.945   4.793  2.5930  1.0139 -0.4609
  967SOL     OW14536   2.232   3.876  14.462 -0.0951 -0.0495 -0.6632
  967SOL    HW114537   2.326   3.857  14.458 -0.3702 -1.8732  2.1686
  967SOL    HW214538   2.191   3.820  14.527 -2.4311 -0.3453 -2.3648
  968SOL     OW14539   3.047   1.052   7.968  0.3959 -0.2058  0.8050
  968SOL    HW114540   2.969   1.006   8.000 -1.8393  1.6210 -1.9942
  968SOL    HW214541   3.106   0.983   7.939 -0.2854 -0.5204  0.1591
  969SOL     OW14542   4.236   0.726   1.016  0.2897 -0.6231  0.0807
  969SOL    HW114543   4.329   0.704   1.012  1.1804  3.5764 -2.1879
  969SOL    HW214544   4.197   0.652   1.062  0.8127 -0.6419  0.4982
  970SOL     OW14545   0.636   1.328   5.857  0.3983 -0.4047  0.6506
  970SOL    HW114546   0.625   1.423   5.862  3.2791 -0.1226  1.2877
  970SOL    HW214547   0.731   1.321   5.862  0.2626 -3.0662 -0.6433
  971SOL     OW14548   4.500   4.697   2.846 -0.1406 -0.6923 -0.2013
  971SOL    HW114549   4.515   4.735   2.933 -2.2007  0.3592 -0.3133
  971SOL    HW214550   4.551   0.016   2.788 -0.2002  0.1440  0.5481
  972SOL     OW14551   4.321   3.377   8.159 -0.1104  0.0772 -0.1187
  972SOL    HW114552   4.414   3.384   8.183 -0.0916 -0.1328 -0.1220
  972SOL    HW214553   4.289   3.466   8.170 -1.3183 -0.3530 -0.0910
  973SOL     OW14554   4.107   1.264   2.363  0.2305 -0.2786  0.2892
  973SOL    HW114555   4.089   1.341   2.418  1.8483 -0.7829  1.5176
  973SOL    HW214556   4.197   1.278   2.334 -0.9112 -0.0635 -3.1692
  974SOL     OW14557   3.167   1.074   5.993 -0.1310 -0.3997 -0.0829
  974SOL    HW114558   3.084   1.083   5.947  1.3028 -1.8917 -2.9683
  974SOL    HW214559   3.164   1.142   6.061 -0.9982 -4.5118  3.9910
  975SOL     OW14560   1.040   0.088   8.768 -0.3235  0.1241  0.8348
  975SOL    HW114561   1.038   0.083   8.864  0.7878  0.5321  0.8737
  975SOL    HW214562   1.002   0.175   8.757 -1.7542 -0.8264 -1.5263
  976SOL     OW14563   0.354   1.289   6.177 -0.2520 -0.8524  0.1129
  976SOL    HW114564   0.344   1.287   6.082 -1.0453  1.2771  0.1351
  976SOL    HW214565   0.440   1.331   6.186 -0.7112 -0.1624  1.3657
  977SOL     OW14566   3.929   3.349   8.128 -0.2684  0.3315 -0.4124
  977SOL    HW114567   3.947   3.417   8.193 -1.0128 -1.1425  1.3209
  977SOL    HW214568   4.003   3.291   8.144 -0.8051 -0.6630 -1.5924
  978SOL     OW14569   0.746   1.795   4.970  0.1452  0.2109 -0.1094
  978SOL    HW114570   0.771   1.703   4.969 -1.7328 -0.3007 -0.2242
  978SOL    HW214571   0.823   1.827   4.923  0.8056 -2.5590 -0.9432
  979SOL     OW14572   2.272   2.743   6.694  0.4889 -0.2645  0.4630
  979SOL    HW114573   2.259   2.653   6.665  0.0322  0.0498 -0.2986
  979SOL    HW214574   2.297   2.740   6.787 -1.2581  2.9654  1.0314
  980SOL     OW14575   3.000   0.142   1.286  0.3117 -0.6122  0.3675
  980SOL    HW114576   2.930   0.174   1.342 -0.2682 -1.5515  0.1810
  980SOL    HW214577   2.973   0.051   1.300  3.2061 -1.4834  0.3998
  981SOL     OW14578   1.115   3.460  13.406  0.4704 -0.1909  0.1752
  981SOL    HW114579   1.127   3.417  13.321  2.3673  1.3493 -0.3448
  981SOL    HW214580   1.057   3.399  13.450  0.8819 -1.4552 -1.0329
  982SOL     OW14581   2.198   4.715  17.419  0.2575 -0.3659 -0.1303
  982SOL    HW114582   2.209   4.727  17.325 -0.2672 -0.4295 -0.1946
  982SOL    HW214583   2.244   4.631  17.427 -0.7857 -0.8912  0.2294
  983SOL     OW14584   0.807   2.692  13.147  0.6218  0.3484 -0.7701
  983SOL    HW114585   0.752   2.648  13.212  0.5736 -0.0338 -1.0693
  983SOL    HW214586   0.751   2.734  13.081 -0.6057 -0.1133 -0.0376
  984SOL     OW14587   4.736   4.551   3.422 -0.6436 -0.0407 -0.0232
  984SOL    HW114588   0.055   4.611   3.373 -0.6576  0.2427  0.3070
  984SOL    HW214589   4.726   4.481   3.357 -2.0182  0.1270 -0.0011
  985SOL     OW14590   2.870   0.033  14.865 -0.0597  0.0831 -0.4370
  985SOL    HW114591   2.859   4.736  14.776 -0.1858 -1.6474  0.2431
  985SOL    HW214592   2.869   4.686  14.911  1.9434  0.2500 -0.0859
  986SOL     OW14593   0.906   1.880   2.139 -0.2777 -0.3544  0.1293
  986SOL    HW114594   0.873   1.791   2.129 -0.1642 -0.4915  1.0030
  986SOL    HW214595   0.944   1.862   2.225 -0.3845 -0.4857  0.1481
  987SOL     OW14596   3.233   3.278   8.651 -0.0558  0.1635 -0.2496
  987SOL    HW114597   3.260   3.251   8.739 -1.6367 -0.8140 -0.0773
  987SOL    HW214598   3.318   3.282   8.606  2.1937 -0.5800  3.9152
  988SOL     OW14599   4.501   2.572   6.782  0.2461 -0.2073 -0.2527
  988SOL    HW114600   4.467   2.511   6.847 -0.3774  0.1403 -0.2473
  988SOL    HW214601   4.423   2.627   6.788  1.6042  1.6179  0.6584
  989SOL     OW14602   2.094   3.579   3.058  0.0630 -0.1056  0.2774
  989SOL    HW114603   2.039   3.501   3.057  2.1986 -1.5931 -1.4383
  989SOL    HW214604   2.027   3.647   3.072  0.0592 -0.2414  0.9323
  990SOL     OW14605   3.761   2.964   9.618  0.1789 -0.3232  0.8195
  990SOL    HW114606   3.777   3.025   9.690  1.1943 -0.1314  0.4232
  990SOL    HW214607   3.706   3.013   9.557  1.7708 -0.3081 -0.5752
  991SOL     OW14608   1.162   3.161  11.406  0.0868 -0.7230 -0.4104
  991SOL    HW114609   1.149   3.084  11.462 -1.1129 -0.2838 -0.0941
  991SOL    HW214610   1.074   3.178  11.373  1.2381  1.5852 -2.3349
  992SOL     OW14611   0.898   0.573   8.289 -0.0776  0.6063  0.2195
  992SOL    HW114612   0.824   0.554   8.346 -0.0944  0.1237  0.0340
  992SOL    HW214613   0.899   0.506   8.221  2.6543  1.4037 -0.5642
  993SOL     OW14614   2.532   3.206   9.326 -0.5294  0.4098 -0.6995
  993SOL    HW114615   2.502   3.136   9.384  0.0145 -0.9618 -2.0989
  993SOL    HW214616   2.626   3.214   9.346 -0.0439 -0.8060 -2.5052
  994SOL     OW14617   1.543   1.622  11.457  0.0569  0.0611 -0.4388
  994SOL    HW114618   1.614   1.572  11.417  1.3527 -0.4666  2.5261
  994SOL    HW214619   1.477   1.554  11.442  0.6867 -0.9270  1.2459
  995SOL     OW14620   4.524   0.658   5.666 -0.5940 -0.0855 -0.5696
  995SOL    HW114621   4.554   0.618   5.748 -2.5415  0.5028  0.4255
  995SOL    HW214622   4.615   0.673   5.640  0.1720  0.3761  2.3333
  996SOL     OW14623   3.530   2.148   5.852 -0.3075 -0.4793 -0.4740
  996SOL    HW114624   3.578   2.127   5.932  0.5283  2.1261 -0.3144
  996SOL    HW214625   3.443   2.110   5.867 -0.7162  0.2806 -0.9280
  997SOL     OW14626   2.852   4.187   5.264  0.3403 -0.4237 -0.1080
  997SOL    HW114627   2.763   4.192   5.228 -0.0951  2.4662  1.3409
  997SOL    HW214628   2.904   4.194   5.184  1.5923  1.7313  0.8968
  998SOL     OW14629   2.105   4.475   4.702  0.5213  0.1496  0.1547
  998SOL    HW114630   2.076   4.456   4.791  1.5186 -2.2092 -0.0118
  998SOL    HW214631   2.083   4.568   4.696  1.3246  0.4211  1.5755
  999SOL     OW14632   2.872   1.721   8.229 -0.0808  0.1020 -0.0299
  999SOL    HW114633   2.912   1.795   8.185  1.1845 -1.2601 -1.1862
  999SOL    HW214634   2.914   1.639   8.200 -0.8883  0.0938 -1.2042
 1000SOL     OW14635   2.713   0.021   9.963  0.1366  0.1303  0.1982
 1000SOL    HW114636   2.665   4.717  10.035  1.6888  0.1692  1.2490
 1000SOL    HW214637   2.640   0.065   9.918  0.9197  1.4835  0.2542
 1001SOL     OW14638   0.165   1.193   9.686 -0.1731  0.6558 -0.0802
 1001SOL    HW114639   0.201   1.201   9.775 -2.2642 -1.0345  0.9329
 1001SOL    HW214640   0.233   1.233   9.632  0.5298 -0.5404 -0.0855
 1002SOL     OW14641   4.297   0.268  12.452  0.1391  0.1929 -0.2303
 1002SOL    HW114642   4.318   0.198  12.514 -0.5479  0.4272  0.2596
 1002SOL    HW214643   4.238   0.322  12.505  0.5897 -0.4192  0.8976
 1003SOL     OW14644   0.683   4.408  14.576 -0.0376 -0.0965  0.3558
 1003SOL    HW114645   0.633   4.489  14.574  1.1627  0.6542  0.8159
 1003SOL    HW214646   0.621   4.369  14.639  0.9392 -0.8732  0.8298
 1004SOL     OW14647   3.804   4.206   4.603 -0.9318  0.4081  0.1201
 1004SOL    HW114648   3.872   4.227   4.539  0.3446 -0.0928  1.3069
 1004SOL    HW214649   3.724   4.201   4.551 -0.1147  0.4233 -1.1310
 1005SOL     OW14650   3.013   3.383   3.416  0.0685 -0.5592  0.2274
 1005SOL    HW114651   3.040   3.298   3.380  1.4766  0.0433 -0.1311
 1005SOL    HW214652   2.918   3.377   3.417  0.0371  0.1463  1.3472
 1006SOL     OW14653   0.293   3.654   5.571  0.4877  0.6661 -0.4613
 1006SOL    HW114654   0.385   3.681   5.571  0.6757  0.0337 -0.5149
 1006SOL    HW214655   0.263   3.733   5.616  0.1617  0.8401 -0.9759
 1007SOL     OW14656   2.999   3.500   2.031  0.5762 -0.1389 -0.4786
 1007SOL    HW114657   2.971   3.520   1.942  0.3529  1.3513 -0.0865
 1007SOL    HW214658   2.928   3.441   2.056  0.2844  0.0967 -0.7493
 1008SOL     OW14659   3.183   1.716   2.540  0.3877 -0.4598  0.0501
 1008SOL    HW114660   3.270   1.709   2.579 -0.1727 -0.7296  1.2442
 1008SOL    HW214661   3.187   1.805   2.503  0.4242 -0.9483 -1.1148
 1009SOL     OW14662   2.708   0.615  13.713  0.0061 -0.3282 -0.5800
 1009SOL    HW114663   2.733   0.523  13.722  1.6592  0.0541 -1.1099
 1009SOL    HW214664   2.690   0.617  13.619 -1.3397  2.0510 -0.2699
 1010SOL     OW14665   2.671   3.028   2.454 -0.1369 -0.2815 -0.6388
 1010SOL    HW114666   2.650   3.106   2.506 -1.1426 -0.1604 -1.2112
 1010SOL    HW214667   2.685   2.963   2.522 -1.7564  1.8760  1.7476
 1011SOL     OW14668   3.321   0.312   4.319 -0.4192 -0.4256 -0.1204
 1011SOL    HW114669   3.396   0.268   4.357 -0.6080 -0.6697 -0.0290
 1011SOL    HW214670   3.282   0.368   4.386 -0.0403  1.0687 -1.1420
 1012SOL     OW14671   1.017   4.360   1.291  0.0272 -0.4403 -0.2627
 1012SOL    HW114672   1.065   4.395   1.366 -0.7051 -1.8322  0.8438
 1012SOL    HW214673   1.081   4.376   1.222 -0.0455  0.1927 -0.1917
 1013SOL     OW14674   1.824   1.969   5.555 -0.0335 -0.3360 -0.2142
 1013SOL    HW114675   1.814   1.958   5.461 -1.9654 -1.7946  0.1734
 1013SOL    HW214676   1.899   2.027   5.570 -0.2209 -0.5776  1.6950
 1014SOL     OW14677   3.147   4.154   0.950  0.3846 -0.0245  0.3789
 1014SOL    HW114678   3.067   4.106   0.974  1.3198 -1.7551  0.0215
 1014SOL    HW214679   3.188   4.112   0.875  1.9398  2.6767 -0.2736
 1015SOL     OW14680   3.146   2.979  10.338 -0.0513  0.3423 -0.2893
 1015SOL    HW114681   3.151   2.932  10.421  0.3600 -0.6002 -0.8518
 1015SOL    HW214682   3.166   2.906  10.280 -0.2410  0.9252 -1.0878
 1016SOL     OW14683   4.307   0.953   3.843 -0.2541 -0.0119  0.2855
 1016SOL    HW114684   4.381   0.905   3.879 -1.1892 -1.7772 -0.1285
 1016SOL    HW214685   4.336   0.944   3.752 -0.2409  1.0447  0.1854
 1017SOL     OW14686   1.714   2.440  14.503 -0.2354 -0.2559 -0.2736
 1017SOL    HW114687   1.796   2.397  14.478  0.4541  0.0066  1.5186
 1017SOL    HW214688   1.742   2.531  14.510 -2.1721  0.5250 -2.8196
 1018SOL     OW14689   3.095   1.058   1.066 -0.4641  0.3473 -0.1353
 1018SOL    HW114690   3.019   1.106   1.097 -1.4653 -0.4914 -1.3235
 1018SOL    HW214691   3.118   1.099   0.982  1.5321 -2.2101 -0.8689
 1019SOL     OW14692   3.694   3.774   9.074  0.3645 -0.6046  0.4117
 1019SOL    HW114693   3.710   3.680   9.065  1.7761 -0.2389 -0.8724
 1019SOL    HW214694   3.767   3.803   9.129 -0.8122  0.3577  1.4659
 1020SOL     OW14695   3.210   0.435  13.959 -0.1143 -0.3757  0.1609
 1020SOL    HW114696   3.295   0.458  13.998  0.7421 -1.4604 -1.0860
 1020SOL    HW214697   3.207   0.489  13.881  2.0922 -0.5739 -0.0509
 1021SOL     OW14698   2.602   2.965  11.069  0.6585 -0.3868  0.4263
 1021SOL    HW114699   2.623   3.038  11.011 -1.4241 -0.7055 -0.7342
 1021SOL    HW214700   2.514   2.940  11.040  0.5998  1.0590 -0.6732
 1022SOL     OW14701   4.058   2.344   3.122 -0.2306  0.5744 -0.2929
 1022SOL    HW114702   4.143   2.369   3.157  0.2000  1.7308 -2.1249
 1022SOL    HW214703   4.078   2.262   3.078  0.3871 -0.0072  1.0848
 1023SOL     OW14704   0.398   0.168  17.092  0.1513 -0.5598 -0.6371
 1023SOL    HW114705   0.411   0.134  17.004  0.6151  0.0313 -0.7861
 1023SOL    HW214706   0.336   0.238  17.069 -1.9915 -1.8926  1.0345
 1024SOL     OW14707   1.720   1.902   2.447  0.9594  0.0411  0.0285
 1024SOL    HW114708   1.734   1.814   2.484 -1.4001 -0.5607 -0.5143
 1024SOL    HW214709   1.746   1.890   2.356  0.5767 -0.2005 -0.0490
 1025SOL     OW14710   1.218   0.323  11.020  0.1965  0.2137  0.1095
 1025SOL    HW114711   1.167   0.259  11.071 -0.2849 -0.3095 -1.0382
 1025SOL    HW214712   1.268   0.371  11.087 -1.9339  2.0935  0.3323
 1026SOL     OW14713   2.432   3.562   3.552 -0.6623 -0.2321  0.7382
 1026SOL    HW114714   2.412   3.656   3.550  0.9769  0.1152  0.0812
 1026SOL    HW214715   2.489   3.542   3.626  0.2979 -1.7383 -0.4031
 1027SOL     OW14716   2.872   3.505   6.371 -0.4358  0.2056 -0.1000
 1027SOL    HW114717   2.903   3.475   6.286 -0.9765 -1.0371  0.1325
 1027SOL    HW214718   2.865   3.427   6.427 -0.9340  0.4824  0.2239
 1028SOL     OW14719   0.899   2.094   5.132 -0.4657 -0.3011 -0.4408
 1028SOL    HW114720   0.974   2.066   5.079  1.9665  3.1578  1.1612
 1028SOL    HW214721   0.909   2.189   5.135  0.8951 -0.4615  0.0101
 1029SOL     OW14722   1.785   2.335  15.120 -0.3474  0.1290  0.6218
 1029SOL    HW114723   1.880   2.347  15.127 -0.4027  0.2995  1.1179
 1029SOL    HW214724   1.786   2.308  15.029  2.3831  1.6975  0.1812
 1030SOL     OW14725   0.657   0.973   7.771  0.3076 -0.0462 -0.4195
 1030SOL    HW114726   0.564   0.952   7.763 -0.2180  2.2501 -0.2187
 1030SOL    HW214727   0.654   1.056   7.725  0.4243  0.3790  0.3437
 1031SOL     OW14728   3.398   4.354  17.706 -0.4684 -0.2487 -0.2981
 1031SOL    HW114729   3.348   4.280  17.670 -0.4107 -0.4163 -0.0313
 1031SOL    HW214730   3.483   4.314  17.688  0.1065  1.1806 -0.7824
 1032SOL     OW14731   3.847   0.986  10.762 -0.0537 -0.4897  0.0573
 1032SOL    HW114732   3.854   0.904  10.810 -0.6077  0.7285  2.2028
 1032SOL    HW214733   3.863   1.053  10.828 -0.9281 -0.1994 -0.0172
 1033SOL     OW14734   0.734   3.540  15.289  0.4088  0.1009  0.4024
 1033SOL    HW114735   0.775   3.538  15.202 -1.5695 -0.1055 -0.5352
 1033SOL    HW214736   0.813   3.531  15.342  0.7763  0.8910 -0.0211
 1034SOL     OW14737   0.971   1.335  16.791 -0.2326  0.2539 -0.4918
 1034SOL    HW114738   0.987   1.251  16.833 -0.2220  0.3579 -0.2849
 1034SOL    HW214739   0.951   1.401  16.858  0.8666 -0.4573  0.5283
 1035SOL     OW14740   4.283   1.106   9.632  0.0315 -0.4760  0.0880
 1035SOL    HW114741   4.323   1.169   9.691 -2.3229  0.0335  1.1266
 1035SOL    HW214742   4.354   1.042   9.633 -0.5974 -1.1845 -0.4323
 1036SOL     OW14743   4.447   3.846   8.015 -0.0799 -0.2104 -0.2757
 1036SOL    HW114744   4.509   3.817   8.082  0.0852 -0.9074 -0.7279
 1036SOL    HW214745   4.366   3.859   8.065  0.8086  0.7514  0.8854
 1037SOL     OW14746   4.163   3.037   6.772  0.1065  0.1675  0.2559
 1037SOL    HW114747   4.211   3.046   6.854  0.9646 -0.8089 -0.1278
 1037SOL    HW214748   4.230   2.989   6.724  0.2882  1.9546 -1.2786
 1038SOL     OW14749   0.248   0.091   7.238  0.1992 -0.5020 -0.1970
 1038SOL    HW114750   0.276   0.148   7.309 -1.5008  0.6982 -0.4683
 1038SOL    HW214751   0.282   0.142   7.165  0.0570 -0.0535  0.0491
 1039SOL     OW14752   3.944   3.366   2.436  0.0627  0.2735  0.0457
 1039SOL    HW114753   4.009   3.435   2.450  0.2827  0.1204 -0.2313
 1039SOL    HW214754   3.999   3.290   2.454  2.1356  1.8518  0.3327
 1040SOL     OW14755   4.671   2.177  13.831  0.3457  0.2809 -0.3044
 1040SOL    HW114756   4.638   2.132  13.753 -0.5993 -1.4187  1.0532
 1040SOL    HW214757   4.582   2.197  13.862  0.0363 -0.5100 -0.6574
 1041SOL     OW14758   4.305   4.279   4.415 -0.1299  0.5574  0.3068
 1041SOL    HW114759   4.221   4.246   4.446 -0.1395 -0.8460 -1.2298
 1041SOL    HW214760   4.317   4.224   4.338  0.3096 -0.2806  0.9821
 1042SOL     OW14761   2.388   1.733   7.822 -0.0393  0.1196 -0.3486
 1042SOL    HW114762   2.361   1.825   7.817  1.4167  0.4821 -1.4453
 1042SOL    HW214763   2.302   1.691   7.819  0.0584 -0.1213  0.1641
 1043SOL     OW14764   2.729   1.472   5.413 -0.1836  0.1304  0.0130
 1043SOL    HW114765   2.773   1.521   5.343 -1.9596 -0.8856 -1.8454
 1043SOL    HW214766   2.767   1.497   5.497 -0.7298  1.1897 -0.0470
 1044SOL     OW14767   3.588   4.193   7.378  0.5332 -0.2717  0.2167
 1044SOL    HW114768   3.645   4.252   7.329 -2.0405 -0.3786 -2.8897
 1044SOL    HW214769   3.597   4.107   7.337  1.1741  1.1230 -2.5695
 1045SOL     OW14770   1.337   3.422  11.808  0.1941 -0.0838 -0.3702
 1045SOL    HW114771   1.365   3.479  11.880  4.6664 -1.0354 -1.3936
 1045SOL    HW214772   1.339   3.488  11.739 -0.9265  1.3607  0.9687
 1046SOL     OW14773   4.079   1.814   8.764  0.3639 -0.2213 -0.2380
 1046SOL    HW114774   4.137   1.788   8.693  0.4518 -1.0862  0.1509
 1046SOL    HW214775   4.148   1.839   8.825 -0.2868 -1.7918  1.1771
 1047SOL     OW14776   3.983   1.946  17.504 -0.2483  0.1373  1.0807
 1047SOL    HW114777   3.994   2.041  17.502  1.3638 -0.1010 -0.9554
 1047SOL    HW214778   3.910   1.933  17.566  0.3979 -2.6575  1.2495
 1048SOL     OW14779   1.833   0.852   5.469 -0.0041  0.4196 -0.2335
 1048SOL    HW114780   1.815   0.870   5.377 -2.5471  1.1921  0.4130
 1048SOL    HW214781   1.920   0.892   5.466  0.5781 -0.7607  1.0461
 1049SOL     OW14782   1.420   1.650   9.609  0.2348 -0.2618 -0.5989
 1049SOL    HW114783   1.412   1.614   9.697  0.1008  2.1757  0.3848
 1049SOL    HW214784   1.328   1.658   9.584  0.0115 -1.9040 -0.2818
 1050SOL     OW14785   2.685   1.596   0.569  0.1294  0.1408  0.0523
 1050SOL    HW114786   2.706   1.582   0.477 -2.2967 -0.2868 -0.4194
 1050SOL    HW214787   2.614   1.660   0.564 -1.3828 -1.5484  0.3450
 1051SOL     OW14788   4.604   2.995   6.559 -0.0635  0.3157 -0.2020
 1051SOL    HW114789   4.633   3.017   6.648 -0.4226 -2.1880  0.5141
 1051SOL    HW214790   4.517   2.965   6.587 -0.0950  0.7486  0.1722
 1052SOL     OW14791   1.176   2.340  12.978  0.2313  0.1798 -1.0896
 1052SOL    HW114792   1.227   2.403  13.030 -1.4568 -1.0508  2.0521
 1052SOL    HW214793   1.087   2.376  12.980  0.8717  1.6475  1.9564
 1053SOL     OW14794   4.554   2.018   3.512 -0.3547  0.1797  0.3150
 1053SOL    HW114795   4.607   1.962   3.455  0.2445  2.3501 -1.2427
 1053SOL    HW214796   4.618   2.086   3.537 -0.6388 -0.1271  1.9069
 1054SOL     OW14797   4.444   0.786   6.277  0.4769 -0.6286  0.3231
 1054SOL    HW114798   4.469   0.828   6.360  1.0742  1.4000 -0.8940
 1054SOL    HW214799   4.349   0.791   6.274  0.5871  2.1191  1.5480
 1055SOL     OW14800   0.591   3.386   3.736  0.5978  0.2968  0.0400
 1055SOL    HW114801   0.672   3.364   3.691 -0.1609 -2.0080 -0.2120
 1055SOL    HW214802   0.542   3.305   3.718  1.3615  0.1514 -1.3732
 1056SOL     OW14803   3.072   4.200   0.004 -0.0612 -0.4230  0.0956
 1056SOL    HW114804   3.162   4.194  17.716 -0.7522  2.8169 -2.4464
 1056SOL    HW214805   3.092   4.221   0.095 -0.8546 -1.2453  0.4642
 1057SOL     OW14806   3.219   3.659   4.946  0.0433  0.6072 -0.2595
 1057SOL    HW114807   3.131   3.694   4.940  1.7094  4.6538 -0.8141
 1057SOL    HW214808   3.268   3.731   4.986  0.8257 -0.2087  0.2708
 1058SOL     OW14809   2.725   3.244   5.659 -0.0438 -0.7064  0.0995
 1058SOL    HW114810   2.719   3.206   5.571  0.0274 -0.1470 -0.1499
 1058SOL    HW214811   2.816   3.232   5.685  0.0854 -2.0379 -0.9561
 1059SOL     OW14812   0.426   1.428   3.983 -0.1242  0.1268  0.2547
 1059SOL    HW114813   0.475   1.364   3.932  0.9117  1.6132 -0.6341
 1059SOL    HW214814   0.451   1.510   3.940 -0.1796 -0.5760 -1.1252
 1060SOL     OW14815   1.676   3.298   1.840  0.3487  0.5766 -0.8974
 1060SOL    HW114816   1.581   3.285   1.842  0.3823  0.3267 -0.8998
 1060SOL    HW214817   1.716   3.284   1.925 -0.4262  0.0057 -0.6258
 1061SOL     OW14818   2.341   4.376   0.376 -0.2333 -0.1920 -0.3845
 1061SOL    HW114819   2.332   4.401   0.284 -0.2118 -0.5592 -0.4852
 1061SOL    HW214820   2.252   4.397   0.406  0.1448  1.9689 -0.7703
 1062SOL     OW14821   4.044   1.964  14.645  0.4063 -0.0107 -0.6160
 1062SOL    HW114822   3.950   1.954  14.655  0.4525 -0.8304 -1.0492
 1062SOL    HW214823   4.065   1.964  14.552 -1.8525 -1.5778 -1.1270
 1063SOL     OW14824   3.835   0.509  13.655 -0.0380 -0.4010 -0.2493
 1063SOL    HW114825   3.791   0.432  13.617 -0.4943  0.6036 -1.7455
 1063SOL    HW214826   3.804   0.576  13.595 -0.0561 -0.8224 -0.7182
 1064SOL     OW14827   1.268   3.001   3.209 -0.1022 -0.6008  0.1207
 1064SOL    HW114828   1.190   2.958   3.245 -0.8003 -0.3242 -1.0784
 1064SOL    HW214829   1.217   3.074   3.175  1.7523  0.7376  0.2601
 1065SOL     OW14830   3.348   1.625   1.872 -0.2739 -0.0241  0.8021
 1065SOL    HW114831   3.288   1.555   1.845  1.1023 -0.6269 -0.6987
 1065SOL    HW214832   3.395   1.641   1.790 -0.8337 -0.2276  0.4337
 1066SOL     OW14833   1.808   1.894   1.627  0.1870  0.4917 -0.2405
 1066SOL    HW114834   1.787   1.818   1.573  0.8285  0.1824 -0.0514
 1066SOL    HW214835   1.807   1.850   1.712  1.0417  0.5099 -0.2190
 1067SOL     OW14836   2.557   2.034   2.848 -0.1396  0.5003  0.6621
 1067SOL    HW114837   2.651   2.014   2.856  0.2470  2.1620  0.1977
 1067SOL    HW214838   2.530   1.992   2.929  1.1622  0.4260  1.0583
 1068SOL     OW14839   4.349   4.294   0.039  0.5010 -0.7917 -0.2295
 1068SOL    HW114840   4.418   4.312  17.720  0.5197  0.4533  0.1384
 1068SOL    HW214841   4.281   4.261  17.725 -0.4501 -1.6030  1.3450
 1069SOL     OW14842   3.960   2.727  11.975 -0.1816  0.0174  0.1878
 1069SOL    HW114843   3.958   2.732  11.880 -2.5930  0.6143  0.2638
 1069SOL    HW214844   4.021   2.799  11.989 -0.6793  0.9682 -2.6589
 1070SOL     OW14845   4.322   4.253   8.402 -0.2432  0.0040  0.5098
 1070SOL    HW114846   4.340   4.219   8.489 -0.1230 -1.4993 -0.1018
 1070SOL    HW214847   4.399   4.301   8.374 -0.0889 -0.6181 -0.1205
 1071SOL     OW14848   3.114   3.204  10.641 -0.3705  0.5932 -0.2366
 1071SOL    HW114849   3.168   3.218  10.563 -0.8513  3.4389 -0.0595
 1071SOL    HW214850   3.071   3.289  10.649  2.1641  2.0933 -2.3080
 1072SOL     OW14851   3.313   1.426   6.577  0.0484 -0.5131 -0.6904
 1072SOL    HW114852   3.254   1.351   6.567  0.6214 -1.0831  0.2158
 1072SOL    HW214853   3.281   1.467   6.658 -0.2550  0.5834 -1.3618
 1073SOL     OW14854   4.398   1.439   9.023  0.2271 -0.2395  0.3953
 1073SOL    HW114855   4.420   1.453   8.930  1.4990  2.0528  1.0390
 1073SOL    HW214856   4.314   1.396   9.011 -0.0401  0.5871 -0.7382
 1074SOL     OW14857   0.093   2.623  10.061 -0.1957 -0.0801  0.5105
 1074SOL    HW114858   0.000   2.605  10.049  0.0497 -0.0158 -1.4932
 1074SOL    HW214859   0.122   2.540  10.098 -1.8697 -1.2332 -0.7813
 1075SOL     OW14860   1.927   3.133   8.040  0.5987 -0.6627  0.1062
 1075SOL    HW114861   1.865   3.065   8.013 -0.2160 -0.4694  1.5172
 1075SOL    HW214862   1.915   3.140   8.134  0.7578 -2.0200  0.2303
 1076SOL     OW14863   1.127   3.871   6.532 -0.2252 -0.2478  0.1909
 1076SOL    HW114864   1.139   3.937   6.601  1.1445 -1.6989  1.3469
 1076SOL    HW214865   1.071   3.810   6.580 -1.1569 -0.7216 -1.5072
 1077SOL     OW14866   3.025   1.869   3.364  0.2740 -0.3004 -0.7120
 1077SOL    HW114867   2.964   1.817   3.416 -1.5609  2.2703 -0.2889
 1077SOL    HW214868   3.044   1.944   3.421 -0.4808 -1.0303  0.5226
 1078SOL     OW14869   0.328   3.018  12.640 -0.4163 -0.3876 -0.0584
 1078SOL    HW114870   0.293   3.097  12.680 -0.4736 -0.4563  0.0251
 1078SOL    HW214871   0.244   2.972  12.636 -0.3270 -0.5897  0.4456
 1079SOL     OW14872   4.098   4.434   9.264 -0.2235  1.0210  0.2604
 1079SOL    HW114873   4.065   4.386   9.188  0.5099  2.3710 -0.9247
 1079SOL    HW214874   4.017   4.444   9.313 -0.6084 -3.0099  0.4001
 1080SOL     OW14875   0.869   4.692   7.250  0.1016  0.1905 -0.0393
 1080SOL    HW114876   0.961   4.675   7.272  0.0430 -0.6033 -0.4334
 1080SOL    HW214877   0.834   4.603   7.255 -0.0264  0.2336 -0.1824
 1081SOL     OW14878   4.568   1.824   6.435 -0.1470 -1.2256 -0.9635
 1081SOL    HW114879   4.562   1.919   6.443  0.7332 -1.3302  1.1362
 1081SOL    HW214880   4.656   1.814   6.471 -0.8927 -1.8285  0.7384
 1082SOL     OW14881   3.089   3.575   3.082 -0.6264 -0.3078 -0.4239
 1082SOL    HW114882   3.067   3.641   3.148  0.7362  0.5040 -0.7774
 1082SOL    HW214883   3.147   3.520   3.134  0.3745 -0.2699 -1.5003
 1083SOL     OW14884   3.247   4.371  11.989  0.3188  0.6248 -0.2019
 1083SOL    HW114885   3.238   4.387  11.895  0.6300  0.7476 -0.2107
 1083SOL    HW214886   3.284   4.452  12.023  0.8122  0.2534  0.1417
 1084SOL     OW14887   0.746   1.770  14.362  0.0765  0.3779 -0.3741
 1084SOL    HW114888   0.735   1.702  14.296 -1.7087 -0.1658  0.4819
 1084SOL    HW214889   0.838   1.750  14.379 -0.8526 -1.2201  2.8942
 1085SOL     OW14890   1.065   3.073   2.663 -0.4827  0.3149  0.3748
 1085SOL    HW114891   1.138   3.135   2.674  0.7222 -1.4614  2.1867
 1085SOL    HW214892   0.997   3.134   2.691 -1.7748 -0.7418 -0.4851
 1086SOL     OW14893   2.303   1.485   1.323  0.4720  0.0918  0.2716
 1086SOL    HW114894   2.259   1.500   1.240  0.4772 -0.8314  0.1076
 1086SOL    HW214895   2.226   1.483   1.380 -0.1986  0.7756 -0.6110
 1087SOL     OW14896   1.770   2.876  11.573 -0.0337 -0.1558  0.5863
 1087SOL    HW114897   1.796   2.901  11.484  1.8705  0.0968  1.2121
 1087SOL    HW214898   1.681   2.844  11.559 -0.1246 -0.3261  1.5343
 1088SOL     OW14899   2.466   3.345  10.790  0.2984  0.0791 -0.3975
 1088SOL    HW114900   2.501   3.261  10.758  2.0215  0.5197  0.2883
 1088SOL    HW214901   2.534   3.395  10.745 -1.5932  1.0252 -2.1615
 1089SOL     OW14902   4.024   2.032   3.265 -0.1402  0.2215 -0.5244
 1089SOL    HW114903   4.105   2.020   3.314 -0.5422 -3.1987 -0.6580
 1089SOL    HW214904   4.061   2.061   3.182 -0.2964 -0.9483 -1.0011
 1090SOL     OW14905   4.401   1.292   6.257 -0.2851 -0.3604  0.2823
 1090SOL    HW114906   4.369   1.382   6.262  0.1561 -0.2279  0.6864
 1090SOL    HW214907   4.365   1.247   6.334  2.2006 -1.4380  0.8010
 1091SOL     OW14908   2.535   2.472   6.309 -0.2089  0.2694 -0.1068
 1091SOL    HW114909   2.558   2.382   6.329 -2.0487 -0.7855 -2.6348
 1091SOL    HW214910   2.559   2.473   6.216 -1.8427  1.3941 -0.5094
 1092SOL     OW14911   2.061   1.609   8.093  0.7158 -0.3577 -0.6229
 1092SOL    HW114912   1.968   1.631   8.082 -0.0739 -3.0292  0.6512
 1092SOL    HW214913   2.103   1.613   8.007 -0.4140 -0.9271 -1.1947
 1093SOL     OW14914   3.206   3.572   6.777 -0.1929  0.6235 -0.8206
 1093SOL    HW114915   3.137   3.524   6.822  0.7533 -0.0273 -0.0374
 1093SOL    HW214916   3.237   3.502   6.719 -1.3821 -0.7482  0.1944
 1094SOL     OW14917   2.212   0.751  11.261 -0.1842  0.3922 -0.2747
 1094SOL    HW114918   2.303   0.774  11.277 -0.2123 -0.0785  0.5944
 1094SOL    HW214919   2.185   0.754  11.353  1.4507 -1.3972  0.2685
 1095SOL     OW14920   3.215   2.890   5.465 -0.8805  0.1756 -0.8050
 1095SOL    HW114921   3.224   2.893   5.370 -1.1135  0.0999 -0.8295
 1095SOL    HW214922   3.243   2.974   5.503  0.4489  0.1561 -1.7332
 1096SOL     OW14923   0.148   2.350   3.047 -0.3376  0.1729 -0.2671
 1096SOL    HW114924   0.103   2.315   2.970  0.2756 -1.0487 -0.0732
 1096SOL    HW214925   0.090   2.426   3.053 -0.3183  0.2977 -1.6063
 1097SOL     OW14926   4.029   1.983   8.172 -0.5117 -0.2280  0.5374
 1097SOL    HW114927   4.091   1.990   8.245  0.2802 -0.6174 -0.0903
 1097SOL    HW214928   3.991   2.069   8.161  1.3215  0.3584 -1.2272
 1098SOL     OW14929   0.949   1.701   8.148 -0.5992 -0.4221  0.4141
 1098SOL    HW114930   0.926   1.610   8.165 -1.5821 -0.4225 -0.9159
 1098SOL    HW214931   0.858   1.729   8.137 -0.6653 -0.7815  0.0769
 1099SOL     OW14932   4.321   4.051  16.832 -0.1215  0.1827  0.0355
 1099SOL    HW114933   4.251   4.115  16.822  0.5114  0.8438 -0.1518
 1099SOL    HW214934   4.309   4.008  16.917 -0.8385  1.3481  0.5241
 1100SOL     OW14935   2.589   2.599   3.375 -0.1807  0.8794  0.1737
 1100SOL    HW114936   2.533   2.600   3.453 -1.1334 -1.5316 -0.4926
 1100SOL    HW214937   2.526   2.614   3.305  0.3830  1.0794 -0.2952
 1101SOL     OW14938   3.820   0.624   8.447 -0.1938  0.0280 -0.3291
 1101SOL    HW114939   3.901   0.668   8.473 -0.9860  0.3740  1.5370
 1101SOL    HW214940   3.761   0.659   8.514  2.2562 -0.2811  1.9860
 1102SOL     OW14941   3.627   1.096   9.078 -0.1141  0.2048  0.2690
 1102SOL    HW114942   3.550   1.153   9.080 -0.8345 -0.7879  0.9850
 1102SOL    HW214943   3.684   1.139   9.014 -0.4464 -0.3234 -0.3885
 1103SOL     OW14944   1.006   2.870   3.255 -0.5073  0.2369  0.0895
 1103SOL    HW114945   0.915   2.879   3.226 -1.0822 -1.3717  1.3833
 1103SOL    HW214946   1.000   2.789   3.306 -2.3891  0.0688 -0.4042
 1104SOL     OW14947   3.735   4.655   0.680 -0.6341 -0.0745 -0.0989
 1104SOL    HW114948   3.754   4.573   0.633 -1.8547 -0.4928  0.1491
 1104SOL    HW214949   3.677   4.700   0.619 -3.2196 -1.0113  1.7024
 1105SOL     OW14950   1.705   2.452   4.652 -0.7127  0.0430 -0.0354
 1105SOL    HW114951   1.719   2.543   4.625  0.5826  0.1103  0.8867
 1105SOL    HW214952   1.609   2.449   4.651 -0.6102 -3.0276  1.2390
 1106SOL     OW14953   1.547   0.215  12.082  0.7997  0.3706  0.6061
 1106SOL    HW114954   1.503   0.131  12.070 -0.9622  1.1936  1.4907
 1106SOL    HW214955   1.554   0.245  11.991  0.8793  0.2979  0.5871
 1107SOL     OW14956   4.218   0.582  13.568  0.4513  0.1428 -0.0652
 1107SOL    HW114957   4.210   0.659  13.512  2.6661  1.0072  0.8093
 1107SOL    HW214958   4.253   0.624  13.647  0.0858  0.7654 -0.2371
 1108SOL     OW14959   0.653   2.911  10.755 -0.4251 -0.0954  0.3310
 1108SOL    HW114960   0.575   2.941  10.802  0.0759 -0.7421  1.5685
 1108SOL    HW214961   0.713   2.984  10.767 -1.0524  0.3586  0.7148
 1109SOL     OW14962   0.830   3.305  13.098  1.1148 -0.2827  0.1097
 1109SOL    HW114963   0.771   3.365  13.143  0.0142 -1.0705 -0.2678
 1109SOL    HW214964   0.767   3.270  13.034  2.2215 -1.1385 -0.5078
 1110SOL     OW14965   2.513   4.701   0.608 -0.7049  0.2485 -0.0194
 1110SOL    HW114966   2.480   4.668   0.692 -1.3458  1.7899  0.3436
 1110SOL    HW214967   2.550   0.047   0.639 -2.2531  0.1625  2.0542
 1111SOL     OW14968   4.092   3.036   2.012 -0.5590 -0.2501 -0.0590
 1111SOL    HW114969   4.108   2.969   1.946 -0.6721  0.4178 -0.7623
 1111SOL    HW214970   4.172   3.084   1.989 -1.1651  0.7574 -0.0852
 1112SOL     OW14971   3.514   0.366   7.444  0.2438  0.0165  0.8837
 1112SOL    HW114972   3.463   0.438   7.409 -1.8807 -1.0751  1.7294
 1112SOL    HW214973   3.442   0.320   7.488  0.7833  0.5106  2.3028
 1113SOL     OW14974   3.598   4.701   2.458  0.0853  0.6556 -0.2197
 1113SOL    HW114975   3.637   4.621   2.424 -1.6994 -0.6314  0.7402
 1113SOL    HW214976   3.623   4.686   2.550 -0.6642  1.1948  0.0709
 1114SOL     OW14977   0.911   2.102   6.207 -0.4146  0.0924  0.6449
 1114SOL    HW114978   0.841   2.040   6.226  1.4058 -2.9133 -2.6117
 1114SOL    HW214979   0.938   2.139   6.292  1.0734  1.4451 -0.4117
 1115SOL     OW14980   2.384   0.539  16.614 -0.0869 -0.4795  0.1941
 1115SOL    HW114981   2.439   0.607  16.576 -1.0217  0.3089  0.2604
 1115SOL    HW214982   2.317   0.592  16.656 -0.0663 -0.8765  0.7324
 1116SOL     OW14983   1.249   0.813   2.156  0.4931 -0.2445 -0.2261
 1116SOL    HW114984   1.274   0.723   2.177 -1.1255 -0.4133  0.9966
 1116SOL    HW214985   1.157   0.797   2.135 -0.0066  2.0688  0.2635
 1117SOL     OW14986   0.085   0.468   4.226  0.3870  0.1261  0.0315
 1117SOL    HW114987   0.180   0.473   4.240  0.5577 -0.5456 -0.8783
 1117SOL    HW214988   0.072   0.445   4.134 -0.3641 -1.0895  0.4332
 1118SOL     OW14989   4.645   0.210   7.751 -0.5097 -0.9870  0.1632
 1118SOL    HW114990   4.686   0.147   7.810 -0.8248 -0.4527  0.9539
 1118SOL    HW214991   4.556   0.174   7.750  0.2960 -3.1001  3.3236
 1119SOL     OW14992   3.107   2.208  13.708  0.3805  0.0000 -0.6360
 1119SOL    HW114993   3.163   2.242  13.777  1.2542 -1.4159 -0.6387
 1119SOL    HW214994   3.156   2.129  13.682 -0.8905 -0.9534 -0.1429
 1120SOL     OW14995   1.399   2.985   5.963  0.2266 -0.0424  0.2091
 1120SOL    HW114996   1.368   3.025   6.044  0.2310 -2.5915  1.4672
 1120SOL    HW214997   1.312   2.991   5.925  0.1531  1.3299  0.5955
 1121SOL     OW14998   1.313   2.118   0.190  0.2425 -0.4795 -0.0855
 1121SOL    HW114999   1.340   2.105   0.099 -2.1542 -2.0664 -0.5883
 1121SOL    HW215000   1.341   2.204   0.219 -0.6394  0.2935 -1.5210
 1122SOL     OW15001   0.929   3.451   3.081 -0.7203 -0.2296 -0.4340
 1122SOL    HW115002   0.898   3.508   3.151 -1.1257 -1.4019  0.3558
 1122SOL    HW215003   0.906   3.506   3.007 -2.0839  0.0769  0.2071
 1123SOL     OW15004   2.343   4.447   5.416  0.0142 -0.8446 -0.3189
 1123SOL    HW115005   2.268   4.468   5.473  0.6218  0.0017  0.1696
 1123SOL    HW215006   2.379   4.393   5.487  0.2142 -1.4394 -0.8746
 1124SOL     OW15007   4.695   2.786   6.393 -0.0969  0.2881  0.2033
 1124SOL    HW115008   4.645   2.719   6.440  3.0395 -1.3566  1.2361
 1124SOL    HW215009   4.669   2.870   6.429  1.7982  1.1725 -0.4950
 1125SOL     OW15010   3.864   2.700   6.040 -0.5556  0.4466 -0.0491
 1125SOL    HW115011   3.856   2.643   5.964 -2.0820  1.8587 -0.9572
 1125SOL    HW215012   3.957   2.711   6.058 -1.0700  0.7149  2.4257
 1126SOL     OW15013   3.975   4.465  11.530  0.0967  0.5139 -0.1357
 1126SOL    HW115014   4.010   4.376  11.523 -1.0467  0.0608 -0.2207
 1126SOL    HW215015   4.050   4.504  11.573  0.0873 -1.5790  1.7709
 1127SOL     OW15016   1.050   0.436   3.616  0.0234 -0.0047 -0.1895
 1127SOL    HW115017   1.080   0.525   3.634 -0.3000  0.3326 -1.2854
 1127SOL    HW215018   1.132   0.388   3.626 -0.6081 -0.6569  1.8979
 1128SOL     OW15019   4.129   3.572   2.521 -0.0376 -0.4544  0.6987
 1128SOL    HW115020   4.210   3.609   2.488 -1.6171  0.2265 -2.4076
 1128SOL    HW215021   4.139   3.606   2.610 -0.0085 -0.8068  0.8295
 1129SOL     OW15022   3.385   0.029  16.675  0.0777  0.3611 -0.0536
 1129SOL    HW115023   3.379   0.108  16.729  0.9245  0.8973 -0.7445
 1129SOL    HW215024   3.412   4.704  16.743 -0.3845 -1.4570 -1.5173
 1130SOL     OW15025   4.181   4.481   7.062  0.2418 -0.4248 -0.3956
 1130SOL    HW115026   4.131   4.439   6.992 -0.0011  1.6117 -1.4343
 1130SOL    HW215027   4.123   4.545   7.102  0.7759 -0.3134  0.1933
 1131SOL     OW15028   0.222   2.570   2.695  0.4457  0.2104 -0.3145
 1131SOL    HW115029   0.145   2.515   2.679  1.3564 -0.2245 -3.1554
 1131SOL    HW215030   0.242   2.600   2.606 -1.8554  2.5817 -0.0457
 1132SOL     OW15031   1.753   4.222   8.567  0.1326 -0.3769  0.2700
 1132SOL    HW115032   1.803   4.298   8.540  1.1964 -1.0718  0.2991
 1132SOL    HW215033   1.728   4.250   8.655  0.8364  0.6291  0.1437
 1133SOL     OW15034   2.324   4.224   9.067  0.0093  0.1273  0.0302
 1133SOL    HW115035   2.302   4.140   9.026  1.6535  0.0637 -0.6967
 1133SOL    HW215036   2.269   4.223   9.146 -0.6624  1.7327 -0.4171
 1134SOL     OW15037   1.679   2.608   0.178  0.1654 -0.2373 -0.5346
 1134SOL    HW115038   1.690   2.601   0.084  0.2630 -0.7333 -0.4921
 1134SOL    HW215039   1.743   2.678   0.189  0.0400 -0.2462  0.3146
 1135SOL     OW15040   4.448   0.891   2.861 -0.2424 -0.9766  0.0085
 1135SOL    HW115041   4.395   0.886   2.782  0.5452 -0.5048 -0.5553
 1135SOL    HW215042   4.384   0.920   2.926  0.6756 -2.6303  1.6292
 1136SOL     OW15043   1.656   4.428   3.148 -0.1416 -0.3045  0.0625
 1136SOL    HW115044   1.648   4.489   3.075  1.9495 -0.8913 -0.6794
 1136SOL    HW215045   1.581   4.442   3.205 -0.3915 -0.5754 -0.2024
 1137SOL     OW15046   1.084   0.714  10.766  0.4628 -0.1107  0.3017
 1137SOL    HW115047   1.134   0.789  10.734 -1.1327  0.5383 -0.6839
 1137SOL    HW215048   1.154   0.649  10.775 -2.2183 -3.1057 -0.2549
 1138SOL     OW15049   4.202   0.621   3.595  0.3246 -0.7299 -0.2329
 1138SOL    HW115050   4.292   0.587   3.587  1.2117  1.6761 -0.6940
 1138SOL    HW215051   4.171   0.616   3.504  1.0125  2.4896 -0.6385
 1139SOL     OW15052   4.148   2.879  13.805  0.2165  0.2736 -0.0087
 1139SOL    HW115053   4.055   2.893  13.785 -0.4678 -2.7948  1.1599
 1139SOL    HW215054   4.190   2.922  13.730  1.1782 -2.6362 -1.1116
 1140SOL     OW15055   1.380   4.633   6.768 -0.3903  0.1411  0.4077
 1140SOL    HW115056   1.344   4.618   6.856 -2.2774 -0.3175 -0.4428
 1140SOL    HW215057   1.343   4.716   6.739 -0.6155 -0.3516 -0.7110
 1141SOL     OW15058   1.006   1.833   4.840  0.1475 -0.1336  0.2462
 1141SOL    HW115059   1.039   1.911   4.794  1.9611 -0.0003  1.8253
 1141SOL    HW215060   1.077   1.837   4.903  1.5055  1.1045 -1.3470
 1142SOL     OW15061   2.342   3.543   8.001 -0.0321 -0.5703 -0.2563
 1142SOL    HW115062   2.404   3.477   7.969  0.1819 -0.2054 -0.5991
 1142SOL    HW215063   2.285   3.489   8.056  0.0065  0.1704  0.5170
 1143SOL     OW15064   1.492   4.477  15.292  0.5611 -0.0956 -0.2914
 1143SOL    HW115065   1.536   4.393  15.282  0.1636 -0.5119  1.3588
 1143SOL    HW215066   1.523   4.512  15.375 -1.1180  2.0469 -0.5812
 1144SOL     OW15067   3.670   2.512   4.701  0.6742 -0.8234  0.3161
 1144SOL    HW115068   3.735   2.575   4.734  0.2510 -0.3865  0.3144
 1144SOL    HW215069   3.593   2.553   4.740 -0.0191 -0.8082 -1.0867
 1145SOL     OW15070   1.552   1.723   8.989  0.5561  0.0319  0.2323
 1145SOL    HW115071   1.592   1.699   9.073 -1.6730 -0.6763  1.0901
 1145SOL    HW215072   1.626   1.772   8.953 -0.7870  1.9279  0.0727
 1146SOL     OW15073   2.773   4.328  17.689 -0.2523 -0.3189  0.0759
 1146SOL    HW115074   2.829   4.280   0.006  0.4899 -0.7445 -0.9257
 1146SOL    HW215075   2.825   4.404  17.663  1.2695 -0.3628  2.9099
 1147SOL     OW15076   3.298   3.039   2.511  0.5663  0.1801  0.2594
 1147SOL    HW115077   3.375   3.095   2.525 -0.1223  0.6108  2.4028
 1147SOL    HW215078   3.344   2.959   2.485  1.8540  0.4223  1.7960
 1148SOL     OW15079   3.712   1.780   6.997 -0.1801 -0.3951 -0.0825
 1148SOL    HW115080   3.661   1.706   7.030 -1.6935  1.6910  2.3204
 1148SOL    HW215081   3.676   1.788   6.909  3.0017 -0.1931 -1.3582
 1149SOL     OW15082   0.845   3.338  15.497 -0.1049  0.4848  0.5190
 1149SOL    HW115083   0.799   3.289  15.428 -0.4744  0.5796  0.6976
 1149SOL    HW215084   0.880   3.408  15.442  1.3270 -0.6210  0.0075
 1150SOL     OW15085   4.434   3.742   0.032  0.6933  0.4267  0.4926
 1150SOL    HW115086   4.449   3.651   0.057 -1.8725 -0.2059 -0.2505
 1150SOL    HW215087   4.473   3.743  17.689 -0.3275  0.5805  0.0402
 1151SOL     OW15088   2.010   2.817   0.004  0.2847  0.0498  0.6360
 1151SOL    HW115089   2.023   2.799   0.097 -1.3639  0.9559  1.0425
 1151SOL    HW215090   2.086   2.769  17.715 -0.8680 -0.3706 -1.3967
 1152SOL     OW15091   3.335   3.252   4.217 -0.2102 -0.8304 -0.1284
 1152SOL    HW115092   3.240   3.247   4.217 -0.1461 -2.0333 -0.4881
 1152SOL    HW215093   3.363   3.168   4.253  0.7543 -1.3623 -2.1079
 1153SOL     OW15094   1.592   2.561   7.257  0.4268 -0.3034 -0.3382
 1153SOL    HW115095   1.687   2.552   7.251  0.6192  0.8325  1.1156
 1153SOL    HW215096   1.571   2.480   7.210  0.9437 -0.9304  0.5185
 1154SOL     OW15097   2.017   1.462  15.616  0.3258 -0.2879 -0.1944
 1154SOL    HW115098   1.934   1.424  15.646  0.5038 -1.3064 -1.0034
 1154SOL    HW215099   1.987   1.537  15.567 -2.6437 -1.2812  0.1287
 1155SOL     OW15100   1.983   4.221   2.500 -0.1055  0.3702 -0.7681
 1155SOL    HW115101   2.071   4.189   2.519  0.9905  3.7712 -0.1103
 1155SOL    HW215102   1.946   4.146   2.453  1.1315 -0.5593 -0.2415
 1156SOL     OW15103   3.935   0.777  13.700 -0.1341 -0.0418 -0.7480
 1156SOL    HW115104   3.990   0.789  13.777  0.7226  0.9463 -1.5292
 1156SOL    HW215105   3.926   0.682  13.702  0.4673 -0.0468  1.2095
 1157SOL     OW15106   1.318   1.971  10.395 -0.2121 -0.6196 -0.1681
 1157SOL    HW115107   1.376   1.896  10.403  0.8294  0.2127  0.0509
 1157SOL    HW215108   1.237   1.930  10.427 -1.3789  1.6399 -0.2270
 1158SOL     OW15109   1.598   2.454   0.814 -0.1001 -0.0409  0.3913
 1158SOL    HW115110   1.560   2.444   0.901  2.0804 -1.5070  1.1786
 1158SOL    HW215111   1.672   2.394   0.823 -0.1060  0.2772  2.6402
 1159SOL     OW15112   2.800   0.460   5.482  0.1630 -0.2093  0.2573
 1159SOL    HW115113   2.789   0.438   5.389 -0.2763 -1.7638  0.6771
 1159SOL    HW215114   2.768   0.390   5.539  0.2927 -2.0844 -1.9247
 1160SOL     OW15115   2.857   0.969   7.465  0.3535  0.1062  0.2500
 1160SOL    HW115116   2.875   1.060   7.486  1.1466 -0.5813  2.5511
 1160SOL    HW215117   2.851   0.939   7.556 -2.7932 -0.8661 -0.2912
 1161SOL     OW15118   1.491   3.861   7.669  0.3520 -0.9081  0.2010
 1161SOL    HW115119   1.493   3.957   7.662  1.6787 -0.9418  0.1610
 1161SOL    HW215120   1.425   3.833   7.732 -0.6970  0.7742 -0.1332
 1162SOL     OW15121   0.034   0.207   8.572 -0.3725  0.2781 -0.3195
 1162SOL    HW115122   4.687   0.216   8.617  0.1062 -0.6589  0.7377
 1162SOL    HW215123   0.070   0.125   8.607 -1.6549 -0.7709 -1.4948
 1163SOL     OW15124   1.603   3.235   7.968  0.2918  0.4692 -0.0165
 1163SOL    HW115125   1.543   3.233   7.894  0.2487  1.9833 -0.0261
 1163SOL    HW215126   1.688   3.203   7.939 -0.1585  0.3769 -1.2191
 1164SOL     OW15127   0.910   0.457   5.208 -0.4454 -0.3556 -0.0864
 1164SOL    HW115128   0.935   0.371   5.241  0.9352  0.2999  0.6059
 1164SOL    HW215129   0.950   0.514   5.275  0.6712 -0.3493 -0.7549
 1165SOL     OW15130   1.013   4.403   0.027 -0.2120  0.7614 -0.4818
 1165SOL    HW115131   1.069   4.459   0.082  0.3610  0.7054 -1.0079
 1165SOL    HW215132   0.925   4.429   0.055 -0.6171 -2.5347  1.2932
 1166SOL     OW15133   2.995   4.625  14.412 -0.2248 -0.2830  0.2612
 1166SOL    HW115134   3.071   4.679  14.435 -0.7741  1.1247 -1.2303
 1166SOL    HW215135   2.942   4.655  14.486  1.0161  2.3018  0.1162
 1167SOL     OW15136   2.922   3.298   6.580  0.3472  0.0201 -0.1837
 1167SOL    HW115137   2.831   3.303   6.549 -0.2587  1.6382  1.8004
 1167SOL    HW215138   2.938   3.213   6.539  1.1164  0.3374 -0.5468
 1168SOL     OW15139   0.657   0.965   0.489 -0.8679 -0.2024 -0.7904
 1168SOL    HW115140   0.656   0.880   0.533 -0.2307  0.7721  1.0994
 1168SOL    HW215141   0.593   0.945   0.420  0.0040 -0.6199 -1.4737
 1169SOL     OW15142   4.014   0.395   2.785 -0.7177 -0.2177  0.2646
 1169SOL    HW115143   4.009   0.452   2.862  0.6630  2.1381 -1.3907
 1169SOL    HW215144   4.095   0.423   2.742  1.2925 -0.5149  3.7693
 1170SOL     OW15145   2.333   2.508   6.508  0.1730  0.5658  0.1431
 1170SOL    HW115146   2.258   2.468   6.464 -0.0397  0.0995  0.9389
 1170SOL    HW215147   2.395   2.514   6.436 -0.0812  1.5585 -0.0052
 1171SOL     OW15148   2.704   2.965   6.715 -0.0746 -0.6476  0.3431
 1171SOL    HW115149   2.652   2.950   6.793 -0.6224  0.3988  0.1823
 1171SOL    HW215150   2.646   2.943   6.643 -1.2490  0.7534  0.8575
 1172SOL     OW15151   3.857   3.699   9.847  0.5177  0.4314  0.6413
 1172SOL    HW115152   3.777   3.729   9.891 -0.2860  0.6693 -0.9936
 1172SOL    HW215153   3.910   3.702   9.926  0.7185 -1.0060  0.5466
 1173SOL     OW15154   3.664   3.858  17.436  0.0792  0.1458 -0.7507
 1173SOL    HW115155   3.756   3.869  17.410  1.2797 -1.6783  2.7951
 1173SOL    HW215156   3.655   3.768  17.403 -2.2417  0.4055 -0.7985
 1174SOL     OW15157   2.154   2.052  12.474 -0.5359  0.3418 -0.4347
 1174SOL    HW115158   2.080   2.030  12.531 -1.8340 -1.5898 -2.8795
 1174SOL    HW215159   2.127   2.142  12.455 -1.8698  0.1028  0.3714
 1175SOL     OW15160   2.809   0.995   6.316  0.6141  0.0949  0.0293
 1175SOL    HW115161   2.850   1.036   6.392 -1.6945  0.6192  0.9823
 1175SOL    HW215162   2.846   0.908   6.329 -0.5504 -0.2904  0.7939
 1176SOL     OW15163   1.843   4.641  14.149  0.8927  0.4233  0.3615
 1176SOL    HW115164   1.773   4.701  14.172  0.9704  0.1196  1.4073
 1176SOL    HW215165   1.803   4.584  14.083  1.2605  0.0985  0.4192
 1177SOL     OW15166   2.710   1.594   5.103  0.0860 -0.5946 -0.3282
 1177SOL    HW115167   2.640   1.575   5.165 -0.4070 -0.3624 -0.8161
 1177SOL    HW215168   2.711   1.689   5.110  0.1291 -0.7694  1.8768
 1178SOL     OW15169   1.922   1.641   2.085  0.2807  0.3382  0.2179
 1178SOL    HW115170   1.876   1.577   2.140  1.9848  1.8642  3.4451
 1178SOL    HW215171   2.007   1.628   2.127  1.2881 -0.3974 -2.0668
 1179SOL     OW15172   1.334   2.651  15.187  0.3885  0.7841 -0.3026
 1179SOL    HW115173   1.276   2.610  15.252  2.2190  0.0781  0.8774
 1179SOL    HW215174   1.399   2.685  15.248 -0.1358 -0.7763  1.1370
 1180SOL     OW15175   2.651   3.016   5.167 -0.2895 -0.7886  0.3006
 1180SOL    HW115176   2.742   2.989   5.152 -0.4016 -0.2119 -1.3948
 1180SOL    HW215177   2.617   2.931   5.193 -0.1616 -0.5886  1.1469
 1181SOL     OW15178   4.179   4.667   3.396 -0.4926  0.5268  0.2195
 1181SOL    HW115179   4.093   4.681   3.436 -0.5830  1.0743 -0.1790
 1181SOL    HW215180   4.149   4.671   3.306  1.0496  0.7760 -0.2840
 1182SOL     OW15181   0.211   0.971   5.129  0.3643 -0.2715  0.7986
 1182SOL    HW115182   0.267   1.047   5.115  1.5756 -1.1167  0.9904
 1182SOL    HW215183   0.200   0.980   5.224 -5.1226 -0.2698  0.1526
 1183SOL     OW15184   1.377   0.304   3.219 -0.2122  0.2323  0.7467
 1183SOL    HW115185   1.454   0.261   3.256 -1.2018 -2.1896 -0.0553
 1183SOL    HW215186   1.405   0.317   3.128 -1.2255 -0.4083  0.3453
 1184SOL     OW15187   0.998   0.217   1.973  0.1002  0.3526  0.0216
 1184SOL    HW115188   1.086   0.210   1.937  0.2768 -0.1311  0.5511
 1184SOL    HW215189   0.938   0.189   1.903 -0.0388 -1.2139  0.7469
 1185SOL     OW15190   3.141   0.545   0.473 -0.7566 -0.4644 -0.1326
 1185SOL    HW115191   3.181   0.458   0.463 -0.9714 -0.6856  0.9112
 1185SOL    HW215192   3.167   0.573   0.561  0.4362 -0.9471 -0.3269
 1186SOL     OW15193   2.061   0.386   6.858 -0.7086 -0.3862 -0.4580
 1186SOL    HW115194   1.995   0.442   6.898  1.2341  2.6554 -1.4516
 1186SOL    HW215195   2.034   0.297   6.879 -3.0443  1.0515  2.5924
 1187SOL     OW15196   0.107   2.292   9.860 -0.5218  0.1421 -0.3249
 1187SOL    HW115197   0.133   2.327   9.945  0.2050 -1.1907  0.0094
 1187SOL    HW215198   0.022   2.258   9.890 -1.3844  1.0350 -1.7386
 1188SOL     OW15199   1.631   1.821   9.550  0.3547 -0.1526  0.4462
 1188SOL    HW115200   1.547   1.775   9.548  0.0147  0.3402  3.1311
 1188SOL    HW215201   1.598   1.911   9.554  0.3124  0.0410 -3.8829
 1189SOL     OW15202   3.543   3.887   3.947  0.0514  0.7329 -0.4544
 1189SOL    HW115203   3.491   3.839   3.883 -0.1344 -0.5241  0.6342
 1189SOL    HW215204   3.537   3.972   3.903 -0.5246  0.5002 -0.8249
 1190SOL     OW15205   3.740   0.983   6.285  0.1646 -0.2750 -0.3602
 1190SOL    HW115206   3.801   0.928   6.236  2.6787  1.4751  0.7578
 1190SOL    HW215207   3.692   0.912   6.326 -1.9727  0.9176 -0.7713
 1191SOL     OW15208   3.321   3.635  17.395 -0.0720  0.0093  0.4449
 1191SOL    HW115209   3.302   3.728  17.381 -1.7960 -0.5803 -1.0887
 1191SOL    HW215210   3.231   3.604  17.396 -0.5632  1.3388 -2.0331
 1192SOL     OW15211   4.504   3.928   3.826 -0.1565 -0.0814  0.0555
 1192SOL    HW115212   4.479   4.012   3.864  0.5029  0.7767 -1.4071
 1192SOL    HW215213   4.478   3.938   3.735  1.7700  0.2655 -0.4617
 1193SOL     OW15214   1.708   3.404   1.323 -0.6777  0.2329 -0.1286
 1193SOL    HW115215   1.738   3.369   1.408 -0.0784  1.3849  0.1348
 1193SOL    HW215216   1.621   3.365   1.322  1.0044 -3.6031 -0.9888
 1194SOL     OW15217   3.779   2.341   2.499  0.1755  0.0805 -0.8031
 1194SOL    HW115218   3.797   2.337   2.593  0.9561 -2.4835 -1.0573
 1194SOL    HW215219   3.791   2.247   2.483 -0.0469  0.2829 -2.1260
 1195SOL     OW15220   3.966   4.584  16.781  0.3859 -0.6764  0.2741
 1195SOL    HW115221   3.970   4.607  16.688 -0.1610 -0.4609  0.3017
 1195SOL    HW215222   3.990   4.492  16.771 -0.5893 -0.8804 -0.2759
 1196SOL     OW15223   1.777   3.433   1.046 -0.6200  0.2360 -0.3793
 1196SOL    HW115224   1.732   3.422   1.130  1.5665  0.6373  0.8526
 1196SOL    HW215225   1.748   3.518   1.013 -2.7546 -1.0233 -1.7162
 1197SOL     OW15226   3.016   4.223   7.294 -0.6105  0.3746 -0.0054
 1197SOL    HW115227   3.098   4.175   7.289 -0.1574  1.1409  0.0877
 1197SOL    HW215228   3.024   4.298   7.234 -2.9335 -0.7790 -1.7602
 1198SOL     OW15229   4.145   4.322   8.687  0.2940 -0.7835  0.2053
 1198SOL    HW115230   4.166   4.296   8.597 -1.5974  1.6124 -0.9388
 1198SOL    HW215231   4.221   4.368   8.723  0.9722 -2.1103  0.4696
 1199SOL     OW15232   3.294   1.209  12.280  0.3171 -0.4128  0.2962
 1199SOL    HW115233   3.353   1.177  12.212 -0.1319 -0.6706  0.0325
 1199SOL    HW215234   3.345   1.173  12.353  0.6797  2.1227  1.2879
 1200SOL     OW15235   3.204   0.022  12.116 -0.2379 -0.5592 -0.0113
 1200SOL    HW115236   3.230   0.110  12.090 -3.5929  1.3798  3.1188
 1200SOL    HW215237   3.114   0.022  12.082  0.3727 -1.0187 -1.6034
 1201SOL     OW15238   3.335   1.396   2.168  0.2090  0.2404  0.3056
 1201SOL    HW115239   3.337   1.490   2.187  0.2721  1.0055 -3.4578
 1201SOL    HW215240   3.426   1.373   2.189  0.4652  0.9237 -0.0473
 1202SOL     OW15241   2.690   0.475   7.396  0.3583  0.4566 -0.0361
 1202SOL    HW115242   2.715   0.439   7.481  2.1732  0.8772 -0.4014
 1202SOL    HW215243   2.698   0.565   7.427  1.5866  0.6881 -1.0293
 1203SOL     OW15244   3.963   3.583  15.961  0.2335  0.4879  0.3491
 1203SOL    HW115245   4.023   3.509  15.972  0.5545  0.2841 -2.7459
 1203SOL    HW215246   3.914   3.592  16.043 -1.0187 -0.4241 -0.3021
 1204SOL     OW15247   4.199   0.591  12.663  0.8105 -0.0458 -0.0987
 1204SOL    HW115248   4.177   0.631  12.578 -0.2307  2.0952  1.1654
 1204SOL    HW215249   4.269   0.643  12.702  0.2069  0.1746  0.7077
 1205SOL     OW15250   2.149   0.822   1.768 -0.0236 -0.2605  0.1849
 1205SOL    HW115251   2.226   0.851   1.719  0.7083 -0.3432  1.2783
 1205SOL    HW215252   2.173   0.847   1.857  0.5533 -0.9675  0.2216
 1206SOL     OW15253   3.801   3.804   6.808  0.4692 -0.2910  0.4416
 1206SOL    HW115254   3.813   3.712   6.830  2.8865 -0.0603  0.1429
 1206SOL    HW215255   3.725   3.794   6.751 -0.8965  5.1573  1.2980
 1207SOL     OW15256   0.899   0.810   9.450  0.3306  0.2329 -0.2467
 1207SOL    HW115257   0.955   0.747   9.495 -0.2608 -0.5483 -0.6139
 1207SOL    HW215258   0.809   0.784   9.466  0.9073 -1.1987  0.6566
 1208SOL     OW15259   4.145   2.666   9.429  0.0732 -0.3737  0.3086
 1208SOL    HW115260   4.167   2.600   9.494 -2.4374 -1.9374 -0.4465
 1208SOL    HW215261   4.194   2.635   9.353  4.3573  1.8692  2.1896
 1209SOL     OW15262   3.717   0.249   7.235 -0.1121 -0.1747  0.0945
 1209SOL    HW115263   3.632   0.210   7.255 -0.5501  0.4647 -0.5134
 1209SOL    HW215264   3.692   0.337   7.206 -1.2453 -0.1549  1.1349
 1210SOL     OW15265   3.591   4.720   6.491 -0.4024 -0.1330  0.6718
 1210SOL    HW115266   3.539   4.652   6.535  1.2217 -2.1015 -0.4285
 1210SOL    HW215267   3.531   0.026   6.429 -0.6903 -1.6396 -0.1044
 1211SOL     OW15268   1.562   0.210  11.024  0.4333 -0.4050  0.2773
 1211SOL    HW115269   1.510   0.132  11.043 -1.0470  0.3484 -0.6531
 1211SOL    HW215270   1.608   0.175  10.947 -0.1650 -0.8541  0.1220
 1212SOL     OW15271   3.667   0.413   5.270 -0.2521  0.7276 -0.0275
 1212SOL    HW115272   3.718   0.484   5.307 -1.4769  0.6827  1.7844
 1212SOL    HW215273   3.665   0.353   5.345  0.5723  0.1099 -0.4994
 1213SOL     OW15274   3.641   3.743   7.083 -0.2085  0.1379 -0.3292
 1213SOL    HW115275   3.652   3.723   6.990  2.0048  0.7213 -0.1991
 1213SOL    HW215276   3.696   3.678   7.128  1.7917  2.8441  1.1710
 1214SOL     OW15277   2.276   2.900   2.101 -0.3309 -0.0354  0.0670
 1214SOL    HW115278   2.215   2.974   2.109  0.3039  0.3323  1.4025
 1214SOL    HW215279   2.364   2.937   2.101 -0.6686  0.7786 -0.4855
 1215SOL     OW15280   0.837   1.044   6.999 -0.3035  0.4155  0.8073
 1215SOL    HW115281   0.762   1.050   7.058 -0.1692 -0.7128  1.0811
 1215SOL    HW215282   0.800   1.099   6.930 -1.3949  1.4926  2.2558
 1216SOL     OW15283   1.060   0.266  10.801  0.3273  0.3404 -0.2845
 1216SOL    HW115284   1.005   0.344  10.800  2.3098  1.7458 -0.3249
 1216SOL    HW215285   1.134   0.290  10.857 -0.2643  1.2196  0.1098
 1217SOL     OW15286   1.508   3.672   5.637  0.0562  0.6085  0.1711
 1217SOL    HW115287   1.491   3.586   5.677  0.7655 -0.4927 -1.8501
 1217SOL    HW215288   1.426   3.713   5.608 -1.3520 -0.3126  2.8369
 1218SOL     OW15289   3.619   2.353  13.837  0.2269 -0.1990 -0.0828
 1218SOL    HW115290   3.582   2.378  13.753 -2.2103 -2.0691  0.4251
 1218SOL    HW215291   3.574   2.411  13.899 -0.4986  0.0475 -0.8514
 1219SOL     OW15292   2.600   0.340   6.508 -0.6691  0.4413 -0.6672
 1219SOL    HW115293   2.523   0.294   6.473 -0.7645 -0.6477  0.9192
 1219SOL    HW215294   2.659   0.288   6.453  0.7602  1.2068  0.1596
 1220SOL     OW15295   1.605   2.645   8.176 -0.0213  0.0314  0.0887
 1220SOL    HW115296   1.632   2.566   8.223  1.1124 -0.7756 -1.9271
 1220SOL    HW215297   1.676   2.644   8.112 -0.7334 -1.2542 -0.6932
 1221SOL     OW15298   0.901   3.543   9.926  0.2115 -0.0781  0.3564
 1221SOL    HW115299   0.868   3.623   9.967  3.3090  1.5246 -0.2103
 1221SOL    HW215300   0.853   3.480   9.980 -2.7713  0.5359 -1.5836
 1222SOL     OW15301   0.236   0.999   3.210 -0.2500 -0.3421 -0.2952
 1222SOL    HW115302   0.309   0.965   3.158  0.4550 -1.0908  1.1799
 1222SOL    HW215303   0.168   0.946   3.168 -0.7202  0.6097 -0.7290
 1223SOL     OW15304   4.507   4.720   0.939 -0.0509 -0.1707 -0.5279
 1223SOL    HW115305   4.430   4.694   0.991  0.8340 -1.6627  0.0330
 1223SOL    HW215306   4.566   0.010   1.010 -0.7761  1.0216 -0.3499
 1224SOL     OW15307   1.659   3.837   5.472  0.4834  0.7094  0.6532
 1224SOL    HW115308   1.607   3.789   5.538  0.3223 -1.1475 -0.8309
 1224SOL    HW215309   1.744   3.794   5.474 -0.0680 -0.3844  0.7152
 1225SOL     OW15310   1.047   0.338   1.136 -0.1964 -0.1382 -0.5054
 1225SOL    HW115311   0.981   0.314   1.070 -1.9948  0.0126  1.2214
 1225SOL    HW215312   1.129   0.325   1.089  0.4591 -0.0626  0.5983
 1226SOL     OW15313   1.701   2.003  14.459 -0.6385 -0.3038 -0.0462
 1226SOL    HW115314   1.788   2.016  14.497 -0.2084 -0.7137 -0.9012
 1226SOL    HW215315   1.665   2.058  14.529  1.6759  0.2837  0.6662
 1227SOL     OW15316   1.867   3.681  10.497  0.2784  0.2472  0.3083
 1227SOL    HW115317   1.881   3.619  10.426 -0.1841 -0.6237  0.9800
 1227SOL    HW215318   1.862   3.758  10.441 -0.5333 -0.1418 -0.1524
 1228SOL     OW15319   2.837   2.746  13.102 -0.2442 -0.4334  0.2614
 1228SOL    HW115320   2.871   2.732  13.013 -1.0820 -3.4024  0.3917
 1228SOL    HW215321   2.912   2.774  13.154  0.9332 -0.0691 -1.6378
 1229SOL     OW15322   0.231   2.542   4.690  0.8266 -0.0457  0.0229
 1229SOL    HW115323   0.273   2.466   4.730 -0.1439 -0.3033  0.5691
 1229SOL    HW215324   0.141   2.510   4.686  0.7715 -0.0274  1.1464
 1230SOL     OW15325   2.228   3.137  13.139 -0.0711  0.4791  0.0953
 1230SOL    HW115326   2.144   3.175  13.111 -0.4215  0.6575  1.3956
 1230SOL    HW215327   2.205   3.048  13.113 -1.9934  0.4055  2.0593
 1231SOL     OW15328   2.791   2.283   8.481  0.6694 -0.4225 -0.3926
 1231SOL    HW115329   2.836   2.236   8.411  1.4461 -1.7875  1.0050
 1231SOL    HW215330   2.781   2.218   8.551 -1.5621 -1.3155 -1.5584
 1232SOL     OW15331   0.844   3.254  11.589  0.4469  0.2333 -0.3042
 1232SOL    HW115332   0.900   3.272  11.514  1.8160 -0.6809  0.5005
 1232SOL    HW215333   0.813   3.164  11.576  0.7464  0.2025 -0.8058
 1233SOL     OW15334   3.374   4.565  15.199 -0.3187  0.0345 -0.8952
 1233SOL    HW115335   3.373   4.660  15.213 -1.2457 -0.1096  0.0021
 1233SOL    HW215336   3.454   4.557  15.147 -0.2429  0.6708 -0.8865
 1234SOL     OW15337   3.369   0.547   7.286  0.2265 -0.1750 -0.2145
 1234SOL    HW115338   3.391   0.640   7.292  0.5732 -0.3539  1.2872
 1234SOL    HW215339   3.353   0.526   7.194  1.4587  3.0309 -1.1246
 1235SOL     OW15340   2.446   1.151  16.886  0.2965  0.2855  0.3691
 1235SOL    HW115341   2.510   1.084  16.861 -0.5186 -0.2775 -0.1994
 1235SOL    HW215342   2.369   1.095  16.874  1.0627 -0.8062  0.4676
 1236SOL     OW15343   3.230   0.588   0.719  0.1966 -0.3754 -0.0215
 1236SOL    HW115344   3.215   0.494   0.708  0.3800 -0.5618  1.3354
 1236SOL    HW215345   3.324   0.596   0.704  0.2620  1.1974  1.1851
 1237SOL     OW15346   3.061   4.466  14.182 -0.3927  0.1529 -0.2409
 1237SOL    HW115347   3.052   4.520  14.261 -0.0847  0.3970 -0.3725
 1237SOL    HW215348   3.121   4.394  14.202  0.4631  1.4879  2.0519
 1238SOL     OW15349   3.394   3.388   1.204 -0.6017  0.1280 -0.3778
 1238SOL    HW115350   3.342   3.311   1.181 -1.3412  1.8028 -4.1808
 1238SOL    HW215351   3.476   3.373   1.158 -0.6296  0.1564 -0.4365
 1239SOL     OW15352   1.049   2.715   1.432 -0.3106  0.1330 -0.1697
 1239SOL    HW115353   1.026   2.630   1.470  2.0332  0.5223  2.1513
 1239SOL    HW215354   1.102   2.691   1.356 -0.0430 -0.6876  0.2688
 1240SOL     OW15355   0.083   2.718   2.850  0.3310 -0.5286 -0.6144
 1240SOL    HW115356   0.153   2.783   2.849  1.4900 -1.7669  0.7824
 1240SOL    HW215357   0.119   2.653   2.789 -0.4172 -0.6235 -0.9663
 1241SOL     OW15358   0.262   2.407   2.233  0.3120 -0.3165  0.2408
 1241SOL    HW115359   0.324   2.346   2.272 -0.7777 -0.5473  1.6170
 1241SOL    HW215360   0.204   2.350   2.183 -2.3143 -0.0986  3.0446
 1242SOL     OW15361   0.064   2.747  12.270 -0.3959  0.2534  0.4665
 1242SOL    HW115362   0.146   2.798  12.268  1.1565 -2.2280  0.8536
 1242SOL    HW215363   0.017   2.778  12.193 -0.2717 -1.5869 -0.3524
 1243SOL     OW15364   3.575   1.517   9.525 -0.1743  0.1909 -0.5922
 1243SOL    HW115365   3.655   1.494   9.572 -1.8384 -1.4970  1.4081
 1243SOL    HW215366   3.574   1.444   9.463 -2.3669  0.3965 -0.8034
 1244SOL     OW15367   1.990   2.558   3.056 -0.3717 -0.1169  0.6568
 1244SOL    HW115368   1.937   2.492   3.100 -1.6856  1.5100  1.4786
 1244SOL    HW215369   1.964   2.554   2.963 -3.7662 -1.0334  1.6506
 1245SOL     OW15370   0.981   1.398   2.968  0.5798 -0.0320 -0.3036
 1245SOL    HW115371   0.992   1.473   3.026  1.0342  0.1327 -0.6028
 1245SOL    HW215372   1.046   1.338   3.005 -0.3931 -0.2768  1.0186
 1246SOL     OW15373   0.113   1.918   6.593 -0.0400  0.8253 -1.0145
 1246SOL    HW115374   0.169   1.840   6.594  0.4791  1.2032 -0.2560
 1246SOL    HW215375   0.134   1.948   6.505  1.0484 -3.6151 -2.2601
 1247SOL     OW15376   4.030   3.724  11.893 -0.2871  0.2323  0.2379
 1247SOL    HW115377   4.029   3.819  11.894  0.1960  0.2601 -1.2973
 1247SOL    HW215378   3.939   3.720  11.925  0.4911  2.1573  2.6354
 1248SOL     OW15379   0.298   0.643   1.739 -0.0544 -0.3211  0.2478
 1248SOL    HW115380   0.356   0.578   1.701  0.7308  0.6566 -0.2258
 1248SOL    HW215381   0.228   0.595   1.783 -0.9385  0.5960 -0.1403
 1249SOL     OW15382   2.430   4.344   6.805  0.2746  0.4869  0.5089
 1249SOL    HW115383   2.460   4.314   6.891  0.6770 -0.7373 -0.0746
 1249SOL    HW215384   2.350   4.391   6.831  0.4441  0.4469  1.1105
 1250SOL     OW15385   4.246   2.387   4.173  0.3026  0.0333  0.2356
 1250SOL    HW115386   4.166   2.336   4.187 -0.7198  1.0566 -1.9657
 1250SOL    HW215387   4.262   2.393   4.079  0.8029  1.4992  0.4152
 1251SOL     OW15388   4.728   1.576   4.524 -0.1116 -0.0307 -0.6085
 1251SOL    HW115389   0.058   1.617   4.468  0.8308 -0.6536  0.0732
 1251SOL    HW215390   4.716   1.490   4.484 -1.4013 -0.8280  1.5370
 1252SOL     OW15391   1.584   4.666   8.372  0.1335  0.2527  0.2273
 1252SOL    HW115392   1.559   4.648   8.463 -1.1786 -2.3593 -0.6680
 1252SOL    HW215393   1.638   0.009   8.366  2.3576 -1.1895  1.0992
 1253SOL     OW15394   1.328   0.782   5.416 -0.2910 -0.4035 -0.2981
 1253SOL    HW115395   1.389   0.716   5.449 -1.5188 -0.3354  2.1321
 1253SOL    HW215396   1.353   0.802   5.326 -1.7108 -1.3902 -0.9183
 1254SOL     OW15397   4.097   3.623   4.679  0.2761  0.6398  0.3170
 1254SOL    HW115398   4.035   3.694   4.696 -1.3788 -0.2420 -2.0739
 1254SOL    HW215399   4.044   3.544   4.688 -0.3161  0.9678 -0.3024
 1255SOL     OW15400   1.854   1.953   7.908  0.3826  0.5412 -0.5909
 1255SOL    HW115401   1.904   1.900   7.846 -1.1461  1.0705 -2.2946
 1255SOL    HW215402   1.820   2.011   7.840  0.5233  0.6883 -0.5345
 1256SOL     OW15403   2.911   3.865   8.137 -0.1555  0.3191 -0.2151
 1256SOL    HW115404   2.909   3.798   8.069 -0.1926  0.8150 -0.6931
 1256SOL    HW215405   2.856   3.822   8.202 -1.3650  3.4550  0.8227
 1257SOL     OW15406   4.265   0.652   9.216  0.3432  0.7831  0.6085
 1257SOL    HW115407   4.234   0.740   9.197  0.6581  0.8182  0.2445
 1257SOL    HW215408   4.273   0.620   9.126  1.5524  1.3620  0.5088
 1258SOL     OW15409   2.948   4.178   1.815 -0.4875 -0.0238  0.2248
 1258SOL    HW115410   2.864   4.155   1.854 -1.4165 -1.6366 -2.7207
 1258SOL    HW215411   2.986   4.209   1.897  0.3562  1.4254 -0.7034
 1259SOL     OW15412   0.120   1.060   9.061  0.2122  0.4425  0.3495
 1259SOL    HW115413   0.180   1.090   9.130  0.9408 -0.1322 -0.0311
 1259SOL    HW215414   0.113   1.138   9.005  2.9410 -0.7689 -1.7130
 1260SOL     OW15415   0.730   1.379  15.847 -0.1500  0.0606  0.7439
 1260SOL    HW115416   0.717   1.386  15.753 -0.4341 -0.0114  0.7795
 1260SOL    HW215417   0.825   1.378  15.837  0.1033  1.3633  2.9410
 1261SOL     OW15418   1.123   2.034   2.328  0.2854 -0.0960 -0.3071
 1261SOL    HW115419   1.144   2.111   2.382 -1.6769 -0.7124  1.3240
 1261SOL    HW215420   1.110   2.067   2.240 -0.9367 -0.0074 -0.0864
 1262SOL     OW15421   2.160   1.149   4.272  0.0749  0.5817  0.5000
 1262SOL    HW115422   2.215   1.107   4.338  2.6412  0.7672 -1.5383
 1262SOL    HW215423   2.117   1.210   4.332  1.3465  2.9910 -1.0858
 1263SOL     OW15424   0.375   0.718  11.320  0.3622  0.5030 -0.2338
 1263SOL    HW115425   0.469   0.705  11.335  0.7569 -0.0104 -3.1540
 1263SOL    HW215426   0.337   0.722  11.408  0.2006 -1.5666 -0.2116
 1264SOL     OW15427   2.875   1.886   3.030 -0.0262 -0.1706 -0.0390
 1264SOL    HW115428   2.951   1.935   3.062 -0.8976 -0.0119  1.7697
 1264SOL    HW215429   2.886   1.797   3.063 -3.2041 -0.6513 -0.3044
 1265SOL     OW15430   1.038   4.231  14.246  0.3439 -0.5812  0.1614
 1265SOL    HW115431   0.957   4.209  14.292  0.9689 -0.4140  1.3456
 1265SOL    HW215432   0.992   4.270  14.172  2.9815  0.0116 -1.1441
 1266SOL     OW15433   3.943   1.290   4.944  0.5821  0.2969  0.4809
 1266SOL    HW115434   3.961   1.212   4.997 -2.4872 -0.6949  0.0319
 1266SOL    HW215435   3.848   1.300   4.951  0.1827 -3.0637 -0.1643
 1267SOL     OW15436   4.118   1.918   6.771 -0.3495 -0.0566  0.2812
 1267SOL    HW115437   4.085   1.849   6.714 -2.6544  1.0316  0.3200
 1267SOL    HW215438   4.036   1.964   6.790 -0.7730  0.3459 -2.4878
 1268SOL     OW15439   4.667   0.620   9.182 -0.0934  0.3445  0.2719
 1268SOL    HW115440   4.662   0.588   9.092  0.0806 -1.0487  0.7524
 1268SOL    HW215441   4.678   0.713   9.160 -2.8028  0.4359 -0.6853
 1269SOL     OW15442   3.534   4.709  15.424  0.0317  0.1420 -0.3791
 1269SOL    HW115443   3.495   0.052  15.388  1.7752  1.6500  1.0726
 1269SOL    HW215444   3.462   4.686  15.483 -0.2630 -0.1615 -0.8507
 1270SOL     OW15445   1.496   4.538   5.953 -0.2626  0.0994  0.2510
 1270SOL    HW115446   1.533   4.609   6.005  0.9547 -0.6075  0.3469
 1270SOL    HW215447   1.416   4.523   6.003  0.3120  0.6107  1.3053
 1271SOL     OW15448   4.014   0.761   4.522 -0.4687  0.3205  0.3535
 1271SOL    HW115449   4.042   0.840   4.477 -1.4998  0.6061  0.2172
 1271SOL    HW215450   3.937   0.789   4.572  0.0284  1.9320  0.2052
 1272SOL     OW15451   1.345   4.079  12.666  0.0030  0.6354  0.6158
 1272SOL    HW115452   1.437   4.054  12.659 -0.7995 -1.7015 -1.5640
 1272SOL    HW215453   1.332   4.136  12.590  1.8112  0.7110  0.3815
 1273SOL     OW15454   3.453   0.026   7.003 -0.2805  0.3480  0.6157
 1273SOL    HW115455   3.478   0.060   7.090  3.2362  1.8980 -1.0055
 1273SOL    HW215456   3.379   4.707   7.028  0.2342 -0.9497 -0.7416
 1274SOL     OW15457   2.506   3.179   0.660  0.2705 -0.2397 -0.3508
 1274SOL    HW115458   2.569   3.110   0.638  0.0885 -0.6105  0.2768
 1274SOL    HW215459   2.486   3.140   0.745 -1.2767 -0.3614 -0.7806
 1275SOL     OW15460   2.031   2.384  14.465  0.0842  0.0046  0.0337
 1275SOL    HW115461   2.060   2.293  14.463  2.9577  0.9938 -2.6071
 1275SOL    HW215462   2.115   2.427  14.449  0.5227 -0.7963  0.1715
 1276SOL     OW15463   2.944   0.098   7.759  0.0676  0.3212  0.0881
 1276SOL    HW115464   2.945   0.011   7.799 -0.6455  0.0798 -0.4236
 1276SOL    HW215465   2.851   0.121   7.753  0.4303  2.1110  1.1640
 1277SOL     OW15466   3.105   2.534   8.773  0.3368 -0.2558 -0.3680
 1277SOL    HW115467   3.173   2.588   8.732  1.3578 -0.7779  0.6363
 1277SOL    HW215468   3.090   2.586   8.852  1.1096 -0.0628 -0.3419
 1278SOL     OW15469   0.587   2.960  12.716  0.4745 -0.1368  0.3659
 1278SOL    HW115470   0.492   2.969  12.717  0.3209 -1.6308 -0.9666
 1278SOL    HW215471   0.616   3.046  12.686 -0.9462  0.5854  1.0650
 1279SOL     OW15472   4.684   2.454   3.318  0.2220  0.1493  0.1997
 1279SOL    HW115473   4.658   2.386   3.256  2.3712 -1.9599  1.5937
 1279SOL    HW215474   4.648   2.537   3.285  0.9803  1.1510  1.9282
 1280SOL     OW15475   4.409   3.913  11.654  0.2110 -0.1260 -0.1269
 1280SOL    HW115476   4.377   4.003  11.657 -3.9691 -1.6429  0.1155
 1280SOL    HW215477   4.488   3.917  11.600 -1.5513  1.6256 -2.5837
 1281SOL     OW15478   1.011   4.608   8.606 -0.2611 -0.8379 -0.4348
 1281SOL    HW115479   1.048   4.530   8.648  3.7762  1.3864  0.1489
 1281SOL    HW215480   1.019   4.677   8.672 -1.9173 -0.5367 -0.5596
 1282SOL     OW15481   4.085   0.611   1.227  0.4740  0.0821  0.4996
 1282SOL    HW115482   4.023   0.677   1.257 -1.0413 -2.0168  1.9962
 1282SOL    HW215483   4.135   0.582   1.303  1.4192 -1.4137 -0.6793
 1283SOL     OW15484   4.533   2.706  10.287 -0.3488  0.1400 -0.1110
 1283SOL    HW115485   4.570   2.623  10.257  1.0148  0.7975 -0.2784
 1283SOL    HW215486   4.511   2.690  10.378 -1.4049  0.0402 -0.3816
 1284SOL     OW15487   4.034   2.844  17.158  0.1992  0.3956 -0.2592
 1284SOL    HW115488   4.013   2.933  17.131 -2.6558  0.6270  2.7583
 1284SOL    HW215489   3.960   2.826  17.216  2.3151  0.3986  2.4200
 1285SOL     OW15490   2.437   0.015  15.951 -0.0960 -0.5164 -0.6773
 1285SOL    HW115491   2.447   0.016  15.856 -0.7230 -0.8057 -0.7483
 1285SOL    HW215492   2.515   0.067  15.969 -1.7539  0.9794  2.2026
 1286SOL     OW15493   0.304   2.559   3.825 -0.1399  0.6953  0.0141
 1286SOL    HW115494   0.334   2.485   3.877 -1.2795  0.4161  0.2874
 1286SOL    HW215495   0.257   2.619   3.884 -0.7294 -0.2106  0.4599
 1287SOL     OW15496   3.403   4.385   2.351  0.4390 -0.3303  0.0877
 1287SOL    HW115497   3.399   4.360   2.258 -0.2314 -0.1898  0.0827
 1287SOL    HW215498   3.334   4.450   2.362  1.8286  1.1706 -0.0562
 1288SOL     OW15499   3.352   3.538  14.771  0.2665  0.2929 -0.2326
 1288SOL    HW115500   3.352   3.634  14.773  1.9568  0.3364 -2.0490
 1288SOL    HW215501   3.259   3.522  14.786  0.8593 -0.6464  2.4608
 1289SOL     OW15502   3.838   3.346  13.481  0.0526  0.1309 -0.4457
 1289SOL    HW115503   3.887   3.427  13.498 -0.7967  0.5599 -0.0344
 1289SOL    HW215504   3.823   3.344  13.387 -1.3689  0.0193 -0.2146
 1290SOL     OW15505   2.921   1.405  12.351  0.1731  0.0793 -0.6339
 1290SOL    HW115506   2.971   1.486  12.363  0.9765 -0.4742 -0.2777
 1290SOL    HW215507   2.961   1.369  12.272 -2.0505 -2.5566 -0.5551
 1291SOL     OW15508   0.461   0.592   9.671  0.0197  0.4542  0.3753
 1291SOL    HW115509   0.510   0.509   9.675 -0.3154  0.2234 -0.2721
 1291SOL    HW215510   0.530   0.658   9.663  0.4886  0.1125  1.7097
 1292SOL     OW15511   3.852   2.380  16.627 -0.1935  0.4802 -0.4463
 1292SOL    HW115512   3.815   2.439  16.563  0.6743 -0.2471 -1.6162
 1292SOL    HW215513   3.768   2.344  16.655 -0.7289  1.7523 -0.4262
 1293SOL     OW15514   3.499   2.487   3.479  0.0192  0.1544 -0.8743
 1293SOL    HW115515   3.403   2.481   3.477 -0.2188  3.7765 -0.3858
 1293SOL    HW215516   3.515   2.450   3.566 -0.6316  0.7461 -0.5041
 1294SOL     OW15517   0.743   4.512  12.514  0.4102  0.3311  0.6067
 1294SOL    HW115518   0.656   4.491  12.478 -0.1548  0.2677  2.0130
 1294SOL    HW215519   0.759   4.601  12.482  0.2649  1.0076  2.4339
 1295SOL     OW15520   0.823   1.821   3.301  0.1522  0.2117  0.0656
 1295SOL    HW115521   0.903   1.861   3.335  0.4871 -1.8795  1.7767
 1295SOL    HW215522   0.770   1.894   3.270 -1.1756 -1.1481 -0.8910
 1296SOL     OW15523   3.788   0.238   2.739  0.0097 -0.0212  0.1403
 1296SOL    HW115524   3.737   0.273   2.667  1.5380  0.9580 -0.4527
 1296SOL    HW215525   3.873   0.281   2.727  0.3961 -1.1720 -1.2772
 1297SOL     OW15526   1.421   3.054   5.264 -0.2409  0.1570  0.4920
 1297SOL    HW115527   1.470   2.991   5.211 -1.0209  0.1358 -0.1880
 1297SOL    HW215528   1.466   3.029   5.345 -1.3058  2.6203  1.8733
 1298SOL     OW15529   3.567   0.097   4.024  0.5415  0.0438 -0.4331
 1298SOL    HW115530   3.635   0.139   4.077  0.2578  1.1470 -0.9479
 1298SOL    HW215531   3.587   0.133   3.938  0.3449 -0.8193 -0.8377
 1299SOL     OW15532   0.734   4.018   3.158 -0.2206 -0.3004  0.3026
 1299SOL    HW115533   0.710   4.103   3.122 -2.0562 -0.1220  1.9739
 1299SOL    HW215534   0.647   3.978   3.160 -1.2314  1.9846  1.6179
 1300SOL     OW15535   0.123   1.995   6.332 -0.2122  0.1607 -0.1301
 1300SOL    HW115536   0.142   1.907   6.297 -0.3865  0.1528 -0.2079
 1300SOL    HW215537   0.084   2.042   6.258  0.2086 -1.5720 -1.4780
 1301SOL     OW15538   3.272   3.515   2.033 -0.2660 -0.4846 -0.1108
 1301SOL    HW115539   3.275   3.597   2.081 -2.1707 -2.1714  2.8946
 1301SOL    HW215540   3.182   3.517   2.000 -1.2661 -0.5424  2.6088
 1302SOL     OW15541   3.186   1.635  15.687 -0.2330  0.1769  0.4517
 1302SOL    HW115542   3.202   1.566  15.623 -0.0502  2.5147 -2.0405
 1302SOL    HW215543   3.188   1.721  15.645 -1.7389  1.0923  2.2086
 1303SOL     OW15544   0.744   3.406  10.096  0.5003  0.2847  0.6273
 1303SOL    HW115545   0.653   3.419  10.123  0.1584 -0.8398  0.0199
 1303SOL    HW215546   0.765   3.335  10.156  3.4024  0.6341 -0.0066
 1304SOL     OW15547   2.349   1.842  16.370  0.0896  0.2019 -0.5062
 1304SOL    HW115548   2.388   1.923  16.402 -0.1744  0.4312 -0.7718
 1304SOL    HW215549   2.422   1.781  16.383  0.3512  0.2438 -1.7588
 1305SOL     OW15550   2.696   2.112   5.995  0.7174  0.9700 -0.1268
 1305SOL    HW115551   2.678   2.161   6.076 -0.3381  2.3640 -1.2185
 1305SOL    HW215552   2.653   2.165   5.928  1.2955 -1.3933 -2.3432
 1306SOL     OW15553   0.922   3.530   9.003 -0.1430 -0.4135 -0.3108
 1306SOL    HW115554   0.846   3.481   8.973  0.3432 -0.7966 -0.9028
 1306SOL    HW215555   0.890   3.572   9.083 -2.5694 -0.5357 -1.2367
 1307SOL     OW15556   4.227   1.691   8.275  0.2134 -0.1827 -0.2066
 1307SOL    HW115557   4.191   1.717   8.190 -1.4815  0.0942  0.5901
 1307SOL    HW215558   4.224   1.773   8.324  0.7076  0.9634 -2.0569
 1308SOL     OW15559   0.007   3.326   4.370  0.5063 -0.6042 -0.6207
 1308SOL    HW115560   4.683   3.253   4.366 -1.1072  0.7905 -1.6363
 1308SOL    HW215561   0.088   3.282   4.395 -0.3106 -2.6899 -1.6644
 1309SOL     OW15562   3.907   2.948  13.769 -0.1749 -0.2218 -0.0714
 1309SOL    HW115563   3.881   3.027  13.722 -0.9402 -0.1011  0.5482
 1309SOL    HW215564   3.844   2.891  13.725 -1.3865 -0.3365  1.7999
 1310SOL     OW15565   3.878   3.704  15.359  0.7146 -0.0226  0.3137
 1310SOL    HW115566   3.946   3.767  15.335  0.7389  0.2575  1.1096
 1310SOL    HW215567   3.863   3.711  15.454 -2.0125 -2.2395  0.0430
 1311SOL     OW15568   1.414   2.691   3.740 -0.4879 -0.4587  0.0579
 1311SOL    HW115569   1.347   2.732   3.685  0.2786  1.4819  0.5570
 1311SOL    HW215570   1.491   2.741   3.715 -0.3214 -0.3958  0.6958
 1312SOL     OW15571   1.818   1.792   8.360  0.3914  0.1086  0.0792
 1312SOL    HW115572   1.741   1.736   8.368  0.2057  0.3183 -0.2502
 1312SOL    HW215573   1.845   1.769   8.449 -2.7521  0.5041  1.1387
 1313SOL     OW15574   1.344   4.329   4.323  0.3383  0.2889  0.3296
 1313SOL    HW115575   1.289   4.387   4.270  2.2549 -0.2495 -2.2412
 1313SOL    HW215576   1.423   4.377   4.350  1.3572 -1.9143  1.2363
 1314SOL     OW15577   3.726   3.178   3.688  0.1621 -0.7441  0.2910
 1314SOL    HW115578   3.654   3.116   3.673  0.9066 -1.8608  1.3302
 1314SOL    HW215579   3.768   3.131   3.760  1.2896  0.8858  0.6970
 1315SOL     OW15580   1.201   1.020   2.554 -0.1862 -0.0108  0.3249
 1315SOL    HW115581   1.207   0.928   2.530  0.2293  0.1924 -0.3496
 1315SOL    HW215582   1.245   1.057   2.477  0.6355  1.4816  1.4911
 1316SOL     OW15583   1.960   1.594   7.172 -0.2735  0.3739  0.4887
 1316SOL    HW115584   2.031   1.531   7.163  0.1181  0.9122 -0.1382
 1316SOL    HW215585   1.916   1.555   7.248 -2.0546  1.5029  0.0332
 1317SOL     OW15586   4.255   4.426  16.400 -0.6510 -0.2557 -0.1597
 1317SOL    HW115587   4.323   4.475  16.446 -1.3142  1.9278 -1.5632
 1317SOL    HW215588   4.225   4.482  16.329  1.7061  0.6080 -0.4509
 1318SOL     OW15589   0.881   3.344   5.767  0.5815  0.5395  0.3148
 1318SOL    HW115590   0.839   3.362   5.851  0.6129 -1.8431  0.8455
 1318SOL    HW215591   0.819   3.284   5.725 -0.5356  0.3990  2.1775
 1319SOL     OW15592   1.238   0.321   6.018  0.5542  0.3847  0.0919
 1319SOL    HW115593   1.173   0.252   6.003  1.5339 -0.7513  0.9923
 1319SOL    HW215594   1.283   0.289   6.097  3.2748  3.7312 -0.1097
 1320SOL     OW15595   3.399   0.260  16.360  0.5404  0.2844  0.5619
 1320SOL    HW115596   3.352   0.305  16.431 -1.4061 -1.1406  0.1574
 1320SOL    HW215597   3.426   0.319  16.289 -1.2441  0.3413 -0.0715
 1321SOL     OW15598   3.669   0.362   8.256 -0.4876 -0.3346  0.2559
 1321SOL    HW115599   3.649   0.361   8.162 -2.7820  0.1224  0.7199
 1321SOL    HW215600   3.662   0.454   8.281 -3.9477 -0.5358  0.0920
 1322SOL     OW15601   1.555   1.654   5.658  0.0080  0.7510 -0.5502
 1322SOL    HW115602   1.645   1.686   5.666  0.3387 -0.2528 -0.2319
 1322SOL    HW215603   1.542   1.664   5.563 -0.1385 -0.9988 -0.7227
 1323SOL     OW15604   3.993   0.713   5.303  0.0949 -0.2933 -0.0482
 1323SOL    HW115605   4.076   0.666   5.306  0.0685 -0.4143 -1.1901
 1323SOL    HW215606   4.015   0.805   5.287  0.2832 -0.0253  1.7669
 1324SOL     OW15607   1.882   2.414   5.957  0.2561 -0.2978  0.1044
 1324SOL    HW115608   1.879   2.506   5.931 -0.0269  0.2125  1.9251
 1324SOL    HW215609   1.807   2.397   6.013  0.1083  0.2528  0.0624
 1325SOL     OW15610   4.214   1.204   9.239 -0.4740  0.3520 -0.3128
 1325SOL    HW115611   4.127   1.233   9.267 -1.1293  0.3274 -2.3499
 1325SOL    HW215612   4.221   1.258   9.161 -1.6937 -0.3066 -0.8888
 1326SOL     OW15613   2.802   4.279   3.418  0.1524 -0.2157 -0.1967
 1326SOL    HW115614   2.821   4.224   3.342  2.0646  0.7632 -0.4119
 1326SOL    HW215615   2.890   4.294   3.450 -0.4370  0.3066  1.1589
 1327SOL     OW15616   1.481   0.796   7.940  0.3891 -0.3853  0.1097
 1327SOL    HW115617   1.432   0.837   7.868 -0.3529  1.4068  1.6396
 1327SOL    HW215618   1.423   0.735   7.986 -1.8881  0.6047 -1.4668
 1328SOL     OW15619   4.438   1.837   9.242  0.8941 -0.5116 -0.2182
 1328SOL    HW115620   4.476   1.783   9.173  2.5069 -0.3079  0.5081
 1328SOL    HW215621   4.393   1.772   9.296 -0.1116 -0.2152 -0.6906
 1329SOL     OW15622   3.117   0.400  15.618  0.8591 -0.4445 -0.5595
 1329SOL    HW115623   3.038   0.407  15.564  0.6856  0.7021 -0.1666
 1329SOL    HW215624   3.083   0.320  15.657  0.5697  0.0198  0.1444
 1330SOL     OW15625   1.622   1.304   7.988  0.0043  0.3135  0.6663
 1330SOL    HW115626   1.540   1.329   8.030  0.4274  0.8177  1.1894
 1330SOL    HW215627   1.618   1.210   8.003 -2.1521  0.4086  0.6699
 1331SOL     OW15628   0.555   4.643   1.614 -0.3944 -0.0308  0.0419
 1331SOL    HW115629   0.472   4.600   1.636 -0.5631  1.2782  1.8978
 1331SOL    HW215630   0.612   4.605   1.681  0.3116 -1.1915 -1.1969
 1332SOL     OW15631   3.917   3.106   4.942  0.3438  0.1561  0.4984
 1332SOL    HW115632   3.900   3.192   4.980 -0.8307 -1.1341  2.8826
 1332SOL    HW215633   4.004   3.125   4.906  0.8899  0.8703  2.1645
 1333SOL     OW15634   2.555   1.135   5.058  0.1371  0.1008 -0.2853
 1333SOL    HW115635   2.480   1.130   4.998  0.0363 -0.8484 -0.0771
 1333SOL    HW215636   2.633   1.141   5.003 -0.8729 -1.2670 -1.8484
 1334SOL     OW15637   4.076   0.195   7.516 -0.1808 -0.7596  0.2341
 1334SOL    HW115638   3.985   0.169   7.530 -0.5619  0.0929 -0.6566
 1334SOL    HW215639   4.055   0.237   7.432 -0.3102  0.1677  0.7345
 1335SOL     OW15640   1.443   2.507  11.504  0.0203 -0.4030  0.3414
 1335SOL    HW115641   1.424   2.550  11.587 -1.2656  0.3836 -0.3653
 1335SOL    HW215642   1.471   2.419  11.528  3.1064  0.4587 -0.0921
 1336SOL     OW15643   3.484   0.646   0.601  0.3712  0.3932 -0.3437
 1336SOL    HW115644   3.550   0.715   0.606  1.5199 -0.5676 -2.1996
 1336SOL    HW215645   3.542   0.572   0.584 -1.5207 -1.2989  0.5478
 1337SOL     OW15646   0.804   2.986  15.228  0.1656  0.6396  0.5000
 1337SOL    HW115647   0.715   2.963  15.200  0.8964 -1.0353 -0.3988
 1337SOL    HW215648   0.791   3.078  15.252  4.5862  1.0113  1.5623
 1338SOL     OW15649   1.443   2.685   3.261  0.2860  0.2957  0.1769
 1338SOL    HW115650   1.381   2.692   3.189 -0.4337 -0.9798  0.6672
 1338SOL    HW215651   1.457   2.777   3.282  2.0910 -0.0564  0.4998
 1339SOL     OW15652   4.214   4.484   4.201 -0.3168 -0.5078 -0.4182
 1339SOL    HW115653   4.193   4.566   4.246 -1.5527 -1.1621  0.2117
 1339SOL    HW215654   4.239   4.422   4.270  0.2622 -1.2890 -1.3318
 1340SOL     OW15655   0.806   3.127  10.762  0.0577  0.0126  0.4029
 1340SOL    HW115656   0.891   3.090  10.739 -0.1308 -1.3447  1.9049
 1340SOL    HW215657   0.804   3.196  10.695  1.8041 -0.8858 -0.5672
 1341SOL     OW15658   0.067   3.938   4.751 -0.4836 -0.1719 -1.3360
 1341SOL    HW115659   0.053   4.014   4.696 -1.2606  1.6968  1.4362
 1341SOL    HW215660   0.152   3.961   4.788 -1.2874  0.3873  0.1719
 1342SOL     OW15661   2.226   2.448   4.736 -0.1661  0.4174  0.1993
 1342SOL    HW115662   2.246   2.507   4.809 -0.1994 -0.7106  1.1140
 1342SOL    HW215663   2.312   2.432   4.698  1.2510 -1.5632  4.3487
 1343SOL     OW15664   1.009   3.069   9.119 -0.2123 -0.1773  0.4948
 1343SOL    HW115665   1.030   2.978   9.140 -1.8538 -0.5033  0.6972
 1343SOL    HW215666   0.926   3.063   9.072 -0.1576 -1.0759  0.5211
 1344SOL     OW15667   2.430   4.221  11.986  0.3395  0.0555  0.4690
 1344SOL    HW115668   2.468   4.135  12.000  0.1830  0.1086  1.2089
 1344SOL    HW215669   2.487   4.267  11.924  1.0789  0.4359  1.4509
 1345SOL     OW15670   2.394   2.152   1.700  0.4779 -0.4198 -0.4947
 1345SOL    HW115671   2.371   2.109   1.618  1.9041  0.4871 -1.3649
 1345SOL    HW215672   2.331   2.222   1.720 -1.1643 -2.4268  1.3368
 1346SOL     OW15673   4.357   3.425   6.092  0.1374 -0.2830  0.3414
 1346SOL    HW115674   4.285   3.421   6.155 -0.1116  2.9115  0.2166
 1346SOL    HW215675   4.310   3.376   6.025 -0.8599  2.3466 -0.8587
 1347SOL     OW15676   2.767   1.284   8.172 -0.6575  0.0372 -0.1103
 1347SOL    HW115677   2.861   1.298   8.181 -0.7404 -0.3520  1.3837
 1347SOL    HW215678   2.748   1.245   8.257  0.6723  0.9457  0.5983
 1348SOL     OW15679   4.158   2.437  13.360  0.2981  0.1326 -0.6515
 1348SOL    HW115680   4.172   2.349  13.393  2.1436  0.1634 -1.3298
 1348SOL    HW215681   4.245   2.450  13.321  0.3207 -1.4820 -1.1373
 1349SOL     OW15682   3.131   4.203   0.652  0.1316  0.2738 -0.0391
 1349SOL    HW115683   3.101   4.291   0.628  0.4192  0.0830 -1.1000
 1349SOL    HW215684   3.178   4.184   0.571 -0.0607 -0.0507 -0.0718
 1350SOL     OW15685   3.710   4.469   8.740  0.2838  0.2467 -0.0950
 1350SOL    HW115686   3.645   4.403   8.717 -0.3287  0.1169  2.0142
 1350SOL    HW215687   3.687   4.531   8.671  0.1125 -0.9732 -1.1232
 1351SOL     OW15688   3.148   2.902   6.436 -0.2715  0.1241  0.0058
 1351SOL    HW115689   3.110   2.959   6.504 -1.4311 -0.2227 -0.3530
 1351SOL    HW215690   3.073   2.868   6.387  0.7565 -0.8227 -0.9129
 1352SOL     OW15691   1.750   3.952   6.070  0.0782 -0.3068  0.2078
 1352SOL    HW115692   1.836   3.952   6.029 -0.3573 -1.3573 -0.6780
 1352SOL    HW215693   1.733   4.046   6.063  1.1054 -0.1108  0.2292
 1353SOL     OW15694   3.543   1.925   0.745  0.4423  0.8001  0.1694
 1353SOL    HW115695   3.481   1.853   0.730 -0.6040  1.5622  0.8273
 1353SOL    HW215696   3.592   1.943   0.665  0.3764  2.0352  0.3988
 1354SOL     OW15697   3.335   0.811  10.086 -0.2272  0.5648  0.2798
 1354SOL    HW115698   3.374   0.897  10.103 -0.6113  0.9407 -0.7196
 1354SOL    HW215699   3.404   0.786  10.024  0.2975  1.2747  0.5785
 1355SOL     OW15700   1.037   3.140  10.632  0.5066  0.3526 -0.2935
 1355SOL    HW115701   1.105   3.203  10.654 -0.0106  1.1449 -0.9355
 1355SOL    HW215702   1.007   3.195  10.559 -1.7140 -0.8620 -0.2840
 1356SOL     OW15703   2.305   3.921   9.026 -0.3928 -0.1508  0.6131
 1356SOL    HW115704   2.218   3.894   8.997 -1.1171  1.0246  1.7451
 1356SOL    HW215705   2.365   3.887   8.959  1.4949 -1.1233  2.7888
 1357SOL     OW15706   4.429   2.365   7.174 -0.1828 -0.0578  0.0375
 1357SOL    HW115707   4.493   2.295   7.186 -0.5610  0.2365  3.9048
 1357SOL    HW215708   4.407   2.400   7.261  2.1815 -0.0626  0.6218
 1358SOL     OW15709   2.198   3.775  17.404 -0.4967 -0.7788  0.4349
 1358SOL    HW115710   2.213   3.779  17.498  0.7459  0.2965  0.1911
 1358SOL    HW215711   2.127   3.840  17.412 -0.0288 -0.8770  5.4838
 1359SOL     OW15712   3.669   0.753   6.700 -0.1927 -0.2111 -0.5450
 1359SOL    HW115713   3.665   0.825   6.763 -1.0079 -1.1098  0.4447
 1359SOL    HW215714   3.601   0.690   6.725  1.4277 -1.8926 -0.4219
 1360SOL     OW15715   3.943   3.433  12.199 -0.1417 -0.2037 -0.0206
 1360SOL    HW115716   3.977   3.522  12.212 -0.5163  0.0642 -0.8247
 1360SOL    HW215717   3.963   3.414  12.107  1.4816  0.1565  0.2687
 1361SOL     OW15718   4.233   0.410   2.287 -0.6904 -0.0739 -0.9148
 1361SOL    HW115719   4.322   0.382   2.306 -0.9640 -0.1003  0.3561
 1361SOL    HW215720   4.235   0.504   2.307 -1.1129 -0.2277 -0.1410
 1362SOL     OW15721   1.083   0.347  15.917 -0.4158  0.6120 -0.0260
 1362SOL    HW115722   1.071   0.431  15.962 -1.9068  0.8170 -0.7985
 1362SOL    HW215723   1.065   0.279  15.981  1.1058  0.7452  0.5208
 1363SOL     OW15724   0.943   1.791   0.222 -0.0186  0.2318 -0.3358
 1363SOL    HW115725   0.954   1.868   0.278  0.7759  1.8342 -2.6859
 1363SOL    HW215726   1.029   1.750   0.227 -0.9185 -1.3512  1.8172
 1364SOL     OW15727   2.421   0.335   7.385  0.1466  0.4376 -0.1061
 1364SOL    HW115728   2.513   0.357   7.370  1.1137 -2.2557  1.8995
 1364SOL    HW215729   2.414   0.312   7.478  0.6500 -0.8188 -0.3687
 1365SOL     OW15730   1.631   4.727   2.644 -0.1582  0.4690  0.7672
 1365SOL    HW115731   1.696   4.730   2.573 -1.4117 -0.1029 -0.4185
 1365SOL    HW215732   1.560   4.707   2.583  1.4617  1.8960 -1.5808
 1366SOL     OW15733   0.997   0.040   8.169  0.3314 -0.1756 -0.1435
 1366SOL    HW115734   0.957   0.047   8.255  1.0174 -2.1314  0.3299
 1366SOL    HW215735   0.920   0.045   8.112 -0.5001  0.4984  1.0428
 1367SOL     OW15736   2.069   4.267   7.636  0.3186  0.3452  0.0764
 1367SOL    HW115737   2.075   4.172   7.641  2.4925  0.5898  2.7101
 1367SOL    HW215738   1.993   4.280   7.581  1.1364 -0.2906 -1.2053
 1368SOL     OW15739   1.170   4.021  15.956  0.2546 -0.3921 -0.1866
 1368SOL    HW115740   1.191   4.109  15.986 -1.3886  0.6766 -2.2017
 1368SOL    HW215741   1.253   3.975  15.969  0.0555 -1.1459 -1.6012
 1369SOL     OW15742   0.231   3.736   1.794 -0.0402  1.0353  0.2653
 1369SOL    HW115743   0.141   3.721   1.822  0.4884 -1.2760  0.6903
 1369SOL    HW215744   0.220   3.829   1.773 -1.7139  0.4544 -1.3956
 1370SOL     OW15745   2.094   1.818   4.179 -0.3387 -0.0275  0.4292
 1370SOL    HW115746   2.092   1.747   4.114 -0.3952  1.3373 -1.0633
 1370SOL    HW215747   2.061   1.780   4.261  0.8154  0.4011  1.0776
 1371SOL     OW15748   3.943   3.562   4.316 -0.4442  0.1134  0.0297
 1371SOL    HW115749   3.942   3.609   4.400  0.1490  0.8159 -0.3571
 1371SOL    HW215750   3.964   3.474   4.346  3.3915  0.8747 -0.4881
 1372SOL     OW15751   1.568   0.292   8.640  0.5685 -0.1653  0.1978
 1372SOL    HW115752   1.555   0.331   8.726  2.2755  2.2680 -0.6652
 1372SOL    HW215753   1.482   0.256   8.617  0.8466 -1.1332  0.6819
 1373SOL     OW15754   1.035   0.014  12.145  0.3255 -0.0756 -0.5890
 1373SOL    HW115755   1.022   0.108  12.150  0.5968 -0.1472  1.1961
 1373SOL    HW215756   0.998   4.722  12.228  1.9235 -0.9692 -0.1897
 1374SOL     OW15757   3.744   0.422  14.149 -0.2624 -0.2208 -1.1099
 1374SOL    HW115758   3.817   0.403  14.208 -1.0240 -1.1200 -0.4618
 1374SOL    HW215759   3.677   0.448  14.211 -0.5884  0.5671 -1.7932
 1375SOL     OW15760   2.096   1.914   5.079 -0.1004 -0.4087 -0.1339
 1375SOL    HW115761   2.040   1.896   5.155  0.4109  3.2046  1.0869
 1375SOL    HW215762   2.042   1.873   5.011 -0.6160  2.4170 -1.3872
 1376SOL     OW15763   2.217   0.075   6.800  0.2953 -0.4847 -0.1240
 1376SOL    HW115764   2.169   0.105   6.723 -2.0385  0.8188  1.8155
 1376SOL    HW215765   2.152   0.093   6.868 -1.4936 -0.5227 -1.8060
 1377SOL     OW15766   1.450   2.862   0.095 -0.3591 -0.2443  0.1883
 1377SOL    HW115767   1.418   2.951   0.114 -1.5878 -0.2823 -1.7310
 1377SOL    HW215768   1.451   2.829   0.185  1.9123 -0.4692  0.0899
 1378SOL     OW15769   0.736   0.748   5.401 -0.4896  0.2255  0.4887
 1378SOL    HW115770   0.721   0.841   5.416 -0.7877  0.2674 -0.0671
 1378SOL    HW215771   0.822   0.754   5.360 -0.4899  1.9568  0.7434
 1379SOL     OW15772   3.930   1.552   3.718  0.9259 -0.0179  0.2999
 1379SOL    HW115773   3.854   1.543   3.775  0.8484  0.1245  0.2186
 1379SOL    HW215774   3.905   1.629   3.668  2.1249 -0.1886 -0.5661
 1380SOL     OW15775   3.362   0.359  15.532  0.2636  0.3985 -0.3662
 1380SOL    HW115776   3.340   0.278  15.486  0.7713  0.1593 -0.1957
 1380SOL    HW215777   3.274   0.389  15.553  0.4860  1.0417 -0.3393
 1381SOL     OW15778   4.381   2.042   6.271  0.8099  0.0947 -0.3673
 1381SOL    HW115779   4.400   2.127   6.230  1.9489  0.1319  0.2532
 1381SOL    HW215780   4.455   2.024   6.329  0.1690  2.1095  1.0965
 1382SOL     OW15781   2.198   1.588   1.091  0.0098  0.7196  0.2196
 1382SOL    HW115782   2.164   1.599   1.003  0.0260  0.0958  0.1365
 1382SOL    HW215783   2.288   1.620   1.079  0.5897 -1.4230 -0.9617
 1383SOL     OW15784   1.895   1.939   2.713  0.0730 -0.1463 -0.0113
 1383SOL    HW115785   1.851   1.951   2.629  0.1729  0.8985  0.0879
 1383SOL    HW215786   1.821   1.941   2.773  0.4550 -1.4769  0.4991
 1384SOL     OW15787   0.845   1.642   7.123 -0.0812  0.6025  0.2106
 1384SOL    HW115788   0.809   1.588   7.194 -0.3935  0.9595  0.3257
 1384SOL    HW215789   0.921   1.595   7.089 -0.0803  0.8533 -0.1264
 1385SOL     OW15790   3.911   1.127   3.483  0.0700  0.5820  0.3697
 1385SOL    HW115791   3.967   1.139   3.407 -0.7628  0.2247 -0.3026
 1385SOL    HW215792   3.973   1.163   3.546 -0.6072  1.6654  0.4252
 1386SOL     OW15793   2.268   3.769   6.738  0.3650  0.4682 -0.0139
 1386SOL    HW115794   2.264   3.682   6.697 -0.2411  0.9040 -0.8775
 1386SOL    HW215795   2.361   3.790   6.730 -0.0106  1.0403 -2.8527
 1387SOL     OW15796   4.632   4.603   8.708  0.1721 -0.2254 -0.7722
 1387SOL    HW115797   4.636   4.534   8.775  2.0876 -1.3874 -2.0760
 1387SOL    HW215798   4.557   4.646   8.749 -1.2397 -1.3681 -2.1494
 1388SOL     OW15799   2.752   0.900  15.158  0.3225  0.1458  0.0014
 1388SOL    HW115800   2.838   0.934  15.181 -0.4699 -0.7677  4.3585
 1388SOL    HW215801   2.772   0.810  15.184 -0.4798 -0.2643 -0.7799
 1389SOL     OW15802   0.253   0.087   3.047 -0.8298 -0.0140 -0.2700
 1389SOL    HW115803   0.272   0.180   3.032  3.2703 -0.5892  1.3187
 1389SOL    HW215804   0.254   0.049   2.959  1.8526 -1.5704  0.4291
 1390SOL     OW15805   4.012   0.257   9.833  0.4311  0.5658  0.2768
 1390SOL    HW115806   3.960   0.195   9.884  0.0861  0.8177  0.2337
 1390SOL    HW215807   4.050   0.301   9.910  2.4658 -0.2419 -0.2710
 1391SOL     OW15808   2.236   1.148   9.759 -0.2114 -0.5491  0.3996
 1391SOL    HW115809   2.218   1.199   9.680  1.5528 -0.9734 -0.2769
 1391SOL    HW215810   2.151   1.147   9.803 -1.6147 -2.7759 -2.4277
 1392SOL     OW15811   2.847   1.249   2.711 -0.1505 -0.5873 -0.3368
 1392SOL    HW115812   2.817   1.176   2.657 -1.0209 -1.4693  1.3253
 1392SOL    HW215813   2.791   1.321   2.683  2.8876  2.4853  1.4705
 1393SOL     OW15814   4.046   2.151  10.569 -0.3232  0.5459  0.3368
 1393SOL    HW115815   4.058   2.109  10.654  0.5795  2.1037  0.9780
 1393SOL    HW215816   4.052   2.243  10.595 -0.9738  0.3951  1.0184
 1394SOL     OW15817   1.320   3.300   2.906 -0.0405 -0.3023 -0.0156
 1394SOL    HW115818   1.311   3.205   2.901  0.7960 -0.2255 -2.7698
 1394SOL    HW215819   1.307   3.330   2.816 -3.3481 -0.4670  0.4099
 1395SOL     OW15820   2.371   0.049   4.619 -0.4070 -0.0478  0.1135
 1395SOL    HW115821   2.411   0.114   4.561 -0.2181  0.0070  0.3042
 1395SOL    HW215822   2.422   4.706   4.608 -0.6008  0.0133 -1.2377
 1396SOL     OW15823   0.314   0.389  11.380  0.5138  0.2140 -0.0479
 1396SOL    HW115824   0.296   0.311  11.327  0.2833  0.6702 -0.6467
 1396SOL    HW215825   0.362   0.345  11.449  0.0763 -1.4473 -0.7949
 1397SOL     OW15826   2.994   2.379  13.519 -0.0771 -0.5592 -0.7235
 1397SOL    HW115827   3.037   2.328  13.587 -1.8208 -2.7210 -1.2490
 1397SOL    HW215828   3.067   2.438  13.504 -0.1089 -0.1276  0.8456
 1398SOL     OW15829   1.941   3.863  14.486 -0.1028 -0.4715 -0.1102
 1398SOL    HW115830   2.027   3.893  14.456 -0.4745 -0.2099 -0.9045
 1398SOL    HW215831   1.920   3.946  14.530  1.1966 -0.8652  1.2627
 1399SOL     OW15832   4.666   4.588  13.101 -0.0063  0.0755  0.2565
 1399SOL    HW115833   4.706   4.675  13.106  0.3265 -0.0259 -0.6223
 1399SOL    HW215834   4.601   4.610  13.168  2.0525  0.3177  2.1828
 1400SOL     OW15835   4.318   4.512   8.811  0.0767 -1.3399  0.2641
 1400SOL    HW115836   4.350   4.597   8.780 -4.0165 -0.2809 -1.1478
 1400SOL    HW215837   4.303   4.523   8.905  1.9401 -0.4869  0.4651
 1401SOL     OW15838   1.358   0.644   1.625 -0.2349  0.5024  0.2632
 1401SOL    HW115839   1.416   0.579   1.664  2.3588  1.8479 -1.2849
 1401SOL    HW215840   1.375   0.624   1.533  1.7397 -0.1844  0.7710
 1402SOL     OW15841   2.249   1.585  12.724  0.0930  0.3178  0.0122
 1402SOL    HW115842   2.230   1.512  12.783  1.4871 -0.1030 -0.0608
 1402SOL    HW215843   2.164   1.595  12.681 -0.0877  0.6228  0.4480
 1403SOL     OW15844   2.870   4.717   4.768 -0.2257  0.2667 -0.2903
 1403SOL    HW115845   2.866   4.650   4.701 -0.5062 -0.9529  0.9494
 1403SOL    HW215846   2.963   4.730   4.788 -0.4506  0.5351  0.5997
 1404SOL     OW15847   4.124   3.968  13.906  0.3653 -0.0775 -0.2334
 1404SOL    HW115848   4.204   4.016  13.929 -0.4849  1.2810 -0.0931
 1404SOL    HW215849   4.069   4.046  13.897  1.4752  0.5838 -1.2796
 1405SOL     OW15850   1.180   4.310  15.975 -0.0171 -0.2392  0.4903
 1405SOL    HW115851   1.212   4.350  15.894  0.4161 -1.9659 -0.1886
 1405SOL    HW215852   1.249   4.334  16.036 -1.1432 -0.2489  1.7680
 1406SOL     OW15853   1.811   0.602   5.570  0.0085 -0.4541  0.2451
 1406SOL    HW115854   1.892   0.611   5.620  0.9800  0.5241 -1.5009
 1406SOL    HW215855   1.809   0.681   5.516  3.0063  0.5878  1.6252
 1407SOL     OW15856   1.697   2.326   4.278  0.4018  0.0091 -0.2583
 1407SOL    HW115857   1.713   2.420   4.287  0.4863  0.0539 -0.8707
 1407SOL    HW215858   1.608   2.311   4.311 -0.0615  1.7441 -0.7197
 1408SOL     OW15859   0.031   3.260   6.112 -0.4158  0.2717 -0.6509
 1408SOL    HW115860   0.038   3.186   6.051  1.3096 -0.3134  0.2845
 1408SOL    HW215861   4.714   3.228   6.184  0.8426  2.7406  1.3594
 1409SOL     OW15862   2.734   1.251   4.600  0.3128  0.7237  0.1605
 1409SOL    HW115863   2.758   1.214   4.516  1.4314 -0.8176  1.1505
 1409SOL    HW215864   2.666   1.191   4.632 -0.3402  1.7063  0.6182
 1410SOL     OW15865   4.583   3.466  15.942 -0.0472 -0.0488 -0.6736
 1410SOL    HW115866   4.672   3.499  15.930 -0.4671  1.4527  0.3998
 1410SOL    HW215867   4.544   3.507  15.865 -1.0287  0.8613  0.3066
 1411SOL     OW15868   3.710   0.853   3.686  0.4200  0.0468  0.3368
 1411SOL    HW115869   3.706   0.764   3.652 -0.2157  0.7586 -1.4886
 1411SOL    HW215870   3.769   0.901   3.628  0.6555 -0.9468 -0.2325
 1412SOL     OW15871   0.558   2.074   5.474 -0.1546 -0.1705  0.5395
 1412SOL    HW115872   0.473   2.118   5.480 -0.9553 -1.4039 -1.9279
 1412SOL    HW215873   0.558   2.033   5.388  2.5167 -0.0111  0.4748
 1413SOL     OW15874   3.937   1.528   5.976  0.3562 -0.3544 -0.1690
 1413SOL    HW115875   3.996   1.602   5.960  0.6653 -0.9822 -1.8793
 1413SOL    HW215876   3.867   1.581   6.016  0.2550 -2.1945  2.1173
 1414SOL     OW15877   3.553   3.977  11.776 -0.0263  0.4891 -0.9745
 1414SOL    HW115878   3.553   4.026  11.694 -0.8943  0.0159 -1.2513
 1414SOL    HW215879   3.544   4.053  11.834 -0.3299  0.4981 -1.0359
 1415SOL     OW15880   2.503   1.591  10.105  0.3272  0.2041  0.0957
 1415SOL    HW115881   2.556   1.612  10.182  0.1972 -0.8706  0.4798
 1415SOL    HW215882   2.564   1.619  10.037  1.1914  0.8915  1.1387
 1416SOL     OW15883   3.970   0.216   3.001 -0.0863 -0.5485  0.5704
 1416SOL    HW115884   3.999   0.143   2.947  1.1730 -0.0155  0.5260
 1416SOL    HW215885   3.929   0.270   2.933  1.2928 -0.5196 -0.2388
 1417SOL     OW15886   2.293   3.625   2.462 -0.3694 -0.3473 -0.1197
 1417SOL    HW115887   2.240   3.704   2.458  0.4839  0.2773  0.9351
 1417SOL    HW215888   2.271   3.576   2.382 -0.5711  1.2405 -1.0423
 1418SOL     OW15889   3.426   1.721   2.665 -0.3904 -0.1784  0.2327
 1418SOL    HW115890   3.508   1.677   2.684 -0.0348  0.8128  1.0142
 1418SOL    HW215891   3.450   1.776   2.591 -2.1717 -2.3608 -1.9675
 1419SOL     OW15892   1.541   2.347  15.224 -0.2904 -0.2912 -0.1043
 1419SOL    HW115893   1.611   2.346  15.160  0.0636  1.5323  0.2597
 1419SOL    HW215894   1.552   2.262  15.267  1.7669  0.2043  0.3190
 1420SOL     OW15895   0.124   4.173   4.018  0.1986 -0.1745 -0.2327
 1420SOL    HW115896   0.071   4.224   3.957 -0.4532 -0.6016 -0.0247
 1420SOL    HW215897   0.194   4.237   4.032 -1.6952  1.7299  0.4603
 1421SOL     OW15898   2.612   1.542  13.466  0.0413  0.1329 -0.2649
 1421SOL    HW115899   2.519   1.552  13.445 -0.3498 -2.5658  0.1765
 1421SOL    HW215900   2.602   1.538  13.561 -1.1151  2.2337 -0.3153
 1422SOL     OW15901   1.439   1.877   3.530 -0.0789 -0.2912  0.3591
 1422SOL    HW115902   1.521   1.899   3.574 -0.5588  1.5413  0.3376
 1422SOL    HW215903   1.455   1.792   3.490 -1.8645  1.4454 -4.0921
 1423SOL     OW15904   0.102   2.892   5.891  0.4623  0.3505  0.1157
 1423SOL    HW115905   0.034   2.835   5.854  1.6472 -0.6260 -0.5431
 1423SOL    HW215906   0.060   2.975   5.868  0.9695  0.3819 -0.6999
 1424SOL     OW15907   3.509   4.456  16.296  0.2368 -0.7493 -0.1978
 1424SOL    HW115908   3.599   4.446  16.327  0.0230 -0.9616  0.3601
 1424SOL    HW215909   3.468   4.508  16.365  1.7491  1.7365 -1.1405
 1425SOL     OW15910   1.950   1.061   0.784 -0.3207  0.2687  0.2737
 1425SOL    HW115911   1.986   1.092   0.701 -0.0070  0.6030  0.5329
 1425SOL    HW215912   1.863   1.034   0.755 -0.4296 -0.3228  1.1558
 1426SOL     OW15913   0.487   4.109   3.827  0.3545  0.2161 -0.3920
 1426SOL    HW115914   0.503   4.111   3.732 -1.0914 -1.8347 -0.6900
 1426SOL    HW215915   0.454   4.019   3.837 -0.8393  0.6809 -0.1388
 1427SOL     OW15916   2.723   2.890  15.332  0.4771  0.1426  0.6557
 1427SOL    HW115917   2.805   2.851  15.301  0.2587 -0.8602  1.3468
 1427SOL    HW215918   2.701   2.821  15.394  1.7930  0.4042  1.4244
 1428SOL     OW15919   1.542   0.146  10.696 -0.1361 -0.2841  0.2597
 1428SOL    HW115920   1.613   0.083  10.684  0.3027 -0.0123  1.4895
 1428SOL    HW215921   1.491   0.112  10.622  1.1546  0.2288 -0.8678
 1429SOL     OW15922   2.617   1.645   8.268 -0.1817  0.8327  0.8121
 1429SOL    HW115923   2.602   1.651   8.173  1.3468  0.2260  0.5239
 1429SOL    HW215924   2.707   1.679   8.261 -0.5397  1.2238 -2.1994
 1430SOL     OW15925   4.305   3.712   9.950  0.4707 -0.0902  0.9686
 1430SOL    HW115926   4.354   3.759   9.883 -1.5675  0.4316 -0.1796
 1430SOL    HW215927   4.230   3.766   9.976  0.1179  0.7460 -1.7910
 1431SOL     OW15928   0.871   2.891   8.312  0.1531 -0.5326  0.7621
 1431SOL    HW115929   0.805   2.928   8.253  0.7605 -0.1037  0.3436
 1431SOL    HW215930   0.857   2.797   8.305  1.9025 -0.8709  1.8733
 1432SOL     OW15931   2.891   3.351  11.267 -0.6856  0.2019 -0.4383
 1432SOL    HW115932   2.982   3.372  11.285 -0.9347  0.3040  0.7229
 1432SOL    HW215933   2.866   3.427  11.215 -2.1072 -0.8745 -1.3366
 1433SOL     OW15934   3.454   4.632   9.452  0.0049  0.3646 -0.8164
 1433SOL    HW115935   3.377   4.676   9.415  1.2543  3.3820  0.1567
 1433SOL    HW215936   3.414   4.590   9.528  1.3151 -0.2521 -0.4765
 1434SOL     OW15937   2.495   0.055   7.483  0.1276  0.2771 -0.0592
 1434SOL    HW115938   2.412   0.068   7.530  0.5447  1.2864  0.4092
 1434SOL    HW215939   2.514   4.703   7.513  0.7449 -0.3258 -2.3031
 1435SOL     OW15940   2.054   4.287   3.351  0.4169  0.2403  0.5543
 1435SOL    HW115941   2.128   4.323   3.301  2.7440 -1.1688  2.9498
 1435SOL    HW215942   2.085   4.311   3.439 -2.1362 -0.9245  1.7594
 1436SOL     OW15943   3.090   3.995  16.873  1.1148  0.3442  0.3532
 1436SOL    HW115944   3.098   4.025  16.783  0.6428  1.2032  0.5980
 1436SOL    HW215945   3.013   3.939  16.866 -0.1153  2.3839 -2.5305
 1437SOL     OW15946   3.095   2.898  16.421  0.4937  0.0067 -0.7071
 1437SOL    HW115947   3.133   2.959  16.358  3.6872 -0.9554  0.2802
 1437SOL    HW215948   3.096   2.807  16.391 -1.7333  0.3102 -1.6851
 1438SOL     OW15949   1.033   1.345  12.493 -0.5724 -0.3330  0.0089
 1438SOL    HW115950   1.006   1.424  12.540  0.2969 -0.0360  0.0238
 1438SOL    HW215951   1.039   1.279  12.563 -0.7331  0.8778  1.1771
 1439SOL     OW15952   4.509   2.534   9.392 -0.1414 -0.3596 -1.1283
 1439SOL    HW115953   4.431   2.506   9.441 -0.5390  2.3329 -0.1813
 1439SOL    HW215954   4.507   2.482   9.312 -0.5205 -0.9264 -0.7517
 1440SOL     OW15955   2.336   2.517  12.914 -1.1454 -0.1838  0.7047
 1440SOL    HW115956   2.287   2.579  12.860 -0.1236  1.5904  1.8342
 1440SOL    HW215957   2.331   2.445  12.850 -0.6632  0.2810  0.1401
 1441SOL     OW15958   2.946   4.653   9.154 -0.6422 -0.3790  0.3251
 1441SOL    HW115959   3.024   4.606   9.122  0.5449  0.7990  1.5231
 1441SOL    HW215960   2.976   0.006   9.137 -0.2592 -0.5051  0.3388
 1442SOL     OW15961   2.794   2.139   1.542  0.6640 -0.4080  0.0693
 1442SOL    HW115962   2.740   2.069   1.506 -0.8338  1.0409 -0.5359
 1442SOL    HW215963   2.764   2.137   1.633  0.1690  1.6817 -0.0498
 1443SOL     OW15964   2.167   4.038   2.577 -0.3522 -0.6017  0.0927
 1443SOL    HW115965   2.260   4.058   2.566 -0.7071 -0.5353 -2.6693
 1443SOL    HW215966   2.163   3.957   2.526  0.3116 -0.8951  0.5089
 1444SOL     OW15967   3.870   3.644   6.471 -0.4833 -0.3519 -0.1377
 1444SOL    HW115968   3.937   3.710   6.491 -1.3063  0.1865  0.8811
 1444SOL    HW215969   3.888   3.643   6.377  0.0124  2.1271 -0.0853
 1445SOL     OW15970   4.438   1.342   1.137  0.7863 -0.1708  0.0457
 1445SOL    HW115971   4.505   1.275   1.149 -1.1831 -2.1465  0.0121
 1445SOL    HW215972   4.484   1.418   1.103  0.4994  0.0254  0.0892
 1446SOL     OW15973   2.944   3.205   1.119 -0.2350 -0.5211 -0.5260
 1446SOL    HW115974   2.946   3.165   1.206  0.3637 -1.5020 -0.9902
 1446SOL    HW215975   2.907   3.291   1.140 -3.1439 -1.8885 -0.1735
 1447SOL     OW15976   0.131   1.641   9.546 -0.5357  0.8832 -0.4408
 1447SOL    HW115977   0.060   1.584   9.517  0.9682 -1.2798  0.1054
 1447SOL    HW215978   0.088   1.700   9.608 -0.1393  0.0742  0.6115
 1448SOL     OW15979   1.286   2.721   7.507 -0.0699  0.0889 -0.2747
 1448SOL    HW115980   1.208   2.667   7.520  0.6616 -1.3372 -1.7316
 1448SOL    HW215981   1.285   2.714   7.411 -2.2178  0.3871 -0.2804
 1449SOL     OW15982   4.022   3.607   7.292  0.0667 -0.6107  0.4449
 1449SOL    HW115983   4.011   3.574   7.381 -1.9970 -0.2520  0.3243
 1449SOL    HW215984   4.093   3.557   7.252 -2.8873 -4.2289 -0.3648
 1450SOL     OW15985   2.953   0.577   3.850  0.0196  0.3027 -0.0149
 1450SOL    HW115986   2.930   0.600   3.760 -2.1329  0.4460  0.5779
 1450SOL    HW215987   2.972   0.662   3.891  0.3733 -0.7227  1.9278
 1451SOL     OW15988   1.500   0.483   1.835 -0.1374  0.2993  0.0403
 1451SOL    HW115989   1.451   0.491   1.917  1.2930 -2.3837  1.1603
 1451SOL    HW215990   1.565   0.549   1.860 -0.4800  0.0578  1.5782
 1452SOL     OW15991   4.107   2.467  16.609 -0.2686  0.2731  1.0897
 1452SOL    HW115992   4.024   2.419  16.611  0.3320 -0.7477  1.1566
 1452SOL    HW215993   4.083   2.551  16.569  0.2207 -0.4764 -0.7584
 1453SOL     OW15994   1.495   3.145   9.004  0.3106  0.0295  0.2411
 1453SOL    HW115995   1.477   3.111   9.092  0.7346 -0.5030  0.1204
 1453SOL    HW215996   1.590   3.138   9.001  0.1669 -1.5560 -0.4919
 1454SOL     OW15997   1.918   1.784   3.084  0.0134  0.4330  0.0236
 1454SOL    HW115998   1.961   1.862   3.120  1.0664 -0.2908  0.3456
 1454SOL    HW215999   1.931   1.714   3.148 -0.1523 -0.0511 -0.4746
 1455SOL     OW16000   0.030   2.466  10.802  0.5075 -0.2254  0.2624
 1455SOL    HW116001   0.112   2.455  10.753 -0.4658 -0.4242 -1.3210
 1455SOL    HW216002   0.038   2.403  10.873 -1.1069  0.4939  1.0873
 1456SOL     OW16003   4.708   0.125   4.900  0.3041 -0.0397 -0.1813
 1456SOL    HW116004   4.646   0.053   4.894  0.5532 -0.1346 -1.5310
 1456SOL    HW216005   0.014   0.150   4.818  2.1872  1.4982  1.2568
 1457SOL     OW16006   2.625   4.366   4.856  0.0042  0.1187  0.0146
 1457SOL    HW116007   2.530   4.359   4.854 -0.0031  0.8054 -1.8404
 1457SOL    HW216008   2.649   4.334   4.769  0.7279  0.2848  0.1515
 1458SOL     OW16009   3.640   2.685   4.174  0.0893  0.2804 -0.1849
 1458SOL    HW116010   3.645   2.669   4.268  4.1303 -0.5941 -0.5824
 1458SOL    HW216011   3.617   2.596   4.148 -0.5606  0.7411 -1.1787
 1459SOL     OW16012   3.969   2.360   4.610 -0.2210 -0.2567 -0.1690
 1459SOL    HW116013   3.883   2.398   4.624 -0.2891 -0.8580  1.0535
 1459SOL    HW216014   3.946   2.269   4.591 -0.9948 -0.3977  1.5404
 1460SOL     OW16015   3.867   3.427  11.217  0.0251 -0.6974 -0.2188
 1460SOL    HW116016   3.929   3.445  11.147  1.3520 -2.0233  0.6043
 1460SOL    HW216017   3.908   3.471  11.292  2.0864 -0.2767 -1.5930
 1461SOL     OW16018   2.410   3.438  17.045  0.1548  0.3630 -0.7557
 1461SOL    HW116019   2.390   3.354  17.003  1.4496 -0.6499  0.6607
 1461SOL    HW216020   2.408   3.492  16.966 -0.5878  3.4087  1.3752
 1462SOL     OW16021   4.073   3.868   3.833 -0.7412 -0.1292 -0.2776
 1462SOL    HW116022   4.087   3.776   3.852  2.7434  0.7312  1.3987
 1462SOL    HW216023   3.977   3.868   3.838 -0.7201  0.8651  0.2760
 1463SOL     OW16024   2.426   1.444   7.755 -0.0572 -0.7408 -0.0949
 1463SOL    HW116025   2.335   1.415   7.746 -0.3592  0.6245 -1.3561
 1463SOL    HW216026   2.406   1.487   7.838  3.1031  0.0575  0.2485
 1464SOL     OW16027   4.003   0.240  15.680  0.2343  0.6557 -0.3689
 1464SOL    HW116028   4.067   0.210  15.744  2.3527  1.8849 -1.9229
 1464SOL    HW216029   3.926   0.186  15.701  2.2406 -1.4427  1.5490
 1465SOL     OW16030   0.241   0.359   3.004 -0.5331 -0.1257 -0.1811
 1465SOL    HW116031   0.237   0.413   2.925 -0.2193  1.0655  0.6157
 1465SOL    HW216032   0.171   0.392   3.061  0.8096  0.9114  0.8676
 1466SOL     OW16033   4.119   0.721  13.918 -0.0932  0.0493 -0.5891
 1466SOL    HW116034   4.105   0.649  13.979  0.9074  0.1379 -0.2474
 1466SOL    HW216035   4.211   0.706  13.895 -0.0427  2.1445 -1.7696
 1467SOL     OW16036   0.055   0.549  13.610 -0.7672  0.3878 -0.3099
 1467SOL    HW116037   0.047   0.454  13.604  0.5635  0.3167 -0.9886
 1467SOL    HW216038   0.122   0.553  13.679  0.8419  0.3651 -1.8550
 1468SOL     OW16039   4.439   1.812   4.298  0.1372  0.4290 -0.1567
 1468SOL    HW116040   4.441   1.839   4.389 -0.5953  0.4492 -0.1476
 1468SOL    HW216041   4.460   1.719   4.307 -1.2977  0.0898 -0.2636
 1469SOL     OW16042   1.231   0.152   6.832  0.1354 -0.7933  0.2073
 1469SOL    HW116043   1.198   0.125   6.747 -0.7238 -0.9937  0.6059
 1469SOL    HW216044   1.152   0.195   6.865  2.5113  2.1935  2.0636
 1470SOL     OW16045   4.028   4.443   3.926  0.2333 -0.3612  0.2272
 1470SOL    HW116046   4.030   4.539   3.923  1.8050 -0.3705  0.7975
 1470SOL    HW216047   4.052   4.430   4.018  2.5201  1.8897 -0.0314
 1471SOL     OW16048   3.065   0.689  15.529  0.1625 -0.6277  0.2810
 1471SOL    HW116049   3.119   0.624  15.574  0.9647 -1.0989 -1.3827
 1471SOL    HW216050   3.007   0.629  15.482  0.8766 -0.6601 -0.5577
 1472SOL     OW16051   3.068   4.402   3.191  0.1152 -0.3020  0.3088
 1472SOL    HW116052   3.022   4.321   3.215 -1.3767 -0.1324 -1.9210
 1472SOL    HW216053   3.118   4.380   3.112 -1.1220 -0.1224 -0.5126
 1473SOL     OW16054   0.702   1.985  16.165  0.2730 -0.6386 -0.2680
 1473SOL    HW116055   0.660   2.047  16.106 -0.4265 -0.7822  0.0822
 1473SOL    HW216056   0.763   2.047  16.205 -0.7269  0.2234 -0.0844
 1474SOL     OW16057   1.071   1.176  12.696 -0.4674 -0.3784 -0.5633
 1474SOL    HW116058   1.114   1.193  12.779  1.5661 -2.0097 -1.2863
 1474SOL    HW216059   1.113   1.097  12.661 -0.7031 -1.0015  0.5533
 1475SOL     OW16060   1.616   0.913   5.674 -0.3899 -0.1079  0.1395
 1475SOL    HW116061   1.676   0.971   5.721  0.2459 -1.9163  1.5694
 1475SOL    HW216062   1.678   0.870   5.615  0.2205  1.2090 -0.1558
 1476SOL     OW16063   0.917   2.410  10.269 -0.2863 -0.3024  0.8442
 1476SOL    HW116064   0.836   2.459  10.261  1.1010  1.6421 -1.3160
 1476SOL    HW216065   0.967   2.472  10.322  1.9224 -1.8264  0.5435
 1477SOL     OW16066   3.483   2.618  14.399 -0.3733  0.3210 -0.4149
 1477SOL    HW116067   3.533   2.694  14.427 -0.5722  0.3410 -0.1129
 1477SOL    HW216068   3.455   2.643  14.311 -1.7957 -0.2415 -0.1390
 1478SOL     OW16069   2.643   2.444   6.067  0.7639 -0.0283  0.2155
 1478SOL    HW116070   2.663   2.431   5.974  1.2974  0.6854  0.2199
 1478SOL    HW216071   2.728   2.478   6.096  0.0106  1.0271  1.1920
 1479SOL     OW16072   2.889   3.511   7.521  0.5514  0.1808  0.1809
 1479SOL    HW116073   2.918   3.597   7.490  0.4876  1.1470  2.7740
 1479SOL    HW216074   2.956   3.511   7.589  0.4980  0.1277  0.2343
 1480SOL     OW16075   1.348   1.520   4.251  0.5898  0.1072 -0.0577
 1480SOL    HW116076   1.440   1.530   4.225  0.3460  0.4101 -0.7906
 1480SOL    HW216077   1.350   1.431   4.287  1.2216  0.8434  1.7209
 1481SOL     OW16078   3.650   2.475   7.364 -0.5403  0.3198  0.2294
 1481SOL    HW116079   3.660   2.457   7.458  0.1727  1.3299  0.3433
 1481SOL    HW216080   3.659   2.571   7.361  0.9607  0.1000 -1.6289
 1482SOL     OW16081   4.526   3.159   5.211 -0.6017 -0.0096 -0.3149
 1482SOL    HW116082   4.562   3.237   5.251 -1.2149 -0.1051  0.4133
 1482SOL    HW216083   4.568   3.088   5.260  0.1612  0.1380 -0.7525
 1483SOL     OW16084   2.613   2.985  16.402  0.5064  0.2826 -0.1732
 1483SOL    HW116085   2.625   3.065  16.453  1.4893  0.0662 -0.0678
 1483SOL    HW216086   2.698   2.944  16.415 -0.2978 -0.8250  1.4948
 1484SOL     OW16087   2.682   2.602   4.355  0.1315 -0.1122  0.2393
 1484SOL    HW116088   2.729   2.678   4.319  0.6568 -0.0489  1.0605
 1484SOL    HW216089   2.603   2.645   4.386 -0.6218  0.3580 -2.3201
 1485SOL     OW16090   1.852   2.383   6.639  0.2629 -0.3316 -0.8115
 1485SOL    HW116091   1.876   2.391   6.546  3.9109  1.0888  0.2740
 1485SOL    HW216092   1.771   2.332   6.635  0.0013 -0.0735  1.4347
 1486SOL     OW16093   2.209   4.044   6.826  0.1798 -0.0175 -0.0648
 1486SOL    HW116094   2.280   4.064   6.888  0.8006 -0.6794 -0.5671
 1486SOL    HW216095   2.227   3.970   6.769 -0.0857 -0.0923 -0.0493
 1487SOL     OW16096   4.322   2.609  10.614  0.4461  0.5177 -0.0598
 1487SOL    HW116097   4.250   2.655  10.657 -1.6843 -2.0087 -0.8758
 1487SOL    HW216098   4.284   2.574  10.533  1.2044 -0.3939 -0.0283
 1488SOL     OW16099   0.237   2.165   7.047  0.0771 -0.0236 -0.3817
 1488SOL    HW116100   0.229   2.195   6.956  0.1019  0.7597 -0.1262
 1488SOL    HW216101   0.265   2.078   7.018 -1.3830 -0.1956 -1.2710
 1489SOL     OW16102   2.940   4.118   2.725 -0.6744 -0.2471 -0.2105
 1489SOL    HW116103   3.006   4.062   2.766 -0.6025  1.0610  1.4325
 1489SOL    HW216104   2.983   4.174   2.660 -1.5675 -1.5986 -1.9775
 1490SOL     OW16105   0.418   2.709   8.313 -0.2531  0.0872  0.5681
 1490SOL    HW116106   0.479   2.750   8.252 -3.1648  1.0204 -1.7426
 1490SOL    HW216107   0.360   2.659   8.256 -0.1430 -1.0339  1.4543
 1491SOL     OW16108   2.652   2.900   0.678 -0.0380  0.0283 -0.3969
 1491SOL    HW116109   2.744   2.923   0.691  0.4911 -2.1806 -0.1001
 1491SOL    HW216110   2.666   2.818   0.631 -1.4462 -1.9534  2.6596
 1492SOL     OW16111   3.826   3.182   1.934  0.7500 -0.0222  0.0114
 1492SOL    HW116112   3.807   3.111   1.996 -1.0822  2.1721  1.9293
 1492SOL    HW216113   3.903   3.153   1.885 -0.1949 -0.6770 -1.0858
 1493SOL     OW16114   3.881   1.299  16.188 -0.3292  0.2463 -0.0072
 1493SOL    HW116115   3.831   1.267  16.263 -0.6347  0.9214  0.0759
 1493SOL    HW216116   3.954   1.239  16.172 -2.3127 -1.8679 -1.0360
 1494SOL     OW16117   2.775   1.498   5.945  0.2949  0.1817 -0.3342
 1494SOL    HW116118   2.844   1.479   6.008 -0.0246 -1.1114 -0.3901
 1494SOL    HW216119   2.705   1.450   5.989  0.1094  0.9943  0.2610
 1495SOL     OW16120   3.206   4.397   1.403 -0.6433  0.0959 -0.3646
 1495SOL    HW116121   3.209   4.336   1.330  0.7165 -0.6569  0.3114
 1495SOL    HW216122   3.277   4.363   1.458 -0.0071  0.0033 -1.2482
 1496SOL     OW16123   1.749   3.959   2.795  0.0454  0.4203  0.2433
 1496SOL    HW116124   1.829   3.914   2.767 -0.1267 -0.2944  0.9112
 1496SOL    HW216125   1.766   4.050   2.768  0.1310  0.2715 -0.2124
 1497SOL     OW16126   2.188   2.171   5.083  0.0391  0.1821  0.0093
 1497SOL    HW116127   2.168   2.077   5.079  0.5889  0.0803 -0.3748
 1497SOL    HW216128   2.099   2.198   5.062 -0.0462  0.8934  1.3266
 1498SOL     OW16129   0.514   0.967   3.765 -0.5777  0.1747  0.0228
 1498SOL    HW116130   0.534   0.978   3.672  1.8491  1.8239  0.7389
 1498SOL    HW216131   0.600   0.954   3.805 -0.2638  0.8207 -0.4402
 1499SOL     OW16132   2.576   3.093  15.440  0.0222  0.0854 -0.6423
 1499SOL    HW116133   2.639   3.025  15.415 -0.0769  0.9011 -3.0767
 1499SOL    HW216134   2.573   3.148  15.362 -0.0603  0.0541 -0.6604
 1500SOL     OW16135   2.107   1.259   2.272 -0.0814 -0.1841  0.5103
 1500SOL    HW116136   2.109   1.241   2.178 -0.3372  1.6816  0.1410
 1500SOL    HW216137   2.125   1.353   2.270 -0.0289 -0.1487  3.0240
 1501SOL     OW16138   3.320   1.969  12.836  0.4112  0.8074  0.2779
 1501SOL    HW116139   3.344   1.876  12.836  2.2327  1.2688  2.0329
 1501SOL    HW216140   3.255   1.967  12.766 -0.7361  2.7702  1.3007
 1502SOL     OW16141   1.729   3.817   5.782 -0.1455  0.5544 -0.3757
 1502SOL    HW116142   1.697   3.732   5.750  0.2722  1.1693 -2.3497
 1502SOL    HW216143   1.693   3.811   5.871  0.8437  0.1520  0.0022
 1503SOL     OW16144   2.631   2.384   7.956 -0.4064 -0.0330 -0.3639
 1503SOL    HW116145   2.640   2.409   8.048 -1.4855  0.8025 -0.4833
 1503SOL    HW216146   2.537   2.397   7.940 -0.4356  0.3575  0.1142
 1504SOL     OW16147   3.779   2.841  10.964  0.1961  0.3659 -0.1144
 1504SOL    HW116148   3.866   2.861  10.930  0.6989 -0.5431  0.6357
 1504SOL    HW216149   3.807   2.769  11.021 -0.6783  2.2487  2.6889
 1505SOL     OW16150   2.433   1.671   2.638  0.1231 -0.4372 -0.0464
 1505SOL    HW116151   2.419   1.645   2.547 -0.3070 -1.0752  0.2015
 1505SOL    HW216152   2.491   1.747   2.629  0.4448 -0.3254  3.1024
 1506SOL     OW16153   1.871   3.762   7.209  0.1938  0.3440 -0.8153
 1506SOL    HW116154   1.888   3.798   7.296 -2.4280  2.6026 -1.2380
 1506SOL    HW216155   1.897   3.831   7.147  2.7862 -0.7849 -1.0041
 1507SOL     OW16156   3.562   2.630   8.425  0.7068 -0.1875 -0.6524
 1507SOL    HW116157   3.595   2.601   8.510  1.1445  3.1402  0.3480
 1507SOL    HW216158   3.554   2.725   8.433 -0.7828 -0.3781  0.1576
 1508SOL     OW16159   0.844   1.296   3.863 -0.5068  0.3467  0.1179
 1508SOL    HW116160   0.913   1.291   3.796 -1.5370 -0.3465 -0.8822
 1508SOL    HW216161   0.845   1.390   3.878 -0.4706  0.8300 -2.8274
 1509SOL     OW16162   4.281   3.956   5.996 -0.1043 -0.2843  0.1092
 1509SOL    HW116163   4.197   3.998   6.013 -1.2604 -3.0253  1.1363
 1509SOL    HW216164   4.343   4.025   6.019  1.6500 -2.5913  2.2603
 1510SOL     OW16165   0.921   1.549   3.933 -0.2983  0.3890 -0.6274
 1510SOL    HW116166   0.996   1.557   3.873  0.8115 -2.0079  0.4335
 1510SOL    HW216167   0.967   1.562   4.016 -1.2247  0.2350 -0.1001
 1511SOL     OW16168   4.728   2.458   2.622  0.4767  0.1494  0.0785
 1511SOL    HW116169   0.008   2.387   2.561  0.3574 -0.1777  0.4229
 1511SOL    HW216170   4.698   2.407   2.698 -0.9225 -1.7194 -1.7485
 1512SOL     OW16171   4.364   4.477   6.206  0.0489  0.1038  0.3039
 1512SOL    HW116172   4.403   4.543   6.148 -0.1751 -1.5801 -1.7773
 1512SOL    HW216173   4.412   4.491   6.288  0.7010  1.5870 -0.3271
 1513SOL     OW16174   3.329   4.098   7.879  0.2390 -0.3704  0.0391
 1513SOL    HW116175   3.241   4.134   7.896  0.9961  1.1193  0.7997
 1513SOL    HW216176   3.333   4.030   7.946  1.4751 -0.5822 -0.2579
 1514SOL     OW16177   4.409   1.492   7.724 -0.7608 -0.0026  0.0126
 1514SOL    HW116178   4.354   1.570   7.728 -0.4932  0.0850  1.7993
 1514SOL    HW216179   4.351   1.420   7.749  0.4799 -1.1263 -0.3127
 1515SOL     OW16180   0.365   1.039   3.525  0.0714 -0.2841 -0.2074
 1515SOL    HW116181   0.358   1.086   3.441 -0.2628 -1.1756 -0.6807
 1515SOL    HW216182   0.340   0.950   3.500  0.6928 -1.1179  2.1676
 1516SOL     OW16183   3.764   0.695   7.922  0.2444 -0.7598  0.2137
 1516SOL    HW116184   3.845   0.745   7.931  0.4462 -1.0451 -0.0232
 1516SOL    HW216185   3.744   0.673   8.013  0.1349 -0.2616  0.3095
 1517SOL     OW16186   0.838   2.730   4.569 -0.5383 -0.3559 -0.1123
 1517SOL    HW116187   0.930   2.753   4.581 -0.4435 -0.7834 -0.0143
 1517SOL    HW216188   0.838   2.678   4.488 -2.4016  0.4110 -0.6017
 1518SOL     OW16189   3.624   3.070   3.250 -0.1339 -0.0360  0.4797
 1518SOL    HW116190   3.638   3.070   3.156 -1.0423 -2.0414  0.3340
 1518SOL    HW216191   3.552   3.132   3.257 -0.3346 -0.1826 -0.2991
 1519SOL     OW16192   2.946   0.451   4.855 -0.5005 -0.2362  0.1769
 1519SOL    HW116193   2.931   0.369   4.903  2.0028 -0.2372  0.9280
 1519SOL    HW216194   3.016   0.497   4.900 -0.8543 -0.8643  1.3660
 1520SOL     OW16195   4.149   0.735   4.174 -0.1031 -0.0114 -0.2778
 1520SOL    HW116196   4.161   0.781   4.091 -0.6201  1.4441  0.4591
 1520SOL    HW216197   4.182   0.797   4.238  0.2175 -1.1149  0.6195
 1521SOL     OW16198   3.881   2.404   7.193  0.2693  0.0143  0.0007
 1521SOL    HW116199   3.955   2.432   7.247  0.7143 -1.3035  0.0665
 1521SOL    HW216200   3.820   2.470   7.226  0.2686 -0.0943  0.2130
 1522SOL     OW16201   1.164   0.034   6.585  0.1650  0.3865  0.1053
 1522SOL    HW116202   1.147   4.700   6.647  2.3024  0.9447  1.3026
 1522SOL    HW216203   1.178   4.723   6.503  0.0623 -0.3838  0.5359
 1523SOL     OW16204   1.937   0.987   4.428 -0.5147  0.0188  0.0552
 1523SOL    HW116205   1.969   0.925   4.362  0.4890  0.2543  0.3212
 1523SOL    HW216206   1.854   1.010   4.385  0.8772 -0.3919 -2.8517
 1524SOL     OW16207   1.384   3.487  13.077 -0.1932  0.1676  0.4621
 1524SOL    HW116208   1.368   3.477  13.171 -0.1028  0.3396  0.4943
 1524SOL    HW216209   1.400   3.578  13.051  0.1944 -1.0129 -3.4696
 1525SOL     OW16210   0.717   1.140   3.589 -0.7931  0.4510 -0.1430
 1525SOL    HW116211   0.688   1.089   3.514 -0.1178  1.7920 -1.3152
 1525SOL    HW216212   0.787   1.197   3.557 -0.8833 -1.0598 -3.0150
 1526SOL     OW16213   2.366   0.785   8.413  0.1052 -0.3695  0.3913
 1526SOL    HW116214   2.398   0.786   8.504 -0.6821  0.5401  0.6614
 1526SOL    HW216215   2.425   0.715   8.386  0.4910 -0.1113  0.5742
 1527SOL     OW16216   0.498   0.192   6.667 -0.6003  0.0774  0.2369
 1527SOL    HW116217   0.456   0.232   6.743  2.0387 -0.0528  1.7678
 1527SOL    HW216218   0.576   0.247   6.654 -1.5221  1.3059 -0.0920
 1528SOL     OW16219   3.961   1.281   7.858 -0.4065  0.2667 -0.0981
 1528SOL    HW116220   3.876   1.237   7.864  0.7744 -1.8831  0.8408
 1528SOL    HW216221   4.011   1.206   7.824  0.4631  0.2034  1.3313
 1529SOL     OW16222   3.655   2.445  14.497 -0.4247 -0.2312  0.4727
 1529SOL    HW116223   3.601   2.384  14.446  0.6769 -1.3082  0.5990
 1529SOL    HW216224   3.603   2.522  14.474 -0.0717 -0.7508 -2.0618
 1530SOL     OW16225   2.987   4.442   7.135  0.0797 -0.1052 -0.1245
 1530SOL    HW116226   2.995   4.525   7.089  0.8052  0.6728  1.4119
 1530SOL    HW216227   2.939   4.479   7.209  0.0601  1.0011 -0.6981
 1531SOL     OW16228   3.138   4.636   7.333  0.1547 -0.1383  0.2822
 1531SOL    HW116229   3.043   4.629   7.341  0.0097 -1.3654 -2.2851
 1531SOL    HW216230   3.161   4.658   7.423 -1.1948  0.6642  0.4313
 1532SOL     OW16231   1.425   3.547  10.271 -0.4290  0.3188 -0.5394
 1532SOL    HW116232   1.369   3.616  10.306  0.0132 -0.0072  0.7933
 1532SOL    HW216233   1.366   3.473  10.255 -1.0688  1.3131 -2.7641
 1533SOL     OW16234   4.256   2.572   9.129  0.1618  0.2669 -0.2249
 1533SOL    HW116235   4.346   2.606   9.127  0.0790  0.6215  1.2894
 1533SOL    HW216236   4.220   2.628   9.061  0.5772  2.1829  1.1184
 1534SOL     OW16237   3.339   0.102   5.243  0.6282 -0.2357  0.0943
 1534SOL    HW116238   3.274   0.066   5.183 -0.1989 -1.6512  1.8405
 1534SOL    HW216239   3.417   0.125   5.192 -0.1481  2.0109 -0.0619
 1535SOL     OW16240   1.443   0.620   4.365  0.4894  0.3395  0.1889
 1535SOL    HW116241   1.508   0.668   4.417  1.6468 -0.8065 -0.1905
 1535SOL    HW216242   1.425   0.562   4.439 -0.3623  1.2717  0.7141
 1536SOL     OW16243   3.347   0.130   5.985 -0.1358 -0.0424 -0.6754
 1536SOL    HW116244   3.410   0.180   5.934  0.7139 -0.6241 -0.1866
 1536SOL    HW216245   3.276   0.152   5.924  1.3897 -2.5233 -3.3014
 1537SOL     OW16246   2.203   4.640   1.136  0.0999  0.3978 -0.5282
 1537SOL    HW116247   2.174   4.663   1.048 -0.7939  3.0251  0.4613
 1537SOL    HW216248   2.233   4.550   1.125 -0.7842 -0.0962  1.1471
 1538SOL     OW16249   1.752   0.191   4.716 -0.1987  0.1660  0.4336
 1538SOL    HW116250   1.716   0.170   4.802 -0.1057  1.1173  0.7064
 1538SOL    HW216251   1.811   0.264   4.736  0.0444 -0.1105  0.7228
 1539SOL     OW16252   1.639   0.264   1.718 -0.2277 -0.1189 -0.2871
 1539SOL    HW116253   1.574   0.333   1.722  1.2604  1.2340  0.3102
 1539SOL    HW216254   1.685   0.264   1.802  0.2340  0.1843 -0.5454
 1540SOL     OW16255   0.098   4.146   3.127 -0.0624 -0.5429  0.5537
 1540SOL    HW116256   0.047   4.218   3.165  0.2599 -0.0790  0.1162
 1540SOL    HW216257   0.072   4.148   3.035  0.2292  1.3837  0.4985
 1541SOL     OW16258   0.626   0.764   4.191  0.6576  0.3496 -0.0531
 1541SOL    HW116259   0.635   0.844   4.243  1.1920 -0.6991  1.4840
 1541SOL    HW216260   0.533   0.769   4.169  0.5906 -1.2464 -0.1466
 1542SOL     OW16261   2.875   0.892   8.120  0.1647 -0.5010  0.3933
 1542SOL    HW116262   2.833   0.816   8.159  1.2064 -1.5787 -0.6044
 1542SOL    HW216263   2.794   0.935   8.092  1.4617  0.7112 -1.5341
 1543SOL     OW16264   0.560   1.831   5.187 -0.9044  0.2001  0.2145
 1543SOL    HW116265   0.631   1.794   5.135 -0.1763 -1.7631  2.5826
 1543SOL    HW216266   0.594   1.920   5.198 -0.7545 -0.2460  3.3104
 1544SOL     OW16267   2.225   1.102   2.794  0.4596  0.6492  0.1627
 1544SOL    HW116268   2.286   1.119   2.866  0.2804 -0.5563  0.6070
 1544SOL    HW216269   2.235   1.175   2.733  2.9454  0.1541 -0.0440
 1545SOL     OW16270   1.052   1.826   6.323  0.2546 -0.4568 -0.6066
 1545SOL    HW116271   1.062   1.738   6.358 -3.1496 -0.8493 -0.5980
 1545SOL    HW216272   1.083   1.880   6.396 -0.0052 -0.6588 -0.3502
 1546SOL     OW16273   2.036   3.192  12.711  0.1109 -0.0097  0.7038
 1546SOL    HW116274   2.070   3.264  12.658 -0.3974 -1.7090 -1.9461
 1546SOL    HW216275   1.976   3.249  12.757  1.2321 -0.1179  2.3258
 1547SOL     OW16276   1.749   2.635   1.127 -0.2902  0.4275  0.2171
 1547SOL    HW116277   1.667   2.672   1.160 -0.2679  0.7194 -0.0564
 1547SOL    HW216278   1.767   2.694   1.054 -0.7156 -0.5322 -0.6694
 1548SOL     OW16279   0.491   0.460   7.845  0.0585 -0.0648 -0.1845
 1548SOL    HW116280   0.421   0.398   7.864  0.6185 -1.1800 -1.7325
 1548SOL    HW216281   0.504   0.492   7.934  2.0047  1.5587 -1.0485
 1549SOL     OW16282   1.100   3.736   7.178  0.3358  0.3475  0.3518
 1549SOL    HW116283   1.070   3.684   7.252 -1.0098 -1.2173 -1.3059
 1549SOL    HW216284   1.018   3.724   7.130  1.6953  0.8670 -2.0885
 1550SOL     OW16285   4.304   2.539   4.413  0.1470  0.4816  0.4727
 1550SOL    HW116286   4.268   2.515   4.499 -0.3109 -1.1736 -0.1885
 1550SOL    HW216287   4.254   2.491   4.348 -0.2719 -0.8751  1.7946
 1551SOL     OW16288   1.636   2.049   1.498  0.7174 -0.2430 -0.2227
 1551SOL    HW116289   1.596   1.972   1.458  1.9067 -0.4293 -1.0550
 1551SOL    HW216290   1.697   2.012   1.562  0.3502  0.9998  0.8604
 1552SOL     OW16291   2.121   4.407   0.112  0.4606 -0.1541 -0.6485
 1552SOL    HW116292   2.210   4.394   0.077  1.3110  1.2521  0.9937
 1552SOL    HW216293   2.128   4.502   0.097  0.8554 -0.0185  0.4217
 1553SOL     OW16294   1.952   2.417   4.406  0.2974  0.0542  0.2943
 1553SOL    HW116295   1.866   2.454   4.387  0.7002  0.5079 -0.6920
 1553SOL    HW216296   1.974   2.385   4.318 -0.9512  2.6983 -0.9918
 1554SOL     OW16297   4.179   1.137  14.138 -0.0668  0.2982  0.2169
 1554SOL    HW116298   4.244   1.195  14.179  1.0581  0.0897 -1.2979
 1554SOL    HW216299   4.100   1.190  14.129  0.6094  1.0526 -1.1727
 1555SOL     OW16300   3.551   3.628   2.238 -0.5035  0.2768 -0.2236
 1555SOL    HW116301   3.643   3.635   2.264 -0.5151 -0.3012 -0.0257
 1555SOL    HW216302   3.561   3.682   2.160 -1.9134 -1.4343 -1.5869
 1556SOL     OW16303   3.610   4.389   5.530 -0.6402 -0.2219 -0.3304
 1556SOL    HW116304   3.545   4.360   5.594 -1.1595 -1.5962 -1.4900
 1556SOL    HW216305   3.604   4.484   5.540 -2.6741 -0.2685 -1.2854
 1557SOL     OW16306   2.558   2.929   6.930  0.0603  0.4151  0.2224
 1557SOL    HW116307   2.560   2.992   7.002  0.5426  1.2000 -0.4952
 1557SOL    HW216308   2.500   2.860   6.964  1.2011  0.1094  1.5537
 1558SOL     OW16309   4.626   2.160   0.313 -1.7876  0.9542 -0.9303
 1558SOL    HW116310   4.612   2.237   0.368  0.9424 -1.1225  2.6870
 1558SOL    HW216311   4.640   2.198   0.226 -1.6083  1.0131 -0.8752
 1559SOL     OW16312   2.492   1.101   2.351  0.0919 -0.1333 -0.1059
 1559SOL    HW116313   2.484   1.193   2.378  1.4621  0.3771 -1.4604
 1559SOL    HW216314   2.410   1.068   2.388  0.5630 -1.5512 -0.3386
 1560SOL     OW16315   3.726   1.212   2.841  0.0566 -0.8989 -0.1598
 1560SOL    HW116316   3.809   1.256   2.856 -0.6945  0.6287 -0.4639
 1560SOL    HW216317   3.719   1.171   2.927 -1.3799  0.4016  0.3560
 1561SOL     OW16318   1.177   0.489   7.587  0.3609  0.3076 -0.1498
 1561SOL    HW116319   1.230   0.534   7.652  1.1122 -0.4148 -0.2698
 1561SOL    HW216320   1.097   0.541   7.577 -0.4671 -0.5850  1.8602
 1562SOL     OW16321   3.048   3.029   8.630 -0.8329  0.3642  0.9772
 1562SOL    HW116322   3.080   3.047   8.541 -0.3668  3.1575  1.7128
 1562SOL    HW216323   3.059   3.113   8.673  1.5037  0.8949 -0.6258
 1563SOL     OW16324   4.655   2.677   3.900 -0.4694 -0.3544 -0.6121
 1563SOL    HW116325   0.007   2.694   3.934  0.0404  0.1915 -2.1750
 1563SOL    HW216326   4.635   2.585   3.912  1.9389 -0.7476  0.4249
 1564SOL     OW16327   4.269   0.611   8.661 -0.4483  0.4661  0.4769
 1564SOL    HW116328   4.174   0.604   8.664 -0.2013 -2.5259  0.5459
 1564SOL    HW216329   4.284   0.703   8.685  0.3251  0.1808  1.0731
 1565SOL     OW16330   3.320   3.006   4.366  0.0847 -0.4921  0.1932
 1565SOL    HW116331   3.392   3.009   4.429  1.1492  1.5557 -1.1533
 1565SOL    HW216332   3.337   2.922   4.324  1.8636  1.1758 -2.3947
 1566SOL     OW16333   3.542   3.398  15.455 -0.3135 -0.0714  0.2206
 1566SOL    HW116334   3.559   3.460  15.526 -1.3152 -0.1552  0.5295
 1566SOL    HW216335   3.568   3.460  15.386  1.0452 -1.7903 -0.8153
 1567SOL     OW16336   1.191   4.488   3.520  0.6236 -0.5259 -0.4243
 1567SOL    HW116337   1.101   4.521   3.519 -0.0426 -2.3861 -1.5152
 1567SOL    HW216338   1.181   4.436   3.441  1.0013  0.5096 -1.1478
 1568SOL     OW16339   0.469   4.685   8.431 -0.2553 -0.3807  0.4351
 1568SOL    HW116340   0.411   0.013   8.391 -3.0454 -2.2390  1.5362
 1568SOL    HW216341   0.423   4.612   8.391 -0.3809  0.6373 -1.2988
 1569SOL     OW16342   3.279   0.421  15.855 -0.2826  0.2505 -0.3468
 1569SOL    HW116343   3.257   0.341  15.903  1.2774 -0.9396 -1.5527
 1569SOL    HW216344   3.234   0.411  15.771 -0.2918  0.5766 -0.3789
 1570SOL     OW16345   4.133   3.801   6.532  0.0811  0.6762 -0.1424
 1570SOL    HW116346   4.098   3.865   6.469 -0.8680  0.9151  0.6281
 1570SOL    HW216347   4.227   3.811   6.521  0.5997  0.7443  4.3553
 1571SOL     OW16348   1.812   2.241   7.158  0.1057  0.0265  0.2486
 1571SOL    HW116349   1.761   2.257   7.079 -1.0458 -2.0418  0.5593
 1571SOL    HW216350   1.809   2.325   7.204  0.6831 -0.5022  1.2580
 1572SOL     OW16351   1.503   2.843  16.861 -0.3250 -0.3089 -0.6078
 1572SOL    HW116352   1.527   2.910  16.797 -0.2768  0.0792 -0.1841
 1572SOL    HW216353   1.433   2.797  16.814 -1.5601  2.5491 -1.5871
 1573SOL     OW16354   4.680   3.910   8.976  0.0181 -0.4315 -0.2382
 1573SOL    HW116355   4.614   3.975   9.000  0.3245  0.3094 -1.4199
 1573SOL    HW216356   0.027   3.955   8.986  2.5943 -5.3150  0.1713
 1574SOL     OW16357   1.417   0.189   2.265  0.0604  0.0558 -0.4667
 1574SOL    HW116358   1.464   0.110   2.237  2.1332  0.1446  2.7829
 1574SOL    HW216359   1.466   0.257   2.219  1.1957  0.7393  1.7503
 1575SOL     OW16360   4.670   3.064   3.869  0.1495 -0.0416 -0.0602
 1575SOL    HW116361   4.701   3.100   3.952  2.1015 -0.5726 -0.5682
 1575SOL    HW216362   4.605   3.009   3.912  0.6365 -0.9838 -0.5418
 1576SOL     OW16363   3.819   2.924   3.390 -0.1097  0.3761  0.3031
 1576SOL    HW116364   3.757   2.968   3.332 -0.1855 -1.4781 -1.0257
 1576SOL    HW216365   3.785   2.837   3.410  0.2150 -0.1935 -1.5851
 1577SOL     OW16366   1.562   0.267  11.794 -0.8239  0.4745  0.1356
 1577SOL    HW116367   1.521   0.214  11.726  0.3197  0.4198 -0.5205
 1577SOL    HW216368   1.652   0.234  11.802  0.2854  3.1254 -1.1376
 1578SOL     OW16369   3.053   0.080   3.432  0.0191 -0.0843  0.5892
 1578SOL    HW116370   3.135   0.044   3.396 -0.3158 -0.1519 -0.1133
 1578SOL    HW216371   3.067   0.060   3.524  2.5321  0.6332  0.3778
 1579SOL     OW16372   3.659   3.893   5.008  0.4011 -0.0560 -0.2901
 1579SOL    HW116373   3.743   3.847   5.019  0.2620 -0.4726 -0.9945
 1579SOL    HW216374   3.675   3.964   5.070 -1.6130 -1.1293  1.4607
 1580SOL     OW16375   1.883   3.696  11.413 -0.0799 -0.0456  0.3299
 1580SOL    HW116376   1.860   3.685  11.505  0.0767 -2.8816  0.0320
 1580SOL    HW216377   1.884   3.604  11.386 -0.1369  0.1673 -0.3989
 1581SOL     OW16378   4.653   3.047   6.829  0.5079  0.9287 -0.1123
 1581SOL    HW116379   4.562   3.071   6.847  0.3692 -0.1596  0.6365
 1581SOL    HW216380   4.695   3.125   6.792  1.6735  1.1969  1.8099
 1582SOL     OW16381   2.204   4.447   9.331  0.1884  0.6058  0.5999
 1582SOL    HW116382   2.286   4.494   9.319  0.3452  0.4449  1.0554
 1582SOL    HW216383   2.234   4.356   9.324  1.2868  0.8880  1.7313
 1583SOL     OW16384   2.369   2.727   8.468 -0.2906  0.1445  0.1079
 1583SOL    HW116385   2.388   2.670   8.543 -0.7224  1.1304  0.9631
 1583SOL    HW216386   2.412   2.807   8.496  0.4538 -0.3541  0.3986
 1584SOL     OW16387   1.338   1.016  11.970  0.3253 -0.1962 -0.1518
 1584SOL    HW116388   1.394   1.054  11.903 -1.3498 -1.2669 -2.1604
 1584SOL    HW216389   1.397   0.970  12.029  0.4316  0.1092 -0.0178
 1585SOL     OW16390   1.283   0.121   5.695 -0.2586  0.3271 -0.0715
 1585SOL    HW116391   1.293   0.215   5.710  0.1747  0.1497  0.7513
 1585SOL    HW216392   1.371   0.084   5.695 -0.2784  0.2585  2.7488
 1586SOL     OW16393   2.622   3.331   4.252 -0.1103  0.5231 -0.4023
 1586SOL    HW116394   2.645   3.239   4.243 -2.7969  0.2673 -4.6351
 1586SOL    HW216395   2.705   3.361   4.288  0.7780 -1.8229 -0.5109
 1587SOL     OW16396   3.134   1.120   7.492  0.2842 -0.2898  0.1829
 1587SOL    HW116397   3.119   1.173   7.571  0.1225  3.0014 -2.0549
 1587SOL    HW216398   3.068   1.160   7.435 -0.9639 -1.0776  1.0794
 1588SOL     OW16399   4.238   1.855   5.019  0.1336  0.0770 -0.7087
 1588SOL    HW116400   4.180   1.785   5.048  1.5489 -0.6532  0.3493
 1588SOL    HW216401   4.193   1.883   4.939 -1.1741 -0.7301 -0.2434
 1589SOL     OW16402   2.399   1.822   3.527  0.4448  0.3784  0.1985
 1589SOL    HW116403   2.310   1.821   3.562  0.5928  0.4054  0.5773
 1589SOL    HW216404   2.449   1.852   3.603  0.0452 -1.5545  1.2217
 1590SOL     OW16405   2.835   2.671   2.865  0.3665 -0.2293  0.1702
 1590SOL    HW116406   2.837   2.766   2.878  0.1152 -0.0915 -0.8019
 1590SOL    HW216407   2.867   2.662   2.775  1.3725  3.7594  0.1283
 1591SOL     OW16408   3.240   3.168   1.097  0.4257 -0.2837 -0.4241
 1591SOL    HW116409   3.160   3.218   1.086  1.1485  0.7229 -1.0404
 1591SOL    HW216410   3.207   3.093   1.147 -0.9617  0.2598 -0.5208
 1592SOL     OW16411   1.892   3.506   2.046  0.4751 -0.8216  0.0816
 1592SOL    HW116412   1.871   3.599   2.034  3.8449 -0.1553 -0.5436
 1592SOL    HW216413   1.965   3.496   1.985  1.0164  2.2236  0.2186
 1593SOL     OW16414   2.817   2.761   3.758 -0.0268  0.2599  0.3721
 1593SOL    HW116415   2.786   2.850   3.772  1.4000  0.5072  1.8909
 1593SOL    HW216416   2.791   2.763   3.665 -0.9980 -2.5267  0.5895
 1594SOL     OW16417   3.815   1.258  14.268  0.1297  0.0009  0.4993
 1594SOL    HW116418   3.870   1.217  14.335 -1.3649  1.6769  2.7420
 1594SOL    HW216419   3.731   1.214  14.274 -0.3291  1.0662  1.6856
 1595SOL     OW16420   0.839   2.552   8.681  0.5333 -0.3482 -0.5355
 1595SOL    HW116421   0.934   2.557   8.667  0.1771 -0.1826 -2.8487
 1595SOL    HW216422   0.807   2.641   8.666  0.8680 -0.1045  0.1626
 1596SOL     OW16423   3.790   1.611  15.029  0.6834  0.0770  0.5037
 1596SOL    HW116424   3.694   1.617  15.033  0.6985  0.4631  0.2404
 1596SOL    HW216425   3.819   1.693  14.989  1.4802 -0.6427 -0.4130
 1597SOL     OW16426   2.156   0.724   3.958 -0.2511  0.3954  0.1442
 1597SOL    HW116427   2.083   0.760   3.908 -0.5577  1.1051  1.1060
 1597SOL    HW216428   2.224   0.783   3.924 -0.2206 -0.1825 -0.8139
 1598SOL     OW16429   1.039   3.210   7.331 -0.5156  0.0161 -0.1187
 1598SOL    HW116430   0.945   3.231   7.330 -0.6707 -0.6695  1.0139
 1598SOL    HW216431   1.059   3.216   7.237  0.1209 -0.5586 -0.0160
 1599SOL     OW16432   0.324   1.728  14.514 -0.0225  0.4886  0.1093
 1599SOL    HW116433   0.364   1.803  14.471 -0.0292  0.7841  0.6140
 1599SOL    HW216434   0.391   1.660  14.504  1.0164  1.2908  1.5527
 1600SOL     OW16435   2.236   0.101   0.563  0.5455  0.2715 -0.5589
 1600SOL    HW116436   2.306   0.069   0.620 -0.8179 -0.2102  0.8152
 1600SOL    HW216437   2.291   0.123   0.487  0.1663  0.8335 -0.6755
 1601SOL     OW16438   2.401   0.976   1.694 -0.1811  0.1530 -0.0750
 1601SOL    HW116439   2.374   0.992   1.604 -1.9915 -1.2345  0.2186
 1601SOL    HW216440   2.496   0.969   1.683 -0.5511 -2.9093 -1.2470
 1602SOL     OW16441   1.032   3.583  12.271  0.1090 -0.5300 -0.0555
 1602SOL    HW116442   1.028   3.524  12.195 -1.5589  0.4611 -0.7418
 1602SOL    HW216443   1.072   3.533  12.342  1.9250  0.2925 -0.4876
 1603SOL     OW16444   1.233   4.206   8.901  0.0073 -0.0090  0.0172
 1603SOL    HW116445   1.311   4.166   8.862 -1.1590 -1.2205 -1.1025
 1603SOL    HW216446   1.164   4.142   8.881  0.6407 -0.6912 -0.0106
 1604SOL     OW16447   3.427   3.349   7.190 -0.1708  0.3710 -0.7762
 1604SOL    HW116448   3.453   3.332   7.099 -0.4068 -1.8411 -0.4285
 1604SOL    HW216449   3.334   3.358   7.170 -0.4013 -0.5786 -0.1225
 1605SOL     OW16450   1.149   1.365   1.462  0.0874  0.5950 -0.3226
 1605SOL    HW116451   1.056   1.342   1.466  0.5753 -1.2506  0.3840
 1605SOL    HW216452   1.149   1.453   1.498 -1.4341 -0.1690  1.5210
 1606SOL     OW16453   0.608   2.926   6.576 -0.3478 -0.3721 -0.4598
 1606SOL    HW116454   0.677   2.992   6.571  0.2369 -0.9778 -0.3792
 1606SOL    HW216455   0.595   2.915   6.481 -1.7695  1.9474 -0.5540
 1607SOL     OW16456   3.518   3.502  10.198  0.7741  0.3014 -0.4911
 1607SOL    HW116457   3.515   3.598  10.204 -4.6701  0.2069 -1.3384
 1607SOL    HW216458   3.445   3.476  10.142  0.9917  1.4573 -1.3125
 1608SOL     OW16459   1.302   0.899   4.864  0.3371 -0.8386  0.3354
 1608SOL    HW116460   1.364   0.837   4.904 -0.1126  0.5662  3.2091
 1608SOL    HW216461   1.283   0.857   4.781  2.8761 -1.1445 -0.0903
 1609SOL     OW16462   3.976   2.958  11.234 -0.8135 -0.0548 -0.4571
 1609SOL    HW116463   3.928   3.027  11.189 -1.1191 -0.5102 -0.8201
 1609SOL    HW216464   3.951   2.879  11.187 -2.2397 -0.0054  0.2220
 1610SOL     OW16465   0.510   3.591   2.529 -0.1245  0.4321  0.8374
 1610SOL    HW116466   0.602   3.610   2.543  0.1883 -0.6939  0.3486
 1610SOL    HW216467   0.484   3.543   2.607  1.0980 -1.2216  0.2164
 1611SOL     OW16468   2.690   0.531   8.854 -0.4983  0.1298 -0.1659
 1611SOL    HW116469   2.782   0.522   8.828 -0.8224 -0.8550 -0.9787
 1611SOL    HW216470   2.649   0.552   8.771 -2.7571  0.7840  1.1336
 1612SOL     OW16471   1.278   2.102   2.052  0.0856 -0.4006  0.0425
 1612SOL    HW116472   1.340   2.152   2.105  0.5390  0.0124 -0.8781
 1612SOL    HW216473   1.223   2.177   2.029  0.2574  0.0424  1.1062
 1613SOL     OW16474   0.544   3.982   9.117  0.2376  0.2556  0.7415
 1613SOL    HW116475   0.581   4.053   9.065  0.2030  0.6602  1.2659
 1613SOL    HW216476   0.564   4.017   9.204  4.2765  2.1798 -0.9798
 1614SOL     OW16477   0.445   2.955   9.228  0.4213 -0.4212 -0.3036
 1614SOL    HW116478   0.448   3.023   9.161 -1.4397 -1.0589 -1.0504
 1614SOL    HW216479   0.512   2.898   9.189 -1.3184 -0.9933 -2.4524
 1615SOL     OW16480   3.090   1.928  15.093 -0.8650  0.4305  0.6839
 1615SOL    HW116481   3.073   2.021  15.106  0.5422  1.1541 -2.6811
 1615SOL    HW216482   3.142   1.941  15.014  0.5101  1.4161  1.7626
 1616SOL     OW16483   3.383   2.525   8.998  0.1903 -0.1979  0.2502
 1616SOL    HW116484   3.355   2.468   9.069 -0.7447  0.1167  0.1371
 1616SOL    HW216485   3.400   2.606   9.045  1.7398  0.0343 -0.6921
 1617SOL     OW16486   3.872   3.753   5.946  0.0939 -0.4335 -0.1419
 1617SOL    HW116487   3.943   3.709   5.899 -0.9820  0.2268 -2.4128
 1617SOL    HW216488   3.883   3.843   5.916  2.1361  0.3422  2.9191
 1618SOL     OW16489   2.549   0.200  16.883  0.2578  0.2580 -0.0764
 1618SOL    HW116490   2.493   0.179  16.958  1.4118  0.0516  0.7435
 1618SOL    HW216491   2.484   0.185  16.815  0.9357 -0.5407 -0.5433
 1619SOL     OW16492   2.923   2.387  13.237 -0.0874 -0.2129  0.1603
 1619SOL    HW116493   2.828   2.376  13.226 -0.1837 -0.6388  1.4226
 1619SOL    HW216494   2.937   2.348  13.323 -1.1128 -3.2476 -1.0427
 1620SOL     OW16495   1.701   2.039   8.395 -0.2796 -0.2308  0.1860
 1620SOL    HW116496   1.735   1.950   8.394  0.0297 -0.1343  1.3422
 1620SOL    HW216497   1.732   2.078   8.313 -2.2401  1.3902  0.2124
 1621SOL     OW16498   1.141   3.052  14.642 -0.4641  0.5571 -0.3288
 1621SOL    HW116499   1.172   2.961  14.645 -2.6647 -0.1978 -0.0189
 1621SOL    HW216500   1.217   3.103  14.615  0.2685  0.1113  0.9088
 1622SOL     OW16501   0.866   2.338   5.387  0.1006  0.0827 -0.5391
 1622SOL    HW116502   0.810   2.409   5.418  0.6145  0.1282  0.2913
 1622SOL    HW216503   0.874   2.276   5.459 -0.9643  0.0083 -0.4892
 1623SOL     OW16504   3.976   3.089   0.132  0.0393 -0.1395 -0.3614
 1623SOL    HW116505   3.955   3.033   0.207 -0.2091  1.4444  0.7491
 1623SOL    HW216506   3.976   3.034   0.054  0.6048 -0.6287 -0.0109
 1624SOL     OW16507   1.120   2.795  10.443  0.5478 -0.1694 -0.3577
 1624SOL    HW116508   1.165   2.806  10.528 -1.5822  2.0163  0.4776
 1624SOL    HW216509   1.081   2.709  10.458 -1.8623  0.8626 -0.7852
 1625SOL     OW16510   3.741   2.808   0.080 -0.2022  0.5706 -0.4333
 1625SOL    HW116511   3.734   2.899   0.050  1.2867  0.5653 -0.7904
 1625SOL    HW216512   3.766   2.824   0.171 -0.6724 -0.8605 -0.0551
 1626SOL     OW16513   2.225   0.954   9.127 -0.3351 -0.4354 -0.2319
 1626SOL    HW116514   2.227   0.930   9.034 -2.5264  0.8188 -0.5817
 1626SOL    HW216515   2.136   0.922   9.141 -0.2289 -1.2365 -1.3329
 1627SOL     OW16516   2.810   4.090   1.352  0.0505 -0.0612  0.2616
 1627SOL    HW116517   2.892   4.083   1.401  0.0536  1.9504  0.5525
 1627SOL    HW216518   2.803   4.185   1.341 -0.8100 -0.1082  0.4186
 1628SOL     OW16519   2.286   0.720   1.187  0.1852 -0.6809  0.1169
 1628SOL    HW116520   2.357   0.656   1.186 -0.3456 -1.2827  0.3095
 1628SOL    HW216521   2.281   0.740   1.280 -1.4526 -0.6355  0.0288
 1629SOL     OW16522   3.616   3.147   5.182  0.3003  0.1807  0.5075
 1629SOL    HW116523   3.587   3.156   5.091 -0.2823 -1.7381  0.4970
 1629SOL    HW216524   3.656   3.232   5.199 -0.4664  0.5741  0.3630
 1630SOL     OW16525   1.186   0.362   2.289 -0.2196  0.8775 -0.3925
 1630SOL    HW116526   1.258   0.307   2.319 -3.3627 -1.3841  2.9619
 1630SOL    HW216527   1.222   0.397   2.208  0.8360  2.0468  0.5722
 1631SOL     OW16528   2.926   3.261   1.591  0.0418  0.0506  0.1249
 1631SOL    HW116529   2.900   3.320   1.520 -0.5111 -1.8343 -1.2706
 1631SOL    HW216530   2.981   3.313   1.648  1.0518  2.4737 -3.1088
 1632SOL     OW16531   0.489   0.137   8.623 -0.3191  0.2752  1.0314
 1632SOL    HW116532   0.468   0.071   8.558  0.3135  0.1615  0.9499
 1632SOL    HW216533   0.435   0.210   8.594  0.0422  0.0921 -0.1011
 1633SOL     OW16534   4.185   3.268  13.308 -0.3011 -0.0244 -0.1497
 1633SOL    HW116535   4.236   3.269  13.389  0.2139 -1.6656 -0.4530
 1633SOL    HW216536   4.137   3.186  13.320  0.2297 -0.2553  0.4067
 1634SOL     OW16537   0.336   3.139   3.141 -0.1470  0.0415 -0.4145
 1634SOL    HW116538   0.410   3.168   3.193 -1.1464  0.5108  0.7314
 1634SOL    HW216539   0.265   3.120   3.202  0.2136 -0.5723 -0.1854
 1635SOL     OW16540   0.733   3.331  10.957 -0.6863  0.3464  0.0722
 1635SOL    HW116541   0.656   3.286  10.993  0.4842 -3.5669 -2.2710
 1635SOL    HW216542   0.769   3.263  10.900  3.0416  1.4077  1.1901
 1636SOL     OW16543   2.911   1.634   7.857 -0.0066 -0.1423  0.6807
 1636SOL    HW116544   2.878   1.666   7.774 -0.5571 -1.2139  0.4916
 1636SOL    HW216545   2.843   1.578   7.894 -0.3779 -1.3883 -1.9273
 1637SOL     OW16546   1.122   0.286   4.487  0.2699  0.0373 -0.4772
 1637SOL    HW116547   1.184   0.317   4.553  0.4527  1.1623 -1.1852
 1637SOL    HW216548   1.135   0.191   4.484  1.9622  0.1908  2.1951
 1638SOL     OW16549   2.496   2.178   3.233 -0.0393  0.6292 -0.2383
 1638SOL    HW116550   2.564   2.115   3.256 -0.8019 -0.1041  0.0080
 1638SOL    HW216551   2.547   2.223   3.166  0.1519  1.3296  0.3717
 1639SOL     OW16552   0.804   2.752  13.809  1.0726  0.8063 -0.2662
 1639SOL    HW116553   0.853   2.834  13.821 -1.7150  2.0533  2.6265
 1639SOL    HW216554   0.714   2.776  13.834  0.0486  0.4782 -3.6509
 1640SOL     OW16555   0.849   3.222   5.340 -0.1670  0.2063  0.3168
 1640SOL    HW116556   0.919   3.215   5.406  0.3034 -0.6408 -0.2627
 1640SOL    HW216557   0.853   3.133   5.304  0.6854  0.6600 -0.7204
 1641SOL     OW16558   1.446   1.399   8.380 -0.0610 -0.2867  0.5381
 1641SOL    HW116559   1.487   1.313   8.373 -1.5956 -1.0031  0.4414
 1641SOL    HW216560   1.394   1.389   8.460 -0.8041 -2.2306 -0.1945
 1642SOL     OW16561   3.192   3.917  11.685  0.4393 -0.2221  0.5722
 1642SOL    HW116562   3.260   3.948  11.744 -0.0442  1.8215  0.0635
 1642SOL    HW216563   3.141   3.853  11.734  1.5083 -1.0234  0.6364
 1643SOL     OW16564   0.023   2.268   2.832  0.0851  0.2319 -0.6405
 1643SOL    HW116565   4.666   2.259   2.813  0.4602 -0.9365 -1.9194
 1643SOL    HW216566   0.049   2.177   2.828 -1.1620 -0.1776  0.5177
 1644SOL     OW16567   3.892   3.448   4.650  0.6067  0.6706 -0.3379
 1644SOL    HW116568   3.859   3.365   4.616 -0.2050  0.5964  0.6214
 1644SOL    HW216569   3.858   3.521   4.598  0.5503  0.5337 -0.4899
 1645SOL     OW16570   2.357   3.613   3.921  0.5578 -0.0661  0.3887
 1645SOL    HW116571   2.294   3.664   3.870  0.9179  1.1294  1.1492
 1645SOL    HW216572   2.338   3.521   3.905  0.9601 -0.0691 -0.0857
 1646SOL     OW16573   0.702   0.707   0.683  0.2611  0.4538  0.7792
 1646SOL    HW116574   0.754   0.668   0.613 -0.5856  2.1851 -0.8038
 1646SOL    HW216575   0.622   0.655   0.669 -0.0036  1.1598 -0.2673
 1647SOL     OW16576   4.195   4.182   2.426  0.2752  0.2370  0.1602
 1647SOL    HW116577   4.268   4.239   2.450  0.1815 -0.3477  1.8410
 1647SOL    HW216578   4.161   4.232   2.352  0.1453 -0.0048  0.0565
 1648SOL     OW16579   0.608   3.006  12.055  0.3397  0.4112 -0.6934
 1648SOL    HW116580   0.684   2.988  12.111  0.1438  2.2777  0.1815
 1648SOL    HW216581   0.535   3.030  12.111  1.9788  1.7103  0.8907
 1649SOL     OW16582   3.365   3.472   5.109 -0.4234  0.0288  0.1633
 1649SOL    HW116583   3.289   3.522   5.081  0.8891  1.1411 -1.4291
 1649SOL    HW216584   3.361   3.380   5.083  0.0123 -0.0264  0.2830
 1650SOL     OW16585   1.906   2.910   8.672  0.3721 -0.1439  0.1190
 1650SOL    HW116586   1.846   2.857   8.620 -1.4533  3.0338 -1.0179
 1650SOL    HW216587   1.992   2.868   8.667  0.4977  0.2454 -1.0713
 1651SOL     OW16588   1.185   3.975   8.518 -0.1148 -0.1460  0.8171
 1651SOL    HW116589   1.118   3.942   8.578 -1.1528 -2.3386 -1.5612
 1651SOL    HW216590   1.221   3.897   8.475  1.0076  1.1619 -0.6191
 1652SOL     OW16591   0.679   1.933   8.119  0.4354  0.3871 -0.4122
 1652SOL    HW116592   0.612   1.892   8.064 -0.2952  0.8921  0.0929
 1652SOL    HW216593   0.640   1.898   8.199  0.2003  0.1800 -0.6171
 1653SOL     OW16594   0.691   1.966   7.077  0.4823 -0.0131 -0.7254
 1653SOL    HW116595   0.601   1.939   7.096  0.1691  1.3689 -0.2659
 1653SOL    HW216596   0.718   1.901   7.013  0.6324 -2.2347  1.5712
 1654SOL     OW16597   0.042   2.149   4.605 -0.0198  0.5533  0.1240
 1654SOL    HW116598   0.021   2.217   4.669  3.9286  1.3861  0.5118
 1654SOL    HW216599   0.015   2.072   4.656 -1.5134  0.8978 -0.1442
 1655SOL     OW16600   0.140   4.231   2.002 -0.2935  0.0009  0.1178
 1655SOL    HW116601   0.067   4.279   2.040 -1.1291 -1.6045  0.5504
 1655SOL    HW216602   0.142   4.267   1.914  0.2317  1.1820  0.6192
 1656SOL     OW16603   0.762   1.857   6.042  0.6143  0.7147 -0.1379
 1656SOL    HW116604   0.710   1.888   5.968 -1.1189 -2.2302 -0.1342
 1656SOL    HW216605   0.831   1.807   5.997  1.9815  0.2795  2.4618
 1657SOL     OW16606   2.421   0.314   0.112  0.4189  0.1598  0.4033
 1657SOL    HW116607   2.509   0.276   0.119  0.1790 -0.3728  0.5513
 1657SOL    HW216608   2.402   0.379   0.180 -2.9329 -0.4256  0.0296
 1658SOL     OW16609   2.882   2.905   5.392  0.3797  0.7918 -0.0931
 1658SOL    HW116610   2.956   2.922   5.333  0.8800  0.6666  0.4952
 1658SOL    HW216611   2.917   2.860   5.468 -0.9546  1.0419  0.6777
 1659SOL     OW16612   4.268   1.722   6.526 -0.0363  0.4263  0.0431
 1659SOL    HW116613   4.288   1.672   6.447 -0.8875 -1.3213  0.9288
 1659SOL    HW216614   4.215   1.790   6.485  1.6792  1.1920 -0.8764
 1660SOL     OW16615   3.918   2.652   8.194 -0.0734  0.3894 -0.4662
 1660SOL    HW116616   3.840   2.629   8.143  0.3086  1.6425 -1.6184
 1660SOL    HW216617   3.870   2.714   8.249  1.5246 -0.3624  1.7693
 1661SOL     OW16618   2.657   1.071   8.060  0.0191 -0.1863  0.2419
 1661SOL    HW116619   2.690   1.155   8.092  0.7662 -0.0981 -0.7634
 1661SOL    HW216620   2.582   1.059   8.118  0.2391 -0.8480  0.3878
 1662SOL     OW16621   0.765   0.093   8.050 -0.1368 -0.0909  0.6172
 1662SOL    HW116622   0.761   0.070   7.957 -0.6966 -1.5736  1.0193
 1662SOL    HW216623   0.697   0.031   8.076  0.5944 -1.3553 -0.4655
 1663SOL     OW16624   0.667   1.764   4.340 -0.0414  0.2835  0.4859
 1663SOL    HW116625   0.703   1.687   4.297  0.6012 -0.0889  1.7215
 1663SOL    HW216626   0.641   1.729   4.425  0.6081  0.5949  0.8146
 1664SOL     OW16627   1.171   1.520   0.648  0.2261  0.2142  0.4908
 1664SOL    HW116628   1.262   1.499   0.626 -0.3241 -0.6960 -0.9260
 1664SOL    HW216629   1.153   1.437   0.692 -0.3380 -1.0142 -2.0319
 1665SOL     OW16630   4.159   3.836   8.046 -0.4937  0.1425 -0.3297
 1665SOL    HW116631   4.155   3.829   7.950 -2.5738  1.8762 -0.3455
 1665SOL    HW216632   4.129   3.926   8.053 -1.5622 -0.2702  0.3778
 1666SOL     OW16633   1.660   1.008   1.609  0.4617  0.1165  0.4335
 1666SOL    HW116634   1.714   0.959   1.670 -0.5079  0.0152  1.1995
 1666SOL    HW216635   1.578   0.978   1.647 -1.6897  1.2616 -3.2385
 1667SOL     OW16636   3.316   2.463   7.946 -0.3292 -0.2829 -0.6764
 1667SOL    HW116637   3.233   2.509   7.935 -0.6140 -0.8358 -0.8498
 1667SOL    HW216638   3.304   2.443   8.039 -1.8994  0.8102 -0.6587
 1668SOL     OW16639   1.133   2.990  12.482  0.2263  0.4419  0.1529
 1668SOL    HW116640   1.199   2.949  12.538 -0.8817  0.3565  1.3720
 1668SOL    HW216641   1.093   2.914  12.441 -0.9145  0.2851  1.5745
 1669SOL     OW16642   2.286   0.481  11.279  0.5338  0.1697  0.2153
 1669SOL    HW116643   2.346   0.524  11.340  1.3589 -0.2339 -0.3122
 1669SOL    HW216644   2.241   0.559  11.247 -1.0116 -0.7228  0.1922
 1670SOL     OW16645   0.333   1.824   1.966 -0.0001  0.4563 -0.3903
 1670SOL    HW116646   0.287   1.869   1.895 -3.5712  0.0100  1.6078
 1670SOL    HW216647   0.422   1.857   1.961 -0.4832  2.3658  3.5209
 1671SOL     OW16648   1.126   0.754   3.142 -0.1066 -0.3827 -0.5998
 1671SOL    HW116649   1.161   0.682   3.194  1.9386  0.0462 -1.3935
 1671SOL    HW216650   1.122   0.722   3.052 -0.9977  1.5114 -1.2376
 1672SOL     OW16651   4.231   2.303   2.816  0.2662  0.6423 -0.1603
 1672SOL    HW116652   4.189   2.237   2.870 -0.7062 -0.1421 -1.8616
 1672SOL    HW216653   4.184   2.382   2.844  0.3715  0.5949  0.1500
 1673SOL     OW16654   2.641   3.795   5.537  0.3791  0.0942 -0.0408
 1673SOL    HW116655   2.575   3.824   5.475 -0.3875  1.5387  1.4614
 1673SOL    HW216656   2.609   3.723   5.591  0.1753  0.2231  0.0102
 1674SOL     OW16657   3.606   3.611   8.280  0.1490  0.2813  0.6462
 1674SOL    HW116658   3.587   3.536   8.223 -1.0726  0.4218  0.8671
 1674SOL    HW216659   3.697   3.634   8.265  0.0753  1.3699  1.9041
 1675SOL     OW16660   1.491   2.937  11.530 -0.3938 -0.3110  0.2730
 1675SOL    HW116661   1.452   2.977  11.608  0.0927 -0.7527  0.7459
 1675SOL    HW216662   1.534   3.008  11.483 -0.3634  0.1042  0.9294
 1676SOL     OW16663   1.366   2.873   4.857 -0.1678  0.2788 -0.0628
 1676SOL    HW116664   1.388   2.782   4.878  1.4703  0.0343 -2.9444
 1676SOL    HW216665   1.270   2.882   4.851 -0.4501 -0.1271  3.8248
 1677SOL     OW16666   4.160   4.561  16.175  0.3621 -0.2621  0.3910
 1677SOL    HW116667   4.077   4.606  16.160 -0.6746 -2.0163  0.9383
 1677SOL    HW216668   4.154   4.496  16.105 -2.1719 -0.9798  1.2919
 1678SOL     OW16669   2.723   4.486   8.025 -0.2332  0.8613  0.0841
 1678SOL    HW116670   2.642   4.522   7.989 -0.3168  1.3652  0.7743
 1678SOL    HW216671   2.689   4.481   8.114  1.2778 -2.3026  0.4860
 1679SOL     OW16672   0.226   4.249   4.546 -0.6371  0.8721 -0.7349
 1679SOL    HW116673   0.158   4.223   4.485  1.2974  0.5855 -2.7801
 1679SOL    HW216674   0.191   4.213   4.628  0.8804 -2.2125 -1.4315
 1680SOL     OW16675   4.321   2.392  16.482 -0.2835  0.9498 -0.2580
 1680SOL    HW116676   4.312   2.297  16.478  0.6175  0.8332  0.6918
 1680SOL    HW216677   4.247   2.421  16.535 -1.2475 -0.6344 -0.7251
 1681SOL     OW16678   1.244   0.021   5.076 -0.2321 -0.2890  0.3406
 1681SOL    HW116679   1.159   4.720   5.098 -1.1445  2.0867  0.9380
 1681SOL    HW216680   1.205   0.108   5.064  0.1219 -0.6213 -3.2745
 1682SOL     OW16681   4.630   3.684   6.316  0.2525  0.3830 -1.1286
 1682SOL    HW116682   4.579   3.686   6.235  0.3037 -3.1310 -1.2245
 1682SOL    HW216683   4.596   3.597   6.335  0.9833 -0.1945 -2.4936
 1683SOL     OW16684   3.711   3.964   0.504 -0.4665  0.4756 -0.2580
 1683SOL    HW116685   3.762   3.883   0.513 -2.4818 -0.7559  0.0911
 1683SOL    HW216686   3.781   4.022   0.473 -0.2338  0.0837 -0.4723
 1684SOL     OW16687   3.464   1.865   8.335  0.3499  0.0272  0.0084
 1684SOL    HW116688   3.521   1.831   8.404 -0.3786 -2.0817 -0.4180
 1684SOL    HW216689   3.512   1.943   8.308 -2.8527  1.8334 -0.4916
 1685SOL     OW16690   4.122   0.118   2.524  0.1924  0.1019  0.4743
 1685SOL    HW116691   4.183   0.102   2.596 -0.3087  0.3050  0.9503
 1685SOL    HW216692   4.080   0.033   2.508  4.6160 -2.0377  0.3139
 1686SOL     OW16693   2.235   0.028   5.257 -0.0257  0.4833 -0.1909
 1686SOL    HW116694   2.192   0.113   5.245 -2.3524 -0.7940 -0.9087
 1686SOL    HW216695   2.322   0.026   5.217  0.3353  0.4828  0.5871
 1687SOL     OW16696   4.058   3.894   6.903  0.2312 -0.3759  0.1576
 1687SOL    HW116697   3.983   3.857   6.858  2.9325 -4.4342 -1.0113
 1687SOL    HW216698   4.017   3.971   6.943 -2.8405 -1.5920 -0.6570
 1688SOL     OW16699   4.317   4.661   1.134  0.0121  0.0164 -0.2552
 1688SOL    HW116700   4.232   4.624   1.114  1.9689 -1.9678 -4.7196
 1688SOL    HW216701   4.315   4.632   1.225 -1.9967  0.1364 -0.2620
 1689SOL     OW16702   1.977   2.589  15.211  0.5343 -0.5414  0.4087
 1689SOL    HW116703   2.014   2.677  15.211 -0.6265 -0.0610 -0.2844
 1689SOL    HW216704   2.047   2.527  15.232  2.3550  1.8523  1.4232
 1690SOL     OW16705   4.202   2.751   2.768  0.5167  0.5620  0.1969
 1690SOL    HW116706   4.278   2.799   2.802  0.6033 -0.6489  1.6845
 1690SOL    HW216707   4.162   2.767   2.853 -0.4455 -0.9920  0.0321
 1691SOL     OW16708   2.506   3.823  14.444 -0.4208  0.3752  0.6814
 1691SOL    HW116709   2.550   3.806  14.361 -1.8304 -0.3118  0.0675
 1691SOL    HW216710   2.569   3.781  14.502 -1.8915 -2.1159  0.4659
 1692SOL     OW16711   1.416   3.045   3.510 -1.0503  0.4039 -0.4006
 1692SOL    HW116712   1.486   3.107   3.526  0.2340 -1.4724  1.3136
 1692SOL    HW216713   1.454   3.002   3.434 -1.1422 -0.0312 -0.2038
 1693SOL     OW16714   2.167   3.678   8.659  0.4469 -0.0457  0.1254
 1693SOL    HW116715   2.103   3.646   8.595  0.2796 -0.6529  0.5953
 1693SOL    HW216716   2.216   3.598   8.681 -2.2218 -0.8973  3.0340
 1694SOL     OW16717   1.735   3.088   2.441  0.2641  0.1899  0.4842
 1694SOL    HW116718   1.710   3.180   2.436  1.2126  0.5933  2.8952
 1694SOL    HW216719   1.816   3.088   2.390  1.5668 -0.9063  2.5358
 1695SOL     OW16720   2.735   0.371  16.922 -0.0644  0.0959  0.6013
 1695SOL    HW116721   2.790   0.323  16.984  0.0237  1.6443  1.7468
 1695SOL    HW216722   2.671   0.306  16.896 -0.9004  0.5917  1.4145
 1696SOL     OW16723   1.448   2.767   1.700  0.2776  0.7200  0.6453
 1696SOL    HW116724   1.476   2.678   1.723  0.4193  0.6981  0.3912
 1696SOL    HW216725   1.369   2.771   1.754  0.2271 -0.7499  0.6929
 1697SOL     OW16726   2.494   4.391   1.265 -0.3495 -0.6740  0.6479
 1697SOL    HW116727   2.565   4.353   1.213  0.8625  0.0720  1.7555
 1697SOL    HW216728   2.425   4.397   1.200  1.9173 -1.3706 -1.8198
 1698SOL     OW16729   3.346   1.606  16.332  0.6577 -0.2138 -0.2029
 1698SOL    HW116730   3.304   1.651  16.258  1.2687  0.8357  0.0996
 1698SOL    HW216731   3.435   1.582  16.306  0.1173 -3.6636  1.1741
 1699SOL     OW16732   1.809   1.485  13.241 -0.2322 -0.6655  0.2271
 1699SOL    HW116733   1.755   1.406  13.250 -1.6063  0.3599  0.9845
 1699SOL    HW216734   1.864   1.476  13.319  2.7606  0.5411 -1.7501
 1700SOL     OW16735   3.372   1.413   8.484  0.1449 -0.3334 -0.0211
 1700SOL    HW116736   3.466   1.401   8.496  0.1555 -0.3142 -0.0888
 1700SOL    HW216737   3.378   1.475   8.412  0.9291 -0.4171 -0.0257
 1701SOL     OW16738   3.472   0.003  16.431  0.0646 -0.2744  0.3843
 1701SOL    HW116739   3.417   0.002  16.509 -0.0990 -1.1950  0.2570
 1701SOL    HW216740   3.436   0.086  16.399  1.9167  0.8073  1.0880
 1702SOL     OW16741   2.313   4.675  16.630 -0.1901  0.4222  0.4202
 1702SOL    HW116742   2.261   4.657  16.551 -1.1040 -0.2071  1.1598
 1702SOL    HW216743   2.383   4.730  16.595  0.4002 -0.3080  0.4583
 1703SOL     OW16744   2.380   0.791   8.874 -0.2614 -0.1786 -0.2627
 1703SOL    HW116745   2.301   0.748   8.840 -0.0932 -2.5515  2.3670
 1703SOL    HW216746   2.445   0.758   8.812 -0.2308  0.1086 -0.3830
 1704SOL     OW16747   0.849   1.493  15.552 -0.0623  0.0080  0.1416
 1704SOL    HW116748   0.757   1.482  15.527 -0.0871 -1.5941  0.9227
 1704SOL    HW216749   0.844   1.561  15.620 -0.6378 -2.1670  2.2582
 1705SOL     OW16750   4.320   1.932   0.369  0.1979  0.0510  0.0906
 1705SOL    HW116751   4.321   1.997   0.299  1.5908 -0.7803 -0.6492
 1705SOL    HW216752   4.393   1.946   0.428  1.1251  2.9752 -1.7323
 1706SOL     OW16753   2.398   1.234   1.327 -1.2404  0.7097 -0.5365
 1706SOL    HW116754   2.389   1.328   1.340  0.7785  0.5370  2.1698
 1706SOL    HW216755   2.389   1.244   1.232 -0.9703  0.5639 -0.5775
 1707SOL     OW16756   0.679   4.614   0.174 -0.1487  0.2831  0.1632
 1707SOL    HW116757   0.691   4.535   0.122  0.5968 -0.4054  1.4014
 1707SOL    HW216758   0.583   4.619   0.171 -0.2697 -3.0002 -1.3563
 1708SOL     OW16759   2.594   0.043  11.373 -0.3074  0.2347  0.2762
 1708SOL    HW116760   2.539   0.019  11.298  0.7808  2.0462 -1.0859
 1708SOL    HW216761   2.634   0.125  11.345 -1.9065  0.5536 -1.0382
 1709SOL     OW16762   4.640   0.619   7.798  0.0731 -0.2549 -0.2372
 1709SOL    HW116763   4.644   0.686   7.730  0.6402 -0.8784 -0.8118
 1709SOL    HW216764   4.552   0.583   7.788  0.3720 -0.4693 -2.0989
 1710SOL     OW16765   1.380   3.212   5.024 -0.1564 -0.6386 -0.5588
 1710SOL    HW116766   1.445   3.178   4.964 -1.0952 -0.1867 -1.8330
 1710SOL    HW216767   1.400   3.157   5.099  2.9009 -0.8516 -1.5627
 1711SOL     OW16768   2.192   1.363   9.318 -0.2792 -0.1122 -0.4685
 1711SOL    HW116769   2.214   1.307   9.244 -0.6977 -0.7269 -0.1341
 1711SOL    HW216770   2.112   1.401   9.282  0.3745  1.0528 -0.6637
 1712SOL     OW16771   4.639   2.073   8.622  0.3775 -0.1820 -1.0185
 1712SOL    HW116772   4.731   2.052   8.634  0.2282 -1.3181 -1.8788
 1712SOL    HW216773   4.634   2.085   8.527 -0.8775  0.1590 -0.9109
 1713SOL     OW16774   2.977   3.156  16.565  0.4710  0.2170  0.6252
 1713SOL    HW116775   3.016   3.073  16.538  3.7067  2.0740 -0.3909
 1713SOL    HW216776   3.033   3.220  16.521 -1.0505  0.5348 -0.8669
 1714SOL     OW16777   0.610   0.739   3.075  0.5190  0.3410 -0.2430
 1714SOL    HW116778   0.532   0.687   3.092  0.4650  0.0206 -1.4129
 1714SOL    HW216779   0.566   0.822   3.055 -1.3713 -1.1598 -2.3704
 1715SOL     OW16780   2.069   1.915   9.485 -0.0171 -0.0538 -0.1021
 1715SOL    HW116781   2.010   1.893   9.558  1.0258  1.5157  1.2178
 1715SOL    HW216782   2.130   1.842   9.490  1.4047  1.1287  0.0076
 1716SOL     OW16783   2.816   3.322   1.889  0.1528 -0.2796  0.4796
 1716SOL    HW116784   2.851   3.237   1.916 -0.8519 -0.5360  0.9824
 1716SOL    HW216785   2.858   3.329   1.804 -1.3563  1.2222 -0.1522
 1717SOL     OW16786   4.083   0.212   9.012  0.4707 -0.3838 -0.3910
 1717SOL    HW116787   4.145   0.246   8.947 -0.0583 -1.0935 -1.2665
 1717SOL    HW216788   4.099   0.118   9.016 -0.0992 -0.5103 -1.1434
 1718SOL     OW16789   1.732   0.564   4.973  0.0574 -0.0494  0.7062
 1718SOL    HW116790   1.772   0.519   4.899 -2.6271  1.4551 -1.6273
 1718SOL    HW216791   1.672   0.496   5.003 -0.9831 -0.0263 -1.3667
 1719SOL     OW16792   0.484   0.823   6.801 -0.1705  0.1611 -0.5247
 1719SOL    HW116793   0.431   0.891   6.761  1.7544  0.5904 -2.3523
 1719SOL    HW216794   0.570   0.827   6.758  0.7503 -2.0853  1.0274
 1720SOL     OW16795   3.004   2.425   4.056  0.0864  0.0364  0.0433
 1720SOL    HW116796   3.053   2.367   4.115  0.1093 -0.7992 -0.7952
 1720SOL    HW216797   3.036   2.399   3.970  0.1589 -2.1070  0.7246
 1721SOL     OW16798   0.074   4.441   6.786  0.1511  0.2596  0.0283
 1721SOL    HW116799   0.159   4.418   6.823  0.5873 -1.0176 -1.7397
 1721SOL    HW216800   0.051   4.517   6.838 -0.2292  1.2257 -1.5397
 1722SOL     OW16801   3.223   2.785   8.047 -0.1887 -0.3371 -0.1009
 1722SOL    HW116802   3.207   2.878   8.063 -1.5036 -0.5862  0.0549
 1722SOL    HW216803   3.132   2.754   8.047 -1.0136  2.0101 -1.8945
 1723SOL     OW16804   3.149   3.427   7.637  0.6321 -0.1287  0.2694
 1723SOL    HW116805   3.123   3.482   7.711  0.2975 -2.5788  1.9465
 1723SOL    HW216806   3.225   3.483   7.619 -0.2125  1.1183  0.5577
 1724SOL     OW16807   4.724   1.550  11.063  0.5706  0.6265  0.3728
 1724SOL    HW116808   4.671   1.612  11.013  0.4666  1.5662  1.6517
 1724SOL    HW216809   0.061   1.537  11.003  0.5533  3.5675 -0.2441
 1725SOL     OW16810   4.548   3.629   4.309  0.0876  0.1963 -0.1302
 1725SOL    HW116811   4.498   3.680   4.245 -1.3629 -1.3422 -0.2148
 1725SOL    HW216812   4.486   3.628   4.382 -0.3201 -0.7850 -0.4935
 1726SOL     OW16813   1.345   4.501  16.616 -0.2391 -0.0963  0.4341
 1726SOL    HW116814   1.393   4.563  16.671  0.8438  0.2904 -0.9612
 1726SOL    HW216815   1.255   4.487  16.648 -0.0820 -1.1556  0.4134
 1727SOL     OW16816   3.356   2.534  14.614  0.2321 -0.4859  0.1207
 1727SOL    HW116817   3.391   2.570  14.696 -0.1177 -1.2077  0.5796
 1727SOL    HW216818   3.407   2.574  14.543 -1.2536 -1.1604 -1.3072
 1728SOL     OW16819   4.076   4.227  16.770  0.2838  0.2263  0.4325
 1728SOL    HW116820   4.041   4.246  16.683 -2.0019  0.9228  1.5269
 1728SOL    HW216821   4.140   4.297  16.778  1.4974 -0.8801  0.4216
 1729SOL     OW16822   3.463   0.064   1.722  0.1481 -0.3626  0.3336
 1729SOL    HW116823   3.497   0.080   1.633  0.3931  0.4776  0.5778
 1729SOL    HW216824   3.519   4.727   1.747 -0.1340 -1.2105 -1.4868
 1730SOL     OW16825   3.201   1.486   3.818 -0.0018  0.2903  0.2771
 1730SOL    HW116826   3.273   1.547   3.802  0.4678 -0.6245 -1.0306
 1730SOL    HW216827   3.124   1.542   3.831  0.9073  1.5610  0.2113
 1731SOL     OW16828   0.810   4.719   3.787 -0.3742  0.2598  0.7452
 1731SOL    HW116829   0.850   0.064   3.755  1.2929 -0.7514  0.2660
 1731SOL    HW216830   0.745   0.015   3.849  0.9649 -0.6034  2.6030
 1732SOL     OW16831   4.169   0.784   6.515  0.2425  0.0093 -0.5959
 1732SOL    HW116832   4.082   0.751   6.538  0.1195  0.1379 -0.8718
 1732SOL    HW216833   4.155   0.828   6.432 -0.0358  2.5222  0.7719
 1733SOL     OW16834   2.755   1.479   7.520  0.6068 -0.3002  0.4170
 1733SOL    HW116835   2.780   1.486   7.428 -0.3714 -0.3921  0.1461
 1733SOL    HW216836   2.772   1.568   7.552  1.2223 -0.5563  0.8135
 1734SOL     OW16837   0.745   3.105   7.865 -0.3689  0.1388  0.5243
 1734SOL    HW116838   0.800   3.173   7.903 -0.3489  0.3318  0.1511
 1734SOL    HW216839   0.743   3.133   7.774 -0.1078 -1.9884 -0.1473
 1735SOL     OW16840   0.054   4.153  15.528 -0.6083 -0.1519 -0.1094
 1735SOL    HW116841   0.007   4.069  15.533 -1.0537  0.1178  0.2320
 1735SOL    HW216842   0.140   4.115  15.510 -1.3242 -2.1579  0.6550
 1736SOL     OW16843   2.153   1.160   5.876 -0.0883  0.1609 -0.2214
 1736SOL    HW116844   2.241   1.130   5.855  1.0398  3.5909 -0.5174
 1736SOL    HW216845   2.098   1.135   5.802 -0.3675  1.0338 -0.3144
 1737SOL     OW16846   1.655   2.029   2.823  0.4094 -0.3199 -0.2980
 1737SOL    HW116847   1.578   2.084   2.811  0.9401 -0.1824 -3.1511
 1737SOL    HW216848   1.631   1.966   2.891 -1.2832  1.2293  0.5066
 1738SOL     OW16849   3.143   3.445   5.762  0.7181  0.2649  0.0370
 1738SOL    HW116850   3.213   3.409   5.816  0.6851 -0.3979 -0.3685
 1738SOL    HW216851   3.183   3.467   5.677 -1.8960 -1.1291 -1.5257
 1739SOL     OW16852   1.668   2.787   6.957 -0.8229 -0.2120 -0.1465
 1739SOL    HW116853   1.593   2.816   6.905 -0.5200  0.6264 -0.1229
 1739SOL    HW216854   1.650   2.695   6.976  1.6434 -0.1227  2.5776
 1740SOL     OW16855   1.572   1.597   7.049  0.1536  0.3700 -0.5262
 1740SOL    HW116856   1.506   1.617   7.115 -0.1447 -0.4267 -0.5833
 1740SOL    HW216857   1.514   1.563   6.980  0.2906 -2.2159  0.6300
 1741SOL     OW16858   1.456   1.271   5.445 -0.3348 -0.2922 -0.1556
 1741SOL    HW116859   1.529   1.300   5.499 -0.7274  0.4357 -0.0178
 1741SOL    HW216860   1.505   1.247   5.367  1.2752 -0.9046  1.0608
 1742SOL     OW16861   4.421   0.738   3.954  0.2301 -0.0555 -0.0271
 1742SOL    HW116862   4.457   0.675   4.017 -0.0933 -1.1177 -0.8954
 1742SOL    HW216863   4.341   0.691   3.931  0.4435 -0.9334  1.0014
 1743SOL     OW16864   0.157   4.078   8.990 -0.2765  0.3306 -0.3786
 1743SOL    HW116865   0.193   4.120   8.911 -1.3507  0.0160 -1.0360
 1743SOL    HW216866   0.135   4.153   9.044 -0.0711  0.7106 -0.8200
 1744SOL     OW16867   4.532   0.912   2.463 -0.4883 -0.2916 -0.3268
 1744SOL    HW116868   4.543   0.999   2.425 -0.9608  1.0769  2.6535
 1744SOL    HW216869   4.446   0.920   2.503  0.4248 -0.1837  1.6005
 1745SOL     OW16870   1.863   0.537   7.377 -0.2931  0.5925 -0.4998
 1745SOL    HW116871   1.867   0.475   7.450  0.2402  0.6625 -0.4731
 1745SOL    HW216872   1.908   0.484   7.311  1.6067 -0.2792  1.4972
 1746SOL     OW16873   2.827   0.046  16.014  0.5163  0.1220  0.4160
 1746SOL    HW116874   2.750   0.103  16.016 -0.1574 -0.7669 -0.1251
 1746SOL    HW216875   2.893   0.096  16.062 -0.2077  1.1511  0.3354
 1747SOL     OW16876   1.223   1.693   8.252 -0.3474 -0.4846  0.1890
 1747SOL    HW116877   1.134   1.719   8.229 -1.0497 -0.1937  3.3336
 1747SOL    HW216878   1.256   1.771   8.296  0.5394  0.3103 -1.8554
 1748SOL     OW16879   3.990   2.251  15.485  0.4187  0.5149  0.4670
 1748SOL    HW116880   4.037   2.208  15.414 -1.5592  0.5352 -0.8410
 1748SOL    HW216881   3.906   2.266  15.442  0.2064  0.7008  0.9409
 1749SOL     OW16882   0.680   4.551   1.817 -0.4018 -0.0713 -0.1684
 1749SOL    HW116883   0.648   4.497   1.889  0.3110  0.1728  0.3373
 1749SOL    HW216884   0.681   4.638   1.859 -2.5809 -0.1625  0.0567
 1750SOL     OW16885   0.860   3.372   8.139  0.2022 -0.0798 -0.3126
 1750SOL    HW116886   0.829   3.383   8.049  0.4664 -0.4894 -0.4501
 1750SOL    HW216887   0.921   3.301   8.122 -0.1516 -0.0735 -1.5893
 1751SOL     OW16888   1.953   1.780  17.009 -0.1949  0.2318 -0.1094
 1751SOL    HW116889   1.948   1.744  16.921 -1.7417  1.5726 -0.5773
 1751SOL    HW216890   1.929   1.869  16.983  0.7354  0.5305  0.0581
 1752SOL     OW16891   0.551   3.357   6.902  0.0602 -0.2783 -0.7568
 1752SOL    HW116892   0.528   3.448   6.922  1.1158 -0.0957 -0.3964
 1752SOL    HW216893   0.574   3.322   6.988 -0.4853  0.6686 -0.2298
 1753SOL     OW16894   3.803   3.844   5.465 -0.1525  0.2428  0.2858
 1753SOL    HW116895   3.773   3.930   5.436  1.4207  1.0112  0.9146
 1753SOL    HW216896   3.898   3.853   5.479  0.1989 -0.3787 -1.6656
 1754SOL     OW16897   0.803   4.460   6.245  0.7168  0.1422 -0.4682
 1754SOL    HW116898   0.838   4.537   6.202  0.5246 -0.3291 -1.4568
 1754SOL    HW216899   0.738   4.432   6.181  1.5961 -0.4262 -1.1080
 1755SOL     OW16900   1.055   4.499  11.441 -0.2143  0.6756 -0.1763
 1755SOL    HW116901   1.095   4.473  11.358 -0.4923 -0.4604  0.0527
 1755SOL    HW216902   0.960   4.494  11.426 -0.4461  2.2178  0.7963
 1756SOL     OW16903   3.366   2.257   6.601  0.3342 -0.8801  0.1385
 1756SOL    HW116904   3.270   2.264   6.597  0.3342 -0.1580  1.3431
 1756SOL    HW216905   3.387   2.303   6.682  1.6200  2.2739 -2.0089
 1757SOL     OW16906   0.125   2.968  16.191  0.1898  0.3927 -0.4330
 1757SOL    HW116907   0.035   2.946  16.215 -0.4646  2.7845 -0.7101
 1757SOL    HW216908   0.175   2.896  16.229 -0.5513 -0.1470 -0.4852
 1758SOL     OW16909   1.400   1.272   4.374  0.2321  0.4086 -0.1602
 1758SOL    HW116910   1.320   1.225   4.397  0.4910 -0.3082 -0.7571
 1758SOL    HW216911   1.443   1.277   4.459 -1.5818  1.3505  0.7082
 1759SOL     OW16912   4.718   4.170   3.683 -0.2060 -0.2228  0.3228
 1759SOL    HW116913   4.629   4.135   3.682 -0.0802 -0.5251 -0.1709
 1759SOL    HW216914   4.725   4.226   3.761  0.4881 -1.1688  0.9393
 1760SOL     OW16915   2.055   1.072   1.454 -0.2247  0.4552  0.1260
 1760SOL    HW116916   1.987   1.105   1.513  1.3231  1.7038  1.1864
 1760SOL    HW216917   2.021   1.095   1.367 -0.5060  0.9623  0.3687
 1761SOL     OW16918   3.057   2.522   9.532 -0.3270  0.0758  0.2512
 1761SOL    HW116919   3.051   2.514   9.627 -2.7726  1.9345  0.2525
 1761SOL    HW216920   3.146   2.488   9.518  0.1861  1.5596 -0.1819
 1762SOL     OW16921   1.324   3.138   7.026 -0.7089 -0.2634  0.5045
 1762SOL    HW116922   1.230   3.150   7.040 -0.9124 -1.0174 -0.2247
 1762SOL    HW216923   1.326   3.050   6.988  1.5447  0.2656 -0.6071
 1763SOL     OW16924   2.192   0.877   4.954 -0.4609  0.2219 -0.6088
 1763SOL    HW116925   2.119   0.819   4.929  0.3889 -0.7250 -0.8944
 1763SOL    HW216926   2.245   0.824   5.014 -0.7408  2.0846  1.2759
 1764SOL     OW16927   0.550   1.957  12.987 -0.0858  0.6150 -0.8722
 1764SOL    HW116928   0.547   1.979  12.894  3.1932  0.5943 -0.9685
 1764SOL    HW216929   0.460   1.979  13.011  0.9177  2.9936  0.6879
 1765SOL     OW16930   2.108   3.617   4.247 -0.3761 -0.1275 -0.2796
 1765SOL    HW116931   2.096   3.673   4.170  0.5223 -0.9215 -0.9985
 1765SOL    HW216932   2.127   3.532   4.208 -1.0048  0.4853 -1.9424
 1766SOL     OW16933   1.576   3.308   6.345  0.0487  0.2387  0.1504
 1766SOL    HW116934   1.662   3.265   6.350  0.4768  1.1941  1.0073
 1766SOL    HW216935   1.592   3.387   6.396  3.1239  1.3046 -2.4294
 1767SOL     OW16936   4.371   0.922   4.223 -0.5094  0.1171 -0.1274
 1767SOL    HW116937   4.411   0.902   4.138  2.4817  0.3448  1.2042
 1767SOL    HW216938   4.441   0.970   4.267  0.0642 -1.1492  0.3299
 1768SOL     OW16939   2.065   3.422   3.464 -0.3005 -0.0225 -0.2979
 1768SOL    HW116940   2.076   3.501   3.517  0.6372 -0.9995  0.9450
 1768SOL    HW216941   2.131   3.424   3.394  1.5176  2.5213  1.4739
 1769SOL     OW16942   1.405   1.385   6.933 -0.2148 -0.3133 -0.0869
 1769SOL    HW116943   1.348   1.389   7.010 -0.2168  0.5053 -0.1280
 1769SOL    HW216944   1.452   1.302   6.932 -0.7178 -0.6014  0.4698
 1770SOL     OW16945   3.238   2.198   4.486  0.0693 -0.1203 -0.0813
 1770SOL    HW116946   3.242   2.228   4.576  2.0077 -1.1793  0.1918
 1770SOL    HW216947   3.213   2.107   4.503 -2.1882  0.4183 -0.5145
 1771SOL     OW16948   1.649   3.818   8.008 -0.0102  0.1633  0.2067
 1771SOL    HW116949   1.576   3.879   7.998  0.0206  0.0435 -0.7841
 1771SOL    HW216950   1.617   3.755   8.073 -1.6865 -0.0595 -0.8388
 1772SOL     OW16951   1.843   1.538   9.633  0.1875 -0.2881  0.0337
 1772SOL    HW116952   1.757   1.529   9.591  2.2015 -1.8814 -3.6787
 1772SOL    HW216953   1.826   1.486   9.711  0.1617 -1.2383 -0.6016
 1773SOL     OW16954   3.658   3.075   0.108  0.7362  0.5801  0.5249
 1773SOL    HW116955   3.604   3.060   0.030  0.2553 -0.1611  0.9997
 1773SOL    HW216956   3.613   3.154   0.135  1.7639  0.9192  1.2302
 1774SOL     OW16957   1.293   4.004  16.286  0.4167  0.6825 -0.3892
 1774SOL    HW116958   1.274   4.086  16.332  0.9241  0.0030  1.0385
 1774SOL    HW216959   1.215   3.949  16.279 -0.2461  1.5373  0.3013
 1775SOL     OW16960   2.902   3.194   5.138 -0.0516 -0.4829 -0.2590
 1775SOL    HW116961   2.861   3.156   5.061  0.7144 -1.1304 -0.3498
 1775SOL    HW216962   2.926   3.276   5.095  2.6164 -0.9274  0.3687
 1776SOL     OW16963   3.678   1.443   7.224 -0.2935 -0.0368  0.1965
 1776SOL    HW116964   3.705   1.531   7.250  3.4470 -0.3850 -2.4903
 1776SOL    HW216965   3.613   1.410   7.285 -1.8044  0.1654 -1.2922
 1777SOL     OW16966   4.058   3.668  12.205 -0.1558  0.1966  0.3907
 1777SOL    HW116967   4.144   3.709  12.208 -0.3791  0.8859 -2.6591
 1777SOL    HW216968   4.015   3.721  12.137  0.6942 -0.3134 -0.5559
 1778SOL     OW16969   4.327   1.380   7.095  0.0469 -0.2925 -0.3141
 1778SOL    HW116970   4.405   1.374   7.040  1.7473  0.8686  1.9650
 1778SOL    HW216971   4.272   1.316   7.049  0.1858  0.0759 -0.9856
 1779SOL     OW16972   4.111   0.687  16.798 -0.2178 -1.5551 -0.0466
 1779SOL    HW116973   4.094   0.758  16.860 -0.0737 -0.4395 -1.2804
 1779SOL    HW216974   4.164   0.732  16.732 -1.4315  0.5229  0.3809
 1780SOL     OW16975   3.364   4.409   5.007  0.8056  0.1645 -0.0421
 1780SOL    HW116976   3.414   4.335   4.972 -2.5550 -2.5058  0.7427
 1780SOL    HW216977   3.422   4.483   4.993  0.2073  0.2563 -2.0042
 1781SOL     OW16978   3.386   4.209  15.142  0.6431 -0.2608 -0.0799
 1781SOL    HW116979   3.473   4.234  15.112  0.9185 -0.7027  0.3306
 1781SOL    HW216980   3.327   4.260  15.087 -0.1220 -1.1258 -0.0817
 1782SOL     OW16981   0.884   1.226  11.470  0.0650  0.3503 -0.3635
 1782SOL    HW116982   0.943   1.269  11.408  0.1825 -0.5671 -0.8887
 1782SOL    HW216983   0.902   1.284  11.544 -0.3054 -0.1341  0.1103
 1783SOL     OW16984   3.660   0.236   4.778  0.3319  0.6160 -0.0552
 1783SOL    HW116985   3.711   0.303   4.824  0.0847  0.8290 -0.0913
 1783SOL    HW216986   3.673   0.159   4.833  1.5438 -1.5776 -3.3441
 1784SOL     OW16987   4.557   0.107   6.345  0.1564  0.0742  0.0035
 1784SOL    HW116988   4.558   0.183   6.403 -2.0725  1.4187 -1.7035
 1784SOL    HW216989   4.471   0.067   6.356 -1.0775  2.0521 -2.3063
 1785SOL     OW16990   3.226   0.802   5.707 -0.1290 -1.2027  0.0603
 1785SOL    HW116991   3.232   0.758   5.792  0.0971 -0.6176  0.3486
 1785SOL    HW216992   3.309   0.780   5.665  1.0520  0.4307  1.5228
 1786SOL     OW16993   4.731   2.093   2.226  0.0448  0.3727  0.0335
 1786SOL    HW116994   0.087   2.090   2.203  0.2484  0.2650  0.8682
 1786SOL    HW216995   4.688   2.052   2.151  0.4849  0.6826 -0.3899
 1787SOL     OW16996   2.049   3.546   0.884 -0.0799  0.0682  0.0986
 1787SOL    HW116997   1.981   3.505   0.939 -1.3936  3.0108  0.6604
 1787SOL    HW216998   2.114   3.566   0.951  0.6676 -3.9440  0.5718
 1788SOL     OW16999   0.137   2.991   6.183 -0.0036  0.0433  0.6888
 1788SOL    HW117000   0.173   2.960   6.099 -0.5772  2.5341 -0.4561
 1788SOL    HW217001   0.105   2.912   6.227  0.9360  0.3786  1.9763
 1789SOL     OW17002   0.723   4.572   7.674  0.2399  0.3874  0.1365
 1789SOL    HW117003   0.688   4.510   7.610 -1.6557  1.8478 -0.2382
 1789SOL    HW217004   0.812   4.573   7.641 -0.2810  1.0495 -1.2409
 1790SOL     OW17005   0.123   1.667  10.444 -0.4993 -0.2970 -0.3645
 1790SOL    HW117006   0.095   1.587  10.398  0.0036 -0.7089  0.0380
 1790SOL    HW217007   0.051   1.728  10.440 -0.1584  0.0446 -1.4171
 1791SOL     OW17008   2.102   3.667   3.589 -0.2177 -0.3149 -0.5544
 1791SOL    HW117009   2.104   3.695   3.497 -1.6794 -1.8062 -1.0297
 1791SOL    HW217010   2.111   3.753   3.630  1.2715 -1.3962  1.3873
 1792SOL     OW17011   1.581   0.711   1.111  0.3131  0.0410 -0.0973
 1792SOL    HW117012   1.599   0.618   1.097 -0.8600 -0.2608  0.3808
 1792SOL    HW217013   1.573   0.714   1.206 -0.3683  0.7025 -0.1813
 1793SOL     OW17014   1.497   2.024   4.535  0.1345 -0.0985 -0.4245
 1793SOL    HW117015   1.510   1.982   4.450 -0.2153  0.1755 -0.6133
 1793SOL    HW217016   1.411   1.985   4.552  0.2090  0.9837  2.3230
 1794SOL     OW17017   4.710   3.100   5.810 -0.0625 -0.0011  0.1808
 1794SOL    HW117018   4.633   3.157   5.810 -0.2820 -0.2957  0.5177
 1794SOL    HW217019   0.028   3.139   5.741 -2.1922  0.1865 -1.4064
 1795SOL     OW17020   1.807   4.131   4.929  0.3422  0.0083 -0.0158
 1795SOL    HW117021   1.800   4.191   5.003  0.0482 -0.6677  0.5030
 1795SOL    HW217022   1.736   4.066   4.929  0.9420 -0.6531 -1.5973
 1796SOL     OW17023   3.618   4.128  10.199  0.1699  0.5612  0.4101
 1796SOL    HW117024   3.708   4.161  10.197  0.2490  0.1870 -1.9099
 1796SOL    HW217025   3.588   4.157  10.113  0.0659  0.2159  0.3280
 1797SOL     OW17026   3.201   0.589   7.064 -0.6164 -0.4485 -0.1469
 1797SOL    HW117027   3.117   0.603   7.019 -0.4462  1.1677  0.0554
 1797SOL    HW217028   3.243   0.671   7.041  0.0002 -0.8602 -0.4840
 1798SOL     OW17029   2.093   3.842   8.873 -0.1898 -0.2922  0.6753
 1798SOL    HW117030   2.136   3.783   8.812 -0.2235  0.1512  0.2259
 1798SOL    HW217031   2.010   3.878   8.840 -0.7972 -1.2713  1.1117
 1799SOL     OW17032   2.907   1.579   2.249  0.1860  0.9655  0.9187
 1799SOL    HW117033   2.835   1.614   2.302 -0.7469 -2.7589  2.0958
 1799SOL    HW217034   2.869   1.553   2.165  1.7745 -1.4006  0.9309
 1800SOL     OW17035   1.456   0.564   1.378 -0.6135 -0.3318  0.3455
 1800SOL    HW117036   1.425   0.546   1.289 -1.0663  0.8534  0.2693
 1800SOL    HW217037   1.526   0.499   1.386  0.3711  0.7079  0.1156
 1801SOL     OW17038   3.573   1.086   6.613  0.3716 -0.2336 -0.1623
 1801SOL    HW117039   3.577   1.007   6.559 -0.5640 -0.8641  0.6881
 1801SOL    HW217040   3.656   1.084   6.660  1.1287 -0.3553 -1.5110
 1802SOL     OW17041   2.354   2.099   2.501  0.2447  0.1924  0.3863
 1802SOL    HW117042   2.299   2.087   2.423 -0.4420  0.6217  0.8057
 1802SOL    HW217043   2.313   2.033   2.558  1.1415  1.2792  2.2800
 1803SOL     OW17044   2.011   3.081   4.103  0.4568  0.3203 -0.1196
 1803SOL    HW117045   1.981   3.031   4.028  2.9605 -1.1032 -0.1867
 1803SOL    HW217046   2.077   3.020   4.136  1.1064  0.5503 -0.9886
 1804SOL     OW17047   0.871   0.533   0.565 -0.0914  0.4298  0.3352
 1804SOL    HW117048   0.876   0.480   0.485  1.1282 -1.2211  1.4966
 1804SOL    HW217049   0.921   0.478   0.625  1.5053 -0.5370 -1.9017
 1805SOL     OW17050   3.697   3.483   2.503 -0.1684 -0.2880  0.4450
 1805SOL    HW117051   3.775   3.441   2.467  0.7628  0.8191  1.2254
 1805SOL    HW217052   3.648   3.479   2.420 -2.6750 -1.4932  1.9625
 1806SOL     OW17053   1.537   1.902   5.955  0.0467 -0.8729  0.7804
 1806SOL    HW117054   1.544   1.975   5.893 -1.1761 -1.4442 -0.0305
 1806SOL    HW217055   1.626   1.871   5.938 -0.4227 -0.1557 -3.0004
 1807SOL     OW17056   1.910   3.191  11.393 -0.0508  0.2162 -0.5685
 1807SOL    HW117057   1.886   3.232  11.477  0.4980  0.2356 -0.4197
 1807SOL    HW217058   1.966   3.263  11.363 -1.8548  1.9066  0.0717
 1808SOL     OW17059   3.461   2.259  16.250 -0.4585  0.1288 -0.4557
 1808SOL    HW117060   3.440   2.222  16.336  1.2256  0.7650  0.2253
 1808SOL    HW217061   3.549   2.224  16.238 -1.4889 -1.9699 -1.8650
 1809SOL     OW17062   3.961   0.746   2.316  0.4260  0.2766 -0.0074
 1809SOL    HW117063   3.995   0.805   2.250  0.4564  1.0322  0.6848
 1809SOL    HW217064   3.938   0.819   2.374  0.6324 -0.1050  0.5612
 1810SOL     OW17065   3.353   2.020   3.081  0.0011  0.0066 -0.3850
 1810SOL    HW117066   3.412   2.080   3.036 -1.0120  3.1044  2.4130
 1810SOL    HW217067   3.285   2.009   3.015  0.5993  2.4927 -1.4020
 1811SOL     OW17068   1.392   2.485   4.968  0.2524  0.5039  0.0460
 1811SOL    HW117069   1.319   2.522   5.018 -0.3871 -0.6758 -0.0257
 1811SOL    HW217070   1.419   2.424   5.037 -1.2864 -1.1496 -0.8309
 1812SOL     OW17071   3.581   1.428   9.085  0.3613 -0.1856 -0.0099
 1812SOL    HW117072   3.666   1.469   9.102  0.1693 -0.5012  1.6925
 1812SOL    HW217073   3.524   1.492   9.127 -0.0764 -0.8490  0.3980
 1813SOL     OW17074   2.909   3.261  12.258 -0.5333 -0.4053  0.1356
 1813SOL    HW117075   3.004   3.249  12.256 -0.6432 -1.3330  0.7087
 1813SOL    HW217076   2.911   3.317  12.336 -1.2571 -1.0873  0.6431
 1814SOL     OW17077   3.864   1.719  13.250  0.5266 -0.5225 -0.3189
 1814SOL    HW117078   3.946   1.737  13.204  1.0166 -2.7751 -0.3155
 1814SOL    HW217079   3.909   1.672  13.320  0.6795 -0.2224 -0.2155
 1815SOL     OW17080   4.178   3.342   6.958  0.1356  0.4867 -0.1445
 1815SOL    HW117081   4.190   3.376   7.046 -2.0314 -0.4488  0.5286
 1815SOL    HW217082   4.250   3.388   6.914 -0.3292  0.6317 -0.7650
 1816SOL     OW17083   3.355   0.361   0.576 -0.5973  0.3425 -0.0016
 1816SOL    HW117084   3.332   0.268   0.575 -1.0498  0.4576 -1.1034
 1816SOL    HW217085   3.446   0.361   0.546 -1.1097 -0.2210 -1.5645
 1817SOL     OW17086   0.995   0.564  10.472  0.1547 -0.6408  0.3494
 1817SOL    HW117087   1.088   0.586  10.471 -0.9960  4.2835 -1.2567
 1817SOL    HW217088   0.992   0.504  10.546 -1.9961 -0.2743  0.5537
 1818SOL     OW17089   4.513   0.242  12.150  0.0510  0.2703  0.1401
 1818SOL    HW117090   4.485   0.155  12.123  3.3432 -0.6293 -0.3728
 1818SOL    HW217091   4.570   0.211  12.220  1.8793 -0.5628 -1.7023
 1819SOL     OW17092   0.163   2.145   3.235  1.3080 -0.1440 -0.2725
 1819SOL    HW117093   0.150   2.204   3.161  1.0921 -0.3195 -0.3739
 1819SOL    HW217094   0.248   2.175   3.269  0.6962  1.6789 -0.3285
 1820SOL     OW17095   2.521   0.585   4.037 -0.7330 -0.2955 -0.3029
 1820SOL    HW117096   2.586   0.526   3.999 -3.1040 -4.0956  1.4605
 1820SOL    HW217097   2.495   0.644   3.967  1.9814  0.6222 -0.5461
 1821SOL     OW17098   0.270   2.327   5.215  0.0193 -0.0607 -0.3505
 1821SOL    HW117099   0.241   2.325   5.124  0.4793 -0.7293 -0.4719
 1821SOL    HW217100   0.361   2.353   5.201  0.3976 -2.2541 -1.8582
 1822SOL     OW17101   2.399   2.268  11.845 -0.6440  0.0564 -0.5933
 1822SOL    HW117102   2.437   2.226  11.922  0.2577 -0.5162 -1.3386
 1822SOL    HW217103   2.480   2.307  11.811  0.6069 -1.7137  0.3650
 1823SOL     OW17104   3.257   0.309  14.441 -0.2367 -0.2808  0.3416
 1823SOL    HW117105   3.266   0.213  14.434 -0.2100 -0.1408 -1.7955
 1823SOL    HW217106   3.236   0.338  14.352 -1.4392  0.1993  0.7965
 1824SOL     OW17107   2.832   4.634  17.732 -0.1998 -0.4153 -0.1748
 1824SOL    HW117108   2.745   4.656  17.700 -0.0706  0.4509  0.0717
 1824SOL    HW217109   2.815   4.637   0.082  2.3768 -0.6071  0.3192
 1825SOL     OW17110   2.234   0.582   8.013  0.2655  0.3116  0.1410
 1825SOL    HW117111   2.217   0.674   7.994  0.4355 -0.3198 -3.0336
 1825SOL    HW217112   2.157   0.562   8.066  1.3281 -2.8609  0.4753
 1826SOL     OW17113   1.454   2.379   6.305  0.1999  0.3004 -0.2398
 1826SOL    HW117114   1.462   2.356   6.212  0.0962  0.6219 -0.3299
 1826SOL    HW217115   1.383   2.316   6.320  0.3235 -0.1272 -1.4127
 1827SOL     OW17116   3.198   4.734  11.177 -0.1467  0.2689  0.7134
 1827SOL    HW117117   3.194   0.065  11.245  0.8264  2.0752 -1.0155
 1827SOL    HW217118   3.119   4.681  11.184  0.6154 -0.9362  0.1541
 1828SOL     OW17119   4.004   2.272   0.557 -0.4268  0.5834 -0.1396
 1828SOL    HW117120   3.956   2.277   0.474 -1.6737  1.9691  0.6575
 1828SOL    HW217121   3.966   2.190   0.591 -1.0994  0.6620 -0.7002
 1829SOL     OW17122   0.310   0.005  17.509 -0.0972  0.3586 -0.1035
 1829SOL    HW117123   0.379   0.065  17.482  1.1113 -0.3141  1.4996
 1829SOL    HW217124   0.304   4.683  17.434 -0.8653  0.3570 -0.0395
 1830SOL     OW17125   2.993   0.501   4.268 -0.3889 -0.0293 -0.1681
 1830SOL    HW117126   3.017   0.464   4.353  4.1120  1.4153 -0.8250
 1830SOL    HW217127   3.058   0.571   4.259 -1.1209  0.6860  0.1602
 1831SOL     OW17128   1.254   0.519  10.812 -0.4384  0.0375  0.3225
 1831SOL    HW117129   1.335   0.489  10.771 -0.8407 -1.2213  0.4358
 1831SOL    HW217130   1.257   0.459  10.887 -2.1075 -1.4426 -0.7964
 1832SOL     OW17131   2.786   0.991   3.652 -0.0907 -0.3879  0.1207
 1832SOL    HW117132   2.699   1.028   3.660 -1.0526 -2.5321 -0.2524
 1832SOL    HW217133   2.829   1.075   3.637  1.0989 -1.0715 -0.2888
 1833SOL     OW17134   2.749   0.652   2.035 -0.7333  0.0867 -0.2422
 1833SOL    HW117135   2.712   0.729   1.994  2.8452  1.0482 -1.6503
 1833SOL    HW217136   2.691   0.646   2.111  0.5313 -1.5384  0.6066
 1834SOL     OW17137   0.161   2.375   6.682  0.1745 -0.2133 -0.1554
 1834SOL    HW117138   0.100   2.355   6.611  0.3896 -0.0383 -0.3900
 1834SOL    HW217139   0.164   2.293   6.732 -1.8660 -0.3634 -0.2897
 1835SOL     OW17140   4.130   1.985  10.309 -0.2617  0.2073  0.9041
 1835SOL    HW117141   4.084   2.022  10.233 -1.0195  1.0685  1.7872
 1835SOL    HW217142   4.093   2.031  10.384  0.3339  2.8437 -0.4206
 1836SOL     OW17143   4.439   3.537   7.886 -0.1724 -0.6165  0.2377
 1836SOL    HW117144   4.453   3.628   7.861 -0.2328 -1.0387 -1.3917
 1836SOL    HW217145   4.525   3.496   7.893 -0.7219 -1.8114  0.0670
 1837SOL     OW17146   3.710   0.499  17.622 -0.3645 -0.3119  0.1914
 1837SOL    HW117147   3.638   0.549  17.660 -1.5862 -0.1972 -2.2721
 1837SOL    HW217148   3.732   0.552  17.546  2.2144 -0.9539  0.5015
 1838SOL     OW17149   1.851   4.219   2.730 -0.0706 -0.0901 -0.1990
 1838SOL    HW117150   1.900   4.215   2.648 -0.9636 -0.7769 -0.6999
 1838SOL    HW217151   1.924   4.230   2.791 -1.1668 -0.4272  1.1476
 1839SOL     OW17152   0.164   0.500   7.238 -0.0856  0.0573  0.1422
 1839SOL    HW117153   0.122   0.585   7.230 -0.3207  0.2247  3.0567
 1839SOL    HW217154   0.132   0.459   7.158  1.4419  0.4231 -0.6595
 1840SOL     OW17155   2.698   0.103  17.294  0.5069  0.2918 -0.3096
 1840SOL    HW117156   2.606   0.116  17.271  1.1466  0.5206 -2.6475
 1840SOL    HW217157   2.703   0.144  17.381  0.6534  0.2343 -0.2913
 1841SOL     OW17158   0.980   1.312   8.763 -0.3641 -0.4231 -0.0392
 1841SOL    HW117159   1.010   1.390   8.717 -1.2126 -0.1736 -0.1702
 1841SOL    HW217160   1.066   1.278   8.788 -0.4381  0.4058  1.3251
 1842SOL     OW17161   4.323   4.131   6.552  0.3796  0.1475  0.8700
 1842SOL    HW117162   4.414   4.160   6.543  0.1560  0.8291  0.8245
 1842SOL    HW217163   4.323   4.053   6.607  1.4041  0.5964  1.5188
 1843SOL     OW17164   1.078   2.456   1.219 -0.2260  0.3422 -0.3278
 1843SOL    HW117165   1.011   2.458   1.150 -1.5882 -2.5139  0.9262
 1843SOL    HW217166   1.135   2.530   1.200 -0.2803  0.2731 -0.7616
 1844SOL     OW17167   3.214   1.059   4.967 -0.2207 -0.3485 -0.2063
 1844SOL    HW117168   3.195   1.134   5.023 -1.7246 -0.8036 -0.1050
 1844SOL    HW217169   3.256   1.101   4.892 -0.0294 -0.9583 -0.4354
 1845SOL     OW17170   1.569   3.044   9.264 -0.0042 -0.2980  0.3167
 1845SOL    HW117171   1.638   3.096   9.307  0.7004  0.8009 -2.1098
 1845SOL    HW217172   1.530   3.007   9.343  0.2619 -2.0052 -0.3677
 1846SOL     OW17173   4.081   1.353   3.584 -0.0520  0.3170  0.8382
 1846SOL    HW117174   4.023   1.397   3.522  0.2285 -0.8080 -0.2124
 1846SOL    HW217175   4.037   1.393   3.659 -1.2832 -0.8385  0.7361
 1847SOL     OW17176   4.516   0.096  13.658  0.0939  0.3590  0.1723
 1847SOL    HW117177   4.466   0.141  13.590 -0.0665  2.4732  1.6965
 1847SOL    HW217178   4.523   0.007  13.622  1.6930  1.0092 -1.1217
 1848SOL     OW17179   3.655   0.557  16.680 -0.5843  0.4307  0.6777
 1848SOL    HW117180   3.705   0.562  16.761 -0.8394 -0.2950  0.8814
 1848SOL    HW217181   3.563   0.556  16.706 -0.5333 -0.3335  0.8385
 1849SOL     OW17182   2.502   4.583   7.008  0.0651  0.9322  0.3545
 1849SOL    HW117183   2.447   4.519   6.963  0.5585  0.6169  0.2069
 1849SOL    HW217184   2.446   4.588   7.086 -1.2878  1.1079 -0.6202
 1850SOL     OW17185   4.638   1.998   2.983  0.2093 -0.4355  0.3938
 1850SOL    HW117186   4.728   1.979   2.956  1.1951  1.6295  2.2495
 1850SOL    HW217187   4.618   1.914   3.025 -2.7201  0.0691 -0.0328
 1851SOL     OW17188   0.056   3.733   4.168 -0.2108 -0.0982  0.3857
 1851SOL    HW117189   0.024   3.777   4.089  1.3584 -1.4721 -1.0047
 1851SOL    HW217190   0.137   3.780   4.189  1.2042 -1.2006 -2.6007
 1852SOL     OW17191   3.360   2.737  14.174 -0.1921  0.3766 -0.0372
 1852SOL    HW117192   3.428   2.804  14.165 -1.5541  2.0891  2.5104
 1852SOL    HW217193   3.283   2.793  14.180  0.5068  1.2533  0.8583
 1853SOL     OW17194   0.499   0.262   3.970  0.1185 -0.0699  0.0696
 1853SOL    HW117195   0.488   0.355   3.994 -0.7419 -0.2503  0.3790
 1853SOL    HW217196   0.413   0.221   3.970 -0.5057  1.2477 -1.1017
 1854SOL     OW17197   1.830   4.215   7.145  0.6417  0.0905  0.4178
 1854SOL    HW117198   1.869   4.169   7.219  0.8865  0.5797  0.5941
 1854SOL    HW217199   1.848   4.150   7.078 -0.6937 -0.3333  0.4537
 1855SOL     OW17200   1.614   0.978   8.547  0.1579 -0.3199 -0.2748
 1855SOL    HW117201   1.587   0.887   8.536 -1.1819  0.1263 -0.6953
 1855SOL    HW217202   1.581   0.989   8.636 -1.1865 -0.2962 -0.7762
 1856SOL     OW17203   3.842   0.925   2.499  0.0900 -0.4708  0.1424
 1856SOL    HW117204   3.826   1.012   2.536  0.0047  0.3378 -1.7890
 1856SOL    HW217205   3.835   0.871   2.578  0.4223  0.6616  0.9380
 1857SOL     OW17206   2.991   2.058   4.776  0.4486 -0.7760 -0.0219
 1857SOL    HW117207   2.896   2.051   4.784  0.1347  1.7140 -1.5145
 1857SOL    HW217208   3.008   2.152   4.770  2.6375 -1.1068  0.9347
 1858SOL     OW17209   3.557   2.356  12.439 -0.1168 -0.4623  0.4259
 1858SOL    HW117210   3.506   2.427  12.399  1.6626  0.8913  0.5871
 1858SOL    HW217211   3.644   2.395  12.439  1.1378 -3.2061 -1.4026
 1859SOL     OW17212   2.215   0.704  15.748 -0.5618  0.5054  0.1400
 1859SOL    HW117213   2.137   0.692  15.802  0.1130 -0.0698  0.9748
 1859SOL    HW217214   2.176   0.721  15.662 -1.6906  1.0601  0.7611
 1860SOL     OW17215   3.323   0.442  10.152 -0.2825  0.2990  0.0238
 1860SOL    HW117216   3.394   0.491  10.112  0.5031 -0.4869  0.4498
 1860SOL    HW217217   3.257   0.511  10.147  0.6141  0.9817 -2.4647
 1861SOL     OW17218   0.487   0.832   2.115  0.2387  0.3144 -0.1728
 1861SOL    HW117219   0.464   0.924   2.129  1.5340  0.7965 -1.1526
 1861SOL    HW217220   0.492   0.798   2.204 -0.5965 -0.3302 -0.3702
 1862SOL     OW17221   2.758   3.071   7.340 -0.2826  0.5353 -0.3371
 1862SOL    HW117222   2.767   3.027   7.255  2.0430 -1.7857  1.0843
 1862SOL    HW217223   2.821   3.142   7.335  1.1698 -0.8344 -1.4229
 1863SOL     OW17224   0.719   0.590   4.010 -0.1113  0.4020  0.1733
 1863SOL    HW117225   0.799   0.624   3.971  0.0967  0.1689  0.3933
 1863SOL    HW217226   0.697   0.658   4.074 -0.3774 -1.1328  1.7307
 1864SOL     OW17227   3.217   0.427   5.001 -0.0369 -0.1428  0.1921
 1864SOL    HW117228   3.269   0.437   5.081 -0.9318  0.4802  0.7031
 1864SOL    HW217229   3.265   0.358   4.956 -0.5354  1.3755 -2.6403
 1865SOL     OW17230   3.427   3.590   5.351  0.1339 -0.2252  0.1370
 1865SOL    HW117231   3.390   3.575   5.264 -2.1884  1.2342  0.8805
 1865SOL    HW217232   3.519   3.568   5.335  0.7134  0.5974  2.3510
 1866SOL     OW17233   2.831   2.064  13.668 -0.5874 -0.1196  0.0441
 1866SOL    HW117234   2.752   2.115  13.687 -0.1150  1.1550 -1.3943
 1866SOL    HW217235   2.895   2.095  13.733 -0.1947 -0.0378 -0.3800
 1867SOL     OW17236   2.646   4.219   3.066 -0.0117  0.1528  0.6008
 1867SOL    HW117237   2.566   4.188   3.024  1.8353  0.6008 -3.2313
 1867SOL    HW217238   2.697   4.138   3.074  0.5298  0.4765  0.3974
 1868SOL     OW17239   0.647   3.312   5.137 -0.1580  0.0634 -0.2089
 1868SOL    HW117240   0.656   3.401   5.171 -0.6361  0.8448 -2.1436
 1868SOL    HW217241   0.706   3.262   5.194 -0.8816 -1.2010 -0.5645
 1869SOL     OW17242   0.980   3.623   0.918 -0.2987 -0.3960 -0.2315
 1869SOL    HW117243   0.991   3.550   0.856 -0.8356 -3.9937  3.8811
 1869SOL    HW217244   1.066   3.663   0.904  0.0764 -0.9505  0.4707
 1870SOL     OW17245   1.166   2.782  15.003 -0.1433  0.1754 -0.1570
 1870SOL    HW117246   1.222   2.726  15.056 -1.8222 -0.9702  0.4156
 1870SOL    HW217247   1.231   2.846  14.974  0.4091 -0.6874 -0.8426
 1871SOL     OW17248   1.692   4.475   7.809  1.0599 -0.1172  0.4886
 1871SOL    HW117249   1.647   4.406   7.858 -0.3380 -0.2736 -0.9984
 1871SOL    HW217250   1.739   4.529   7.872 -2.2385  1.3948  1.6715
 1872SOL     OW17251   0.496   2.607   9.324 -0.1986  0.4024 -0.4446
 1872SOL    HW117252   0.545   2.541   9.372 -3.0342  1.0462  3.3708
 1872SOL    HW217253   0.407   2.572   9.324 -0.8761  2.1453 -0.4802
 1873SOL     OW17254   0.819   0.546   3.731  0.1721  0.5038 -0.0859
 1873SOL    HW117255   0.744   0.509   3.777 -0.7582  0.2702 -1.7708
 1873SOL    HW217256   0.884   0.544   3.801 -0.5627  0.2492  0.5805
 1874SOL     OW17257   2.271   3.068   7.514  0.3793 -0.0109  0.3543
 1874SOL    HW117258   2.193   3.069   7.458 -0.4643 -0.5054  1.5073
 1874SOL    HW217259   2.335   3.103   7.452 -0.0753 -0.1058 -0.1682
 1875SOL     OW17260   4.576   2.664   2.659  0.1705  0.2321 -0.0498
 1875SOL    HW117261   4.543   2.635   2.744  1.3016  0.1838  0.3729
 1875SOL    HW217262   4.644   2.598   2.643 -1.9500 -1.6956 -1.0800
 1876SOL     OW17263   2.149   2.889   6.497 -0.1972 -0.4298 -0.7391
 1876SOL    HW117264   2.150   2.845   6.582 -2.1373  1.7707  0.4245
 1876SOL    HW217265   2.241   2.870   6.479  0.6657  1.2371  1.8779
 1877SOL     OW17266   2.896   2.073   7.030  0.2186 -0.5584  0.2129
 1877SOL    HW117267   2.834   2.016   7.076 -0.2964 -3.1394 -3.6870
 1877SOL    HW217268   2.906   2.141   7.097 -0.9123 -0.2245  0.0431
 1878SOL     OW17269   4.355   4.126   5.388 -0.6076  0.2658 -0.3449
 1878SOL    HW117270   4.290   4.194   5.407 -0.5308  0.1672  0.2570
 1878SOL    HW217271   4.367   4.085   5.474 -2.2336  0.8218  0.1467
 1879SOL     OW17272   3.199   2.565  13.505  0.3271  0.6835 -0.2422
 1879SOL    HW117273   3.209   2.597  13.415 -2.0296  0.8497 -0.4474
 1879SOL    HW217274   3.263   2.494  13.500  1.6088  1.7226  1.3910
 1880SOL     OW17275   4.347   3.029   5.350  0.1398 -0.0833 -0.1874
 1880SOL    HW117276   4.260   3.025   5.310 -0.9587  1.6072  2.0167
 1880SOL    HW217277   4.386   3.086   5.284 -0.4883  1.5156  0.8251
 1881SOL     OW17278   1.835   1.207   1.558 -0.1230 -0.5249 -0.8067
 1881SOL    HW117279   1.776   1.135   1.582  1.7996 -1.6767  0.4977
 1881SOL    HW217280   1.817   1.264   1.632 -0.5419 -1.7844  0.0665
 1882SOL     OW17281   2.258   1.606  12.024  0.8247 -0.1516  0.1463
 1882SOL    HW117282   2.305   1.651  12.094  0.3187 -0.5156  0.7120
 1882SOL    HW217283   2.177   1.582  12.068  0.5355  1.6651  0.6010
 1883SOL     OW17284   3.367   3.095   3.526 -0.2972  0.0413 -0.1875
 1883SOL    HW117285   3.421   3.069   3.600 -1.2489 -2.5604 -0.4013
 1883SOL    HW217286   3.289   3.042   3.545  0.1433 -0.2673  0.7411
 1884SOL     OW17287   0.041   4.333   7.101  0.0767  0.2961  0.4599
 1884SOL    HW117288   4.720   4.377   7.163  0.5897  3.8149 -1.5916
 1884SOL    HW217289   4.710   4.294   7.044  0.0405  1.1756 -0.1101
 1885SOL     OW17290   4.091   2.995   5.288  0.3648  0.3892 -0.0067
 1885SOL    HW117291   4.084   2.954   5.202  0.2831 -0.3636  0.3603
 1885SOL    HW217292   4.006   3.039   5.289 -0.3658 -1.0161 -0.2154
 1886SOL     OW17293   1.224   0.493   6.378 -0.0925  0.2634  0.8442
 1886SOL    HW117294   1.177   0.441   6.443  0.3782  1.0890  1.8493
 1886SOL    HW217295   1.152   0.548   6.345  0.6969  1.3791  0.9763
 1887SOL     OW17296   2.182   3.909  13.366  0.0602  0.0663 -0.2897
 1887SOL    HW117297   2.226   3.983  13.409 -0.7761  0.6651 -0.4650
 1887SOL    HW217298   2.240   3.833  13.372 -0.7444 -0.3980  1.8430
 1888SOL     OW17299   1.356   1.269   5.117  0.2420  0.0407  0.4884
 1888SOL    HW117300   1.442   1.232   5.135  0.8196  1.1184 -0.0827
 1888SOL    HW217301   1.353   1.279   5.022  0.1432 -2.9968  0.1647
 1889SOL     OW17302   3.602   1.795   4.932 -0.1460 -0.0618 -0.2349
 1889SOL    HW117303   3.691   1.829   4.926  0.3281 -0.9860  1.4702
 1889SOL    HW217304   3.602   1.767   5.023  0.0627 -2.1845 -0.8813
 1890SOL     OW17305   2.255   0.330  10.046  0.4108  0.6681 -0.2518
 1890SOL    HW117306   2.221   0.383  10.118 -0.5780  0.9972 -0.9623
 1890SOL    HW217307   2.232   0.238  10.058 -0.1427  0.7568 -0.6524
 1891SOL     OW17308   0.623   0.381   2.918 -0.0267  0.0931 -0.1618
 1891SOL    HW117309   0.577   0.367   3.001  0.2232  2.1054  0.2999
 1891SOL    HW217310   0.709   0.413   2.947  0.2448 -0.0061 -0.8559
 1892SOL     OW17311   2.768   1.318   2.450 -0.2515  0.3923 -0.2587
 1892SOL    HW117312   2.815   1.399   2.467  0.1266  0.7226 -2.9002
 1892SOL    HW217313   2.675   1.337   2.441 -0.5294 -0.3972  0.9236
 1893SOL     OW17314   0.989   1.810  17.450 -0.3705  0.5685  0.6049
 1893SOL    HW117315   1.063   1.861  17.417  1.1507 -1.3138  1.1204
 1893SOL    HW217316   0.954   1.877  17.509 -1.1893 -0.8188  1.7016
 1894SOL     OW17317   0.011   2.760  16.331 -0.2118  0.4343 -0.3867
 1894SOL    HW117318   4.730   2.689  16.392 -0.9811 -1.6899 -3.1152
 1894SOL    HW217319   4.665   2.798  16.302 -0.0610  1.8673  1.0325
 1895SOL     OW17320   3.413   4.003   9.065 -0.3322  0.4662  0.0021
 1895SOL    HW117321   3.416   3.933   9.130  0.5152  0.8532  0.3781
 1895SOL    HW217322   3.432   3.954   8.985 -0.5276 -3.7245  2.5263
 1896SOL     OW17323   0.973   0.215  13.565  0.2132 -0.4840 -0.0914
 1896SOL    HW117324   1.022   0.257  13.494  1.7784 -0.6621  0.8894
 1896SOL    HW217325   1.025   0.135  13.565 -0.2034 -0.7368  2.5012
 1897SOL     OW17326   1.343   3.660  12.391  0.0467 -0.0261  0.0041
 1897SOL    HW117327   1.406   3.597  12.355  0.2715 -0.0496  0.4286
 1897SOL    HW217328   1.261   3.611  12.396  0.4889 -0.7638  0.0513
 1898SOL     OW17329   2.793   2.296   4.872  0.2979  0.3992  0.4501
 1898SOL    HW117330   2.861   2.281   4.806  0.2769  0.0676  0.5052
 1898SOL    HW217331   2.716   2.263   4.825  0.6371  1.1704 -0.6775
 1899SOL     OW17332   3.120   3.266   7.161 -0.3134 -0.0179  0.0089
 1899SOL    HW117333   3.158   3.201   7.220  1.2623 -0.0575 -1.0459
 1899SOL    HW217334   3.043   3.280   7.215  0.1231 -0.4137  0.7251
 1900SOL     OW17335   0.612   1.339  15.562 -0.3599 -0.2337  0.1522
 1900SOL    HW117336   0.581   1.259  15.605 -1.0067 -0.7732 -1.3165
 1900SOL    HW217337   0.551   1.352  15.490 -1.4169  1.3354  1.3545
 1901SOL     OW17338   3.229   0.341   1.432  0.8719  0.0477  0.2081
 1901SOL    HW117339   3.175   0.285   1.487 -0.6973  0.8670 -0.5085
 1901SOL    HW217340   3.246   0.412   1.494 -0.4819  0.2586  0.3378
 1902SOL     OW17341   0.655   0.558   1.987  0.2900  0.1015 -0.8271
 1902SOL    HW117342   0.736   0.534   2.032  0.4587 -1.2041 -1.8455
 1902SOL    HW217343   0.660   0.652   2.005 -1.3128  0.2717 -1.2961
 1903SOL     OW17344   4.281   3.606   2.786 -0.1016  0.3670 -0.2225
 1903SOL    HW117345   4.345   3.675   2.803 -0.8902  1.4776 -1.6674
 1903SOL    HW217346   4.238   3.585   2.869  1.1427 -2.1491 -0.2195
 1904SOL     OW17347   1.876   2.302   8.286  0.1171  0.6751  0.0890
 1904SOL    HW117348   1.933   2.357   8.339 -1.9339  2.5045  0.3938
 1904SOL    HW217349   1.924   2.219   8.285 -2.4088 -0.7868 -0.2834
 1905SOL     OW17350   4.139   4.651   6.020 -0.2795  0.0286  0.7476
 1905SOL    HW117351   4.119   4.596   5.944 -2.1825  0.7636  0.7074
 1905SOL    HW217352   4.178   4.592   6.084  1.7171  0.2133 -0.2983
 1906SOL     OW17353   3.711   2.493   6.510  0.1000 -0.1585  0.3271
 1906SOL    HW117354   3.794   2.444   6.510 -0.4459 -1.0931  0.1542
 1906SOL    HW217355   3.695   2.507   6.603  3.6668  1.8695  0.6473
 1907SOL     OW17356   2.059   4.663  16.133  0.0755  0.4010 -0.3372
 1907SOL    HW117357   2.100   4.680  16.049 -2.3341  1.0417 -1.3835
 1907SOL    HW217358   1.997   4.736  16.133 -0.8716 -0.3866 -2.4726
 1908SOL     OW17359   0.837   1.688   6.648 -0.0711 -0.0871  0.2845
 1908SOL    HW117360   0.920   1.646   6.669 -0.5775 -1.1809  0.1116
 1908SOL    HW217361   0.812   1.639   6.570 -0.5240 -2.0362  1.6687
 1909SOL     OW17362   3.398   3.938   8.085  0.1663  0.2968  0.1513
 1909SOL    HW117363   3.458   3.885   8.032  0.2645  0.7374 -0.1785
 1909SOL    HW217364   3.330   3.871   8.091 -0.2935  0.5115 -2.7162
 1910SOL     OW17365   4.305   0.182   4.806  0.2038 -0.3413 -0.0672
 1910SOL    HW117366   4.221   0.163   4.847  0.2553 -0.0743  0.1637
 1910SOL    HW217367   4.353   0.100   4.819  0.7858 -0.2219 -1.4475
 1911SOL     OW17368   1.087   2.436   4.314 -0.9974  0.1782 -0.5034
 1911SOL    HW117369   1.078   2.341   4.322 -0.5051  0.2863  1.3037
 1911SOL    HW217370   1.134   2.428   4.230 -1.0587 -0.1420 -0.5083
 1912SOL     OW17371   4.254   1.210   8.449 -0.4467  0.3002 -0.0979
 1912SOL    HW117372   4.288   1.296   8.474 -0.0964 -0.0379  0.5845
 1912SOL    HW217373   4.254   1.217   8.353  0.0130 -2.0458 -0.2759
 1913SOL     OW17374   3.699   1.995  17.156 -0.4523 -0.4942 -0.4812
 1913SOL    HW117375   3.759   2.059  17.118  0.4602 -1.4832 -0.7026
 1913SOL    HW217376   3.763   1.940  17.200  0.9124  1.5813  0.0629
 1914SOL     OW17377   4.606   0.337   1.877  0.0160 -0.3055  0.5783
 1914SOL    HW117378   4.523   0.321   1.832 -0.5181  2.9833  0.4158
 1914SOL    HW217379   4.578   0.407   1.936 -0.0195 -0.4522  0.7365
 1915SOL     OW17380   2.595   2.208  13.735 -0.0346  0.2054 -0.8289
 1915SOL    HW117381   2.509   2.169  13.752  0.5285 -0.6653 -0.0026
 1915SOL    HW217382   2.562   2.258  13.660  0.7215 -1.8744 -2.5404
 1916SOL     OW17383   4.688   2.891   2.563  0.1234 -0.0962 -0.0734
 1916SOL    HW117384   0.030   2.922   2.609 -1.0094  0.4610  1.4823
 1916SOL    HW217385   4.682   2.801   2.596 -0.8502  0.8341  2.2177
 1917SOL     OW17386   0.809   1.767  16.313  0.1832  0.6100  0.2100
 1917SOL    HW117387   0.902   1.789  16.305 -0.4089  2.8408 -0.7675
 1917SOL    HW217388   0.778   1.845  16.266 -1.2563 -1.7037 -2.7187
 1918SOL     OW17389   4.186   2.433  10.126 -0.5168  0.2131 -0.4319
 1918SOL    HW117390   4.252   2.367  10.146  1.7614  2.6873  0.2276
 1918SOL    HW217391   4.190   2.474  10.213 -0.4924 -1.3559  0.3088
 1919SOL     OW17392   2.691   4.314   1.116 -0.6138  0.5634  0.0707
 1919SOL    HW117393   2.719   4.223   1.102  0.8949  0.8641  1.1839
 1919SOL    HW217394   2.753   4.337   1.185  1.2454  0.2808 -1.4922
 1920SOL     OW17395   2.324   2.367   5.894 -0.4637 -0.5061 -0.4204
 1920SOL    HW117396   2.363   2.293   5.940 -1.7571 -0.8669  0.0760
 1920SOL    HW217397   2.241   2.359   5.940  1.6350  0.3400  3.5106
 1921SOL     OW17398   0.854   1.833  12.480 -0.0343  0.8453  0.8550
 1921SOL    HW117399   0.811   1.783  12.410  0.2031  0.6753  0.8315
 1921SOL    HW217400   0.793   1.825  12.553 -1.0009 -0.8799 -0.1335
 1922SOL     OW17401   2.367   2.134   3.745 -0.5634 -0.1651 -0.5574
 1922SOL    HW117402   2.371   2.131   3.841 -1.3169  0.0166 -0.5198
 1922SOL    HW217403   2.414   2.052   3.732  2.1610  1.2332  0.4803
 1923SOL     OW17404   3.045   2.209   7.758 -0.7993  0.4796 -0.1042
 1923SOL    HW117405   3.016   2.241   7.843 -1.2302 -0.8084  0.2253
 1923SOL    HW217406   2.990   2.268   7.706  0.3829 -0.8041 -2.8215
 1924SOL     OW17407   4.147   0.893  14.810 -0.3831 -0.3696 -0.2697
 1924SOL    HW117408   4.162   0.982  14.777  0.8026 -0.4553  0.0206
 1924SOL    HW217409   4.054   0.881  14.789 -0.3890  2.6331 -1.9629
 1925SOL     OW17410   2.312   4.716  12.242  0.4605 -0.0738  0.1393
 1925SOL    HW117411   2.317   0.033  12.321  0.5762 -1.2758  0.9477
 1925SOL    HW217412   2.385   4.655  12.250 -1.2907 -1.9851  1.4233
 1926SOL     OW17413   3.897   2.600  15.571 -0.1910  0.2757  0.0439
 1926SOL    HW117414   3.821   2.628  15.520  0.2315  0.5799 -0.4183
 1926SOL    HW217415   3.871   2.616  15.662  2.7318  0.6484  0.8226
 1927SOL     OW17416   1.722   1.231  12.052  0.4108 -0.3197 -0.2104
 1927SOL    HW117417   1.811   1.259  12.029  1.5285 -2.8993  1.0167
 1927SOL    HW217418   1.737   1.136  12.051 -0.6961 -0.4904 -0.9974
 1928SOL     OW17419   4.590   3.743   8.237  0.6200  0.0442  0.4355
 1928SOL    HW117420   4.626   3.765   8.323  2.2215 -1.6224  0.1918
 1928SOL    HW217421   4.559   3.656   8.259  2.8332 -1.2287 -1.4497
 1929SOL     OW17422   2.837   4.638  15.767  0.3917 -0.6383  0.5963
 1929SOL    HW117423   2.841   4.670  15.857 -1.6633  1.0860  0.0775
 1929SOL    HW217424   2.747   4.664  15.750  0.5998  0.1787  0.7496
 1930SOL     OW17425   0.397   1.414   9.612 -0.0402 -0.7891  0.6756
 1930SOL    HW117426   0.430   1.439   9.698  1.6417 -0.6665 -0.0056
 1930SOL    HW217427   0.391   1.499   9.569 -0.2562 -0.7090  0.8649
 1931SOL     OW17428   0.845   4.510  17.438 -0.1945  0.4379  0.3995
 1931SOL    HW117429   0.840   4.443  17.370 -0.0424  0.1829  0.6378
 1931SOL    HW217430   0.766   4.564  17.431 -0.0659  0.5881  0.1307
 1932SOL     OW17431   3.679   1.973   6.110 -0.3479  0.0281  0.2338
 1932SOL    HW117432   3.616   1.933   6.169 -0.6329  1.7656  1.1232
 1932SOL    HW217433   3.699   2.055   6.155  3.8927 -0.0876 -1.4304
 1933SOL     OW17434   1.942   0.196   5.023  0.0068 -0.0637  0.0800
 1933SOL    HW117435   2.016   0.173   4.966  0.4761 -0.2043  0.7535
 1933SOL    HW217436   1.987   0.249   5.089  0.7956  0.2813 -0.7231
 1934SOL     OW17437   4.505   3.669   3.899  0.0718 -0.0756  0.2377
 1934SOL    HW117438   4.524   3.760   3.874  1.1051 -0.3422  0.0477
 1934SOL    HW217439   4.470   3.636   3.816  0.6260 -0.9893  0.3764
 1935SOL     OW17440   0.470   3.149  10.274 -0.0080 -0.0830 -0.3752
 1935SOL    HW117441   0.563   3.167  10.286 -0.2893  1.2586 -0.2146
 1935SOL    HW217442   0.464   3.161  10.180  0.8725 -0.5795 -0.5005
 1936SOL     OW17443   3.214   1.744   2.870 -0.2987 -0.5623  0.0006
 1936SOL    HW117444   3.280   1.747   2.801 -0.2183 -0.4018  0.0858
 1936SOL    HW217445   3.249   1.669   2.918  1.6039  0.7508  0.6521
 1937SOL     OW17446   3.721   4.544  14.637  0.3656  0.7694  0.5127
 1937SOL    HW117447   3.685   4.589  14.560 -0.2609  0.6144  0.7178
 1937SOL    HW217448   3.793   4.599  14.665  1.1943  0.5817 -1.2646
 1938SOL     OW17449   3.990   2.740   4.349  0.8611  0.5455 -0.0350
 1938SOL    HW117450   3.983   2.646   4.367  3.3740  0.2684 -0.5053
 1938SOL    HW217451   3.989   2.729   4.254 -2.7216  0.1186  0.0414
 1939SOL     OW17452   1.518   0.974  12.631  0.3873 -0.2598  0.2566
 1939SOL    HW117453   1.522   1.057  12.584 -0.6154 -0.4761 -0.1965
 1939SOL    HW217454   1.608   0.959  12.662  0.9870 -1.7253 -2.2071
 1940SOL     OW17455   0.267   0.993   2.444 -0.3079 -0.4220 -0.2924
 1940SOL    HW117456   0.329   0.958   2.508 -1.1054  0.3732  0.9316
 1940SOL    HW217457   0.298   1.083   2.430 -2.8347  0.3146 -1.2949
 1941SOL     OW17458   1.063   0.335   9.131 -0.1392 -0.6889  0.0621
 1941SOL    HW117459   1.097   0.406   9.185  0.5682 -0.7361 -0.3222
 1941SOL    HW217460   0.996   0.384   9.083 -0.0260 -0.8703 -0.2757
 1942SOL     OW17461   4.605   1.091   6.220  0.5185  0.1927  0.2591
 1942SOL    HW117462   4.534   1.154   6.234  0.4394  0.0007  0.7421
 1942SOL    HW217463   4.581   1.045   6.139 -0.6655 -1.8217  1.7491
 1943SOL     OW17464   1.078   3.182   9.877 -0.6321 -0.1504  0.3579
 1943SOL    HW117465   1.092   3.276   9.866 -0.7399 -0.2004 -0.2400
 1943SOL    HW217466   1.067   3.171   9.971 -1.3783 -0.1002  0.2792
 1944SOL     OW17467   1.640   1.419   2.974 -0.2425 -0.5009 -0.4554
 1944SOL    HW117468   1.698   1.410   3.050  0.3833  4.5147 -0.3389
 1944SOL    HW217469   1.557   1.442   3.015  0.8450  0.6730  1.0987
 1945SOL     OW17470   4.193   3.551  13.782  0.0795 -0.2633  0.4039
 1945SOL    HW117471   4.194   3.646  13.766 -0.0408 -0.2624  0.3994
 1945SOL    HW217472   4.228   3.550  13.871  0.8341  0.5788  0.1190
 1946SOL     OW17473   1.661   0.737   1.942 -0.4601 -0.2996  0.0363
 1946SOL    HW117474   1.713   0.813   1.969  0.4336 -0.7352 -0.4459
 1946SOL    HW217475   1.581   0.775   1.976 -0.0243  2.1156 -1.6156
 1947SOL     OW17476   3.800   3.434   2.226 -0.4177 -0.1622 -0.2448
 1947SOL    HW117477   3.841   3.379   2.293 -1.3018 -1.2240 -0.5786
 1947SOL    HW217478   3.859   3.509   2.226 -0.5608 -0.0483  1.0819
 1948SOL     OW17479   4.200   4.052  17.558 -0.3350 -0.0681  0.7087
 1948SOL    HW117480   4.139   4.011  17.619 -0.0048  0.2147  1.2296
 1948SOL    HW217481   4.258   3.975  17.556  0.3027  0.4336  0.1044
 1949SOL     OW17482   3.418   4.679   0.738  0.0627  0.4560 -0.1755
 1949SOL    HW117483   3.480   4.728   0.684  0.6232  0.6223  0.6265
 1949SOL    HW217484   3.339   4.733   0.736 -0.6337 -0.5558  0.0903
 1950SOL     OW17485   0.032   2.209   3.517  1.1370 -0.0950  0.7986
 1950SOL    HW117486   0.064   2.214   3.427 -2.1089 -0.6341 -0.3950
 1950SOL    HW217487   0.113   2.214   3.567  1.0796 -3.1263  1.2264
 1951SOL     OW17488   3.240   2.417  14.887  0.5796  0.2468 -0.5335
 1951SOL    HW117489   3.206   2.339  14.931 -0.4837  0.5057 -0.8840
 1951SOL    HW217490   3.319   2.374  14.856  2.4155  1.6803  2.1584
 1952SOL     OW17491   1.913   1.620   2.868 -0.4433 -0.4424  0.6583
 1952SOL    HW117492   1.914   1.686   2.937  0.7966  2.1278 -1.8049
 1952SOL    HW217493   1.821   1.594   2.865  0.0121 -1.8477 -1.0212
 1953SOL     OW17494   3.173   3.286  15.982 -0.1255 -0.0789  0.1536
 1953SOL    HW117495   3.206   3.371  15.953 -1.5397 -0.3482 -2.2215
 1953SOL    HW217496   3.081   3.302  16.004 -0.5096 -0.0794 -1.4555
 1954SOL     OW17497   3.524   2.003   4.625  0.3971  0.1591  0.2231
 1954SOL    HW117498   3.515   1.962   4.712 -0.4821  1.4977  0.7651
 1954SOL    HW217499   3.431   2.002   4.603  0.4697  3.1853 -0.1603
 1955SOL     OW17500   2.321   1.525   4.336 -0.6858  0.1030 -0.0748
 1955SOL    HW117501   2.384   1.552   4.402  0.8349 -2.4582 -0.4860
 1955SOL    HW217502   2.258   1.477   4.389  1.4808 -0.7523  1.7057
 1956SOL     OW17503   0.296   3.284   6.788  0.3992 -0.0988  0.4820
 1956SOL    HW117504   0.303   3.354   6.723 -0.6438 -1.2715 -0.9012
 1956SOL    HW217505   0.370   3.300   6.847  1.3886 -0.2227 -0.7257
 1957SOL     OW17506   1.297   4.663   4.232 -0.1533 -0.0810 -0.2592
 1957SOL    HW117507   1.224   4.616   4.272  0.0623 -0.0760  0.1401
 1957SOL    HW217508   1.282   4.634   4.142  3.8350 -0.0768 -0.9196
 1958SOL     OW17509   1.370   1.524   8.672  0.5257 -0.0394 -0.0049
 1958SOL    HW117510   1.451   1.490   8.711 -0.3661 -1.8319  0.2506
 1958SOL    HW217511   1.394   1.616   8.658 -0.6344 -0.1734 -2.8383
 1959SOL     OW17512   4.468   0.374  16.969 -0.0260 -0.0749  0.3824
 1959SOL    HW117513   4.458   0.366  16.874  2.0036  0.1005  0.1692
 1959SOL    HW217514   4.404   0.442  16.989  0.0946 -0.0099  0.5450
 1960SOL     OW17515   2.873   4.528  16.121  0.5922  0.1222 -0.0620
 1960SOL    HW117516   2.867   4.620  16.095  0.2163  0.3214  0.7479
 1960SOL    HW217517   2.967   4.527  16.141  0.9360  1.8094 -1.6271
 1961SOL     OW17518   0.473   1.458   5.089  0.4567  0.0311  0.2812
 1961SOL    HW117519   0.446   1.534   5.038  0.4403  0.1297  0.4389
 1961SOL    HW217520   0.551   1.501   5.122  0.2858 -0.4170  1.2793
 1962SOL     OW17521   1.590   0.318   5.519 -0.0907  0.1811  0.1864
 1962SOL    HW117522   1.683   0.299   5.529  0.5434  2.0584 -2.1586
 1962SOL    HW217523   1.564   0.318   5.611 -0.8358 -4.5541 -0.0058
 1963SOL     OW17524   3.895   3.461   8.750 -0.0058 -0.2887 -0.5524
 1963SOL    HW117525   3.984   3.445   8.720 -0.3494  0.3693 -1.8890
 1963SOL    HW217526   3.908   3.520   8.824  1.4851  2.3529 -2.9219
 1964SOL     OW17527   3.973   2.328  16.874 -0.4645  0.0236 -0.3250
 1964SOL    HW117528   4.063   2.362  16.872 -0.9487  1.3324  0.4734
 1964SOL    HW217529   3.944   2.380  16.800  1.6856  1.1478 -0.3944
 1965SOL     OW17530   3.748   0.716   8.716  0.3596  0.3209  0.3019
 1965SOL    HW117531   3.657   0.730   8.741 -0.0539  1.4570 -1.8280
 1965SOL    HW217532   3.786   0.779   8.776  0.8475 -0.1438  0.4813
 1966SOL     OW17533   0.341   3.229   5.928 -0.5598  0.4428  0.2204
 1966SOL    HW117534   0.288   3.232   5.848 -0.2805 -0.1683  0.0122
 1966SOL    HW217535   0.401   3.160   5.900 -0.0799  0.8096  0.3497
 1967SOL     OW17536   2.818   1.359   6.525 -0.0745  0.5822 -0.0418
 1967SOL    HW117537   2.752   1.350   6.595  0.7994  0.2260  0.7427
 1967SOL    HW217538   2.765   1.407   6.462 -2.2728 -0.1197  1.2585
 1968SOL     OW17539   2.099   0.747   8.300  0.2818  0.0786  0.5166
 1968SOL    HW117540   2.090   0.655   8.322 -0.1441  0.0916  0.3996
 1968SOL    HW217541   2.194   0.757   8.312  0.2919 -0.4060  0.8243
 1969SOL     OW17542   2.517   3.970  11.991  0.0000 -0.4475 -0.1543
 1969SOL    HW117543   2.585   3.936  11.933 -2.0736 -3.0231 -1.1027
 1969SOL    HW217544   2.497   3.892  12.043 -0.4769  1.0391  1.8829
 1970SOL     OW17545   0.044   1.734  16.570  0.0315 -0.2184 -0.3832
 1970SOL    HW117546   0.079   1.684  16.644 -0.9567 -0.0546  0.1915
 1970SOL    HW217547   0.023   1.651  16.526  0.3065 -1.1354  1.1774
 1971SOL     OW17548   0.379   4.713   2.509  0.1130  0.1410 -0.1223
 1971SOL    HW117549   0.403   4.704   2.416  0.8669  0.3993  0.0464
 1971SOL    HW217550   0.468   4.733   2.537  0.0581 -2.0188  1.5724
 1972SOL     OW17551   2.655   4.363   2.211 -0.6793 -0.6198  0.3103
 1972SOL    HW117552   2.657   4.440   2.268  0.4204 -0.2828 -0.1893
 1972SOL    HW217553   2.693   4.294   2.266 -1.4555  0.9524  2.8279
 1973SOL     OW17554   3.395   0.890   5.949  0.5870  0.8012 -0.4888
 1973SOL    HW117555   3.371   0.804   5.983 -1.5520  1.7964  0.5245
 1973SOL    HW217556   3.322   0.946   5.973 -0.9239 -1.9584  1.3409
 1974SOL     OW17557   4.189   0.223   3.696 -0.7968  0.8096 -0.3633
 1974SOL    HW117558   4.137   0.148   3.665 -1.5346  0.3723  1.9339
 1974SOL    HW217559   4.274   0.211   3.654 -0.2617 -0.0784  0.9884
 1975SOL     OW17560   0.437   1.034   6.253  0.0940  0.1548  0.0903
 1975SOL    HW117561   0.348   1.006   6.232  0.9903 -1.9090 -0.9408
 1975SOL    HW217562   0.428   1.130   6.252 -2.0966 -0.0410  0.5812
 1976SOL     OW17563   2.321   4.054   2.345 -0.0831  0.1354 -0.2099
 1976SOL    HW117564   2.249   4.067   2.282 -0.0396  1.4858  0.0304
 1976SOL    HW217565   2.396   4.025   2.292  0.1190  1.0224 -0.4088
 1977SOL     OW17566   3.499   4.506  13.019 -0.3397 -0.3548  0.3348
 1977SOL    HW117567   3.586   4.529  12.985 -1.4331  2.2259 -0.7383
 1977SOL    HW217568   3.465   4.450  12.949  0.8942 -1.6032  0.7385
 1978SOL     OW17569   1.444   2.898   7.751  0.6743 -0.0397 -0.4735
 1978SOL    HW117570   1.420   2.845   7.827 -2.4529 -0.0943 -1.4983
 1978SOL    HW217571   1.378   2.864   7.690  2.7319 -1.5574 -1.8355
 1979SOL     OW17572   2.646   4.512   0.905 -0.0947  0.2387  0.1626
 1979SOL    HW117573   2.663   4.436   0.960  0.8206 -0.9164 -1.7207
 1979SOL    HW217574   2.596   4.469   0.836  0.3094  0.6531 -0.3865
 1980SOL     OW17575   4.108   3.912  10.029  0.0672 -0.1299  0.5994
 1980SOL    HW117576   4.100   3.965  10.109 -5.7319 -0.6080  0.3896
 1980SOL    HW217577   4.032   3.946   9.981  0.8950  1.3661  0.3401
 1981SOL     OW17578   1.478   0.939   5.247 -0.3549  0.0401 -0.2226
 1981SOL    HW117579   1.506   1.006   5.184 -1.2432 -0.2396 -0.9228
 1981SOL    HW217580   1.459   0.989   5.327 -1.1660 -0.8860  0.1665
 1982SOL     OW17581   1.823   2.081   3.085 -0.4164 -0.2231 -0.4963
 1982SOL    HW117582   1.842   2.123   3.001  0.0080 -0.5606 -0.5661
 1982SOL    HW217583   1.911   2.048   3.105 -0.5842  1.1403  2.5736
 1983SOL     OW17584   1.075   3.226  12.855 -0.2507  0.0073 -0.0836
 1983SOL    HW117585   1.014   3.176  12.801  0.5275 -0.3960 -0.5782
 1983SOL    HW217586   1.073   3.171  12.934  1.1311  2.0632  1.3944
 1984SOL     OW17587   2.126   1.849   2.335  0.1201  0.3350 -0.2398
 1984SOL    HW117588   2.084   1.873   2.252 -0.6827 -2.3024 -0.6290
 1984SOL    HW217589   2.094   1.902   2.407 -2.6844 -0.7241 -0.6910
 1985SOL     OW17590   1.352   4.252   1.616 -0.0809 -0.2760  0.7809
 1985SOL    HW117591   1.444   4.278   1.612  0.4991 -2.2595  1.0601
 1985SOL    HW217592   1.348   4.182   1.682  0.7294 -1.9501 -0.9396
 1986SOL     OW17593   3.184   3.660   9.071 -0.0039 -0.1593 -0.4349
 1986SOL    HW117594   3.231   3.727   9.122 -0.0020  1.1310 -2.1285
 1986SOL    HW217595   3.252   3.592   9.068 -0.2292 -0.2988 -2.4981
 1987SOL     OW17596   4.101   2.126   2.994  0.1536  0.3047 -0.5833
 1987SOL    HW117597   4.050   2.056   2.953  0.4301 -0.5833  0.5804
 1987SOL    HW217598   4.186   2.081   2.989 -0.1908 -0.2350 -1.5454
 1988SOL     OW17599   4.479   0.032   5.398  0.3974  0.4456  0.1307
 1988SOL    HW117600   4.466   4.694   5.340 -1.1633  0.4826  0.4309
 1988SOL    HW217601   4.552   0.082   5.362  2.1266 -2.8371 -0.8530
 1989SOL     OW17602   2.781   0.276  15.804 -0.2324 -0.3771  0.2278
 1989SOL    HW117603   2.718   0.251  15.873 -0.0358 -0.8336  0.2440
 1989SOL    HW217604   2.760   0.368  15.790 -0.4830 -0.3045  1.0555
 1990SOL     OW17605   1.653   0.705   0.375  0.6760 -0.2555 -0.1324
 1990SOL    HW117606   1.641   0.800   0.367 -0.1051 -0.3622 -0.2719
 1990SOL    HW217607   1.637   0.692   0.468  0.9214  2.7160  0.3337
 1991SOL     OW17608   2.865   1.469   4.661  0.1402  0.2680 -0.1108
 1991SOL    HW117609   2.924   1.499   4.593  0.8451  1.0039  0.8241
 1991SOL    HW217610   2.831   1.381   4.642  1.0497 -0.2982  0.8459
 1992SOL     OW17611   0.398   1.704   5.004 -0.4642  0.4096 -0.1172
 1992SOL    HW117612   0.327   1.755   4.965  0.3772  1.0794 -0.7919
 1992SOL    HW217613   0.437   1.767   5.065 -1.4361  1.3983 -0.5188
 1993SOL     OW17614   3.040   3.920   2.342 -0.6735 -0.1936  0.5796
 1993SOL    HW117615   3.055   3.911   2.436  0.8893  0.9323  0.4388
 1993SOL    HW217616   3.018   3.831   2.312 -0.4781 -0.4970  1.3565
 1994SOL     OW17617   3.303   3.655   4.682 -0.3369  0.0936  0.0413
 1994SOL    HW117618   3.345   3.572   4.703 -3.1798 -1.3215 -0.0131
 1994SOL    HW217619   3.264   3.677   4.767 -1.4099  0.7591 -0.6231
 1995SOL     OW17620   3.106   0.750   6.249 -0.4283  0.2414 -1.0443
 1995SOL    HW117621   3.129   0.843   6.255  0.8526 -0.2025  0.7326
 1995SOL    HW217622   3.041   0.747   6.319  0.6288  1.4459 -0.0193
 1996SOL     OW17623   1.051   3.036  11.748  0.0382  0.5838 -0.4666
 1996SOL    HW117624   0.956   3.028  11.744  0.1466 -0.9056  0.0111
 1996SOL    HW217625   1.056   3.127  11.778 -0.7760  0.5481 -0.2211
 1997SOL     OW17626   3.309   1.725   3.728 -0.4311  0.3552 -0.7340
 1997SOL    HW117627   3.372   1.719   3.800 -1.5097 -1.1610  0.1022
 1997SOL    HW217628   3.368   1.712   3.654  0.3801  2.5178 -0.4505
 1998SOL     OW17629   3.004   0.793   6.763 -0.3095 -0.7892 -0.3024
 1998SOL    HW117630   2.990   0.726   6.830  1.0044 -1.0930 -0.3405
 1998SOL    HW217631   3.097   0.810   6.777 -1.4709  2.3311  3.6454
 1999SOL     OW17632   1.222   3.045  13.340  0.0761  0.3958 -0.2521
 1999SOL    HW117633   1.134   3.010  13.353  0.0716  1.1251  1.6381
 1999SOL    HW217634   1.224   3.092  13.423 -0.2344 -0.7864  0.4359
 2000SOL     OW17635   2.008   3.661   9.759  0.9579  0.2311  0.1537
 2000SOL    HW117636   1.946   3.714   9.709  1.9307  0.4830 -0.7880
 2000SOL    HW217637   2.015   3.709   9.841  1.6198  2.1751 -1.0485
 2001SOL     OW17638   3.292   4.506  14.606  0.3391  0.1995 -0.5313
 2001SOL    HW117639   3.210   4.516  14.655  1.2381  1.0869  0.7882
 2001SOL    HW217640   3.285   4.412  14.592  1.3913 -0.2743  2.1426
 2002SOL     OW17641   1.511   2.167  15.579  0.0196  0.3491  0.4469
 2002SOL    HW117642   1.586   2.220  15.604 -1.4366  1.8207  1.7530
 2002SOL    HW217643   1.517   2.173  15.484  1.1507  1.3829  0.5958
 2003SOL     OW17644   2.076   3.542   8.411 -0.1367 -0.2311 -0.0069
 2003SOL    HW117645   1.998   3.492   8.434  0.1841 -1.2909 -1.2089
 2003SOL    HW217646   2.089   3.502   8.325 -0.5219 -1.0255  0.3020
 2004SOL     OW17647   1.015   4.630  10.489 -0.1311 -0.0107 -0.5011
 2004SOL    HW117648   1.021   4.643  10.584  1.8362  1.3583 -0.7973
 2004SOL    HW217649   1.001   4.718  10.453  1.6574  0.7054  0.5511
 2005SOL     OW17650   1.959   2.995   3.842 -0.3919  0.5304  0.9546
 2005SOL    HW117651   1.960   3.084   3.808  0.9852 -0.4770 -1.5806
 2005SOL    HW217652   2.028   2.949   3.794 -3.0715 -0.7535 -1.7048
 2006SOL     OW17653   1.391   2.878   7.258  0.5813  0.9783 -0.2299
 2006SOL    HW117654   1.459   2.810   7.260 -0.2449  0.1550 -0.2101
 2006SOL    HW217655   1.436   2.959   7.280  0.2929  0.9933  0.2952
 2007SOL     OW17656   1.694   4.122   1.006  0.0533  0.3305  0.0466
 2007SOL    HW117657   1.642   4.096   1.082 -0.1706 -3.1028 -1.2552
 2007SOL    HW217658   1.781   4.114   1.045  0.0215 -1.4909 -0.2495
 2008SOL     OW17659   2.425   0.163   3.729 -0.0805  0.0354 -0.4633
 2008SOL    HW117660   2.354   0.116   3.686 -1.0136  0.6241  0.4326
 2008SOL    HW217661   2.387   0.250   3.738 -3.1580 -1.3350 -0.2298
 2009SOL     OW17662   4.458   4.422   2.849 -0.5979  0.1720 -0.5054
 2009SOL    HW117663   4.458   4.517   2.833 -2.7441  0.3629  0.6218
 2009SOL    HW217664   4.521   4.389   2.785 -0.6759 -0.2684 -0.3482
 2010SOL     OW17665   3.230   1.389   0.680  0.2738 -0.1726 -0.0223
 2010SOL    HW117666   3.218   1.428   0.593  1.2054  1.1982  0.4622
 2010SOL    HW217667   3.324   1.406   0.692  0.0840  0.8485  0.0667
 2011SOL     OW17668   2.971   4.141   5.599  0.3995 -0.2085  0.4309
 2011SOL    HW117669   2.975   4.110   5.508 -0.5255 -1.0390  0.6717
 2011SOL    HW217670   2.908   4.212   5.589  1.5254  0.6313 -0.5808
 2012SOL     OW17671   0.866   2.081   8.479 -0.1185  0.1617 -0.0304
 2012SOL    HW117672   0.914   2.100   8.560  0.5310 -2.0967  0.0999
 2012SOL    HW217673   0.794   2.144   8.477 -0.4552 -0.2694 -1.5585
 2013SOL     OW17674   3.315   3.395   3.971  0.1539 -0.3377 -0.3793
 2013SOL    HW117675   3.354   3.346   4.044 -0.3898  3.4709  2.4946
 2013SOL    HW217676   3.225   3.404   4.002  0.7918  2.6479  0.5809
 2014SOL     OW17677   2.945   0.655  16.419  0.2295 -0.2880 -0.5542
 2014SOL    HW117678   2.962   0.676  16.327 -1.5418  3.0798 -0.1208
 2014SOL    HW217679   2.990   0.726  16.464 -0.7189 -0.8307  1.2758
 2015SOL     OW17680   4.536   1.818  13.363 -0.4502 -0.6309 -0.3691
 2015SOL    HW117681   4.609   1.869  13.327 -0.1048 -0.7470  0.1592
 2015SOL    HW217682   4.525   1.740  13.309  1.0458 -0.7623 -0.5043
 2016SOL     OW17683   2.701   0.150   7.610 -0.8134  0.6890  0.1529
 2016SOL    HW117684   2.637   0.117   7.546 -0.1599  0.5521 -0.4342
 2016SOL    HW217685   2.669   0.105   7.688  0.5567  0.9433  0.8619
 2017SOL     OW17686   4.032   1.845   2.145 -0.1767 -0.4033  0.2038
 2017SOL    HW117687   3.990   1.912   2.090  2.2853  0.7877 -0.1908
 2017SOL    HW217688   3.980   1.770   2.115 -0.5141  0.1114 -0.5206
 2018SOL     OW17689   3.191   1.715   4.044  0.9156 -0.3750  0.4045
 2018SOL    HW117690   3.188   1.790   3.984 -2.5438 -1.6393 -0.9955
 2018SOL    HW217691   3.273   1.673   4.018  0.8090 -0.8940  0.9357
 2019SOL     OW17692   1.624   2.841   8.562 -0.2987  0.1261 -0.1850
 2019SOL    HW117693   1.593   2.913   8.506  1.1118  0.6670 -0.2807
 2019SOL    HW217694   1.703   2.808   8.519 -0.5066 -1.1954  0.4789
 2020SOL     OW17695   4.131   3.166   8.273  0.5584 -0.0359  0.2506
 2020SOL    HW117696   4.222   3.194   8.266  0.8250 -1.0296 -0.1426
 2020SOL    HW217697   4.136   3.075   8.301 -0.4766 -0.1599  0.0603
 2021SOL     OW17698   0.438   3.040   4.283 -0.7435 -0.1438  0.2534
 2021SOL    HW117699   0.509   3.005   4.229 -1.3781  0.6686 -1.1078
 2021SOL    HW217700   0.461   3.006   4.370 -0.9911 -0.5347  0.1695
 2022SOL     OW17701   3.057   0.673  16.876 -0.1783  0.2490  0.0011
 2022SOL    HW117702   3.019   0.663  16.963 -1.0214 -0.7438 -0.4756
 2022SOL    HW217703   3.112   0.751  16.883  1.0899 -0.6948  0.5197
 2023SOL     OW17704   2.392   2.513   3.575 -0.1600  0.6018 -0.2019
 2023SOL    HW117705   2.352   2.459   3.507  1.1499 -0.1091 -0.4033
 2023SOL    HW217706   2.389   2.456   3.652  0.8843 -0.1167 -0.7042
 2024SOL     OW17707   4.711   1.052   8.382 -0.2973  0.7383 -0.1702
 2024SOL    HW117708   4.626   1.015   8.355 -0.7287  0.7698  1.1636
 2024SOL    HW217709   0.023   0.970   8.388  0.2497  1.0097 -0.8156
 2025SOL     OW17710   4.015   4.705   3.610 -0.0356 -0.2415 -0.0405
 2025SOL    HW117711   3.929   0.008   3.622 -0.3637 -1.1805  0.7024
 2025SOL    HW217712   4.027   4.657   3.692 -2.9307 -0.9651 -0.0545
 2026SOL     OW17713   4.477   4.007   4.524 -0.7113 -0.1953 -0.7034
 2026SOL    HW117714   4.504   4.014   4.432  0.7058  0.7506 -0.2157
 2026SOL    HW217715   4.403   4.068   4.534 -1.6585 -1.1078 -2.2116
 2027SOL     OW17716   0.634   3.503  10.759  0.5651  0.1943  0.1928
 2027SOL    HW117717   0.549   3.525  10.798 -0.0776 -0.5273 -0.7846
 2027SOL    HW217718   0.675   3.452  10.829  1.8858  0.6536 -0.2672
 2028SOL     OW17719   4.160   2.543  10.383  0.1712  0.0042  0.2678
 2028SOL    HW117720   4.146   2.636  10.366 -0.3149 -0.1657 -0.2470
 2028SOL    HW217721   4.082   2.514  10.431 -1.5920  0.4478 -2.3661
 2029SOL     OW17722   3.215   3.750  11.347 -0.8608  0.1412 -0.3223
 2029SOL    HW117723   3.271   3.820  11.381 -0.9775 -1.5785  3.4773
 2029SOL    HW217724   3.241   3.759  11.256 -2.4508  0.2520 -0.7674
 2030SOL     OW17725   3.483   4.502   6.614 -0.0692 -0.1224 -0.1792
 2030SOL    HW117726   3.484   4.506   6.710 -1.3952  0.2225 -0.1742
 2030SOL    HW217727   3.402   4.455   6.593  0.1365  0.1395 -1.5122
 2031SOL     OW17728   3.023   2.765   5.579  0.0630  0.7452 -0.8008
 2031SOL    HW117729   3.105   2.802   5.548  0.9697 -0.5366  0.0822
 2031SOL    HW217730   3.060   2.720   5.654 -0.2070  3.3729  0.9051
 2032SOL     OW17731   4.274   3.003  15.013  0.0139  0.8742 -0.2789
 2032SOL    HW117732   4.333   2.960  14.950 -0.1736 -0.4715  0.4622
 2032SOL    HW217733   4.322   2.986  15.094 -1.4063 -0.5267  0.2590
 2033SOL     OW17734   1.844   3.484   3.306  0.6277 -0.0835 -0.1670
 2033SOL    HW117735   1.919   3.459   3.360  0.7344 -1.2987 -0.8893
 2033SOL    HW217736   1.822   3.569   3.345 -0.2726 -1.9739  3.4313
 2034SOL     OW17737   0.762   0.198  15.362 -0.0349 -0.4381 -0.0129
 2034SOL    HW117738   0.855   0.185  15.345 -0.1499  1.3749 -2.0374
 2034SOL    HW217739   0.716   0.133  15.308 -1.7082 -0.3492  1.2838
 2035SOL     OW17740   2.522   3.409  13.679  0.1570  0.3018 -0.3856
 2035SOL    HW117741   2.481   3.436  13.761 -2.9000 -1.6396 -1.3150
 2035SOL    HW217742   2.510   3.316  13.695  0.9647  0.7774  2.9617
 2036SOL     OW17743   3.660   1.476   3.689 -0.0020  0.1662 -0.1690
 2036SOL    HW117744   3.651   1.400   3.631 -4.0831 -0.8759  1.8610
 2036SOL    HW217745   3.608   1.539   3.639  1.2126  1.7541  0.5580
 2037SOL     OW17746   0.528   0.888   7.269 -0.1613 -0.1270  0.5992
 2037SOL    HW117747   0.479   0.834   7.331 -0.8186 -1.2363 -0.8767
 2037SOL    HW217748   0.488   0.851   7.190  0.0044  1.4186 -0.1920
 2038SOL     OW17749   2.041   2.010   2.134 -0.3729 -0.4523 -0.0372
 2038SOL    HW117750   2.118   2.053   2.173 -0.8480  2.5702 -2.3526
 2038SOL    HW217751   2.046   2.052   2.048  0.4601  0.7317  0.5829
 2039SOL     OW17752   0.654   2.422   8.405  0.1388  0.2155 -0.5058
 2039SOL    HW117753   0.649   2.399   8.497 -1.2525 -0.4976 -0.7617
 2039SOL    HW217754   0.561   2.409   8.386 -0.1594  0.1582  1.0070
 2040SOL     OW17755   0.828   3.737   3.714 -0.0829 -0.0603 -0.0717
 2040SOL    HW117756   0.805   3.740   3.807  1.0529  2.0589  0.1657
 2040SOL    HW217757   0.912   3.690   3.710  1.5613  2.7360  1.2748
 2041SOL     OW17758   0.652   0.522  11.392  0.3022  0.3700 -0.0148
 2041SOL    HW117759   0.674   0.613  11.372  0.0255 -0.2015 -2.8917
 2041SOL    HW217760   0.599   0.540  11.470 -0.9923  0.8628 -1.0000
 2042SOL     OW17761   0.192   3.145   7.395 -0.1403  0.0459 -0.3304
 2042SOL    HW117762   0.120   3.087   7.419 -0.2692 -0.3604 -1.6852
 2042SOL    HW217763   0.181   3.155   7.300 -1.2311 -0.0538 -0.2184
 2043SOL     OW17764   2.131   4.162   4.000  0.1791 -0.5648 -0.0477
 2043SOL    HW117765   2.130   4.198   4.088  0.5050  0.7521 -0.5759
 2043SOL    HW217766   2.044   4.175   3.963  0.5974  1.3658 -0.3540
 2044SOL     OW17767   0.728   4.515   9.850  0.1226 -0.2473  0.6770
 2044SOL    HW117768   0.681   4.432   9.858  1.9404 -1.4729 -1.2002
 2044SOL    HW217769   0.737   4.536   9.757 -1.1040  0.5649  0.7422
 2045SOL     OW17770   4.273   3.576  13.441  0.5935 -0.6498 -0.4002
 2045SOL    HW117771   4.224   3.500  13.473  0.0413  0.5130  1.5115
 2045SOL    HW217772   4.243   3.655  13.485  0.0676 -1.4018  0.5963
 2046SOL     OW17773   3.676   3.873  15.130 -0.4943  0.2222  0.4451
 2046SOL    HW117774   3.720   3.874  15.215  1.2007  1.0565 -0.4186
 2046SOL    HW217775   3.753   3.864  15.074 -0.0328 -3.0133  1.6220
 2047SOL     OW17776   0.784   4.126  14.363 -0.6937  0.3772 -0.5166
 2047SOL    HW117777   0.727   4.052  14.386  1.8196 -1.6995 -0.8990
 2047SOL    HW217778   0.754   4.145  14.274 -0.3114  3.3706  0.0121
 2048SOL     OW17779   4.504   1.140   2.286  0.1123 -0.4703 -0.2177
 2048SOL    HW117780   4.448   1.214   2.264  0.9793 -0.7840 -3.4291
 2048SOL    HW217781   4.593   1.175   2.292 -0.4712  0.8565  0.7496
 2049SOL     OW17782   2.424   2.462  11.273  0.2353 -0.4341 -0.6137
 2049SOL    HW117783   2.509   2.423  11.256  1.9724  1.6215  3.3814
 2049SOL    HW217784   2.449   2.541  11.321 -1.6293 -0.2446  0.0617
 2050SOL     OW17785   4.111   2.295   2.541 -0.1236 -0.0076 -0.0167
 2050SOL    HW117786   4.174   2.365   2.527  1.2903 -0.3730  4.5045
 2050SOL    HW217787   4.129   2.284   2.634 -0.4262 -1.9050 -0.1897
 2051SOL     OW17788   1.774   2.933   3.472  0.3208  0.6714  0.2549
 2051SOL    HW117789   1.766   2.838   3.468 -1.5635  0.8064  0.9542
 2051SOL    HW217790   1.687   2.957   3.440  1.3287  1.6213 -1.7274
 2052SOL     OW17791   3.229   0.743   2.436  0.3732  0.9774 -0.1140
 2052SOL    HW117792   3.309   0.792   2.414 -0.0666  1.4006 -0.7602
 2052SOL    HW217793   3.171   0.819   2.430  1.2963  1.7777  1.0493
 2053SOL     OW17794   3.637   3.879   0.088 -0.2744  0.2329  0.1946
 2053SOL    HW117795   3.703   3.810   0.082 -1.8155 -1.1794 -0.2953
 2053SOL    HW217796   3.696   3.950   0.115  0.5033  0.2997 -1.6542
 2054SOL     OW17797   1.431   4.376   6.732  0.0764 -0.0653  0.1968
 2054SOL    HW117798   1.348   4.330   6.720 -0.1195  0.2461  0.3680
 2054SOL    HW217799   1.405   4.468   6.732  1.4884  0.3413  0.1745
 2055SOL     OW17800   0.097   1.542   6.829  0.3517 -0.0681  0.2199
 2055SOL    HW117801   0.118   1.551   6.736 -0.4739  0.1266  0.0563
 2055SOL    HW217802   0.163   1.481   6.860  0.2572  0.7651  2.0806
 2056SOL     OW17803   0.211   3.175   5.654  1.3862 -0.2812  0.2858
 2056SOL    HW117804   0.218   3.094   5.603 -1.0712  0.3104 -1.0029
 2056SOL    HW217805   0.264   3.238   5.605 -0.4313  0.4064 -0.8224
 2057SOL     OW17806   2.113   0.998   7.530  0.0930 -0.0177  0.2594
 2057SOL    HW117807   2.065   1.063   7.479  0.5990  0.9994  1.0823
 2057SOL    HW217808   2.047   0.928   7.523  0.0056  0.3926 -2.7027
 2058SOL     OW17809   2.439   2.582   5.467 -0.4647 -0.2173 -0.0341
 2058SOL    HW117810   2.420   2.596   5.374  0.2556 -0.2658 -0.1897
 2058SOL    HW217811   2.526   2.622   5.470 -0.0107 -1.1821 -0.1445
 2059SOL     OW17812   1.505   3.643   8.246 -0.4370  0.0566  0.2085
 2059SOL    HW117813   1.588   3.647   8.293 -0.3286  1.6732 -0.1451
 2059SOL    HW217814   1.541   3.605   8.166 -0.5045 -0.1087  0.2559
 2060SOL     OW17815   4.456   1.538   4.317 -0.8703 -0.1166 -0.0833
 2060SOL    HW117816   4.446   1.477   4.244 -1.1777  0.5860 -0.6203
 2060SOL    HW217817   4.501   1.483   4.381 -0.5575  0.2563  0.0152
 2061SOL     OW17818   0.298   0.266   7.420  0.0711  0.1813 -0.1389
 2061SOL    HW117819   0.283   0.348   7.373  0.5325  0.2264 -0.2066
 2061SOL    HW217820   0.219   0.258   7.473  0.9071  1.9102  1.3678
 2062SOL     OW17821   1.136   3.118   5.488  0.2246  0.2564 -0.2726
 2062SOL    HW117822   1.213   3.063   5.497 -0.2525 -0.4766 -0.6610
 2062SOL    HW217823   1.169   3.194   5.440  0.1128 -1.9894 -3.8867
 2063SOL     OW17824   3.226   2.943   7.106 -0.2479 -0.0202  0.1305
 2063SOL    HW117825   3.162   2.984   7.165  1.2100  0.9534  1.0131
 2063SOL    HW217826   3.308   2.972   7.145  1.1104  0.0495 -2.8192
 2064SOL     OW17827   3.263   1.510   1.194 -0.4618  0.2751  0.2615
 2064SOL    HW117828   3.175   1.536   1.166 -0.8487 -0.1740  1.0782
 2064SOL    HW217829   3.259   1.415   1.202 -1.0269  0.1298 -1.6309
 2065SOL     OW17830   1.252   3.005   6.410  0.1707 -0.2549 -0.0831
 2065SOL    HW117831   1.278   3.094   6.430 -1.9065  0.3449 -0.0389
 2065SOL    HW217832   1.171   3.037   6.370  0.6869 -0.9735 -1.7270
 2066SOL     OW17833   0.591   3.020   6.298  0.0572  0.4876 -0.4220
 2066SOL    HW117834   0.599   3.063   6.213 -3.8781  1.2924 -0.4137
 2066SOL    HW217835   0.625   2.933   6.274 -2.2185 -0.4642 -0.2295
 2067SOL     OW17836   4.497   0.376   0.271 -0.4355 -0.0841  0.2332
 2067SOL    HW117837   4.415   0.341   0.305 -0.8005 -1.4669 -2.0415
 2067SOL    HW217838   4.555   0.349   0.343  2.4201 -0.4203 -2.1916
 2068SOL     OW17839   3.592   2.432   4.047  0.1375 -0.7467  0.8953
 2068SOL    HW117840   3.523   2.401   3.988 -0.4645  2.6216 -0.1499
 2068SOL    HW217841   3.675   2.406   4.006 -2.0074 -1.2831 -3.1161
 2069SOL     OW17842   0.839   4.736  15.195 -0.4493 -0.4789 -0.5327
 2069SOL    HW117843   0.803   4.695  15.116  1.0412 -1.4563 -0.7175
 2069SOL    HW217844   0.933   4.727  15.180 -0.5669 -1.1881 -0.8893
 2070SOL     OW17845   3.179   2.965   3.686 -0.6362 -0.4666  0.1231
 2070SOL    HW117846   3.179   2.899   3.756  0.2511 -0.5856  0.0063
 2070SOL    HW217847   3.186   3.047   3.736  1.1732 -0.9385  0.6459
 2071SOL     OW17848   0.836   1.466   9.269 -0.0776  0.0841  0.6300
 2071SOL    HW117849   0.792   1.453   9.353 -1.7084  1.0375 -0.0805
 2071SOL    HW217850   0.871   1.554   9.271  1.6154 -0.5777 -0.6519
 2072SOL     OW17851   4.370   4.038   8.236  0.2244  0.3901 -0.2461
 2072SOL    HW117852   4.460   4.040   8.203  0.1376  2.6294 -0.3138
 2072SOL    HW217853   4.358   4.128   8.266  0.7577  0.1773  0.6008
 2073SOL     OW17854   4.135   2.358   5.591 -0.0196  0.7465 -0.1047
 2073SOL    HW117855   4.153   2.338   5.499  0.6271 -1.3725  0.4878
 2073SOL    HW217856   4.042   2.335   5.599 -0.2443  1.1638 -1.3789
 2074SOL     OW17857   2.843   4.241  12.304 -0.3875  0.1864 -0.0824
 2074SOL    HW117858   2.918   4.281  12.261 -0.0348 -0.6019 -0.1959
 2074SOL    HW217859   2.860   4.248  12.398 -0.6778  0.1074 -0.0245
 2075SOL     OW17860   3.546   2.954  14.117 -0.1964 -0.1826 -0.3508
 2075SOL    HW117861   3.494   3.025  14.078  0.6486  0.5621 -0.1105
 2075SOL    HW217862   3.568   2.902  14.040  0.3094  0.9988 -1.0023
 2076SOL     OW17863   4.022   1.206   6.557  0.7993 -0.0883 -0.0029
 2076SOL    HW117864   3.984   1.262   6.624  2.1221  0.6790  0.1052
 2076SOL    HW217865   3.961   1.233   6.488  3.0931  0.1061 -1.9331
 2077SOL     OW17866   4.352   3.684   5.605  0.2618 -0.1514 -0.1600
 2077SOL    HW117867   4.437   3.720   5.578 -1.0396  1.9475 -1.4252
 2077SOL    HW217868   4.348   3.686   5.701 -0.9214  0.7304 -0.2335
 2078SOL     OW17869   2.403   4.173   3.931 -0.0515  0.6926 -0.4688
 2078SOL    HW117870   2.307   4.179   3.933  0.1647  3.4958  1.2206
 2078SOL    HW217871   2.431   4.147   4.019  0.6606 -0.5896 -1.0789
 2079SOL     OW17872   4.144   0.061  17.132  0.2455  0.5690 -0.0009
 2079SOL    HW117873   4.103   0.140  17.168 -0.0178  0.8335 -0.9057
 2079SOL    HW217874   4.070   0.002  17.142  1.0475 -0.6935 -1.4267
 2080SOL     OW17875   0.664   1.724   9.515  0.0885  0.0451 -0.0522
 2080SOL    HW117876   0.679   1.802   9.463 -0.6216  1.0585  1.2680
 2080SOL    HW217877   0.569   1.717   9.501  0.1968  0.5690 -0.9810
 2081SOL     OW17878   4.144   3.328  15.461 -0.0446  0.4402  0.2571
 2081SOL    HW117879   4.134   3.343  15.555  1.6185  2.4080  0.1283
 2081SOL    HW217880   4.057   3.296  15.441  0.9701 -0.8556 -2.0667
 2082SOL     OW17881   2.741   2.389  10.670  0.2520 -0.1402  0.1280
 2082SOL    HW117882   2.762   2.465  10.616  0.8477 -0.7778 -0.5440
 2082SOL    HW217883   2.680   2.436  10.726 -0.0959  0.1875 -0.5242
 2083SOL     OW17884   1.793   4.264   4.362 -0.3342  0.3615 -0.2545
 2083SOL    HW117885   1.858   4.202   4.330  0.6955  0.8360  0.8860
 2083SOL    HW217886   1.806   4.264   4.457 -0.1038  1.1883 -0.2842
 2084SOL     OW17887   2.497   0.824  11.583  0.1448 -0.1212  0.1657
 2084SOL    HW117888   2.555   0.876  11.637  0.3220 -1.6126  1.3926
 2084SOL    HW217889   2.446   0.894  11.542  0.2878 -0.6911 -0.9959
 2085SOL     OW17890   0.274   0.290   7.837 -0.0569  0.6690 -0.2387
 2085SOL    HW117891   0.243   0.270   7.748 -2.2624  0.1406  0.6433
 2085SOL    HW217892   0.196   0.327   7.877  1.2097  2.6067  0.4420
 2086SOL     OW17893   2.317   2.741   6.966  1.2184 -0.5117  0.5948
 2086SOL    HW117894   2.227   2.724   6.994  0.6127  1.6656 -0.0357
 2086SOL    HW217895   2.369   2.666   6.995 -0.0765 -1.2632  0.9850
 2087SOL     OW17896   2.917   3.028   6.527 -0.2254 -0.9160  0.2432
 2087SOL    HW117897   2.878   3.028   6.440 -1.2360  0.6896  0.7069
 2087SOL    HW217898   2.835   3.005   6.571 -0.7529 -0.7527 -0.6634
 2088SOL     OW17899   4.381   0.020   5.659 -0.0826 -0.4777  0.8352
 2088SOL    HW117900   4.439   4.700   5.609  0.2278 -0.0001  0.6600
 2088SOL    HW217901   4.400   0.110   5.635  0.7688 -0.2501  2.3773
 2089SOL     OW17902   2.327   3.034   4.917  0.4690  0.0321 -0.0915
 2089SOL    HW117903   2.311   2.977   4.993  0.3208  1.9417  1.3075
 2089SOL    HW217904   2.291   3.117   4.947  0.7950 -0.8454  2.6962
 2090SOL     OW17905   1.477   2.015   2.503  0.3285  0.7885 -0.3590
 2090SOL    HW117906   1.424   1.966   2.441 -0.4408 -3.1155  3.3362
 2090SOL    HW217907   1.565   1.980   2.495 -0.0548 -0.3979  0.6066
 2091SOL     OW17908   2.818   4.207   0.512 -0.1816 -0.1520 -0.2892
 2091SOL    HW117909   2.904   4.246   0.496  0.9687 -2.7094 -0.2317
 2091SOL    HW217910   2.829   4.113   0.503 -0.8830 -0.3806  1.2520
 2092SOL     OW17911   1.483   1.126  13.420 -0.1758  0.0484  0.1184
 2092SOL    HW117912   1.522   1.199  13.373 -0.9862 -0.4162 -1.2779
 2092SOL    HW217913   1.544   1.061  13.384 -0.0404  0.8185 -1.0360
 2093SOL     OW17914   1.343   3.728  12.683  0.1893 -0.7027  0.4245
 2093SOL    HW117915   1.349   3.638  12.715 -0.4160 -1.4743 -1.6298
 2093SOL    HW217916   1.373   3.713  12.594 -1.3318  0.8206 -0.3440
 2094SOL     OW17917   0.803   3.538   5.587  0.1784 -0.0163  0.8425
 2094SOL    HW117918   0.845   3.461   5.627  0.4907  0.6101  1.7235
 2094SOL    HW217919   0.802   3.602   5.658 -0.5585 -0.0904  0.8982
 2095SOL     OW17920   2.192   1.231   9.078  0.0102  0.0682 -0.5514
 2095SOL    HW117921   2.222   1.142   9.096  1.5452  0.7657  0.3951
 2095SOL    HW217922   2.252   1.249   9.006 -0.4535  1.5782 -0.5444
 2096SOL     OW17923   3.922   0.586   3.567  0.6730  0.5248 -0.2552
 2096SOL    HW117924   3.950   0.615   3.481  0.9719  0.6791 -0.1054
 2096SOL    HW217925   3.969   0.503   3.573  0.3649  0.1931 -2.5424
 2097SOL     OW17926   2.537   1.463  13.747  0.6340  0.9087  0.2845
 2097SOL    HW117927   2.526   1.484  13.840  1.9480  1.3895  0.3333
 2097SOL    HW217928   2.481   1.386  13.737  1.2005  0.4388  0.6742
 2098SOL     OW17929   2.223   4.513   0.794 -0.3347 -0.0376  0.1328
 2098SOL    HW117930   2.193   4.599   0.823  1.9200  0.6006  0.5648
 2098SOL    HW217931   2.305   4.522   0.843 -1.3191  0.5231  1.7021
 2099SOL     OW17932   1.201   3.472   7.052  0.0492 -0.2088 -0.3244
 2099SOL    HW117933   1.181   3.549   7.106  0.0654 -1.1066  0.9595
 2099SOL    HW217934   1.295   3.457   7.059  0.1028 -0.2228 -1.1565
 2100SOL     OW17935   0.882   0.115   3.260  0.2337 -0.0524  0.6423
 2100SOL    HW117936   0.879   0.024   3.290 -1.7234  0.4537  1.9825
 2100SOL    HW217937   0.972   0.105   3.230  0.3812  1.3484  0.6125
 2101SOL     OW17938   1.293   3.886   8.747 -0.2121 -0.2972  0.3844
 2101SOL    HW117939   1.229   3.856   8.812  1.8537 -1.6066  1.7841
 2101SOL    HW217940   1.241   3.960   8.714  0.6983  0.8375  1.5007
 2102SOL     OW17941   3.595   0.431   6.488 -0.5407  0.1394 -0.0672
 2102SOL    HW117942   3.685   0.457   6.469 -1.2958  2.4023 -0.5815
 2102SOL    HW217943   3.592   0.456   6.580  0.6342  1.1978 -0.3215
 2103SOL     OW17944   3.931   2.406   8.927  0.0577 -0.7392 -0.2006
 2103SOL    HW117945   3.975   2.480   8.885 -0.7722  0.2583  0.7150
 2103SOL    HW217946   3.944   2.430   9.019 -3.6937 -1.0599  0.3796
 2104SOL     OW17947   2.134   3.789   6.981 -0.2321  0.0243 -0.0508
 2104SOL    HW117948   2.229   3.802   6.972  0.1626 -2.2160  0.8915
 2104SOL    HW217949   2.110   3.713   6.929  1.0012  0.4596 -1.2424
 2105SOL     OW17950   4.599   3.412   6.975 -0.2698 -0.1933  0.1266
 2105SOL    HW117951   4.567   3.408   7.066 -0.1810 -3.5704  0.0024
 2105SOL    HW217952   4.686   3.443   7.002 -0.0511  1.2392 -2.2416
 2106SOL     OW17953   4.018   1.123   7.192  0.0564 -0.4374  0.8637
 2106SOL    HW117954   3.983   1.195   7.139 -1.6897 -0.9219  1.3608
 2106SOL    HW217955   4.022   1.155   7.282  1.1643 -2.9407  1.6806
 2107SOL     OW17956   2.799   3.197   9.373 -0.6138  0.0077  0.3300
 2107SOL    HW117957   2.858   3.153   9.313  0.0705  0.9571  0.3072
 2107SOL    HW217958   2.824   3.142   9.447 -0.3945  0.2431  0.4294
 2108SOL     OW17959   1.363   2.236   3.139  0.2939 -0.0658 -0.5964
 2108SOL    HW117960   1.405   2.167   3.191 -1.2003 -0.9922 -0.6300
 2108SOL    HW217961   1.440   2.270   3.093  1.8240 -1.1220  1.1819
 2109SOL     OW17962   3.388   3.503   7.519  0.4022  0.8447 -0.2094
 2109SOL    HW117963   3.443   3.430   7.492  0.5211  1.2606 -1.1107
 2109SOL    HW217964   3.388   3.550   7.435 -0.4558  0.7377 -0.2748
 2110SOL     OW17965   4.211   0.771  12.980 -0.1290  0.5777 -0.7182
 2110SOL    HW117966   4.301   0.743  12.994 -0.4576  0.2887  0.8074
 2110SOL    HW217967   4.212   0.859  13.018 -0.3418  0.2109  0.1197
 2111SOL     OW17968   0.967   4.045   6.825 -0.1868 -0.0920  0.0089
 2111SOL    HW117969   0.908   4.091   6.766  0.0362  1.1369  0.7397
 2111SOL    HW217970   0.915   4.024   6.903  1.3427 -0.0578  1.0311
 2112SOL     OW17971   2.668   4.246   0.783 -0.4246  0.4061  0.6522
 2112SOL    HW117972   2.714   4.241   0.699 -3.2312 -1.5304 -0.7530
 2112SOL    HW217973   2.748   4.258   0.835 -0.6062  0.4588  0.9142
 2113SOL     OW17974   1.095   4.426   8.770  0.4716  0.1731 -0.1767
 2113SOL    HW117975   1.166   4.377   8.811  2.0510  2.2860 -0.3836
 2113SOL    HW217976   1.034   4.434   8.844  0.3328  0.8512 -0.3578
 2114SOL     OW17977   3.795   3.113  14.637 -0.3165  0.1569  0.0621
 2114SOL    HW117978   3.870   3.116  14.578 -0.0897 -1.8891  0.2643
 2114SOL    HW217979   3.827   3.161  14.714 -0.3462  1.6167 -0.8295
 2115SOL     OW17980   1.322   2.364   2.671 -0.1939 -0.5234  0.3166
 2115SOL    HW117981   1.352   2.378   2.761  0.2118 -0.5552  0.1853
 2115SOL    HW217982   1.266   2.441   2.658 -0.4205 -0.5884  0.8700
 2116SOL     OW17983   2.939   4.156   3.213 -0.0478 -0.2106  0.2267
 2116SOL    HW117984   3.030   4.126   3.208 -0.0642 -0.2517  0.1681
 2116SOL    HW217985   2.899   4.090   3.156  0.9476  0.4164 -1.2061
 2117SOL     OW17986   3.316   1.146   9.094  0.4628  0.2276  0.2055
 2117SOL    HW117987   3.259   1.223   9.095 -0.3190 -0.3472 -0.2458
 2117SOL    HW217988   3.314   1.116   9.184 -3.2304 -1.5109 -0.4794
 2118SOL     OW17989   0.041   2.344  14.036 -0.1478 -0.1522 -0.5844
 2118SOL    HW117990   4.727   2.305  13.965 -0.5585  0.7970 -0.8172
 2118SOL    HW217991   4.719   2.318  14.108 -0.9758 -2.2343 -2.0260
 2119SOL     OW17992   3.360   0.594   3.732 -0.2384 -0.1072  0.5107
 2119SOL    HW117993   3.415   0.646   3.674 -0.0652 -0.0461  0.7261
 2119SOL    HW217994   3.301   0.661   3.767 -0.0015  0.7794 -0.7851
 2120SOL     OW17995   0.207   1.521   8.473 -0.0873  0.3676 -0.0987
 2120SOL    HW117996   0.186   1.430   8.493 -2.3012 -0.1626 -4.7742
 2120SOL    HW217997   0.252   1.550   8.552  2.2396 -0.8011 -0.9791
 2121SOL     OW17998   4.414   0.795   9.912  0.3748  0.3310 -0.1127
 2121SOL    HW117999   4.453   0.762   9.831  0.2828 -1.6288  0.6535
 2121SOL    HW218000   4.332   0.834   9.882 -0.9054 -1.1391  1.5150
 2122SOL     OW18001   0.717   4.030   8.434  0.3892 -0.5768 -0.0902
 2122SOL    HW118002   0.738   4.055   8.524 -2.2989 -1.0576  0.6536
 2122SOL    HW218003   0.652   3.963   8.451 -2.2414  1.6943 -1.2364
 2123SOL     OW18004   3.643   2.470   6.794 -0.0761 -0.1200  0.7096
 2123SOL    HW118005   3.710   2.427   6.847  0.6943 -1.3003 -1.1977
 2123SOL    HW218006   3.558   2.432   6.814  0.2950 -0.4338  1.6980
 2124SOL     OW18007   4.529   0.058   3.717  0.0023  0.3213 -0.7071
 2124SOL    HW118008   4.476   0.051   3.637  0.7230 -0.5112 -1.1191
 2124SOL    HW218009   4.531   0.153   3.729  1.8072 -0.0359  1.7218
 2125SOL     OW18010   2.385   1.336   0.745 -0.6399 -0.0505  0.4511
 2125SOL    HW118011   2.295   1.326   0.775 -1.1069  0.1054 -0.8815
 2125SOL    HW218012   2.384   1.430   0.767  0.6527 -0.0491  0.4910
 2126SOL     OW18013   1.765   3.519   3.944  0.1158 -0.4466  0.0366
 2126SOL    HW118014   1.850   3.503   3.903  0.0245  1.3399 -0.8196
 2126SOL    HW218015   1.768   3.610   3.974  0.1709  0.6978 -3.4637
 2127SOL     OW18016   4.391   1.267   2.573  0.4058  0.4184 -0.1075
 2127SOL    HW118017   4.471   1.240   2.619  0.6244  3.0831  1.0763
 2127SOL    HW218018   4.416   1.292   2.485  2.2995  1.5135  0.7516
 2128SOL     OW18019   3.421   0.112   7.588  0.2399  0.1613 -0.1290
 2128SOL    HW118020   3.332   0.116   7.552  1.1145  0.5924 -2.1869
 2128SOL    HW218021   3.455   0.034   7.545 -1.7941 -0.3417 -0.8116
 2129SOL     OW18022   1.955   4.344  10.066  0.1717 -0.6570  0.6223
 2129SOL    HW118023   2.047   4.363  10.048  0.0846  1.8379  2.9212
 2129SOL    HW218024   1.918   4.324   9.980 -2.3937  1.4688  1.2714
 2130SOL     OW18025   2.030   1.128   4.893  0.7215  0.2388  0.0274
 2130SOL    HW118026   2.078   1.113   4.811  0.5105  0.1601 -0.0829
 2130SOL    HW218027   2.076   1.073   4.957 -0.1823 -0.1707  0.3305
 2131SOL     OW18028   1.339   2.381  15.421 -0.7365 -0.1234  0.2469
 2131SOL    HW118029   1.286   2.347  15.349  2.0903  0.8597 -2.2706
 2131SOL    HW218030   1.425   2.384  15.379 -0.5897  1.9302  0.7317
 2132SOL     OW18031   1.082   2.563   3.832 -0.2472 -0.1343 -0.2219
 2132SOL    HW118032   1.123   2.649   3.828  1.6270 -1.0150 -0.2914
 2132SOL    HW218033   1.115   2.526   3.750  1.5769 -1.1835  0.9821
 2133SOL     OW18034   0.475   0.034   0.429  0.1295 -0.2719 -0.1316
 2133SOL    HW118035   0.441   0.032   0.519  2.4677 -0.4849  0.7577
 2133SOL    HW218036   0.564   0.011   0.458 -0.0818  0.6266  1.2534
 2134SOL     OW18037   3.353   2.986  16.671 -0.3928 -0.0371  0.2818
 2134SOL    HW118038   3.260   3.008  16.663 -0.1296  1.2607  0.8076
 2134SOL    HW218039   3.349   2.894  16.646 -0.2484  0.7445 -2.7306
 2135SOL     OW18040   3.575   0.116  14.813 -0.0823  0.1056  0.8954
 2135SOL    HW118041   3.508   0.049  14.795  2.0221 -2.1971  1.5662
 2135SOL    HW218042   3.576   0.099  14.908 -0.5986 -0.4293  0.8099
 2136SOL     OW18043   4.637   0.403   2.743 -0.0616 -0.0271 -0.3067
 2136SOL    HW118044   4.679   0.365   2.821  0.3737 -1.4132 -1.2207
 2136SOL    HW218045   4.703   0.468   2.718  0.8594 -1.2421 -0.9901
 2137SOL     OW18046   3.185   3.145   4.942 -0.3284 -0.0241 -0.0990
 2137SOL    HW118047   3.137   3.071   4.905 -2.1979  1.0400  0.2139
 2137SOL    HW218048   3.147   3.216   4.892  1.6258  1.6243  0.7355
 2138SOL     OW18049   4.347   1.495   8.453 -0.2667  0.5613 -0.4650
 2138SOL    HW118050   4.298   1.559   8.402 -3.0044 -0.8646  0.4147
 2138SOL    HW218051   4.435   1.511   8.418  0.4033  0.5710  1.2068
 2139SOL     OW18052   1.595   0.060   6.100  0.0864  0.1492  0.0274
 2139SOL    HW118053   1.562   0.147   6.077 -2.6278 -0.5575  1.1611
 2139SOL    HW218054   1.690   0.063   6.095  0.1414 -1.4982  0.0808
 2140SOL     OW18055   2.632   0.341   3.260  0.4145 -0.3286  0.5715
 2140SOL    HW118056   2.607   0.267   3.315  0.2261 -2.0522 -1.8647
 2140SOL    HW218057   2.588   0.312   3.180 -0.3438  1.9167  0.1607
 2141SOL     OW18058   3.590   3.271   9.924  0.6084 -0.3874 -0.0047
 2141SOL    HW118059   3.517   3.220   9.960 -0.8940  1.3381 -0.6108
 2141SOL    HW218060   3.556   3.283   9.835 -2.3962 -0.3341  1.1409
 2142SOL     OW18061   2.158   2.411   1.895 -0.3172 -0.2916 -0.3272
 2142SOL    HW118062   2.165   2.484   1.833 -0.1363  0.3490  0.4436
 2142SOL    HW218063   2.128   2.455   1.975 -1.9523 -0.3086 -0.9182
 2143SOL     OW18064   1.972   2.527   4.111  0.4728 -0.5280  0.2225
 2143SOL    HW118065   1.882   2.525   4.077  0.2531  0.8763  0.7207
 2143SOL    HW218066   1.991   2.447   4.063  1.6395 -0.4663  0.5712
 2144SOL     OW18067   2.561   4.265   7.472  0.7860 -0.0470  0.2169
 2144SOL    HW118068   2.564   4.186   7.417  1.0910 -1.0333  1.6639
 2144SOL    HW218069   2.476   4.295   7.439 -0.8825 -2.0771  2.7583
 2145SOL     OW18070   4.399   4.095   5.681  0.8687 -0.5253  0.8268
 2145SOL    HW118071   4.371   4.090   5.773 -1.7212  1.1984  0.1413
 2145SOL    HW218072   4.469   4.030   5.684  1.2543 -0.2358 -2.2479
 2146SOL     OW18073   1.799   1.457   1.007  0.5587 -0.2176  0.0793
 2146SOL    HW118074   1.744   1.382   0.983 -0.0272 -0.1004  1.0487
 2146SOL    HW218075   1.869   1.401   1.040  0.9452  0.8071  0.9828
 2147SOL     OW18076   4.278   4.535  17.512 -0.2885  0.3855  0.3089
 2147SOL    HW118077   4.220   4.463  17.487  0.9275 -1.3425  2.4855
 2147SOL    HW218078   4.246   4.552  17.600 -1.6244  3.0104 -0.6973
 2148SOL     OW18079   2.870   3.194   2.631 -0.5042  0.0798 -0.5147
 2148SOL    HW118080   2.924   3.209   2.708 -0.3649 -2.3626 -0.1567
 2148SOL    HW218081   2.935   3.172   2.565 -0.6308  0.1058 -0.6488
 2149SOL     OW18082   1.203   4.356   9.205 -0.3859  0.1701 -0.4661
 2149SOL    HW118083   1.288   4.371   9.244 -1.1489 -0.0417  1.2933
 2149SOL    HW218084   1.221   4.363   9.111  1.3831 -2.3060 -0.3120
 2150SOL     OW18085   1.852   0.572   3.569  0.2157 -0.4681  0.5657
 2150SOL    HW118086   1.852   0.611   3.481  1.0964  0.5258  0.9947
 2150SOL    HW218087   1.945   0.587   3.587  0.2425 -1.8790  1.5621
 2151SOL     OW18088   0.436   4.309   7.816 -0.4426 -0.4816  0.2622
 2151SOL    HW118089   0.385   4.271   7.745  0.8420 -1.5239 -0.1074
 2151SOL    HW218090   0.525   4.276   7.800  0.3464  1.4742  0.5553
 2152SOL     OW18091   4.566   1.332   8.272  0.3334  0.0229  0.2025
 2152SOL    HW118092   4.505   1.342   8.199  1.6373  3.7451 -0.3534
 2152SOL    HW218093   4.595   1.241   8.265  0.1274  0.2409 -3.2057
 2153SOL     OW18094   0.759   3.995   2.482 -0.1074 -0.0120 -0.1484
 2153SOL    HW118095   0.765   4.089   2.469  0.4588 -0.1162 -0.5805
 2153SOL    HW218096   0.767   3.959   2.394 -0.0500 -1.3382  0.3950
 2154SOL     OW18097   4.119   3.478   5.141 -0.0307 -0.4264  0.1657
 2154SOL    HW118098   4.063   3.452   5.068  0.7707  1.6398 -1.2072
 2154SOL    HW218099   4.049   3.515   5.195 -0.8746 -3.0122  0.8262
 2155SOL     OW18100   0.073   0.930   3.657  0.0014  0.2420 -0.3353
 2155SOL    HW118101   0.063   0.944   3.563 -0.4881  1.1298 -0.1493
 2155SOL    HW218102   0.000   0.986   3.683 -0.0082 -0.3860  1.0171
 2156SOL     OW18103   0.855   4.419   0.427  0.3254 -0.6033 -0.7032
 2156SOL    HW118104   0.782   4.384   0.376  1.3180 -1.4176 -1.5712
 2156SOL    HW218105   0.924   4.373   0.379 -1.5378 -3.2964 -0.7701
 2157SOL     OW18106   2.332   0.990   1.434 -0.2208 -0.1517 -0.3557
 2157SOL    HW118107   2.363   1.072   1.396  2.2227 -2.4350 -3.2959
 2157SOL    HW218108   2.239   1.009   1.444 -0.1733 -0.2793  0.3204
 2158SOL     OW18109   0.259   0.735   5.593 -0.7385 -0.8282  0.6531
 2158SOL    HW118110   0.301   0.745   5.678  0.2032 -2.5223  0.3837
 2158SOL    HW218111   0.221   0.823   5.595  0.1835 -0.4435  0.9368
 2159SOL     OW18112   4.218   3.064   3.361  0.1814 -0.0435  0.5870
 2159SOL    HW118113   4.216   3.158   3.348  1.9675  0.1571  1.7411
 2159SOL    HW218114   4.192   3.040   3.450 -0.1253 -2.8311 -0.2608
 2160SOL     OW18115   1.271   2.381   2.112  0.2503 -0.0160  0.5899
 2160SOL    HW118116   1.205   2.448   2.095  0.3319  0.0044  0.3635
 2160SOL    HW218117   1.312   2.378   2.026 -0.7868 -1.0253  0.1287
 2161SOL     OW18118   3.050   4.304   0.276  0.2341 -0.8751 -0.3837
 2161SOL    HW118119   3.113   4.247   0.321 -1.0111 -1.5319  0.5066
 2161SOL    HW218120   3.084   4.389   0.302 -1.4780 -0.1112 -0.6730
 2162SOL     OW18121   4.382   3.331   2.682  0.2497 -0.1556  0.0801
 2162SOL    HW118122   4.466   3.378   2.683 -0.7239  1.5636  1.4182
 2162SOL    HW218123   4.327   3.409   2.690 -0.5952 -0.7104 -0.3154
 2163SOL     OW18124   1.765   3.060  16.886 -0.7096  0.3030 -0.2321
 2163SOL    HW118125   1.720   3.004  16.949 -1.8631  0.1267 -1.2036
 2163SOL    HW218126   1.697   3.082  16.821 -1.5430 -0.0104  0.5311
 2164SOL     OW18127   2.794   4.526   8.363 -0.0962  0.6669  0.0730
 2164SOL    HW118128   2.779   4.549   8.455 -1.6155  1.2844 -0.3302
 2164SOL    HW218129   2.815   4.434   8.375  1.6228  0.9476 -0.7522
 2165SOL     OW18130   3.721   2.226   1.581  0.1088 -0.4951  0.6889
 2165SOL    HW118131   3.792   2.221   1.517 -0.3142 -0.2513  0.2044
 2165SOL    HW218132   3.650   2.193   1.526  0.7232 -0.1447 -0.3000
 2166SOL     OW18133   1.519   4.059   3.628  0.1289 -0.4819  0.1661
 2166SOL    HW118134   1.438   4.087   3.586  0.4456 -1.6197 -1.2275
 2166SOL    HW218135   1.523   3.963   3.625 -2.9840 -0.6391  1.2522
 2167SOL     OW18136   4.411   2.305   6.613  0.0082 -0.2851  0.5825
 2167SOL    HW118137   4.382   2.389   6.647 -0.7448 -0.4987  0.4498
 2167SOL    HW218138   4.410   2.260   6.698 -0.9547 -0.0386  0.6935
 2168SOL     OW18139   4.330   2.927   4.770 -0.0165  0.2321 -0.2385
 2168SOL    HW118140   4.344   2.859   4.835 -1.1933  0.2295  0.0189
 2168SOL    HW218141   4.337   2.866   4.697  3.7011 -0.4852  0.7600
 2169SOL     OW18142   2.275   2.177   8.063  0.3687 -0.0436  0.1769
 2169SOL    HW118143   2.288   2.110   8.129 -1.5364  0.2810  0.8990
 2169SOL    HW218144   2.367   2.202   8.062  0.8177 -1.6039  2.2274
 2170SOL     OW18145   4.063   3.932  17.216  0.5424  0.2951 -0.0552
 2170SOL    HW118146   3.992   3.904  17.273 -1.6988  4.5228 -0.7244
 2170SOL    HW218147   4.026   4.009  17.172 -1.2088 -1.0511 -0.9293
 2171SOL     OW18148   3.973   4.081   3.565  0.3802  0.1101  0.0694
 2171SOL    HW118149   3.907   4.140   3.530  2.5107  1.3837 -1.7697
 2171SOL    HW218150   4.011   4.135   3.635  1.4439  1.2879 -1.4223
 2172SOL     OW18151   2.012   0.123   2.915  0.1411  0.4961  0.2489
 2172SOL    HW118152   1.994   0.035   2.948 -0.3165 -0.2030 -1.8785
 2172SOL    HW218153   1.926   0.152   2.884  0.3201  0.9087  0.1360
 2173SOL     OW18154   3.175   1.471   4.827 -0.3509  0.2047  0.9752
 2173SOL    HW118155   3.086   1.443   4.806  0.0372  0.1943 -0.6382
 2173SOL    HW218156   3.234   1.397   4.815  0.0127  0.0967  3.5353
 2174SOL     OW18157   0.139   0.846   4.870 -0.1614 -0.4857 -0.3030
 2174SOL    HW118158   0.104   0.758   4.858  0.2638 -0.7493  0.3791
 2174SOL    HW218159   0.183   0.828   4.954 -4.3224  1.6101  2.3052
 2175SOL     OW18160   0.077   3.895   2.730  0.3484  0.3482 -0.3377
 2175SOL    HW118161   0.110   3.871   2.643  0.8769  0.6893 -0.2260
 2175SOL    HW218162   0.056   3.806   2.759  2.0125  0.2332  0.5271
 2176SOL     OW18163   1.439   2.562   4.439 -0.2138  0.5538 -0.5435
 2176SOL    HW118164   1.352   2.533   4.466  0.2472  0.4440  0.8671
 2176SOL    HW218165   1.462   2.492   4.378  2.0066  1.4260 -0.6866
 2177SOL     OW18166   0.908   3.943   7.684 -0.1568  0.3508  0.6089
 2177SOL    HW118167   0.886   3.969   7.773 -0.5632  1.9652  0.0237
 2177SOL    HW218168   0.889   4.018   7.628 -0.7718 -2.0993 -2.4920
 2178SOL     OW18169   2.342   1.036   4.463 -0.5918  0.2300  0.0253
 2178SOL    HW118170   2.414   1.039   4.526  1.5086 -1.7650 -2.3145
 2178SOL    HW218171   2.394   1.006   4.389  1.2848 -0.0249  1.4623
 2179SOL     OW18172   2.228   3.658   7.337  0.3555 -0.4091 -0.4543
 2179SOL    HW118173   2.200   3.574   7.374 -1.4257  0.4672  0.2170
 2179SOL    HW218174   2.167   3.654   7.264 -0.3765  0.7567  0.0947
 2180SOL     OW18175   0.934   1.489  13.654 -0.4484 -0.4863 -0.4852
 2180SOL    HW118176   0.865   1.549  13.684  1.4992  1.2948  0.4764
 2180SOL    HW218177   0.936   1.424  13.724 -0.2637  1.3054  1.1619
 2181SOL     OW18178   4.230   1.751  10.419  0.4027 -0.1122  0.2895
 2181SOL    HW118179   4.227   1.827  10.361  0.3804 -0.0579  0.3629
 2181SOL    HW218180   4.139   1.750  10.448  0.3898 -1.8407  0.1617
 2182SOL     OW18181   1.787   1.888   1.213  0.0915 -0.1297  0.4434
 2182SOL    HW118182   1.799   1.839   1.132 -1.2751  0.4576 -0.1279
 2182SOL    HW218183   1.766   1.816   1.272 -0.1615 -1.5728 -1.4020
 2183SOL     OW18184   0.657   4.665   8.219 -0.0507  0.4834 -0.2551
 2183SOL    HW118185   0.724   4.683   8.284 -0.8124  1.9618  0.1209
 2183SOL    HW218186   0.580   4.678   8.275  0.0050 -2.3536  0.4601
 2184SOL     OW18187   0.716   3.908   9.690  0.0224 -0.0208 -0.2316
 2184SOL    HW118188   0.784   3.893   9.756  0.1780  0.2070 -0.3432
 2184SOL    HW218189   0.655   3.837   9.710 -0.8419  0.9554  0.6350
 2185SOL     OW18190   1.949   4.267   5.887  0.0069  0.5735  0.0158
 2185SOL    HW118191   1.989   4.298   5.968 -0.7955  1.2622  0.1521
 2185SOL    HW218192   1.902   4.346   5.861  1.7286  2.3325  2.2063
 2186SOL     OW18193   4.124   3.622   3.873 -0.2913 -0.3751 -0.3859
 2186SOL    HW118194   4.180   3.631   3.797 -0.0914 -2.7424 -0.5364
 2186SOL    HW218195   4.124   3.526   3.880  0.8123 -0.3179  0.2417
 2187SOL     OW18196   3.667   1.650   7.592 -0.1821  0.3246 -0.0754
 2187SOL    HW118197   3.661   1.559   7.620 -0.2524 -0.3608 -2.2987
 2187SOL    HW218198   3.576   1.680   7.598  0.1918  1.3840  0.2704
 2188SOL     OW18199   4.188   0.636   2.467  0.4301  0.4764  0.2803
 2188SOL    HW118200   4.100   0.633   2.429  1.2337 -3.5828 -1.2415
 2188SOL    HW218201   4.243   0.656   2.391  0.1387 -1.8116 -0.5165
 2189SOL     OW18202   3.060   0.933   1.323 -0.2902 -0.0425 -0.0522
 2189SOL    HW118203   3.125   0.974   1.266 -1.3971 -0.3414 -1.5151
 2189SOL    HW218204   3.091   0.845   1.344  0.0007  0.1340  0.2552
 2190SOL     OW18205   1.995   3.727   3.931  0.1014  0.1913 -0.1908
 2190SOL    HW118206   1.928   3.768   3.984 -0.2325  1.2762 -1.4695
 2190SOL    HW218207   2.051   3.799   3.901 -0.9271  0.2832 -1.8895
 2191SOL     OW18208   0.242   4.023   6.172  0.0488  0.3608 -0.6032
 2191SOL    HW118209   0.273   4.010   6.083 -1.6444 -0.3067 -1.0875
 2191SOL    HW218210   0.233   3.933   6.204  0.9014  0.3079 -0.5062
 2192SOL     OW18211   2.326   1.767   8.394 -0.2922 -0.0397  0.5430
 2192SOL    HW118212   2.397   1.738   8.336 -0.5547  0.7548 -0.1677
 2192SOL    HW218213   2.253   1.715   8.359  0.9058 -1.2178 -0.2205
 2193SOL     OW18214   1.310   3.593  16.781 -0.1325 -0.4999 -0.9369
 2193SOL    HW118215   1.268   3.615  16.697  0.2298 -0.1374 -1.0265
 2193SOL    HW218216   1.247   3.530  16.816  0.6058 -0.3270  0.6775
 2194SOL     OW18217   3.321   1.685  12.893 -0.1677 -0.4581  0.1908
 2194SOL    HW118218   3.250   1.714  12.950  1.0008  1.9797  0.3995
 2194SOL    HW218219   3.272   1.634  12.829 -0.1030  1.0502 -1.0664
 2195SOL     OW18220   2.526   0.852   2.854 -0.2241  0.3772  0.4257
 2195SOL    HW118221   2.500   0.918   2.919  0.3646  1.0018  0.0330
 2195SOL    HW218222   2.496   0.890   2.771  1.2747 -0.7219 -0.6066
 2196SOL     OW18223   2.064   4.499   4.233 -0.0103  0.0464 -0.2079
 2196SOL    HW118224   1.977   4.538   4.240 -0.2286  0.1029 -3.3001
 2196SOL    HW218225   2.115   4.572   4.269  1.7664 -1.8656  1.1272
 2197SOL     OW18226   0.118   3.220  12.723  0.4708  0.7605 -0.0307
 2197SOL    HW118227   0.090   3.280  12.792  2.0695  0.4841  0.8487
 2197SOL    HW218228   0.184   3.270  12.676  0.0556  1.0362 -0.3235
 2198SOL     OW18229   1.615   4.572   2.906 -0.0653 -0.1522 -0.8670
 2198SOL    HW118230   1.639   4.642   2.845  0.6492  0.0761 -0.3148
 2198SOL    HW218231   1.578   4.516   2.837 -0.6911  0.1445 -0.7747
 2199SOL     OW18232   2.668   0.162   1.363  0.5338  0.3071 -0.0629
 2199SOL    HW118233   2.716   0.231   1.409  0.5670 -0.0926  0.5100
 2199SOL    HW218234   2.708   0.090   1.412 -2.0056 -0.9863  0.0849
 2200SOL     OW18235   2.033   0.552  10.955 -0.0959  0.5388  0.2028
 2200SOL    HW118236   2.014   0.627  11.011 -0.3928 -0.2276  1.1263
 2200SOL    HW218237   1.946   0.519  10.933 -0.2203  1.3553 -0.5103
 2201SOL     OW18238   3.725   4.549  10.284  0.2888  0.4902  0.5186
 2201SOL    HW118239   3.648   4.585  10.240  0.3805  2.5109  2.0230
 2201SOL    HW218240   3.745   4.464  10.244  1.6944  0.2432  1.7551
 2202SOL     OW18241   0.920   4.381   8.478  0.0259 -0.4321 -0.3083
 2202SOL    HW118242   0.877   4.381   8.392 -1.0015  1.8913  0.2044
 2202SOL    HW218243   0.930   4.473   8.500 -1.4127 -0.2297 -0.4566
 2203SOL     OW18244   4.481   1.344   8.018 -0.1493 -0.1633  0.5771
 2203SOL    HW118245   4.435   1.272   7.976 -0.5001  1.0527 -1.1131
 2203SOL    HW218246   4.404   1.401   8.017  0.7029  1.0077  1.9328
 2204SOL     OW18247   0.558   3.886   5.063  0.3492  0.2468 -0.3337
 2204SOL    HW118248   0.647   3.875   5.097  0.7367  3.5012 -0.3010
 2204SOL    HW218249   0.544   3.971   5.103  1.1348  1.3985 -2.4919
 2205SOL     OW18250   0.292   4.037   1.851 -0.0384 -0.1040 -0.0834
 2205SOL    HW118251   0.228   4.086   1.903  1.1310  1.9484 -0.5756
 2205SOL    HW218252   0.294   4.082   1.766 -0.3053 -0.2688 -0.1785
 2206SOL     OW18253   0.138   4.644  14.549 -0.2581 -0.4577  0.0338
 2206SOL    HW118254   0.093   4.725  14.571 -2.0225 -1.1106 -1.2004
 2206SOL    HW218255   0.084   4.591  14.608  0.4552  0.0942  1.1935
 2207SOL     OW18256   3.070   0.212   3.142 -0.1609  0.6868 -0.2381
 2207SOL    HW118257   3.116   0.130   3.160  0.4027  0.6455 -1.8910
 2207SOL    HW218258   2.978   0.199   3.166 -0.3734 -0.2812 -1.5714
 2208SOL     OW18259   1.239   2.118   1.760  0.2135 -0.0605  0.0781
 2208SOL    HW118260   1.268   2.117   1.669 -1.8874 -0.6371 -0.5869
 2208SOL    HW218261   1.145   2.128   1.746 -0.0914 -1.3510  1.1917
 2209SOL     OW18262   1.175   3.389   6.036 -0.1318  0.9176  0.4339
 2209SOL    HW118263   1.142   3.311   5.993  1.0713  0.2748  0.6523
 2209SOL    HW218264   1.203   3.433   5.956 -2.6666  0.4488 -0.6980
 2210SOL     OW18265   0.696   4.077  16.483  0.6263 -0.1791  0.5081
 2210SOL    HW118266   0.664   4.007  16.426 -0.0414  1.5398 -1.2411
 2210SOL    HW218267   0.781   4.035  16.481  1.0704  0.6100  2.7538
 2211SOL     OW18268   2.146   1.557   5.144  0.1695 -0.0597 -0.1221
 2211SOL    HW118269   2.102   1.607   5.213 -0.6157 -0.9401  0.0136
 2211SOL    HW218270   2.176   1.480   5.191  0.6996  0.2959  0.1182
 2212SOL     OW18271   1.213   4.493   6.115 -0.2135  0.4499  0.2944
 2212SOL    HW118272   1.119   4.505   6.100 -0.2666 -1.7071 -1.1784
 2212SOL    HW218273   1.225   4.400   6.094  1.1230  0.5360  0.7191
 2213SOL     OW18274   1.817   4.086   5.375 -0.7511  0.4663 -0.0619
 2213SOL    HW118275   1.742   4.103   5.319 -0.1204  0.5292 -0.9001
 2213SOL    HW218276   1.777   4.038   5.446 -2.0345  0.4919 -0.7682
 2214SOL     OW18277   0.275   4.688   2.811  0.2113  0.5413  0.2746
 2214SOL    HW118278   0.284   0.016   2.740 -3.2089 -0.1082 -0.7588
 2214SOL    HW218279   0.272   4.604   2.765  0.2734  0.1037  1.0814
 2215SOL     OW18280   3.285   3.894   4.031 -0.7421  0.3002  0.6180
 2215SOL    HW118281   3.276   3.799   4.020  1.8776  0.1406 -0.0937
 2215SOL    HW218282   3.380   3.903   4.028 -0.4228 -2.6124  1.9362
 2216SOL     OW18283   1.954   4.520   7.768  0.3572  0.1102  0.3121
 2216SOL    HW118284   1.864   4.487   7.773  0.2206  0.4376 -0.0055
 2216SOL    HW218285   1.998   4.485   7.846  0.3538  1.3672  0.8808
 2217SOL     OW18286   2.785   0.841   8.616 -0.1808 -0.2879  0.3569
 2217SOL    HW118287   2.848   0.909   8.593  1.3339 -2.5065 -1.9652
 2217SOL    HW218288   2.839   0.793   8.678  1.1942 -0.0018 -0.6229
 2218SOL     OW18289   2.385   3.675   6.116 -0.3765 -0.8818 -0.0353
 2218SOL    HW118290   2.432   3.611   6.063 -0.7886 -1.4524  0.2885
 2218SOL    HW218291   2.354   3.620   6.188 -0.6352  0.3852  0.8305
 2219SOL     OW18292   1.339   0.738   4.669  1.0052 -0.5459  0.0432
 2219SOL    HW118293   1.356   0.664   4.611  1.1342  0.6520 -1.4388
 2219SOL    HW218294   1.402   0.720   4.738  1.2736 -2.3996 -0.6869
 2220SOL     OW18295   1.923   1.793   4.904  0.3287  0.2142  0.3077
 2220SOL    HW118296   1.864   1.718   4.910 -0.3925  0.6701 -0.8825
 2220SOL    HW218297   1.981   1.755   4.838 -0.4560 -0.0236 -0.2484
 2221SOL     OW18298   0.490   3.528   5.921  0.7509  0.1306  0.2983
 2221SOL    HW118299   0.442   3.446   5.932 -0.1269  0.5642 -0.3194
 2221SOL    HW218300   0.503   3.512   5.828  0.5093 -0.9838  0.4562
 2222SOL     OW18301   2.783   2.864   4.035  0.0492  0.2113  0.2015
 2222SOL    HW118302   2.815   2.842   4.123 -0.8331  1.5113  0.8547
 2222SOL    HW218303   2.766   2.777   4.000 -0.5306  0.2141  0.4685
 2223SOL     OW18304   1.001   2.883   2.038 -0.1896 -0.4064  0.2652
 2223SOL    HW118305   1.008   2.880   2.133 -0.8542 -2.7875  0.2591
 2223SOL    HW218306   0.907   2.890   2.022 -0.4722 -1.7905  1.2667
 2224SOL     OW18307   2.926   2.100   4.077 -0.0092  0.1843  0.0899
 2224SOL    HW118308   2.949   2.087   4.169 -0.8192  2.0988  0.5589
 2224SOL    HW218309   2.856   2.164   4.088 -0.8110 -0.6417 -0.2807
 2225SOL     OW18310   3.404   3.195   0.113 -0.2392 -0.1639  0.0784
 2225SOL    HW118311   3.346   3.122   0.094 -0.3185 -0.1809  0.3996
 2225SOL    HW218312   3.350   3.271   0.091 -0.7339 -0.7232 -0.6400
 2226SOL     OW18313   4.034   1.518   7.848  0.4801  0.1695  0.0993
 2226SOL    HW118314   4.017   1.425   7.857  2.5878 -0.3522 -1.2122
 2226SOL    HW218315   3.948   1.537   7.811  1.3435  0.8745 -1.5337
 2227SOL     OW18316   2.812   2.189   6.789  0.1581 -0.2659  0.1060
 2227SOL    HW118317   2.851   2.172   6.874  0.1678  0.6614  0.2932
 2227SOL    HW218318   2.850   2.277   6.784 -1.3321  0.3123 -1.3507
 2228SOL     OW18319   3.116   0.177   0.293 -0.2149 -0.2505 -0.5754
 2228SOL    HW118320   3.039   0.234   0.298 -0.2976 -0.4184  0.0353
 2228SOL    HW218321   3.094   0.134   0.211 -1.0357  1.0015 -1.0168
 2229SOL     OW18322   2.007   3.804  10.009  0.8070 -0.2498 -0.3065
 2229SOL    HW118323   2.006   3.798  10.105  1.1000  2.5015 -0.1156
 2229SOL    HW218324   1.915   3.823   9.992  1.0258 -0.4782 -1.7240
 2230SOL     OW18325   1.745   0.416  10.991  0.1994 -0.3085 -0.3242
 2230SOL    HW118326   1.783   0.332  11.017  0.7431  0.2489  0.7091
 2230SOL    HW218327   1.655   0.388  11.006  0.6268 -0.6419  1.7196
 2231SOL     OW18328   3.676   2.753  15.456 -0.1992 -0.0299  0.0403
 2231SOL    HW118329   3.590   2.789  15.478  0.1612  0.7608  0.1785
 2231SOL    HW218330   3.733   2.829  15.438  1.6833 -0.8951  2.3481
 2232SOL     OW18331   1.817   4.624   8.721  1.2787 -0.4854 -0.3201
 2232SOL    HW118332   1.801   4.718   8.726 -0.1579 -0.7045 -0.6992
 2232SOL    HW218333   1.815   4.601   8.814 -0.4039  1.7754  0.2174
 2233SOL     OW18334   3.635   2.648   0.939 -0.0875 -0.3362  0.0169
 2233SOL    HW118335   3.558   2.696   0.970 -1.0931 -2.2611  0.5023
 2233SOL    HW218336   3.611   2.556   0.950  0.8138 -0.6180 -0.4000
 2234SOL     OW18337   3.142   0.173   5.760  0.0918 -0.0724  0.1457
 2234SOL    HW118338   3.099   0.258   5.772  0.6348  0.2598 -0.2600
 2234SOL    HW218339   3.089   0.130   5.693 -0.5434 -1.2876  1.4362
 2235SOL     OW18340   1.003   2.272   2.034 -0.0600  0.0090 -0.0465
 2235SOL    HW118341   1.026   2.353   2.079 -0.1269 -1.6963  3.0532
 2235SOL    HW218342   1.006   2.308   1.945 -0.3388 -2.6819 -1.1428
 2236SOL     OW18343   4.588   2.693   3.256 -0.4618  0.0232 -0.1623
 2236SOL    HW118344   4.514   2.674   3.313  0.3718 -0.8387  0.6190
 2236SOL    HW218345   4.609   2.781   3.287  0.6363  0.1309 -1.1650
 2237SOL     OW18346   2.253   3.282   6.353  0.5695  0.4792 -0.3810
 2237SOL    HW118347   2.332   3.269   6.404  0.5473  1.0435 -0.2038
 2237SOL    HW218348   2.282   3.259   6.265 -0.9998 -0.6936 -0.6006
 2238SOL     OW18349   0.990   2.392   8.901 -0.1353 -0.1647  0.4484
 2238SOL    HW118350   0.921   2.381   8.966  0.0823 -1.1339  0.5274
 2238SOL    HW218351   0.980   2.484   8.879  1.8796 -0.0644  0.0035
 2239SOL     OW18352   1.736   1.453   5.505 -0.0490  0.3726 -0.5305
 2239SOL    HW118353   1.758   1.477   5.595  1.8061 -1.0585 -0.5929
 2239SOL    HW218354   1.764   1.526   5.449 -1.2813  2.6585  1.8586
 2240SOL     OW18355   3.004   0.994   8.534 -0.1636 -0.1558 -0.5731
 2240SOL    HW118356   3.045   0.972   8.451 -1.6234 -1.0072 -1.0616
 2240SOL    HW218357   3.068   1.058   8.567 -0.0846 -0.9565  0.8119
 2241SOL     OW18358   0.464   1.388  17.565 -0.4961  0.3328  0.4363
 2241SOL    HW118359   0.517   1.398  17.644 -1.7466 -0.9778  1.4536
 2241SOL    HW218360   0.507   1.447  17.503 -0.9855  1.9587  1.6199
 2242SOL     OW18361   4.708   3.744   1.839 -0.5191 -0.3281  0.0775
 2242SOL    HW118362   4.656   3.732   1.760  0.1046  1.1056 -0.5621
 2242SOL    HW218363   4.673   3.822   1.881 -2.2853 -1.0150 -0.1424
 2243SOL     OW18364   1.836   4.378   5.130 -0.0065 -0.3201  0.5134
 2243SOL    HW118365   1.781   4.313   5.174 -1.5896  1.9512  1.9424
 2243SOL    HW218366   1.793   4.459   5.159 -0.9980 -0.8813  0.5945
 2244SOL     OW18367   1.963   2.563   6.798 -0.0300  0.3578 -0.4735
 2244SOL    HW118368   1.906   2.635   6.771 -1.1085  0.4232  2.0050
 2244SOL    HW218369   1.936   2.500   6.730  2.4789  0.6865 -1.7513
 2245SOL     OW18370   2.799   0.957   9.121  0.5398 -0.0835  0.2398
 2245SOL    HW118371   2.706   0.939   9.108  0.3387  1.8916 -0.9297
 2245SOL    HW218372   2.799   0.986   9.213  0.1124 -4.0247  1.4942
 2246SOL     OW18373   0.489   3.876   3.116  0.0021  0.0823 -0.0075
 2246SOL    HW118374   0.395   3.864   3.108 -0.3691  1.9737  1.7028
 2246SOL    HW218375   0.513   3.828   3.195  0.5876 -0.0508 -0.2589
 2247SOL     OW18376   0.699   1.799   2.338 -0.5866 -0.3305  0.1710
 2247SOL    HW118377   0.666   1.873   2.288 -0.4142 -0.1717  0.2926
 2247SOL    HW218378   0.669   1.807   2.429  0.0984 -1.0990  0.4678
 2248SOL     OW18379   3.839   2.045   0.254  0.0988  0.3502  0.7137
 2248SOL    HW118380   3.849   1.954   0.223 -0.3300  1.1056 -1.6459
 2248SOL    HW218381   3.780   2.029   0.328 -0.0767  0.0046  0.5021
 2249SOL     OW18382   3.139   1.598   7.701 -0.2844  0.5779  0.1485
 2249SOL    HW118383   3.155   1.693   7.695  0.6398  0.5435  1.9206
 2249SOL    HW218384   3.059   1.589   7.754 -1.2796  1.6313 -1.1563
 2250SOL     OW18385   1.450   2.461   0.574  0.1071 -0.0692 -0.3745
 2250SOL    HW118386   1.496   2.454   0.491  2.1442  0.7641  0.6726
 2250SOL    HW218387   1.513   2.489   0.641  1.6047 -1.3373 -1.2635
 2251SOL     OW18388   2.798   4.059   6.217  0.5314  0.9856 -0.0089
 2251SOL    HW118389   2.818   3.969   6.191  0.3553  0.9591 -0.0543
 2251SOL    HW218390   2.809   4.054   6.312  1.6746 -2.2900 -0.3091
 2252SOL     OW18391   2.534   2.383  13.134  0.1291 -0.3927  0.3488
 2252SOL    HW118392   2.539   2.296  13.094  0.1933 -1.0293  1.7409
 2252SOL    HW218393   2.440   2.394  13.121 -0.0169 -0.6571  1.1678
 2253SOL     OW18394   4.315   3.632  15.403  0.8769  0.0494  0.2313
 2253SOL    HW118395   4.388   3.610  15.346  0.3024  0.5205 -0.6757
 2253SOL    HW218396   4.251   3.609  15.336 -0.0216  0.5709  0.8972
 2254SOL     OW18397   3.597   2.249  13.564  0.0502  0.8592  0.3623
 2254SOL    HW118398   3.584   2.242  13.469  0.0753 -0.3022  0.4429
 2254SOL    HW218399   3.564   2.338  13.576  2.3643  2.1054 -2.3899
 2255SOL     OW18400   3.250   1.744   4.801  0.3655 -0.6917 -0.3857
 2255SOL    HW118401   3.301   1.667   4.777 -0.2927 -0.6203 -2.0416
 2255SOL    HW218402   3.160   1.711   4.798  0.2902 -0.5460  0.3347
 2256SOL     OW18403   2.696   4.573   2.368  0.5082 -0.4257  0.0703
 2256SOL    HW118404   2.730   4.582   2.457  0.1268 -3.1757  0.4836
 2256SOL    HW218405   2.678   4.665   2.345  0.0149 -0.3083  0.9278
 2257SOL     OW18406   3.605   0.321   8.855 -0.6020  0.0365 -0.1174
 2257SOL    HW118407   3.543   0.252   8.833 -0.1986 -0.9151  1.7180
 2257SOL    HW218408   3.678   0.276   8.898  0.6153  0.8409 -1.3455
 2258SOL     OW18409   0.767   1.732   6.309  0.2483 -0.6408 -0.4561
 2258SOL    HW118410   0.849   1.781   6.310 -0.8457  1.2331 -1.2415
 2258SOL    HW218411   0.752   1.730   6.215  2.5526 -2.9967 -0.7596
 2259SOL     OW18412   3.476   3.531  17.608  0.0897 -0.1889 -0.1355
 2259SOL    HW118413   3.399   3.514  17.554 -0.5677  1.3507  0.3081
 2259SOL    HW218414   3.483   3.622  17.580 -0.8249  0.5834  2.1231
 2260SOL     OW18415   2.590   1.226   3.360 -0.1201  0.8695  0.5405
 2260SOL    HW118416   2.570   1.214   3.453  1.8879 -0.9512  0.7316
 2260SOL    HW218417   2.628   1.146   3.325 -0.1458  0.9155  0.4080
 2261SOL     OW18418   0.367   1.751   4.125 -0.2503 -0.0690 -0.1293
 2261SOL    HW118419   0.294   1.725   4.068  0.4521 -3.5247  0.5212
 2261SOL    HW218420   0.390   1.668   4.168 -1.0745  0.6247  1.6271
 2262SOL     OW18421   3.030   0.607   5.494  0.7134 -0.3566  0.3528
 2262SOL    HW118422   2.998   0.686   5.538  0.0791 -0.8711  0.8144
 2262SOL    HW218423   2.949   0.564   5.466 -0.0325  0.8666  0.6519
 2263SOL     OW18424   2.735   3.766   8.356  0.4785  0.5867  0.3925
 2263SOL    HW118425   2.670   3.703   8.389  0.4118 -0.6555 -2.1103
 2263SOL    HW218426   2.678   3.835   8.323  0.2742 -0.0684 -0.6380
 2264SOL     OW18427   1.759   3.191   5.335 -0.2583  0.2547 -0.4411
 2264SOL    HW118428   1.736   3.283   5.345  2.4132  0.8035  0.4627
 2264SOL    HW218429   1.845   3.191   5.376 -0.6269  0.5050  0.3349
 2265SOL     OW18430   0.248   4.723   5.270  0.4665 -0.1161  0.5002
 2265SOL    HW118431   0.213   4.695   5.185  0.4097 -2.4723  1.3056
 2265SOL    HW218432   0.302   0.062   5.245 -0.6471  1.0234  1.5444
 2266SOL     OW18433   2.887   0.226  17.106  0.5039  0.0860  0.1318
 2266SOL    HW118434   2.941   0.273  17.169 -1.7184  0.5562  1.6778
 2266SOL    HW218435   2.845   0.160  17.161 -0.1460  2.1243  2.0465
 2267SOL     OW18436   3.856   1.704  16.191  0.1996 -0.5337  0.3080
 2267SOL    HW118437   3.876   1.791  16.227 -1.7084 -0.4276  1.0705
 2267SOL    HW218438   3.883   1.714  16.100 -1.8673  0.9888 -0.1276
 2268SOL     OW18439   1.127   0.595   2.418 -0.2991 -0.3987 -0.0667
 2268SOL    HW118440   1.031   0.595   2.423 -0.2169  1.8407  1.3301
 2268SOL    HW218441   1.141   0.504   2.389 -1.0718  0.1446 -2.2008
 2269SOL     OW18442   2.470   0.838  11.289  0.0626 -0.1426  0.0768
 2269SOL    HW118443   2.496   0.924  11.255 -2.3907  0.0640 -1.2762
 2269SOL    HW218444   2.513   0.848  11.374  2.2382 -2.8475 -0.6987
 2270SOL     OW18445   3.404   3.881  15.180  0.8676 -0.2191  0.5976
 2270SOL    HW118446   3.364   3.941  15.117 -0.6470  0.5153  2.2486
 2270SOL    HW218447   3.498   3.899  15.178  0.9312 -0.3711  2.4797
 2271SOL     OW18448   1.624   2.905   8.274 -0.9737  0.0636 -0.3303
 2271SOL    HW118449   1.538   2.930   8.240  0.4297  1.7578 -2.5968
 2271SOL    HW218450   1.626   2.819   8.232 -0.5457 -0.6589  1.1814
 2272SOL     OW18451   1.208   4.690   7.804  0.3636  0.2579  0.1874
 2272SOL    HW118452   1.160   0.025   7.762  0.4713  0.8534  1.0740
 2272SOL    HW218453   1.212   4.727   7.892 -0.2000  0.2282  0.2259
 2273SOL     OW18454   3.816   1.565   4.287  0.1842  0.3369 -0.5551
 2273SOL    HW118455   3.801   1.572   4.193  2.5252 -0.1647 -0.9628
 2273SOL    HW218456   3.900   1.610   4.293  0.6003 -0.5395  0.1276
 2274SOL     OW18457   1.948   1.987  14.810 -0.1802  0.4022  0.1883
 2274SOL    HW118458   1.899   2.069  14.819 -1.4600 -0.3203 -0.0783
 2274SOL    HW218459   2.013   2.024  14.751 -1.0960  0.6894 -0.6344
 2275SOL     OW18460   1.686   1.823   4.315  0.0444  0.2128  0.3491
 2275SOL    HW118461   1.734   1.905   4.329 -1.7923  1.5022 -0.9509
 2275SOL    HW218462   1.595   1.854   4.315 -0.5717 -1.5828  1.0484
 2276SOL     OW18463   2.444   4.509   6.575 -0.0546  0.6560 -0.9033
 2276SOL    HW118464   2.539   4.524   6.583  0.2257 -0.8447 -1.4915
 2276SOL    HW218465   2.426   4.454   6.651 -0.0668  2.4251  0.3614
 2277SOL     OW18466   1.637   3.812   9.651 -0.7263  0.8473 -0.5060
 2277SOL    HW118467   1.710   3.873   9.639 -0.0602  0.3403  0.8937
 2277SOL    HW218468   1.662   3.735   9.599  0.6108  1.3281 -0.5905
 2278SOL     OW18469   4.218   3.681  11.208 -0.6460 -0.4941 -0.0286
 2278SOL    HW118470   4.223   3.672  11.303  0.7923  0.5770  0.0011
 2278SOL    HW218471   4.137   3.637  11.180  0.7376 -2.1972 -1.3694
 2279SOL     OW18472   2.520   4.231   2.454 -0.1789 -0.0366 -0.2562
 2279SOL    HW118473   2.438   4.195   2.420 -0.1109  0.7940 -1.2677
 2279SOL    HW218474   2.487   4.247   2.542  1.4885 -1.0259  0.5687
 2280SOL     OW18475   1.616   3.990  15.798 -0.0932  0.3293 -0.5658
 2280SOL    HW118476   1.556   4.034  15.859  0.6574 -1.7571  1.6655
 2280SOL    HW218477   1.619   3.904  15.840 -1.6261  1.8519  2.6547
 2281SOL     OW18478   2.965   1.919   0.558 -0.0759 -0.0917 -0.0730
 2281SOL    HW118479   3.050   1.940   0.595 -1.6562  4.0954  1.1550
 2281SOL    HW218480   2.902   1.927   0.630  0.3152 -1.6505  0.4305
 2282SOL     OW18481   0.191   2.010   5.626  0.0315  0.3898  0.5005
 2282SOL    HW118482   0.262   1.970   5.676  0.1302  0.9480  0.8091
 2282SOL    HW218483   0.232   2.046   5.547  1.0444 -0.9549  0.4187
 2283SOL     OW18484   1.096   1.616  14.954 -0.4261 -0.7988  0.2090
 2283SOL    HW118485   1.173   1.582  14.909  0.3217 -0.3653  1.1671
 2283SOL    HW218486   1.083   1.547  15.018  2.8626 -2.1285 -0.5832
 2284SOL     OW18487   2.310   0.576   0.028  0.1239 -0.3050  0.9536
 2284SOL    HW118488   2.378   0.616  17.718 -0.0341 -1.1138  0.1664
 2284SOL    HW218489   2.360   0.499   0.053  1.8216  0.4866  0.0382
 2285SOL     OW18490   1.514   3.268  13.770  0.2236  0.1222  1.0172
 2285SOL    HW118491   1.588   3.228  13.724 -0.6101 -0.8013  0.4744
 2285SOL    HW218492   1.449   3.198  13.766  0.9316 -0.3355 -2.9007
 2286SOL     OW18493   1.793   1.017   3.199 -0.1922  0.5115  0.0660
 2286SOL    HW118494   1.785   1.011   3.104  0.1487 -1.5794  0.1512
 2286SOL    HW218495   1.719   0.965   3.233  0.0236 -0.0443 -0.3098
 2287SOL     OW18496   4.393   0.404   4.947  0.4610 -0.5791  0.1066
 2287SOL    HW118497   4.399   0.309   4.934  1.6592 -0.3373 -1.1125
 2287SOL    HW218498   4.460   0.435   4.886 -0.2356  2.5443  0.9412
 2288SOL     OW18499   0.558   2.589   6.218  0.1775  0.0796  0.0972
 2288SOL    HW118500   0.549   2.543   6.302 -0.9639  0.6221  0.2716
 2288SOL    HW218501   0.597   2.671   6.250  0.9786  0.2176 -1.2651
 2289SOL     OW18502   0.510   1.987  12.712  0.1062 -0.3054  0.1471
 2289SOL    HW118503   0.521   2.070  12.666  0.9871 -1.0958 -1.0813
 2289SOL    HW218504   0.417   1.977  12.691  0.1550  0.4159 -0.4091
 2290SOL     OW18505   4.345   3.720   5.868 -0.1608  0.2944  0.3993
 2290SOL    HW118506   4.421   3.713   5.926 -1.3092  2.9585  2.2354
 2290SOL    HW218507   4.323   3.811   5.891 -2.8801 -0.0297 -0.8859
 2291SOL     OW18508   2.093   2.268  10.158 -0.0755  0.1530 -0.1113
 2291SOL    HW118509   2.132   2.184  10.183 -2.4704 -0.9854 -0.1818
 2291SOL    HW218510   2.041   2.251  10.079  0.5254  0.3198 -0.5366
 2292SOL     OW18511   4.596   3.363   9.947 -0.4750  0.7061 -0.2057
 2292SOL    HW118512   4.594   3.294  10.013  0.0060  0.1319 -0.7866
 2292SOL    HW218513   4.674   3.337   9.897  0.1554  2.8303 -0.3104
 2293SOL     OW18514   4.442   0.655   9.630 -0.0289 -0.8713 -0.4115
 2293SOL    HW118515   4.424   0.615   9.545  0.8531  1.1897 -1.5570
 2293SOL    HW218516   4.537   0.662   9.620 -0.2869 -0.2423 -2.3757
 2294SOL     OW18517   3.813   3.915   4.001  0.2480  0.1281  0.1037
 2294SOL    HW118518   3.804   3.861   4.080  1.7923  0.7428  0.6960
 2294SOL    HW218519   3.722   3.930   3.975 -0.4273 -0.4245  2.1409
 2295SOL     OW18520   4.208   1.151  14.720 -0.4480  0.2841 -0.1112
 2295SOL    HW118521   4.122   1.183  14.747 -0.4072 -0.8653  1.3634
 2295SOL    HW218522   4.213   1.191  14.633  1.7983 -3.3363 -1.6360
 2296SOL     OW18523   2.102   1.702  15.131  0.5746 -0.3554  0.4654
 2296SOL    HW118524   2.101   1.797  15.117 -0.2117 -0.2962  0.9516
 2296SOL    HW218525   2.012   1.687  15.161  0.5359  0.0716  0.5644
 2297SOL     OW18526   4.411   3.772   4.142 -0.2141 -0.5156  0.6256
 2297SOL    HW118527   4.324   3.810   4.135 -0.1463 -0.5538 -0.4243
 2297SOL    HW218528   4.430   3.754   4.050  0.8206 -1.5186  1.0325
 2298SOL     OW18529   1.459   1.269  11.209  0.5403  0.1248  0.4100
 2298SOL    HW118530   1.414   1.324  11.273 -0.8224 -1.6624  0.9900
 2298SOL    HW218531   1.460   1.329  11.134  1.7238  0.8283  0.9964
 2299SOL     OW18532   2.523   3.165  13.227  0.5616  0.3043  0.3227
 2299SOL    HW118533   2.500   3.120  13.146 -0.9103  0.8363  0.4525
 2299SOL    HW218534   2.619   3.162  13.236  0.3803 -1.8096  1.4777
 2300SOL     OW18535   3.234   4.359  11.723  0.2152  0.4772  0.0679
 2300SOL    HW118536   3.172   4.329  11.657  1.8714  0.2203 -1.3778
 2300SOL    HW218537   3.319   4.369  11.682 -0.7381 -0.7058 -2.1994
 2301SOL     OW18538   0.743   3.964  14.807 -0.7640  0.0877 -0.4765
 2301SOL    HW118539   0.770   4.011  14.728 -0.1653 -1.4536 -1.1950
 2301SOL    HW218540   0.822   3.919  14.838 -0.2825  1.2158 -0.0450
 2302SOL     OW18541   4.134   0.253   0.605  0.1991  0.0842 -0.0207
 2302SOL    HW118542   4.152   0.307   0.682 -1.2758  1.3377 -0.5713
 2302SOL    HW218543   4.095   0.321   0.551 -0.1258 -0.0690  0.0208
 2303SOL     OW18544   2.495   3.144  13.753 -0.1241 -0.1115  0.4654
 2303SOL    HW118545   2.565   3.080  13.764  1.8260  2.1118  1.0402
 2303SOL    HW218546   2.425   3.110  13.809 -0.9437  0.5154 -0.1797
 2304SOL     OW18547   0.195   0.123   2.084  0.4923 -0.0567 -0.2334
 2304SOL    HW118548   0.234   0.205   2.052 -1.1204  1.0174  0.6067
 2304SOL    HW218549   0.173   0.143   2.174 -3.8155 -0.0390 -1.3179
 2305SOL     OW18550   4.512   3.292   3.871 -0.2820  0.9412 -0.1363
 2305SOL    HW118551   4.554   3.209   3.890  1.1793  1.3863 -1.4232
 2305SOL    HW218552   4.582   3.353   3.848  1.3154 -0.2898  1.5266
 2306SOL     OW18553   2.938   2.433   5.633 -0.0733  0.4526  0.4205
 2306SOL    HW118554   2.936   2.455   5.540  0.3067  2.7203  0.9389
 2306SOL    HW218555   3.010   2.491   5.655 -0.5187  0.7629  1.0592
 2307SOL     OW18556   3.924   1.348   7.078  0.4115 -0.0755 -0.9394
 2307SOL    HW118557   3.943   1.441   7.083 -0.1669 -0.1957  3.1687
 2307SOL    HW218558   3.834   1.350   7.110  0.9983 -0.4644  0.7331
 2308SOL     OW18559   3.338   1.768  13.233  0.4723 -0.6381  0.1458
 2308SOL    HW118560   3.256   1.754  13.186  0.7158 -1.5256 -0.0265
 2308SOL    HW218561   3.326   1.853  13.275 -2.4718 -2.4280  2.9196
 2309SOL     OW18562   3.104   3.822   6.693 -0.4974  0.2652 -0.7134
 2309SOL    HW118563   3.013   3.810   6.666  0.4261 -0.3675 -3.5711
 2309SOL    HW218564   3.129   3.738   6.730 -1.6327  0.4914  0.5782
 2310SOL     OW18565   2.169   0.372   5.742 -0.6661  0.0878  0.9081
 2310SOL    HW118566   2.261   0.345   5.749 -0.7313  0.3324  2.6114
 2310SOL    HW218567   2.143   0.320   5.666  0.3000 -0.4246  0.9277
 2311SOL     OW18568   3.623   2.612   4.449 -0.0981 -0.5237 -0.2614
 2311SOL    HW118569   3.648   2.585   4.538 -0.1642 -0.0046 -0.0808
 2311SOL    HW218570   3.555   2.546   4.439 -1.5239  0.8941  0.1730
 2312SOL     OW18571   2.899   3.992   8.643  0.1412  1.1471 -0.1031
 2312SOL    HW118572   2.820   3.940   8.657 -2.0147  3.9975 -1.5242
 2312SOL    HW218573   2.946   3.944   8.575 -0.7068 -0.9414  0.7901
 2313SOL     OW18574   2.999   0.422   1.160  1.0677 -0.3672 -0.1639
 2313SOL    HW118575   2.972   0.391   1.247  1.5127  0.6006  0.3190
 2313SOL    HW218576   2.969   0.513   1.166  3.3522  0.3497  0.1931
 2314SOL     OW18577   0.190   0.652  11.817  0.0344 -0.0740  0.2570
 2314SOL    HW118578   0.117   0.713  11.823 -1.4058 -1.5649 -2.3363
 2314SOL    HW218579   0.151   0.575  11.774 -0.7801  0.7597 -0.4952
 2315SOL     OW18580   3.387   2.128  16.494 -0.2494  0.2370  0.2760
 2315SOL    HW118581   3.360   2.055  16.549 -1.1506 -0.8530 -1.6188
 2315SOL    HW218582   3.300   2.154  16.464 -0.6520 -1.0568  0.3332
 2316SOL     OW18583   1.256   2.389   5.813 -0.5944  0.1069 -0.2238
 2316SOL    HW118584   1.216   2.386   5.899 -0.2110  1.2177 -0.0081
 2316SOL    HW218585   1.340   2.433   5.830 -0.3133 -0.6989  0.4348
 2317SOL     OW18586   0.448   3.931   4.435  0.0922 -0.6074  0.0318
 2317SOL    HW118587   0.452   4.012   4.485 -1.3772 -0.6897  0.2868
 2317SOL    HW218588   0.493   3.860   4.482  0.3298 -1.1285 -0.9650
 2318SOL     OW18589   4.137   2.733   6.071 -0.8123 -0.6465 -0.1436
 2318SOL    HW118590   4.179   2.670   6.013  0.1386  1.8051 -2.1129
 2318SOL    HW218591   4.196   2.808   6.072 -0.3007 -1.0449 -0.9647
 2319SOL     OW18592   0.080   3.598  16.154 -0.1543 -0.1316 -0.1460
 2319SOL    HW118593   0.073   3.625  16.246  0.8772 -2.7821  0.6935
 2319SOL    HW218594   0.109   3.673  16.102  0.7369 -0.2066  0.2362
 2320SOL     OW18595   4.276   2.434  17.210 -0.0058 -0.3011 -0.0010
 2320SOL    HW118596   4.330   2.480  17.274 -0.6651  0.3135  0.1136
 2320SOL    HW218597   4.191   2.476  17.226 -0.1227 -0.4313 -0.2866
 2321SOL     OW18598   1.204   4.336   2.769 -0.3569  0.4933 -0.8917
 2321SOL    HW118599   1.282   4.391   2.758  0.5073  0.0321  2.9635
 2321SOL    HW218600   1.167   4.378   2.847  2.1706  0.6675  0.2224
 2322SOL     OW18601   3.421   4.429   0.667  0.5044  0.1183  0.2735
 2322SOL    HW118602   3.439   4.511   0.713 -1.1369  0.5647  0.1260
 2322SOL    HW218603   3.365   4.401   0.739  0.5910  0.5481  0.5130
 2323SOL     OW18604   0.992   0.865   2.031 -0.2736  0.1210 -0.1337
 2323SOL    HW118605   0.958   0.866   2.120 -1.9121  0.7406 -0.7615
 2323SOL    HW218606   0.928   0.930   2.002 -0.0942  0.0802 -0.6273
 2324SOL     OW18607   3.301   0.096  14.976  0.3666 -0.2675 -0.0533
 2324SOL    HW118608   3.244   0.126  14.906 -0.0979  0.5591  0.6847
 2324SOL    HW218609   3.344   0.021  14.934  2.5563  1.8565 -1.5725
 2325SOL     OW18610   4.174   3.615   3.118 -0.0291 -0.2128 -0.1810
 2325SOL    HW118611   4.188   3.694   3.171 -0.5515 -0.0511 -0.2901
 2325SOL    HW218612   4.087   3.605   3.156 -0.1132  3.6176  0.6650
 2326SOL     OW18613   1.269   0.336   4.788  0.2686  0.1135 -0.0644
 2326SOL    HW118614   1.185   0.291   4.798 -0.2561  0.6418 -2.0478
 2326SOL    HW218615   1.329   0.262   4.790  0.5328  0.2973 -1.2954
 2327SOL     OW18616   3.829   4.447  16.315  0.1918 -0.8420  0.1542
 2327SOL    HW118617   3.866   4.370  16.271 -3.7606 -1.7226 -1.5770
 2327SOL    HW218618   3.845   4.511  16.246 -1.3467 -0.5856  0.0366
 2328SOL     OW18619   0.287   2.678   6.139 -0.5068  0.4355 -0.3745
 2328SOL    HW118620   0.251   2.732   6.209  2.4522  1.2766  0.5042
 2328SOL    HW218621   0.372   2.650   6.172 -0.7938 -0.6091 -0.5348
 2329SOL     OW18622   4.236   3.913   8.785  0.0675  0.0827  0.3418
 2329SOL    HW118623   4.275   3.988   8.830 -2.0308  0.2103  1.9860
 2329SOL    HW218624   4.198   3.861   8.856 -0.7685 -0.2750 -0.3735
 2330SOL     OW18625   0.824   1.704   7.488  0.2098  0.2939 -0.0215
 2330SOL    HW118626   0.888   1.773   7.472  0.1849  0.2484 -0.3186
 2330SOL    HW218627   0.753   1.760   7.456  0.5806  0.4306 -0.6066
 2331SOL     OW18628   3.972   1.556   8.546  0.5445  0.3313 -0.1317
 2331SOL    HW118629   3.910   1.586   8.479 -0.2155  1.7981  1.2333
 2331SOL    HW218630   3.939   1.608   8.620  1.7151 -0.9215  1.2558
 2332SOL     OW18631   0.734   2.891  13.545 -0.3054  0.0714  0.4941
 2332SOL    HW118632   0.664   2.941  13.587 -0.8631  0.2300 -0.6220
 2332SOL    HW218633   0.770   2.831  13.610  0.5182 -0.1806 -0.1918
 2333SOL     OW18634   3.275   4.034   6.118  0.1615 -0.4746 -0.3800
 2333SOL    HW118635   3.211   4.089   6.163 -0.7449 -0.8787 -1.1690
 2333SOL    HW218636   3.224   4.023   6.037  0.6431 -1.9672 -0.4798
 2334SOL     OW18637   4.405   2.263  10.248  0.5143 -0.5130 -0.2467
 2334SOL    HW118638   4.363   2.285  10.331  1.9704 -0.0293  0.3697
 2334SOL    HW218639   4.425   2.170  10.256  2.7285 -0.0382  0.0454
 2335SOL     OW18640   2.869   2.025   8.318 -0.4559 -0.2528 -0.0155
 2335SOL    HW118641   2.892   2.030   8.225 -0.8252 -2.0249 -0.2149
 2335SOL    HW218642   2.776   2.002   8.313 -0.7074  0.4681  1.6664
 2336SOL     OW18643   0.131   1.201   6.639  0.3710  0.0438 -0.2462
 2336SOL    HW118644   0.046   1.219   6.680  1.6813  1.8682  1.6845
 2336SOL    HW218645   0.098   1.163   6.558 -2.6832  1.9564  0.0963
 2337SOL     OW18646   3.600   1.524   9.960  0.5594 -0.0213 -0.2931
 2337SOL    HW118647   3.517   1.484   9.936  0.5004 -0.8623  1.3345
 2337SOL    HW218648   3.563   1.569  10.036 -3.2353 -2.2226 -0.8414
 2338SOL     OW18649   0.630   4.572   8.868 -0.4056 -0.1487 -0.0378
 2338SOL    HW118650   0.652   4.552   8.777  1.9995  0.6054  0.3613
 2338SOL    HW218651   0.587   4.657   8.866  0.3874  0.2602 -0.0653
 2339SOL     OW18652   1.786   0.301   6.287 -0.0789 -0.3497 -0.0873
 2339SOL    HW118653   1.711   0.248   6.315 -1.5090  2.1537  0.7846
 2339SOL    HW218654   1.776   0.315   6.192  0.0099  1.1221  0.1195
 2340SOL     OW18655   2.423   1.347  13.073  0.0598 -0.0017  0.3669
 2340SOL    HW118656   2.503   1.296  13.063 -0.1211 -0.4963  1.4518
 2340SOL    HW218657   2.369   1.275  13.107 -1.0001  0.4729 -0.3034
 2341SOL     OW18658   2.679   1.597  16.147  0.2503  0.7214  0.3978
 2341SOL    HW118659   2.641   1.570  16.063  1.3582  2.1279 -0.5678
 2341SOL    HW218660   2.754   1.653  16.125  0.7994  0.0566  0.5742
 2342SOL     OW18661   2.210   2.670  16.073  0.4864  0.3730 -0.0568
 2342SOL    HW118662   2.188   2.741  16.013  0.1192 -0.8673 -1.3664
 2342SOL    HW218663   2.157   2.692  16.150  0.7932  3.0030 -0.5746
 2343SOL     OW18664   3.647   3.499   6.308 -0.2150 -0.3118  0.2152
 2343SOL    HW118665   3.721   3.559   6.298  1.8181 -2.7145  0.7850
 2343SOL    HW218666   3.580   3.559   6.341 -0.0634 -0.7891  1.4026
 2344SOL     OW18667   1.947   3.342   3.073 -0.0729  0.0396  0.0493
 2344SOL    HW118668   1.898   3.391   3.139  1.0517 -1.0175  1.6596
 2344SOL    HW218669   1.958   3.257   3.115  0.3078 -0.3130 -0.7601
 2345SOL     OW18670   2.575   1.662   8.592  0.6645 -1.0873  0.3559
 2345SOL    HW118671   2.521   1.585   8.575  0.0490 -0.3176 -1.1841
 2345SOL    HW218672   2.520   1.731   8.630  0.3491 -1.3575  0.3910
 2346SOL     OW18673   0.897   2.795   8.576  0.0437  0.3290  0.1535
 2346SOL    HW118674   0.888   2.849   8.498 -2.3021  0.4106  0.4790
 2346SOL    HW218675   0.980   2.825   8.611  0.3339  0.1215 -0.3613
 2347SOL     OW18676   3.919   4.584   6.571 -0.0523 -0.1125 -0.3977
 2347SOL    HW118677   3.881   4.659   6.616  0.3851 -0.3405  0.3539
 2347SOL    HW218678   3.964   4.537   6.641 -2.2058 -0.0632  1.0150
 2348SOL     OW18679   2.368   0.706   2.254 -0.1356 -0.1802 -0.2588
 2348SOL    HW118680   2.361   0.726   2.348  2.0637 -0.7039 -0.0028
 2348SOL    HW218681   2.408   0.787   2.221 -0.7597  0.2863  0.1022
 2349SOL     OW18682   2.515   4.664   3.087  0.1412 -0.1242 -0.0212
 2349SOL    HW118683   2.585   4.600   3.099  0.4547 -0.1572 -2.0588
 2349SOL    HW218684   2.459   4.628   3.018 -0.1388  1.5501 -0.6500
 2350SOL     OW18685   3.210   0.601   2.832 -0.1365  0.5770  0.4127
 2350SOL    HW118686   3.300   0.578   2.856 -0.0751 -0.9808 -1.2775
 2350SOL    HW218687   3.185   0.532   2.770  0.3026 -1.4971  2.5619
 2351SOL     OW18688   2.755   3.975   6.517  0.1146 -0.5203  0.1228
 2351SOL    HW118689   2.834   3.928   6.542 -0.2904 -1.3338 -0.1167
 2351SOL    HW218690   2.748   4.058   6.564  1.7450 -0.9579  1.1085
 2352SOL     OW18691   3.133   2.298   9.225  0.0167 -0.0899 -0.1599
 2352SOL    HW118692   3.105   2.229   9.166  1.6544 -1.4793  0.7006
 2352SOL    HW218693   3.148   2.244   9.302  1.3050 -0.7346 -0.8783
 2353SOL     OW18694   1.744   1.713  12.600  0.5327 -0.0005  0.0319
 2353SOL    HW118695   1.693   1.725  12.681 -0.9033 -0.3134 -0.8170
 2353SOL    HW218696   1.675   1.726  12.534 -0.0196  0.5509  0.7105
 2354SOL     OW18697   0.128   4.150   0.223  0.8670 -0.3532 -0.0078
 2354SOL    HW118698   0.196   4.217   0.218  0.3602  0.2007  0.4051
 2354SOL    HW218699   0.104   4.157   0.315  0.8538 -1.3855  0.0619
 2355SOL     OW18700   3.321   1.111   8.197  0.3153 -0.0090  0.0126
 2355SOL    HW118701   3.399   1.070   8.161  0.6611  0.3672  0.3335
 2355SOL    HW218702   3.285   1.033   8.240  1.3274 -0.1779  0.5441
 2356SOL     OW18703   1.698   4.645  10.703  0.0655  0.3892  0.2300
 2356SOL    HW118704   1.711   4.566  10.651 -0.0887 -1.4724  3.0025
 2356SOL    HW218705   1.785   4.649  10.741  0.5871  0.6652 -1.0097
 2357SOL     OW18706   2.447   4.454  15.031 -0.3624  0.6533  0.5329
 2357SOL    HW118707   2.365   4.473  15.076  0.7871  3.4619  1.5262
 2357SOL    HW218708   2.459   4.534  14.980  0.9549  0.1747  0.0977
 2358SOL     OW18709   1.828   3.210   7.157  0.4212 -0.0794  0.5558
 2358SOL    HW118710   1.747   3.225   7.108  0.2493 -2.9321 -0.0616
 2358SOL    HW218711   1.852   3.124   7.123 -0.6975 -0.6811  1.2874
 2359SOL     OW18712   1.033   0.067   7.573 -0.7886 -0.1779 -0.1413
 2359SOL    HW118713   0.998   4.717   7.551 -2.7035  0.5005  0.2339
 2359SOL    HW218714   1.064   0.087   7.484 -2.1430 -0.7095 -0.7301
 2360SOL     OW18715   2.722   3.497  10.706 -0.5768 -0.1754 -0.2583
 2360SOL    HW118716   2.795   3.484  10.645  0.5174 -1.5354  1.3095
 2360SOL    HW218717   2.659   3.539  10.648  1.6880  2.5027 -0.7736
 2361SOL     OW18718   2.196   1.073   3.190 -0.0513 -0.4820 -0.5461
 2361SOL    HW118719   2.128   1.030   3.242  0.5830 -2.0351 -1.0062
 2361SOL    HW218720   2.150   1.146   3.149  1.0930  0.6059  0.1030
 2362SOL     OW18721   3.773   3.881   6.299 -0.7880 -0.2932 -0.2900
 2362SOL    HW118722   3.866   3.889   6.320 -0.9189  1.0517 -0.2484
 2362SOL    HW218723   3.747   3.963   6.256  0.8702 -0.1343 -0.9649
 2363SOL     OW18724   1.694   4.573   0.853 -0.1268  0.0082 -0.0049
 2363SOL    HW118725   1.683   4.480   0.870 -1.0667 -0.1229 -1.2840
 2363SOL    HW218726   1.630   4.590   0.783  1.0232  0.9322 -0.8316
 2364SOL     OW18727   1.881   3.456   2.538 -0.1362  0.1770 -0.4016
 2364SOL    HW118728   1.929   3.427   2.615  0.3944 -2.0811 -1.5815
 2364SOL    HW218729   1.797   3.419   2.567  0.2995 -0.6005 -0.1209
 2365SOL     OW18730   4.058   4.237  11.425 -0.3507 -0.6387 -0.6407
 2365SOL    HW118731   4.107   4.159  11.452 -1.5834 -0.3818  2.4289
 2365SOL    HW218732   3.978   4.199  11.389  1.5676 -3.5202 -1.8379
 2366SOL     OW18733   1.555   4.685   7.706 -0.3449  0.0477 -0.1817
 2366SOL    HW118734   1.613   4.611   7.727  2.0829  1.4602 -1.8391
 2366SOL    HW218735   1.482   4.624   7.694  0.2666 -0.9225  1.0381
 2367SOL     OW18736   0.132   1.853   7.976 -0.2121 -0.1854  0.2572
 2367SOL    HW118737   0.178   1.805   7.907 -0.0003  1.2994 -0.6308
 2367SOL    HW218738   0.064   1.789   7.998  0.2243 -0.8453 -0.3104
 2368SOL     OW18739   4.154   1.445   6.283  0.4004  0.5190  0.0928
 2368SOL    HW118740   4.194   1.470   6.200 -3.2019  0.3106 -1.7044
 2368SOL    HW218741   4.079   1.387   6.267  0.2045  0.5819  0.7608
 2369SOL     OW18742   3.537   1.333   7.454 -0.4114 -0.2374 -0.1604
 2369SOL    HW118743   3.482   1.266   7.494  0.2196  0.6918  2.2541
 2369SOL    HW218744   3.608   1.346   7.516 -0.8951 -0.2392  0.3963
 2370SOL     OW18745   3.736   3.871  12.752 -0.2178  0.2703  0.3793
 2370SOL    HW118746   3.720   3.885  12.658 -0.5988 -1.0546  0.2454
 2370SOL    HW218747   3.649   3.901  12.780 -0.1593  0.3269  0.4973
 2371SOL     OW18748   0.269   3.151   8.503  0.1803 -0.2053  0.4914
 2371SOL    HW118749   0.181   3.183   8.482  1.0760  0.3205 -2.4765
 2371SOL    HW218750   0.326   3.206   8.448 -2.0795  0.9153 -0.7498
 2372SOL     OW18751   3.950   2.090   8.650 -0.2500 -0.4337 -0.0034
 2372SOL    HW118752   3.963   1.995   8.645 -1.2585 -0.5374 -0.6955
 2372SOL    HW218753   3.940   2.100   8.745 -1.2459  2.3695 -0.3965
 2373SOL     OW18754   0.989   4.014   1.735  0.6661 -0.2713  0.5880
 2373SOL    HW118755   0.912   3.975   1.693  0.0003  2.6287 -0.8836
 2373SOL    HW218756   1.026   4.068   1.666  0.5437 -1.7226 -0.6174
 2374SOL     OW18757   3.104   2.832   0.055 -0.2335 -0.2486  0.0448
 2374SOL    HW118758   3.135   2.753   0.098  0.0670  0.7039  1.5816
 2374SOL    HW218759   3.037   2.801  17.740 -2.2090  1.6286  1.2951
 2375SOL     OW18760   1.213   1.980   8.550  0.2860  0.0319 -0.5135
 2375SOL    HW118761   1.307   1.995   8.553 -0.0774  1.4723  3.3152
 2375SOL    HW218762   1.180   2.014   8.633  2.0197 -0.8314  0.5153
 2376SOL     OW18763   2.864   3.920   3.929 -0.9364 -0.4425 -0.4188
 2376SOL    HW118764   2.927   3.971   3.878 -1.6261  0.3392 -0.4945
 2376SOL    HW218765   2.793   3.984   3.940 -1.1005 -0.7787  0.4138
 2377SOL     OW18766   3.474   2.717  15.205  0.4538  0.0558  0.5059
 2377SOL    HW118767   3.378   2.708  15.201  0.4663  0.5025 -1.0146
 2377SOL    HW218768   3.491   2.775  15.279 -0.5910 -2.7765  2.9601
 2378SOL     OW18769   2.093   2.002   2.894  0.2111 -0.6125  0.2315
 2378SOL    HW118770   2.025   2.000   2.826 -1.4360 -0.0680  1.8846
 2378SOL    HW218771   2.137   1.920   2.873  0.6231 -0.3845  0.2155
 2379SOL     OW18772   1.762   1.474   2.221  0.2315 -0.0709  0.0533
 2379SOL    HW118773   1.783   1.385   2.247  0.7460  0.0635  0.0923
 2379SOL    HW218774   1.666   1.471   2.229  0.2646 -0.8887  0.1387
 2380SOL     OW18775   0.836   1.794   7.750  0.2630  0.0221 -0.2093
 2380SOL    HW118776   0.787   1.872   7.725 -2.4107 -2.0905 -1.5931
 2380SOL    HW218777   0.810   1.734   7.679 -1.6077  1.5452 -0.7949
 2381SOL     OW18778   3.633   0.244  15.586 -0.1239  0.9232  0.3599
 2381SOL    HW118779   3.541   0.261  15.607 -0.7254 -0.7294 -0.9253
 2381SOL    HW218780   3.679   0.247  15.670 -1.2459 -0.7414  1.0320
 2382SOL     OW18781   0.383   0.325  14.754 -0.0710  0.3977  0.1009
 2382SOL    HW118782   0.292   0.336  14.728 -0.0455 -1.3820 -0.7504
 2382SOL    HW218783   0.411   0.415  14.739  0.0238 -0.1076 -2.7168
 2383SOL     OW18784   3.119   2.073   6.321  0.2412  0.0608  0.4733
 2383SOL    HW118785   3.069   2.061   6.240 -0.8429 -0.4980  1.2273
 2383SOL    HW218786   3.160   1.987   6.327 -1.6846 -0.7618  1.7644
 2384SOL     OW18787   2.168   1.336   5.278  0.3425 -0.0754  0.3524
 2384SOL    HW118788   2.251   1.296   5.251  0.5828  0.2992  0.5268
 2384SOL    HW218789   2.170   1.335   5.374 -0.3611 -3.2322  0.3246
 2385SOL     OW18790   4.281   0.696   0.292 -0.0101  0.1453 -0.2579
 2385SOL    HW118791   4.298   0.696   0.198 -2.8720  1.5493 -0.7759
 2385SOL    HW218792   4.301   0.786   0.317  1.7079 -0.2649 -0.1502
 2386SOL     OW18793   2.994   1.755   5.151  0.3257  0.4386  0.1085
 2386SOL    HW118794   2.937   1.780   5.079  0.0314  0.0712  0.2123
 2386SOL    HW218795   2.934   1.761   5.226  0.5776 -1.1587  0.4574
 2387SOL     OW18796   2.174   3.244  15.468 -0.0604 -0.4997 -0.5790
 2387SOL    HW118797   2.210   3.320  15.513 -1.2754 -0.8189  0.9392
 2387SOL    HW218798   2.208   3.265  15.381 -1.1827 -0.3690 -0.9922
 2388SOL     OW18799   0.424   3.208  10.547 -0.4437  0.1405 -0.0778
 2388SOL    HW118800   0.397   3.143  10.612  2.6338  0.4124  1.4814
 2388SOL    HW218801   0.406   3.167  10.463 -0.5744  0.4482 -0.1999
 2389SOL     OW18802   0.276   1.560   8.188  0.4740 -0.2899 -0.2580
 2389SOL    HW118803   0.214   1.531   8.121  0.5279 -1.3379  0.1429
 2389SOL    HW218804   0.230   1.539   8.269 -1.2447  2.3971 -0.5441
 2390SOL     OW18805   2.666   4.306   4.591  0.0012 -0.9492  0.6014
 2390SOL    HW118806   2.613   4.241   4.546 -1.0727  1.5923 -1.8170
 2390SOL    HW218807   2.754   4.269   4.587  0.4345  0.2739 -1.4111
 2391SOL     OW18808   2.790   1.829  13.552 -0.1040  1.0087 -0.1369
 2391SOL    HW118809   2.796   1.913  13.598 -0.7236 -0.0440  1.8889
 2391SOL    HW218810   2.737   1.779  13.615 -1.1539  2.5870  0.2429
 2392SOL     OW18811   3.328   2.501   1.258 -0.5192 -0.0130  0.0242
 2392SOL    HW118812   3.353   2.507   1.166  0.2636 -0.2392  0.2261
 2392SOL    HW218813   3.305   2.408   1.267 -0.6461 -0.0897 -1.0359
 2393SOL     OW18814   2.207   4.605   5.774 -0.6704  0.2287 -0.3661
 2393SOL    HW118815   2.280   4.571   5.827 -0.0555 -0.6106 -1.7387
 2393SOL    HW218816   2.196   4.533   5.711 -0.0158 -0.1599 -0.0419
 2394SOL     OW18817   1.083   1.864   3.375  0.4334  0.5867 -0.1597
 2394SOL    HW118818   1.147   1.804   3.337  0.2851  0.3497 -0.0400
 2394SOL    HW218819   1.110   1.841   3.464  0.5972 -0.1054 -0.3851
 2395SOL     OW18820   0.606   0.570   7.386  0.3086 -0.1801  0.2559
 2395SOL    HW118821   0.619   0.628   7.461 -0.4703  1.4792 -0.8934
 2395SOL    HW218822   0.518   0.600   7.365  0.5619 -0.0758 -0.6756
 2396SOL     OW18823   3.667   3.463   3.089  0.5432 -0.2664 -0.6576
 2396SOL    HW118824   3.592   3.417   3.052 -0.1003 -0.9288  1.5174
 2396SOL    HW218825   3.718   3.389   3.121  1.3989  0.3784 -0.5279
 2397SOL     OW18826   4.238   3.258  10.014 -0.0934  0.3269  0.4596
 2397SOL    HW118827   4.289   3.314   9.955 -0.1186 -0.4853 -0.3323
 2397SOL    HW218828   4.150   3.286   9.991  0.0484 -0.9416 -1.7024
 2398SOL     OW18829   0.232   1.615   4.384  0.3817  0.4734  0.2081
 2398SOL    HW118830   0.266   1.696   4.420 -1.6190  1.2497  0.3495
 2398SOL    HW218831   0.301   1.555   4.412 -0.0168  0.5251  1.2836
 2399SOL     OW18832   1.294   2.256   1.336 -0.1098  0.0830 -0.4367
 2399SOL    HW118833   1.224   2.314   1.307 -0.8572 -0.2107  0.7931
 2399SOL    HW218834   1.368   2.316   1.342 -1.1920  1.4419 -0.7939
 2400SOL     OW18835   1.393   0.106  15.531 -0.0398 -0.0911  0.2163
 2400SOL    HW118836   1.390   0.182  15.590  0.3200 -0.5078  0.7658
 2400SOL    HW218837   1.347   0.038  15.580 -0.1988  0.1358  0.3833
 2401SOL     OW18838   1.609   2.285   1.808  0.5373  0.0259  0.0663
 2401SOL    HW118839   1.694   2.312   1.840  0.7200  0.0305 -0.4153
 2401SOL    HW218840   1.610   2.189   1.804 -0.1846 -0.0689  2.0158
 2402SOL     OW18841   3.019   0.175  15.762 -0.3907 -0.3839 -0.3299
 2402SOL    HW118842   3.009   0.081  15.748  0.9758 -0.5531 -0.1266
 2402SOL    HW218843   2.927   0.201  15.768 -1.0381 -2.5886 -1.0289
 2403SOL     OW18844   0.890   0.489   2.089 -0.0537 -0.0096 -0.4844
 2403SOL    HW118845   0.931   0.406   2.065 -0.6838 -0.4766  0.0575
 2403SOL    HW218846   0.948   0.547   2.039 -0.5483  0.7582 -0.1686
 2404SOL     OW18847   2.168   0.126   2.393  0.4564 -0.7273  0.1577
 2404SOL    HW118848   2.098   0.117   2.457 -1.5603  0.6339 -1.8833
 2404SOL    HW218849   2.215   0.202   2.427  0.7609 -0.4840 -0.8020
 2405SOL     OW18850   2.179   4.335   5.640  0.5729 -0.4988 -0.1052
 2405SOL    HW118851   2.119   4.332   5.715  2.2511 -0.7695  1.2060
 2405SOL    HW218852   2.233   4.257   5.656 -0.1167 -0.7009  1.2650
 2406SOL     OW18853   1.010   1.667   2.646  0.1489  0.1388 -0.5877
 2406SOL    HW118854   1.045   1.694   2.730  0.8444 -2.4473 -0.0475
 2406SOL    HW218855   0.925   1.630   2.667 -0.4010  1.5056 -0.4346
 2407SOL     OW18856   0.710   0.001   9.091 -0.4626  0.0408 -0.0041
 2407SOL    HW118857   0.712   4.658   9.038  0.3234 -1.2904  2.0398
 2407SOL    HW218858   0.679   0.069   9.030 -2.5211  0.4180  1.4462
 2408SOL     OW18859   3.827   2.264   5.376 -0.1487  0.7748 -0.0027
 2408SOL    HW118860   3.764   2.222   5.318  1.2791 -0.6461 -0.5173
 2408SOL    HW218861   3.773   2.323   5.429 -0.5513  0.8857 -0.5372
 2409SOL     OW18862   3.613   0.147  15.080 -0.1373  0.2578 -0.3662
 2409SOL    HW118863   3.530   0.165  15.126 -0.6276 -2.7763 -0.0241
 2409SOL    HW218864   3.667   0.176  15.153  0.5057  1.1679 -1.2133
 2410SOL     OW18865   3.711   0.213  15.331  0.3126  0.1620  0.0456
 2410SOL    HW118866   3.792   0.262  15.342  1.0480 -0.9796 -0.2704
 2410SOL    HW218867   3.686   0.206  15.423  0.4158  1.7669  0.1942
 2411SOL     OW18868   2.626   0.253  15.087 -0.3284 -0.0544  0.2148
 2411SOL    HW118869   2.565   0.184  15.114 -0.8842  1.4127  2.6956
 2411SOL    HW218870   2.591   0.331  15.131  1.4147 -1.3381  3.8753
 2412SOL     OW18871   0.572   2.930   2.669  0.9642 -0.3261  0.1683
 2412SOL    HW118872   0.497   2.886   2.629 -0.0367  1.2579  0.3025
 2412SOL    HW218873   0.633   2.920   2.596  1.7146  2.8617  0.3299
 2413SOL     OW18874   4.705   0.566   5.226  0.0964 -0.2746 -0.0129
 2413SOL    HW118875   4.723   0.576   5.132 -1.7849  0.7615 -0.2454
 2413SOL    HW218876   0.048   0.514   5.241 -0.1101 -0.8698 -0.9459
 2414SOL     OW18877   2.314   2.980   4.454  0.0926 -0.1678  0.4785
 2414SOL    HW118878   2.278   2.963   4.541 -2.3800 -0.2115 -0.5650
 2414SOL    HW218879   2.282   3.065   4.424 -2.2170 -0.6634  1.5617
 2415SOL     OW18880   3.813   0.188  12.825 -0.1521  0.7978  0.2249
 2415SOL    HW118881   3.888   0.160  12.773 -0.3794  0.0975  0.2765
 2415SOL    HW218882   3.865   0.198  12.905 -0.4847  1.5911  0.3412
 2416SOL     OW18883   2.016   2.394  14.157 -0.0662 -0.2101  0.0820
 2416SOL    HW118884   1.925   2.411  14.180  0.7344  2.5138  1.2613
 2416SOL    HW218885   2.045   2.481  14.188  0.7965 -0.5027  0.0979
 2417SOL     OW18886   1.850   2.395  17.482  0.7358 -0.1388  0.0240
 2417SOL    HW118887   1.904   2.375  17.406  1.3266 -2.8299  1.1434
 2417SOL    HW218888   1.852   2.316  17.536  0.4052  0.3378  0.7262
 2418SOL     OW18889   3.683   1.859   8.546 -0.0972 -0.3892 -0.4389
 2418SOL    HW118890   3.649   1.936   8.591 -1.4395 -0.5134 -1.2279
 2418SOL    HW218891   3.683   1.798   8.619  2.7518 -0.5014 -0.5059
 2419SOL     OW18892   4.682   0.048  11.695 -0.0649 -0.5451  0.1778
 2419SOL    HW118893   4.691   0.076  11.604  0.7726  0.2725  0.5157
 2419SOL    HW218894   4.598   0.092  11.710 -1.0842 -2.5600  0.4669
 2420SOL     OW18895   1.294   0.931   9.736 -0.3806 -0.0553  0.0930
 2420SOL    HW118896   1.357   0.859   9.734 -0.7668 -0.4301  1.8495
 2420SOL    HW218897   1.306   0.963   9.647  0.0315  0.8671  0.4904
 2421SOL     OW18898   0.470   2.143   1.069 -0.1664  0.0629 -0.2747
 2421SOL    HW118899   0.440   2.233   1.080  1.1490  0.2928  1.3534
 2421SOL    HW218900   0.541   2.155   1.006 -0.2082 -1.2817 -0.5790
 2422SOL     OW18901   4.429   3.712  16.715  0.6795 -0.0619 -0.0763
 2422SOL    HW118902   4.504   3.749  16.763 -0.0087 -0.7409  1.5384
 2422SOL    HW218903   4.463   3.624  16.699 -3.0174 -1.6732  0.9192
 2423SOL     OW18904   0.015   3.492   5.960 -0.0606  0.0884  0.4139
 2423SOL    HW118905   4.720   3.472   5.872  0.2089 -0.4724  0.4452
 2423SOL    HW218906   0.019   3.405   5.999  0.0384 -0.2689 -0.4043
 2424SOL     OW18907   2.560   3.611   2.507 -0.1857  0.3128  0.5240
 2424SOL    HW118908   2.476   3.618   2.461  0.8000  4.0500 -0.6709
 2424SOL    HW218909   2.524   3.565   2.584  0.0479 -0.3192  0.2529
 2425SOL     OW18910   4.000   1.797   7.395  0.0055  0.4822 -0.9344
 2425SOL    HW118911   4.016   1.813   7.488  2.5209 -0.8547 -1.1385
 2425SOL    HW218912   4.075   1.829   7.346  0.8700 -1.0798 -0.6338
 2426SOL     OW18913   2.539   3.207  17.394  0.2439  0.0287 -0.1122
 2426SOL    HW118914   2.560   3.186  17.303  2.0442  1.3186 -0.0022
 2426SOL    HW218915   2.510   3.298  17.400  2.0240  0.6493 -0.8538
 2427SOL     OW18916   0.545   2.201   9.788  0.4820 -0.0878  0.3619
 2427SOL    HW118917   0.640   2.201   9.802 -0.1436  2.3597  4.6385
 2427SOL    HW218918   0.506   2.205   9.875 -1.2072 -0.1951 -0.3951
 2428SOL     OW18919   2.072   4.311   5.343  0.3140 -0.5628  0.1741
 2428SOL    HW118920   2.058   4.402   5.316 -0.5995 -0.8041 -0.1490
 2428SOL    HW218921   2.048   4.333   5.433  0.2554  1.4469 -0.3121
 2429SOL     OW18922   4.710   1.802  11.953 -0.4361 -0.1920 -0.0034
 2429SOL    HW118923   4.664   1.793  12.036 -2.7279  0.9203 -1.1475
 2429SOL    HW218924   0.049   1.743  11.962 -0.4656  0.0992  2.0053
 2430SOL     OW18925   3.163   0.074   0.831  0.2464  0.2344 -0.5935
 2430SOL    HW118926   3.206   0.028   0.903 -0.3570 -2.0016 -1.6663
 2430SOL    HW218927   3.089   0.121   0.869  1.7689  0.9851  1.4831
 2431SOL     OW18928   3.015   0.042  11.410  0.2784  0.0681  0.3252
 2431SOL    HW118929   3.078   0.111  11.390  0.4177 -0.3558 -0.6736
 2431SOL    HW218930   2.952   0.054  11.339  0.1268 -1.6856  0.1681
 2432SOL     OW18931   2.793   0.035   3.979  0.1367 -0.2453  0.2142
 2432SOL    HW118932   2.761   0.082   3.902 -2.4715 -0.4139  1.1961
 2432SOL    HW218933   2.719   4.710   3.981  1.3172 -1.7353 -1.9049
 2433SOL     OW18934   0.197   2.802   8.101 -0.0155 -0.3924 -0.1830
 2433SOL    HW118935   0.258   2.870   8.130 -1.6126 -0.5414  3.5259
 2433SOL    HW218936   0.117   2.852   8.121  0.4674  0.2154  0.2531
 2434SOL     OW18937   3.001   3.841  11.883  0.2559  0.1971  0.2608
 2434SOL    HW118938   3.004   3.936  11.891  3.7744  0.1005  0.3935
 2434SOL    HW218939   3.016   3.816  11.975 -0.6439 -1.3075 -0.0057
 2435SOL     OW18940   2.527   1.997   0.737 -0.3014 -0.4826 -0.2069
 2435SOL    HW118941   2.615   2.033   0.732  0.1827 -1.5082  1.0043
 2435SOL    HW218942   2.489   2.055   0.803 -1.7508 -0.7925 -0.7595
 2436SOL     OW18943   4.011   4.645   1.084  0.5039 -0.1886  0.0949
 2436SOL    HW118944   3.952   4.690   1.025 -0.7129 -1.0305  0.6809
 2436SOL    HW218945   4.017   4.557   1.048 -2.1992  0.3331 -1.5465
 2437SOL     OW18946   1.016   4.435  16.186 -0.0854 -0.4295 -0.3228
 2437SOL    HW118947   0.923   4.439  16.161 -0.0708 -1.0599 -0.4600
 2437SOL    HW218948   1.059   4.376  16.124 -0.0714 -0.9493  0.1908
 2438SOL     OW18949   0.535   3.604   8.723  0.0067  0.6078  0.0717
 2438SOL    HW118950   0.611   3.554   8.694  0.7421  0.6621  1.9640
 2438SOL    HW218951   0.464   3.540   8.720  0.3801  0.2324 -1.1977
 2439SOL     OW18952   2.121   4.015   2.982 -0.0406  0.0853 -0.4336
 2439SOL    HW118953   2.076   3.945   2.935  1.6302 -1.3076  0.0291
 2439SOL    HW218954   2.123   3.988   3.074  0.5973 -1.3280 -0.8578
 2440SOL     OW18955   0.275   1.215   3.717 -0.0904  0.4789 -0.4467
 2440SOL    HW118956   0.357   1.215   3.766 -0.0021  0.3711 -0.5981
 2440SOL    HW218957   0.306   1.155   3.649  0.4049 -2.2272  2.1816
 2441SOL     OW18958   3.239   3.809   7.404 -0.3333 -0.2823 -0.0442
 2441SOL    HW118959   3.269   3.858   7.481 -1.2857 -0.8621  0.6928
 2441SOL    HW218960   3.316   3.755   7.387 -0.2644  0.2335 -1.3321
 2442SOL     OW18961   3.264   1.150   8.482  0.1917 -0.5784 -0.8470
 2442SOL    HW118962   3.305   1.084   8.426 -1.7156 -2.1539 -0.3603
 2442SOL    HW218963   3.295   1.232   8.443 -1.0470 -0.1002 -0.8084
 2443SOL     OW18964   2.499   0.530   5.305 -0.0594 -0.3374 -0.0139
 2443SOL    HW118965   2.474   0.439   5.322  0.8644 -0.7921 -1.0771
 2443SOL    HW218966   2.594   0.520   5.297 -0.0272 -0.5100  0.6123
 2444SOL     OW18967   0.105   3.419   4.915 -0.0005  0.1851  0.5296
 2444SOL    HW118968   0.150   3.427   4.999 -2.2296  0.9705  1.6474
 2444SOL    HW218969   0.079   3.509   4.895  0.8608  1.2907  4.3660
 2445SOL     OW18970   1.356   1.983   7.975 -0.0356  0.4751 -0.5425
 2445SOL    HW118971   1.414   2.058   7.990  0.0262  0.5149 -0.9968
 2445SOL    HW218972   1.297   1.988   8.050  0.7578 -0.3813  0.1498
 2446SOL     OW18973   4.620   2.444  10.293  0.4936  0.3107  0.1853
 2446SOL    HW118974   4.613   2.439  10.388  0.4138  0.1263  0.1695
 2446SOL    HW218975   4.578   2.365  10.257  1.7426 -0.2396 -0.1026
 2447SOL     OW18976   2.187   2.989   4.687  0.3804  0.4742 -0.2925
 2447SOL    HW118977   2.237   3.015   4.764  1.1516  1.5418 -1.1462
 2447SOL    HW218978   2.101   3.027   4.707 -0.8760 -1.2720 -2.4077
 2448SOL     OW18979   1.414   1.878   4.304  0.3340  0.4567  0.0616
 2448SOL    HW118980   1.347   1.944   4.285 -1.0259 -0.5646  1.2190
 2448SOL    HW218981   1.369   1.810   4.355 -0.1254  2.0256  1.7644
 2449SOL     OW18982   2.237   3.406   3.724 -0.8710  0.2186 -0.9249
 2449SOL    HW118983   2.289   3.329   3.699  0.5913  0.7868  0.3747
 2449SOL    HW218984   2.286   3.469   3.672 -1.2392  1.4615  0.2426
 2450SOL     OW18985   3.374   3.482   5.573 -0.3496 -0.0538 -0.3776
 2450SOL    HW118986   3.372   3.403   5.520  0.4277 -2.2259  2.8332
 2450SOL    HW218987   3.398   3.538   5.499  0.0478 -0.0172 -0.2194
 2451SOL     OW18988   3.330   3.978  16.146  0.6346 -0.7602  0.3274
 2451SOL    HW118989   3.366   4.018  16.225  0.2146 -0.0094  0.1359
 2451SOL    HW218990   3.306   4.053  16.093  0.7016  0.0711  1.4736
 2452SOL     OW18991   0.162   1.208   4.692  0.3695 -0.6011 -1.1918
 2452SOL    HW118992   0.199   1.121   4.676  0.2535 -0.9880  0.6116
 2452SOL    HW218993   0.178   1.253   4.609 -0.1103  1.1810 -0.3170
 2453SOL     OW18994   0.152   4.535  17.005  0.0828 -0.0986 -0.6140
 2453SOL    HW118995   0.244   4.557  16.991 -0.2278  1.1684 -0.6365
 2453SOL    HW218996   0.175   4.470  17.072  0.5070  0.3985 -0.2821
 2454SOL     OW18997   0.898   0.836   3.320  0.2366 -0.0645  0.3844
 2454SOL    HW118998   0.895   0.932   3.318 -1.4240 -0.1329 -0.9600
 2454SOL    HW218999   0.952   0.808   3.246 -1.4377 -0.8551 -0.5446
 2455SOL     OW19000   2.846   2.614   6.151  0.7338  0.2933 -0.2893
 2455SOL    HW119001   2.863   2.686   6.212 -0.8031 -2.2001  2.9996
 2455SOL    HW219002   2.923   2.558   6.156  1.4603  0.8940 -4.4820
 2456SOL     OW19003   2.167   4.595  15.887 -0.4335 -0.3881 -0.0240
 2456SOL    HW119004   2.104   4.523  15.893  0.4088 -0.9372  2.2987
 2456SOL    HW219005   2.242   4.546  15.921 -0.2103 -0.6580 -0.8887
 2457SOL     OW19006   3.885   3.765   2.397 -0.1400 -0.2834 -0.2172
 2457SOL    HW119007   3.958   3.713   2.431  0.5981 -0.5443 -2.2065
 2457SOL    HW219008   3.852   3.809   2.475  0.0514 -1.2056  0.3831
 2458SOL     OW19009   0.073   0.808  15.715 -0.5073 -0.9852  0.5716
 2458SOL    HW119010   0.037   0.854  15.791  0.7439 -0.5386  0.8989
 2458SOL    HW219011   0.014   0.734  15.700 -2.0236  0.1320  1.1231
 2459SOL     OW19012   0.428   3.130  12.986 -0.1115  0.0995 -0.4707
 2459SOL    HW119013   0.444   3.041  13.018 -1.7390 -0.6883 -1.8195
 2459SOL    HW219014   0.333   3.120  12.979 -0.1613  1.1373 -1.2859
 2460SOL     OW19015   3.256   3.885  17.314 -0.3488 -0.0370  0.3867
 2460SOL    HW119016   3.330   3.946  17.317 -0.5490  0.1428  1.4993
 2460SOL    HW219017   3.211   3.925  17.240 -0.6030  0.4464  0.8041
 2461SOL     OW19018   0.744   1.649   8.494 -0.1197 -0.1505 -0.3124
 2461SOL    HW119019   0.814   1.714   8.488  1.1620 -1.4615  0.4110
 2461SOL    HW219020   0.791   1.570   8.467  0.3071 -0.3011  0.8827
 2462SOL     OW19021   2.616   0.357   7.895 -0.8022 -0.2244 -0.2215
 2462SOL    HW119022   2.655   0.288   7.841  0.2256  1.4230 -1.5702
 2462SOL    HW219023   2.529   0.322   7.916 -0.2872 -0.7986  0.9300
 2463SOL     OW19024   3.693   0.656  12.292 -0.0687 -0.2323  0.7393
 2463SOL    HW119025   3.636   0.579  12.288  2.6193 -2.2099 -0.3498
 2463SOL    HW219026   3.766   0.620  12.343 -1.0325 -1.2751  1.3944
 2464SOL     OW19027   3.807   0.701  12.022 -0.4622 -0.1524 -0.4600
 2464SOL    HW119028   3.812   0.624  12.079  1.0718 -0.1545 -0.5823
 2464SOL    HW219029   3.872   0.691  11.952 -1.6107 -0.6157 -1.4573
 2465SOL     OW19030   4.167   4.704   6.855 -0.2805 -0.1414 -0.4838
 2465SOL    HW119031   4.072   4.712   6.865 -0.1905  1.5155 -0.8936
 2465SOL    HW219032   4.203   4.687   6.942  0.1944  0.1538 -0.6269
 2466SOL     OW19033   2.263   4.294   7.843  0.3245  0.1701  0.0347
 2466SOL    HW119034   2.243   4.200   7.843  0.8263  0.0641 -2.8122
 2466SOL    HW219035   2.201   4.324   7.776 -0.5304 -0.7102  0.4284
 2467SOL     OW19036   3.250   3.562  15.917  0.1801 -0.3383 -0.3317
 2467SOL    HW119037   3.280   3.617  15.845  0.0198  1.4119  0.9475
 2467SOL    HW219038   3.253   3.630  15.985  1.0810 -1.8366  1.1174
 2468SOL     OW19039   1.029   2.199   3.256  0.6760  0.4043 -0.2602
 2468SOL    HW119040   1.096   2.184   3.189  1.7642 -0.3817  0.9772
 2468SOL    HW219041   0.962   2.140   3.221 -0.9330  1.6346  0.8222
 2469SOL     OW19042   0.470   4.119   0.604  0.4026  0.4273  0.4322
 2469SOL    HW119043   0.440   4.051   0.545  2.2992 -0.9399  1.0583
 2469SOL    HW219044   0.486   4.073   0.686  1.7336  1.1863  0.6052
 2470SOL     OW19045   0.212   2.134  14.659  0.0622  0.5232 -0.7088
 2470SOL    HW119046   0.158   2.080  14.601  0.2155  0.0273 -0.3859
 2470SOL    HW219047   0.149   2.185  14.710  1.7256  0.9560  0.8938
 2471SOL     OW19048   4.677   2.431  16.185 -0.9170 -0.4043  0.1352
 2471SOL    HW119049   4.734   2.499  16.148 -1.6553  0.8203  1.2768
 2471SOL    HW219050   4.662   2.466  16.273 -0.3028  0.6411 -0.1686
 2472SOL     OW19051   1.440   2.256   8.746 -0.2848  0.1110  0.1060
 2472SOL    HW119052   1.363   2.274   8.691 -0.0738 -1.9077 -0.8601
 2472SOL    HW219053   1.402   2.216   8.824 -0.0727 -0.3519 -0.0276
 2473SOL     OW19054   3.871   0.840   5.923 -0.2215 -0.1736  0.3027
 2473SOL    HW119055   3.806   0.779   5.888 -2.5366  1.1870  2.2568
 2473SOL    HW219056   3.864   0.830   6.018 -1.2569 -1.1413  0.1272
 2474SOL     OW19057   2.330   3.940   5.075 -0.0108 -0.1139  0.9475
 2474SOL    HW119058   2.311   4.000   5.148 -0.3139 -0.2381  0.9695
 2474SOL    HW219059   2.246   3.896   5.065  0.9962 -2.2744  2.0930
 2475SOL     OW19060   2.525   0.238   9.872 -1.0456  0.0975 -0.3712
 2475SOL    HW119061   2.474   0.319   9.873 -0.1406  0.6582  0.3119
 2475SOL    HW219062   2.609   0.264   9.833  0.1762  0.3595  2.4414
 2476SOL     OW19063   0.649   3.890   8.782  0.6808  0.5805 -0.3886
 2476SOL    HW119064   0.742   3.867   8.776  0.5618  0.0729 -0.3044
 2476SOL    HW219065   0.607   3.807   8.805 -1.1516  1.1818 -1.6332
 2477SOL     OW19066   3.837   1.359  12.337 -0.1104 -0.6046 -0.2360
 2477SOL    HW119067   3.812   1.267  12.337  0.6347 -0.8007 -1.2996
 2477SOL    HW219068   3.854   1.382  12.429 -1.1883  1.9690 -0.6720
 2478SOL     OW19069   2.438   0.043  10.051  0.0810 -0.2781  0.6377
 2478SOL    HW119070   2.436   4.730   9.969 -1.1706  1.8692 -0.5954
 2478SOL    HW219071   2.443   0.133  10.019  0.7507  0.2689  2.2639
 2479SOL     OW19072   1.744   1.820  10.847  0.2870 -0.4415  0.4848
 2479SOL    HW119073   1.817   1.790  10.900  1.3968  1.4799  0.0554
 2479SOL    HW219074   1.711   1.902  10.886 -0.2199 -0.6475  0.4911
 2480SOL     OW19075   3.805   3.674   0.090 -0.6326  0.4868  0.1166
 2480SOL    HW119076   3.742   3.602   0.086  0.3671 -0.3312 -1.0638
 2480SOL    HW219077   3.888   3.627   0.081 -0.1295  1.3334  0.2913
 2481SOL     OW19078   2.638   1.764   5.517 -0.3165 -0.6693 -0.2681
 2481SOL    HW119079   2.627   1.732   5.606  0.1586  2.8770  1.0904
 2481SOL    HW219080   2.549   1.764   5.482 -0.5384 -0.7054  0.3122
 2482SOL     OW19081   0.755   1.561   2.631  0.0898  0.0349  0.2696
 2482SOL    HW119082   0.750   1.626   2.562 -2.0088  0.9573  1.2946
 2482SOL    HW219083   0.756   1.483   2.575 -2.1224  1.4502 -1.7112
 2483SOL     OW19084   1.260   3.142   0.738  0.6757  0.4203 -0.1216
 2483SOL    HW119085   1.179   3.193   0.728  0.0550 -0.4199  0.5919
 2483SOL    HW219086   1.294   3.133   0.649  0.3062  2.1061 -0.4329
 2484SOL     OW19087   3.751   0.259  15.844 -0.5076 -0.2977  0.1297
 2484SOL    HW119088   3.671   0.286  15.889  1.6212  3.6276  1.5562
 2484SOL    HW219089   3.815   0.324  15.874 -0.8185  0.6064 -1.1753
 2485SOL     OW19090   4.684   4.560   1.763 -0.6329  0.4094 -0.1092
 2485SOL    HW119091   4.705   4.652   1.749  0.8837  0.0676 -0.0748
 2485SOL    HW219092   4.707   4.564   1.856 -1.7032  0.3596  0.1574
 2486SOL     OW19093   4.276   4.034   0.436  0.7121 -0.4876  0.1650
 2486SOL    HW119094   4.340   4.006   0.371  1.2859  1.5936 -0.1774
 2486SOL    HW219095   4.304   4.123   0.457 -1.9715  0.5134 -0.4523
 2487SOL     OW19096   0.235   4.434   2.529  0.1943 -0.1460 -0.8375
 2487SOL    HW119097   0.273   4.521   2.517 -0.4150 -0.0057 -1.6756
 2487SOL    HW219098   0.313   4.387   2.559  1.0545 -0.7740 -4.1101
 2488SOL     OW19099   2.061   2.407   1.474 -0.0718 -0.0063 -0.2608
 2488SOL    HW119100   1.993   2.396   1.541 -0.9459  0.9032 -0.9997
 2488SOL    HW219101   2.093   2.318   1.459 -3.6978 -0.9066 -2.6953
 2489SOL     OW19102   3.841   4.443   2.566 -0.1917  0.7325  0.6552
 2489SOL    HW119103   3.772   4.454   2.501 -0.6012  0.0403  0.9750
 2489SOL    HW219104   3.861   4.349   2.563  0.3010  0.8922 -0.9996
 2490SOL     OW19105   3.861   0.001  10.456 -0.6348  0.0976 -0.2294
 2490SOL    HW119106   3.823   0.005  10.543  1.3258  1.4164  0.5765
 2490SOL    HW219107   3.798   4.677  10.419 -1.7585  0.1799  1.5920
 2491SOL     OW19108   4.410   1.346   5.956 -0.0078  0.0816  0.0692
 2491SOL    HW119109   4.368   1.296   6.027 -1.7215  1.1476 -0.1813
 2491SOL    HW219110   4.400   1.432   5.996 -1.9624 -0.2246  0.2450
 2492SOL     OW19111   3.156   2.325   4.999  0.1272 -0.2575  0.0497
 2492SOL    HW119112   3.160   2.317   4.904  0.6975 -0.6178  0.1055
 2492SOL    HW219113   3.230   2.275   5.032  0.1022  0.6472  1.4885
 2493SOL     OW19114   4.133   1.933   6.395  0.0231  0.1533  0.5408
 2493SOL    HW119115   4.081   2.010   6.370  0.6300  0.1111 -0.8574
 2493SOL    HW219116   4.222   1.961   6.371  1.0593 -4.1504 -0.5103
 2494SOL     OW19117   0.942   4.364  10.063 -0.2012  0.9673 -0.5473
 2494SOL    HW119118   0.877   4.296  10.083  3.0007 -1.9986 -0.2126
 2494SOL    HW219119   0.906   4.390   9.978  2.4923  0.5965 -1.7723
 2495SOL     OW19120   3.393   1.362   4.443  0.3366 -0.3437 -0.7652
 2495SOL    HW119121   3.408   1.353   4.349  1.3215 -1.5438 -0.4853
 2495SOL    HW219122   3.405   1.456   4.458 -0.4056 -0.1804 -1.1706
 2496SOL     OW19123   3.918   3.610   2.829  0.2653  0.1953 -0.1009
 2496SOL    HW119124   3.831   3.572   2.821  0.5168 -0.6512  1.1708
 2496SOL    HW219125   3.969   3.529   2.838  0.8372  0.7181  1.2658
 2497SOL     OW19126   2.997   1.252  11.482  0.5109 -0.9848 -0.3165
 2497SOL    HW119127   3.056   1.301  11.424  1.7797 -0.9807  0.9908
 2497SOL    HW219128   3.028   1.273  11.570  0.1956 -1.5130 -0.0810
 2498SOL     OW19129   4.009   0.808   8.506 -0.2585  0.4606  0.1069
 2498SOL    HW119130   4.069   0.817   8.432  1.8389 -0.0209  1.7415
 2498SOL    HW219131   4.036   0.867   8.576  2.8522 -1.5319  0.5700
 2499SOL     OW19132   2.499   0.626   4.335  0.8351 -0.3929 -0.1635
 2499SOL    HW119133   2.479   0.540   4.300 -0.8950 -0.4483  0.9875
 2499SOL    HW219134   2.426   0.675   4.298  0.5160  0.0561  1.0741
 2500SOL     OW19135   3.284   1.128   7.048  0.1468 -0.2099  0.1988
 2500SOL    HW119136   3.252   1.196   7.107 -1.6601  1.2757 -2.4945
 2500SOL    HW219137   3.258   1.170   6.966  1.2214 -1.2734 -0.6937
 2501SOL     OW19138   3.146   4.102   4.065 -0.3070 -0.4222 -0.0264
 2501SOL    HW119139   3.199   4.023   4.068  1.4565  0.7551 -0.1274
 2501SOL    HW219140   3.192   4.152   4.132 -0.4746 -0.6584  0.2625
 2502SOL     OW19141   0.991   4.094   5.413 -0.0265 -0.2277 -0.1835
 2502SOL    HW119142   0.987   4.000   5.395 -2.1423 -0.3424  0.8562
 2502SOL    HW219143   1.074   4.118   5.372 -1.0654  0.4632 -1.8865
 2503SOL     OW19144   3.815   0.465  15.635  0.3578  0.1797 -0.0573
 2503SOL    HW119145   3.793   0.372  15.641 -0.4235  0.4481  1.0258
 2503SOL    HW219146   3.911   0.456  15.635  0.5142  1.7195 -1.4905
 2504SOL     OW19147   0.305   2.929   2.950  0.0150 -0.2510  0.0622
 2504SOL    HW119148   0.284   2.986   3.024 -0.1252 -0.8625  0.4878
 2504SOL    HW219149   0.344   2.851   2.989  2.1042  0.3483 -0.7813
 2505SOL     OW19150   2.228   0.713  16.764 -0.4629 -0.5327  0.3075
 2505SOL    HW119151   2.281   0.762  16.827  0.4638 -0.6674 -0.3612
 2505SOL    HW219152   2.160   0.672  16.816 -0.2125 -2.1957 -0.6733
 2506SOL     OW19153   2.357   0.065   6.010  0.2839 -0.4671  0.4847
 2506SOL    HW119154   2.395   0.089   6.095 -2.0561  1.1868  1.0943
 2506SOL    HW219155   2.265   0.075   6.035 -0.5343 -3.1058 -1.5014
 2507SOL     OW19156   1.123   3.490  12.788  0.7604  0.2619  0.0660
 2507SOL    HW119157   1.086   3.404  12.806 -1.9867  1.4235 -0.1386
 2507SOL    HW219158   1.213   3.470  12.815  1.1271 -1.4142 -2.3554
 2508SOL     OW19159   2.744   2.059  11.909 -0.0039 -0.0490  0.5133
 2508SOL    HW119160   2.718   2.100  11.826  1.3888  0.4813  0.3365
 2508SOL    HW219161   2.690   1.981  11.922  0.5833 -0.4863  0.3503
 2509SOL     OW19162   4.445   0.183   8.476 -0.3229  0.3843  0.2114
 2509SOL    HW119163   4.466   0.266   8.518  1.6821 -0.0725  0.0703
 2509SOL    HW219164   4.351   0.199   8.461 -0.8745 -3.0010  0.0044
 2510SOL     OW19165   3.135   2.156  13.195  0.1871 -0.9142  0.0051
 2510SOL    HW119166   3.074   2.225  13.171  1.4044  0.0838 -0.1729
 2510SOL    HW219167   3.073   2.083  13.201 -0.4792 -0.2804  0.8518
 2511SOL     OW19168   3.442   1.657   1.636 -0.1648  0.0900 -0.0157
 2511SOL    HW119169   3.418   1.745   1.606  0.4618  0.1030 -0.4808
 2511SOL    HW219170   3.454   1.605   1.557  0.1025 -0.0036  0.0866
 2512SOL     OW19171   3.190   3.491   6.479  0.4647 -0.2613  0.1520
 2512SOL    HW119172   3.159   3.579   6.456  0.6317 -0.8541 -2.4005
 2512SOL    HW219173   3.108   3.443   6.490 -0.5711  1.3428 -0.5793
 2513SOL     OW19174   2.496   3.918   9.688  0.5129 -0.3278 -0.2545
 2513SOL    HW119175   2.435   3.914   9.762 -0.7705 -2.3019 -1.4179
 2513SOL    HW219176   2.481   3.832   9.647  0.6880 -0.1480 -0.6972
 2514SOL     OW19177   4.275   4.526   9.072 -0.2626  0.2123 -0.3346
 2514SOL    HW119178   4.229   4.476   9.139 -1.0211  1.3091 -0.0361
 2514SOL    HW219179   4.215   4.601   9.069  2.4975  2.3413 -2.2075
 2515SOL     OW19180   3.662   1.808   3.792 -0.1568  0.0334  0.5345
 2515SOL    HW119181   3.614   1.745   3.739  1.9709 -1.8616  0.8581
 2515SOL    HW219182   3.739   1.839   3.744  0.0797  0.0032  0.8918
 2516SOL     OW19183   3.529   4.641   7.475  0.2190 -0.2718  0.0077
 2516SOL    HW119184   3.472   4.567   7.495  1.8273 -1.9693 -1.6932
 2516SOL    HW219185   3.610   4.593   7.458 -0.3642 -1.3520  0.3238
 2517SOL     OW19186   2.815   2.782   5.789  0.6554  0.5429  0.1838
 2517SOL    HW119187   2.808   2.699   5.835 -1.3638 -0.1659 -1.4124
 2517SOL    HW219188   2.885   2.766   5.725 -1.0826 -0.6027 -1.4198
 2518SOL     OW19189   4.032   4.633   7.255 -0.0299  0.7890  0.0539
 2518SOL    HW119190   3.946   4.657   7.221 -0.7425 -1.3410  0.3674
 2518SOL    HW219191   4.089   4.701   7.218 -0.8498  1.3531 -0.1614
 2519SOL     OW19192   1.374   3.033  11.225 -0.1500 -0.5644 -0.3724
 2519SOL    HW119193   1.303   3.070  11.278 -0.2031 -0.0192 -0.8200
 2519SOL    HW219194   1.420   3.116  11.208  0.9350 -1.3742 -1.3325
 2520SOL     OW19195   3.515   0.274   5.806 -0.1076 -0.5623  0.5923
 2520SOL    HW119196   3.553   0.280   5.719 -0.1911 -1.7465  0.4735
 2520SOL    HW219197   3.588   0.308   5.857 -0.4676  0.6492  0.2839
 2521SOL     OW19198   2.110   2.051  15.671 -0.1547 -0.4420 -0.0457
 2521SOL    HW119199   2.046   2.002  15.722 -0.2190  0.8485  1.0857
 2521SOL    HW219200   2.138   1.990  15.603 -2.2177 -0.2143 -1.1058
 2522SOL     OW19201   0.486   1.823   4.750 -0.0671  0.1323  0.0253
 2522SOL    HW119202   0.530   1.764   4.689 -2.7601 -0.2938 -1.5046
 2522SOL    HW219203   0.501   1.764   4.825  0.9099  0.0189 -0.2635
 2523SOL     OW19204   0.531   1.521   4.822 -0.5361 -0.1728  0.3424
 2523SOL    HW119205   0.446   1.478   4.815 -0.2846 -0.8201  1.3503
 2523SOL    HW219206   0.595   1.453   4.846  0.3000  0.5656  0.2074
 2524SOL     OW19207   0.958   1.070   9.514  0.2529  0.2572  0.2645
 2524SOL    HW119208   0.941   0.989   9.465  0.1186  0.7864 -0.5699
 2524SOL    HW219209   0.929   1.039   9.599  2.7239  0.9732  1.3804
 2525SOL     OW19210   3.814   1.538   9.144  0.6492 -0.7523 -0.2809
 2525SOL    HW119211   3.854   1.556   9.059  4.1469 -2.7383  0.9696
 2525SOL    HW219212   3.866   1.594   9.201  0.3940  0.1955 -0.9686
 2526SOL     OW19213   3.967   4.240  16.231  0.1707  0.1342 -0.4260
 2526SOL    HW119214   4.032   4.206  16.292 -0.3371 -0.5621 -0.2755
 2526SOL    HW219215   4.034   4.289  16.184  1.2386 -0.0735  0.8716
 2527SOL     OW19216   0.897   0.102   2.504  1.1790 -0.4561  0.1368
 2527SOL    HW119217   0.929   0.111   2.414  0.3038 -1.9218 -0.3291
 2527SOL    HW219218   0.963   0.151   2.552  2.9339 -2.3233 -0.3617
 2528SOL     OW19219   4.707   0.901   5.780  0.4796 -0.2260  0.2646
 2528SOL    HW119220   4.647   0.965   5.742 -0.0438 -0.3467  0.8916
 2528SOL    HW219221   0.053   0.919   5.735 -1.1227  0.6513 -2.3023
 2529SOL     OW19222   2.837   0.784   4.904  0.5565  0.4213 -0.2643
 2529SOL    HW119223   2.927   0.754   4.914  1.0581  1.7274 -0.9429
 2529SOL    HW219224   2.858   0.872   4.875  0.6082  0.8449  1.0564
 2530SOL     OW19225   2.365   0.757   5.138 -0.0317 -0.4911  0.2545
 2530SOL    HW119226   2.459   0.765   5.125 -0.2354  1.6754  0.0133
 2530SOL    HW219227   2.355   0.672   5.181 -2.3196  0.0145  0.7460
 2531SOL     OW19228   3.050   2.514   3.748 -0.3959  0.4325 -0.1723
 2531SOL    HW119229   3.078   2.546   3.662 -1.5019  1.5506 -0.1255
 2531SOL    HW219230   3.065   2.421   3.734  1.9473  0.6528  0.9991
 2532SOL     OW19231   0.598   3.237   4.070  0.0049 -0.2322  0.0931
 2532SOL    HW119232   0.572   3.202   4.155 -0.5018  3.1059  1.3036
 2532SOL    HW219233   0.627   3.161   4.019  0.2998 -1.3051  1.8692
 2533SOL     OW19234   3.436   4.253   8.735  0.3091  0.3905  0.0800
 2533SOL    HW119235   3.401   4.219   8.818 -0.5888  1.4528  0.1300
 2533SOL    HW219236   3.514   4.197   8.731 -0.7215 -1.2365  2.3140
 2534SOL     OW19237   3.614   3.621   3.773 -0.0908 -0.3964  0.5376
 2534SOL    HW119238   3.655   3.685   3.716 -0.6614 -0.2432  0.3058
 2534SOL    HW219239   3.695   3.569   3.779 -0.0743 -0.4152  0.0994
 2535SOL     OW19240   2.402   0.580  11.494  0.8633  0.1423 -0.5880
 2535SOL    HW119241   2.435   0.655  11.544 -0.4248  0.6377 -0.4956
 2535SOL    HW219242   2.311   0.600  11.514  0.7621 -0.2726 -0.6463
 2536SOL     OW19243   0.123   0.831   8.301 -0.2301  0.0871  0.2307
 2536SOL    HW119244   0.200   0.863   8.253  1.3964 -0.5941  2.3882
 2536SOL    HW219245   0.111   0.746   8.258 -0.8764  1.1561 -1.7185
 2537SOL     OW19246   1.881   3.024  15.147  0.4441  0.5001  0.1382
 2537SOL    HW119247   1.918   2.939  15.122  1.1624  0.1020  2.5705
 2537SOL    HW219248   1.883   3.037  15.242  2.3121  1.3298 -0.0060
 2538SOL     OW19249   3.430   2.440   0.988 -0.1760 -0.2343  0.1286
 2538SOL    HW119250   3.346   2.454   0.945  1.3058 -1.7797 -3.2850
 2538SOL    HW219251   3.452   2.355   0.949  2.3368  1.4851 -2.1383
 2539SOL     OW19252   3.323   1.070  12.788 -0.5508 -0.0139 -0.0633
 2539SOL    HW119253   3.411   1.107  12.797 -0.8989  0.4079  1.5352
 2539SOL    HW219254   3.302   1.073  12.695 -1.2361  0.5017  0.1072
 2540SOL     OW19255   2.462   0.318  12.324 -1.2698  0.3365 -0.7254
 2540SOL    HW119256   2.407   0.396  12.316 -0.1267  1.3687  1.3631
 2540SOL    HW219257   2.471   0.312  12.419  1.5055  0.1267 -0.9991
 2541SOL     OW19258   3.789   1.386  15.964 -0.3512  0.0305 -0.1441
 2541SOL    HW119259   3.810   1.368  16.055 -0.5111 -1.2728 -0.3637
 2541SOL    HW219260   3.879   1.380  15.930  0.4417 -0.4528  2.0845
 2542SOL     OW19261   2.142   1.308   9.574 -0.2541  0.1014  0.5649
 2542SOL    HW119262   2.061   1.358   9.580  0.1212  0.4953  2.3088
 2542SOL    HW219263   2.163   1.314   9.481  1.4389  1.2105  1.0163
 2543SOL     OW19264   0.339   1.032   5.363  0.3337  0.3412 -0.6173
 2543SOL    HW119265   0.398   0.957   5.362  0.7102  0.6362 -0.0411
 2543SOL    HW219266   0.398   1.107   5.362  2.5623 -1.4144 -0.1469
 2544SOL     OW19267   0.287   3.577   3.604 -0.0115  0.1437  0.1367
 2544SOL    HW119268   0.375   3.601   3.633  0.0400 -1.0070  0.9291
 2544SOL    HW219269   0.237   3.592   3.684  1.4384  1.2273  0.8471
 2545SOL     OW19270   1.518   2.956   3.276  0.2993  0.1334 -0.1990
 2545SOL    HW119271   1.430   2.990   3.259  1.5779  3.1373 -0.8514
 2545SOL    HW219272   1.556   2.973   3.190  0.2128 -0.1974 -0.3042
 2546SOL     OW19273   4.619   1.039   7.246  0.0720  0.1377 -0.2818
 2546SOL    HW119274   4.589   1.127   7.269 -2.2544 -0.8623  0.5195
 2546SOL    HW219275   4.553   0.988   7.294  0.5409 -2.0652 -1.9848
 2547SOL     OW19276   0.775   0.573  13.464 -0.2133 -0.7313  0.1090
 2547SOL    HW119277   0.771   0.487  13.423  1.8317 -0.5348 -0.5505
 2547SOL    HW219278   0.785   0.562  13.558 -0.4660  0.0842  0.2267
 2548SOL     OW19279   3.614   0.004  16.177 -0.9242  0.4766  0.1338
 2548SOL    HW119280   3.552   4.732  16.104 -1.0547 -0.6721  0.3896
 2548SOL    HW219281   3.560   4.730  16.255  0.1670 -0.2059  0.7921
 2549SOL     OW19282   0.548   0.670   2.333  0.1660 -0.1085  0.1974
 2549SOL    HW119283   0.597   0.701   2.409  0.4984 -0.2137  0.0243
 2549SOL    HW219284   0.592   0.589   2.306  2.5094  0.6511  1.7599
 2550SOL     OW19285   2.305   1.300   8.019  0.0743 -0.2110  0.2107
 2550SOL    HW119286   2.331   1.245   7.945  0.1955  0.1907 -0.0425
 2550SOL    HW219287   2.248   1.238   8.064 -1.8920  0.7350 -0.9886
 2551SOL     OW19288   0.140   0.701  14.538  0.1058  0.2090 -0.0053
 2551SOL    HW119289   0.052   0.673  14.515  1.1203 -0.4229 -3.1317
 2551SOL    HW219290   0.140   0.797  14.541  0.4682  0.1276  2.8485
 2552SOL     OW19291   2.601   3.158   5.886  0.6829 -0.1529  0.2283
 2552SOL    HW119292   2.629   3.207   5.809 -0.1070 -0.1735 -0.0718
 2552SOL    HW219293   2.659   3.203   5.947  0.7678 -0.3693  0.3047
 2553SOL     OW19294   4.535   2.798   9.869  0.3363  0.3211 -0.2260
 2553SOL    HW119295   4.555   2.712   9.905 -0.1362 -0.7194 -2.4065
 2553SOL    HW219296   4.508   2.782   9.778 -0.7322  0.3104  0.0913
 2554SOL     OW19297   2.426   3.907   5.788  0.0432 -0.7575 -0.4763
 2554SOL    HW119298   2.482   3.830   5.775  2.6773  0.9837  0.5281
 2554SOL    HW219299   2.398   3.920   5.698  0.0143  1.3412 -0.1467
 2555SOL     OW19300   2.521   4.422   8.219 -0.3313  0.1127  0.4154
 2555SOL    HW119301   2.538   4.343   8.271  1.3601  0.1538 -0.0627
 2555SOL    HW219302   2.436   4.412   8.176  0.2554  0.7296 -0.8775
 2556SOL     OW19303   2.509   2.268  15.197  0.0411  0.8760  0.2378
 2556SOL    HW119304   2.438   2.280  15.260 -2.4411 -1.3283 -2.1158
 2556SOL    HW219305   2.525   2.175  15.213 -0.3360  0.4297 -1.9527
 2557SOL     OW19306   2.177   1.909  11.094  0.0350 -0.8609 -0.2466
 2557SOL    HW119307   2.268   1.906  11.064 -0.2040 -0.6999 -0.9886
 2557SOL    HW219308   2.147   1.990  11.052 -0.8145 -1.2024 -0.2964
 2558SOL     OW19309   0.151   1.566  17.036 -0.0081 -0.0285  0.6426
 2558SOL    HW119310   0.198   1.500  17.087 -0.0425  0.9907  2.0138
 2558SOL    HW219311   0.131   1.629  17.106  1.3066 -0.4837  1.4350
 2559SOL     OW19312   3.628   2.496   5.104 -0.2844 -0.2517  0.1298
 2559SOL    HW119313   3.692   2.426   5.098 -0.7366 -0.5620 -1.0209
 2559SOL    HW219314   3.682   2.575   5.108 -0.7025  0.0190  0.3745
 2560SOL     OW19315   2.453   0.707   6.526 -0.0899 -0.1634 -0.7556
 2560SOL    HW119316   2.448   0.647   6.601 -0.7033 -1.1466 -1.5721
 2560SOL    HW219317   2.359   0.717   6.511 -0.3847 -0.0869  1.2173
 2561SOL     OW19318   4.158   2.418   3.912 -0.6554  0.6289  0.5676
 2561SOL    HW119319   4.137   2.490   3.853 -2.6948  0.1443  0.7195
 2561SOL    HW219320   4.230   2.382   3.859 -0.4759 -0.9235  1.8438
 2562SOL     OW19321   4.005   0.353   2.443  0.4779  0.1619 -0.1396
 2562SOL    HW119322   4.018   0.266   2.480 -1.8672 -1.0410 -2.1208
 2562SOL    HW219323   4.082   0.353   2.385  1.6362 -0.8513  1.4186
 2563SOL     OW19324   3.539   1.079   5.564  0.4037 -0.0511 -0.2688
 2563SOL    HW119325   3.569   1.170   5.559  0.5290 -0.0862 -0.1564
 2563SOL    HW219326   3.495   1.071   5.479 -1.8520 -2.0474  1.0844
 2564SOL     OW19327   0.163   1.123   5.908 -0.5232  0.2721 -0.1457
 2564SOL    HW119328   0.228   1.186   5.879  2.3401 -2.4659  0.4123
 2564SOL    HW219329   0.083   1.175   5.896  0.1964  1.8497  1.8914
 2565SOL     OW19330   4.660   3.374   2.641 -0.5006  0.5627 -0.1332
 2565SOL    HW119331   0.001   3.365   2.696 -1.1134 -2.0984  0.3133
 2565SOL    HW219332   4.673   3.415   2.556 -2.0606  1.8180  0.2207
 2566SOL     OW19333   2.339   3.612   2.942  0.4452 -0.0113 -0.6592
 2566SOL    HW119334   2.268   3.618   3.006  0.2419 -2.4831 -0.6681
 2566SOL    HW219335   2.286   3.583   2.868 -0.0197  0.2397 -0.4228
 2567SOL     OW19336   1.923   4.312   3.117  0.2596 -0.1218 -0.0756
 2567SOL    HW119337   1.976   4.313   3.197  1.9160 -0.1004 -1.1755
 2567SOL    HW219338   1.837   4.349   3.136  2.3385  3.4200  2.4072
 2568SOL     OW19339   3.068   4.004   8.848 -0.2989 -0.5786  0.0674
 2568SOL    HW119340   3.002   3.995   8.780 -1.7341  1.6205  1.1836
 2568SOL    HW219341   3.021   3.957   8.917  2.4254 -1.8002  1.0833
 2569SOL     OW19342   2.935   0.778   6.462  0.4947  0.0021  0.7663
 2569SOL    HW119343   2.939   0.826   6.545 -1.7093  1.0951  0.2467
 2569SOL    HW219344   2.894   0.696   6.489  2.4800 -0.7368  1.5702
 2570SOL     OW19345   3.348   4.460   4.590 -0.0200 -0.7180 -0.0885
 2570SOL    HW119346   3.313   4.544   4.560 -0.4244 -0.9215 -0.1823
 2570SOL    HW219347   3.440   4.469   4.564 -0.4078 -0.5500 -1.3995
 2571SOL     OW19348   4.027   0.749   8.931 -0.3976  0.0225 -0.6859
 2571SOL    HW119349   4.114   0.776   8.960 -1.5569  2.9012  0.1175
 2571SOL    HW219350   3.970   0.787   8.999 -0.6907  2.0967 -2.0949
 2572SOL     OW19351   4.485   0.648   5.356 -0.0550 -0.6413  0.0023
 2572SOL    HW119352   4.507   0.638   5.449  0.8136  2.0691  0.0925
 2572SOL    HW219353   4.569   0.622   5.317  0.2710 -0.0822  0.3359
 2573SOL     OW19354   0.980   4.110   5.914  0.3133  0.2700  0.3342
 2573SOL    HW119355   0.931   4.093   5.833  0.8674  0.1903  0.0203
 2573SOL    HW219356   1.035   4.184   5.887  0.2402  0.7102  1.4083
 2574SOL     OW19357   4.617   1.265   7.546 -0.4190 -0.1715 -0.1210
 2574SOL    HW119358   4.560   1.191   7.566 -1.6616  0.9521  0.5055
 2574SOL    HW219359   4.563   1.316   7.486 -0.2811  0.4264  0.2658
 2575SOL     OW19360   1.987   4.453   7.099 -0.2870 -0.3735  0.1523
 2575SOL    HW119361   1.944   4.368   7.105 -1.2706  0.1700  0.9855
 2575SOL    HW219362   2.056   4.434   7.036 -0.4639 -0.9552  0.1377
 2576SOL     OW19363   1.784   3.665   8.326  0.2564  0.4504  0.6280
 2576SOL    HW119364   1.787   3.742   8.383  0.3738 -1.0370  2.6553
 2576SOL    HW219365   1.797   3.597   8.392  0.0301  1.3855  1.6315
 2577SOL     OW19366   4.413   1.438   9.548  0.1573  0.3455 -0.4895
 2577SOL    HW119367   4.334   1.454   9.601  0.3916 -1.0091  0.2767
 2577SOL    HW219368   4.395   1.346   9.529  1.2426 -0.0484  0.3822
 2578SOL     OW19369   2.995   1.154   9.176  0.1399 -0.0619  0.2306
 2578SOL    HW119370   3.012   1.236   9.129 -0.3278  0.4236  0.8978
 2578SOL    HW219371   2.990   1.093   9.103  1.4529 -0.1925  0.2498
 2579SOL     OW19372   2.825   3.237   6.031 -0.0372 -0.5822 -0.2137
 2579SOL    HW119373   2.900   3.297   6.038 -0.5378  0.2671 -2.3337
 2579SOL    HW219374   2.868   3.162   5.993  1.8267  1.3271 -1.8664
 2580SOL     OW19375   3.195   0.797   5.245 -0.2999 -0.0422 -0.4184
 2580SOL    HW119376   3.261   0.742   5.287 -1.1512 -1.9145 -1.5080
 2580SOL    HW219377   3.227   0.883   5.272  0.3811 -0.3255 -0.3179
 2581SOL     OW19378   4.617   3.071   3.601 -0.0771 -0.3003  0.2991
 2581SOL    HW119379   4.618   3.031   3.688  3.0368 -0.5536  0.1260
 2581SOL    HW219380   4.524   3.093   3.592 -0.3053  0.1884  4.0094
 2582SOL     OW19381   0.358   0.659   3.059 -0.5057  0.2791 -0.2848
 2582SOL    HW119382   0.279   0.646   3.111 -0.1137  3.5284  1.0887
 2582SOL    HW219383   0.331   0.622   2.975 -0.6639 -0.2739  0.0087
 2583SOL     OW19384   2.848   1.708  12.351 -0.4211  0.5101  0.0998
 2583SOL    HW119385   2.813   1.681  12.266 -0.9264 -0.4356  0.6145
 2583SOL    HW219386   2.765   1.737  12.388 -0.6009 -0.3812  0.3804
 2584SOL     OW19387   0.579   2.148  15.997 -0.0251 -0.0261  0.2524
 2584SOL    HW119388   0.592   2.065  15.952 -0.1442  0.0415  0.0937
 2584SOL    HW219389   0.493   2.183  15.973 -0.4578 -1.1272  0.2182
 2585SOL     OW19390   0.153   1.107   8.154 -0.3269 -0.0665 -0.2183
 2585SOL    HW119391   0.110   1.109   8.240 -0.9427 -1.4722 -0.4948
 2585SOL    HW219392   0.081   1.127   8.095 -1.1086 -0.8477  0.4659
 2586SOL     OW19393   3.925   4.284   5.269  0.1024  0.3437 -0.3367
 2586SOL    HW119394   3.938   4.304   5.361 -0.7196  1.2444 -0.4076
 2586SOL    HW219395   3.830   4.292   5.277  0.3938  0.4245  2.9416
 2587SOL     OW19396   3.192   4.045  10.179 -0.0121  0.3247 -0.0232
 2587SOL    HW119397   3.174   4.050  10.273 -0.8960  0.2154 -0.1878
 2587SOL    HW219398   3.226   4.133  10.162 -0.3130  0.5155  0.3453
 2588SOL     OW19399   4.661   0.712   2.214  0.0346  0.1708 -1.0903
 2588SOL    HW119400   4.726   0.747   2.154 -0.6355 -0.1908 -2.0263
 2588SOL    HW219401   4.686   0.757   2.295 -1.4336 -2.1049  0.6384
 2589SOL     OW19402   3.551   2.433   5.785  0.1559 -0.1931 -0.2633
 2589SOL    HW119403   3.555   2.458   5.878  0.6686  2.5473 -1.0158
 2589SOL    HW219404   3.512   2.346   5.777 -0.7449  0.0600  1.2381
 2590SOL     OW19405   0.059   0.811   6.596 -0.7201  0.1149 -0.2038
 2590SOL    HW119406   0.058   0.782   6.687 -0.0079  3.1733  0.7835
 2590SOL    HW219407   0.034   0.731   6.549  1.4103  0.2227 -1.4994
 2591SOL     OW19408   1.941   0.954   8.157 -0.2797 -0.3058  0.8608
 2591SOL    HW119409   1.848   0.954   8.179  0.0644  1.5295  2.3328
 2591SOL    HW219410   1.982   0.879   8.200  2.0983 -0.3711 -1.5159
 2592SOL     OW19411   0.052   3.549   3.478  0.1017 -0.1034 -0.1707
 2592SOL    HW119412   0.112   3.549   3.552  0.3186  1.1106 -0.3455
 2592SOL    HW219413   0.053   3.643   3.463 -0.2661  0.1558  1.5185
 2593SOL     OW19414   3.317   0.450   3.471 -0.2769 -0.2803  0.3589
 2593SOL    HW119415   3.272   0.413   3.546 -0.9993 -2.3234 -1.0815
 2593SOL    HW219416   3.339   0.374   3.417 -0.5767  0.2886 -0.5784
 2594SOL     OW19417   3.537   0.088   0.540 -0.0896 -0.0083  0.1442
 2594SOL    HW119418   3.581   0.173   0.529 -0.2913 -0.0940 -1.2701
 2594SOL    HW219419   3.476   0.086   0.467 -0.3899 -0.9214  0.4269
 2595SOL     OW19420   2.541   3.222  16.876 -0.6007 -0.3517 -0.4095
 2595SOL    HW119421   2.598   3.180  16.813 -1.1899 -1.1416 -0.4260
 2595SOL    HW219422   2.603   3.287  16.908 -0.5194 -0.2024 -0.8736
 2596SOL     OW19423   4.674   3.178   4.950  0.4384  0.1036  0.1940
 2596SOL    HW119424   0.018   3.136   4.980  0.1714 -0.9440 -0.5381
 2596SOL    HW219425   4.696   3.271   4.946  0.1841  0.1212 -0.8654
 2597SOL     OW19426   0.625   2.335   4.883 -0.0157  0.0276 -0.1736
 2597SOL    HW119427   0.604   2.417   4.927  2.2320  1.0919 -1.1120
 2597SOL    HW219428   0.540   2.294   4.900  0.4499 -0.7357  0.3314
 2598SOL     OW19429   1.131   2.792   5.346 -0.5214 -0.0970  0.2606
 2598SOL    HW119430   1.188   2.846   5.401  0.3316 -1.6615  0.9193
 2598SOL    HW219431   1.079   2.860   5.303 -0.1387  0.7994  1.2055
 2599SOL     OW19432   2.730   1.963   6.350 -0.0523  0.0558  0.1417
 2599SOL    HW119433   2.718   1.948   6.444  1.4003  0.0619  0.3331
 2599SOL    HW219434   2.778   1.886   6.320  0.6226  0.2584  0.7094
 2600SOL     OW19435   3.821   1.108   8.327  0.0126 -0.3320  0.3195
 2600SOL    HW119436   3.883   1.172   8.361 -1.1186  1.5802 -1.2696
 2600SOL    HW219437   3.828   1.119   8.233 -1.2239  0.7365  0.3582
 2601SOL     OW19438   3.477   1.151   7.644  0.2670 -0.4746  0.1584
 2601SOL    HW119439   3.526   1.152   7.727  1.2458 -1.1539 -0.4130
 2601SOL    HW219440   3.415   1.222   7.661  1.0429  0.7116 -1.9044
 2602SOL     OW19441   2.666   0.060   7.864  0.2825 -0.4431  0.2466
 2602SOL    HW119442   2.667   0.049   7.959 -1.6862 -0.0626  0.3250
 2602SOL    HW219443   2.608   4.722   7.849 -0.6120  0.2169  0.4018
 2603SOL     OW19444   4.221   4.425   3.525  0.5302 -0.4500 -0.1550
 2603SOL    HW119445   4.200   4.515   3.498 -1.0293 -1.0428 -0.9464
 2603SOL    HW219446   4.314   4.442   3.537  0.2418  1.7680 -0.8976
 2604SOL     OW19447   3.846   3.566  16.188  0.1099  0.0385  0.7420
 2604SOL    HW119448   3.931   3.557  16.231  0.3122 -0.4940  0.2307
 2604SOL    HW219449   3.795   3.552  16.268  0.3202  1.3953  1.1149
 2605SOL     OW19450   1.096   3.803  16.222  0.1547  0.0080  0.0803
 2605SOL    HW119451   1.055   3.844  16.146  0.7420  0.5411  0.0495
 2605SOL    HW219452   1.030   3.739  16.248 -0.5519  0.3567 -0.8570
 2606SOL     OW19453   4.238   0.199   2.944 -1.0595  0.2775  0.2100
 2606SOL    HW119454   4.297   0.223   3.016  0.7390 -0.2623 -1.0907
 2606SOL    HW219455   4.159   0.253   2.950 -0.2237  1.6319 -1.2380
 2607SOL     OW19456   3.572   1.513  11.107  0.6376 -0.1531  0.1826
 2607SOL    HW119457   3.499   1.470  11.152  0.2736 -0.2691 -0.5301
 2607SOL    HW219458   3.605   1.430  11.072 -0.1093 -0.3416 -0.0646
 2608SOL     OW19459   0.043   1.558   9.139 -0.0271 -0.2451 -0.0805
 2608SOL    HW119460   0.119   1.540   9.085 -1.0055  1.4749 -2.0369
 2608SOL    HW219461   0.064   1.499   9.212  1.0328  0.0888 -0.1180
 2609SOL     OW19462   4.624   3.753   5.542  0.3180 -0.5261  0.3263
 2609SOL    HW119463   4.663   3.798   5.467  0.1419  1.8002  1.6110
 2609SOL    HW219464   4.663   3.669   5.519 -1.8911 -0.5489 -3.1795
 2610SOL     OW19465   4.186   1.440   7.442 -0.0941 -0.2325 -0.0246
 2610SOL    HW119466   4.196   1.526   7.483 -2.2384 -0.8586  1.7802
 2610SOL    HW219467   4.199   1.458   7.348 -1.8456  3.0974  0.3685
 2611SOL     OW19468   1.695   1.574   1.221 -0.0141  0.1916  0.2124
 2611SOL    HW119469   1.628   1.522   1.265  0.3225  1.3274  2.0620
 2611SOL    HW219470   1.710   1.535   1.135  0.5636  2.0664 -0.5508
 2612SOL     OW19471   3.133   0.652   3.455  0.0974 -0.3646  0.6142
 2612SOL    HW119472   3.172   0.566   3.465 -0.0558 -0.7044 -1.7088
 2612SOL    HW219473   3.145   0.670   3.362  0.9493  0.0501  0.8028
 2613SOL     OW19474   0.249   1.117  10.659 -0.1593  0.4510  0.5282
 2613SOL    HW119475   0.292   1.098  10.742 -0.2280 -0.3418  0.3805
 2613SOL    HW219476   0.190   1.043  10.670 -0.7635  0.6527 -1.2369
 2614SOL     OW19477   2.573   3.640   8.099 -0.2659 -0.0578  0.5449
 2614SOL    HW119478   2.487   3.641   8.058  0.0488  0.5761 -0.0964
 2614SOL    HW219479   2.552   3.608   8.187 -2.9468 -0.8009 -0.3605
 2615SOL     OW19480   4.241   3.455   5.518  0.1768  0.5019 -0.2204
 2615SOL    HW119481   4.267   3.475   5.428 -2.5821  1.3278 -0.8194
 2615SOL    HW219482   4.263   3.541   5.554 -3.9123  0.9195  1.2281
 2616SOL     OW19483   3.478   4.596   5.300  0.2441 -0.7640  0.2634
 2616SOL    HW119484   3.387   4.609   5.326  0.4635 -0.7156  1.0132
 2616SOL    HW219485   3.526   4.634   5.373 -0.8494  0.8718  0.1401
 2617SOL     OW19486   0.484   4.000  14.761 -0.1435 -0.3495  0.1096
 2617SOL    HW119487   0.574   3.973  14.782  0.1341 -1.1240 -2.0115
 2617SOL    HW219488   0.506   4.093  14.753 -2.3012  0.2500  1.3431
 2618SOL     OW19489   2.843   3.283   7.923 -0.0879 -0.4049 -0.2977
 2618SOL    HW119490   2.811   3.276   8.014  0.2644 -0.0587 -0.1515
 2618SOL    HW219491   2.805   3.201   7.891 -0.7215 -0.3784  0.3667
 2619SOL     OW19492   3.429   3.507   9.053  0.8541 -0.1507  0.6396
 2619SOL    HW119493   3.509   3.512   9.104  1.4924  1.6694 -0.5576
 2619SOL    HW219494   3.448   3.438   8.989 -0.3980  0.6625 -0.6213
 2620SOL     OW19495   3.019   0.520  13.587  0.1131  0.8126 -0.4795
 2620SOL    HW119496   3.008   0.583  13.516  1.9327  1.1758 -0.4492
 2620SOL    HW219497   3.055   0.588  13.645 -2.7830  2.1486 -0.2529
 2621SOL     OW19498   2.367   2.444   7.924 -0.7054 -0.6526 -0.1739
 2621SOL    HW119499   2.313   2.434   7.846 -2.3624  3.0465  0.5242
 2621SOL    HW219500   2.309   2.501   7.974 -1.8063 -0.2240 -1.9454
 2622SOL     OW19501   2.490   4.569   4.281 -0.4100  0.5510 -0.5577
 2622SOL    HW119502   2.484   4.526   4.195  0.1780 -5.2170  2.2625
 2622SOL    HW219503   2.529   4.654   4.259  1.9046 -0.0464  1.2275
 2623SOL     OW19504   1.400   2.406   6.868  0.0797  0.2544 -0.2605
 2623SOL    HW119505   1.467   2.341   6.892 -0.9553  0.0704  2.0945
 2623SOL    HW219506   1.449   2.483   6.838 -0.9650  0.8378 -0.4624
 2624SOL     OW19507   3.376   0.230  15.181 -0.6038  0.0821 -0.0192
 2624SOL    HW119508   3.355   0.324  15.180 -1.1430 -0.0380 -0.1109
 2624SOL    HW219509   3.333   0.208  15.098 -1.7996 -2.0852  1.1657
 2625SOL     OW19510   4.193   0.947   3.378  0.1595  0.2581  0.4792
 2625SOL    HW119511   4.175   1.010   3.448 -4.0088 -1.2633  0.8243
 2625SOL    HW219512   4.181   0.862   3.422 -1.1492  0.6507  0.9003
 2626SOL     OW19513   3.669   0.032  17.181 -0.1254  0.0052 -0.8659
 2626SOL    HW119514   3.663   4.688  17.130  1.8040 -1.5503  1.4000
 2626SOL    HW219515   3.685   0.093  17.109  0.0664 -0.3230 -1.1017
 2627SOL     OW19516   0.746   4.269  17.561  0.3497  0.3430  0.2034
 2627SOL    HW119517   0.784   4.254  17.475 -1.8960  0.8863 -0.8728
 2627SOL    HW219518   0.765   4.362  17.568  0.6135  0.4990 -2.7943
 2628SOL     OW19519   3.724   4.072   6.818  0.4403  0.5191  0.2670
 2628SOL    HW119520   3.796   4.097   6.875  1.2720 -2.3107  0.4299
 2628SOL    HW219521   3.746   3.980   6.804  1.6469  1.0561 -1.3459
 2629SOL     OW19522   2.139   4.278  10.437 -0.3064 -0.6016 -0.4735
 2629SOL    HW119523   2.107   4.358  10.395  0.5509  1.5056  2.9025
 2629SOL    HW219524   2.227   4.309  10.457 -0.3676 -0.3801 -0.5460
 2630SOL     OW19525   4.560   3.722   9.568  0.9023 -0.2444 -0.1104
 2630SOL    HW119526   4.508   3.744   9.646  2.4883  0.5813  0.7201
 2630SOL    HW219527   4.615   3.800   9.560  0.0053  0.5219  1.2435
 2631SOL     OW19528   0.190   0.195  16.872  0.5531  0.2505 -0.4319
 2631SOL    HW119529   0.189   0.286  16.901  2.1625 -0.3227  1.4426
 2631SOL    HW219530   0.151   0.142  16.941 -1.4084 -0.8069 -2.3553
 2632SOL     OW19531   4.340   2.774   6.965  0.4835  0.3346 -0.4201
 2632SOL    HW119532   4.369   2.708   7.029  0.1202  0.4666 -0.1228
 2632SOL    HW219533   4.304   2.848   7.013 -0.1045  0.0657 -0.4393
 2633SOL     OW19534   0.967   1.563   3.452  0.5866 -0.2804  0.2594
 2633SOL    HW119535   1.055   1.569   3.487  0.0259 -0.5350  1.7059
 2633SOL    HW219536   0.918   1.639   3.485  1.3911  1.5916 -2.8766
 2634SOL     OW19537   2.156   0.577   2.912  0.0340 -0.0010  0.4669
 2634SOL    HW119538   2.208   0.523   2.972 -1.8663 -2.5294 -0.1926
 2634SOL    HW219539   2.071   0.562   2.952  0.1405  0.3584  0.8304
 2635SOL     OW19540   2.356   0.603   2.669 -0.1563  0.1268  0.5473
 2635SOL    HW119541   2.295   0.669   2.702 -2.7579 -1.1654 -1.7535
 2635SOL    HW219542   2.384   0.561   2.751 -3.9821 -0.5610  1.4700
 2636SOL     OW19543   0.934   2.942  12.908 -0.2012 -0.4103  0.0213
 2636SOL    HW119544   0.911   2.998  12.834  2.1350 -0.8133 -1.0142
 2636SOL    HW219545   0.851   2.901  12.933  0.7331 -1.6757  1.0662
 2637SOL     OW19546   1.937   3.998   2.278  0.1756 -0.4988 -0.2787
 2637SOL    HW119547   1.859   3.984   2.224  1.5237 -2.7957 -1.6122
 2637SOL    HW219548   2.003   4.019   2.213  0.4350  1.1340  0.5105
 2638SOL     OW19549   0.633   2.516   2.570  0.1974  0.6101 -0.3941
 2638SOL    HW119550   0.716   2.534   2.526 -0.2572  1.0950 -1.0495
 2638SOL    HW219551   0.592   2.476   2.494 -0.1831 -0.5826  0.4434
 2639SOL     OW19552   1.487   0.078   3.707  0.3316 -0.2063  0.6662
 2639SOL    HW119553   1.539   0.018   3.761  2.3452  0.5541 -0.4175
 2639SOL    HW219554   1.458   0.019   3.637  0.5724  0.2013  0.2189
 2640SOL     OW19555   1.382   1.791   9.248  0.6769  0.4666  0.2039
 2640SOL    HW119556   1.469   1.802   9.287  0.6535 -1.4879  0.8424
 2640SOL    HW219557   1.339   1.852   9.307 -1.1995 -1.0175  0.3663
 2641SOL     OW19558   0.430   2.220  12.599  0.1080  0.1401 -0.3250
 2641SOL    HW119559   0.348   2.206  12.646  1.3139 -2.0328  1.1349
 2641SOL    HW219560   0.454   2.310  12.620 -0.5755  0.5336 -1.2040
 2642SOL     OW19561   3.204   0.054   2.097  0.5809 -0.2839  0.3126
 2642SOL    HW119562   3.298   0.068   2.099  0.2144  2.0607  1.4255
 2642SOL    HW219563   3.168   0.120   2.037  2.0915  0.4400  0.2221
 2643SOL     OW19564   2.238   3.589   0.215 -0.5483 -0.5278 -0.4283
 2643SOL    HW119565   2.203   3.531   0.283  1.1482 -0.4626  0.5113
 2643SOL    HW219566   2.268   3.664   0.267  0.9213  0.5030 -2.7898
 2644SOL     OW19567   4.238   0.053  16.354 -0.1013  0.2033  0.3388
 2644SOL    HW119568   4.226   0.017  16.266 -3.1169 -0.5496  1.0728
 2644SOL    HW219569   4.280   4.719  16.403 -0.4212 -1.2213 -1.4069
 2645SOL     OW19570   4.091   0.132   6.263  0.0763 -0.1067 -0.3114
 2645SOL    HW119571   4.092   0.082   6.181 -0.3175 -1.4721  0.5145
 2645SOL    HW219572   4.002   0.114   6.292 -0.3138  2.2835 -0.0744
 2646SOL     OW19573   0.588   2.847  11.817  0.2509  0.1991  0.1518
 2646SOL    HW119574   0.510   2.901  11.801 -0.2594 -0.5668  0.0580
 2646SOL    HW219575   0.594   2.871  11.910 -0.8406 -3.1136  1.0564
 2647SOL     OW19576   4.069   4.477   2.025 -0.4244  0.2816  0.2195
 2647SOL    HW119577   4.146   4.516   1.983 -0.0919 -1.8885 -1.1833
 2647SOL    HW219578   4.043   4.536   2.096 -1.6601 -0.7724  0.6493
 2648SOL     OW19579   0.292   1.673   5.987  0.0234 -1.2482 -0.2060
 2648SOL    HW119580   0.232   1.604   6.018  2.1506 -3.4230 -0.8732
 2648SOL    HW219581   0.245   1.754   5.969 -0.4306 -1.6701 -0.8969
 2649SOL     OW19582   2.013   0.752   6.816 -0.1575  0.3706  0.1842
 2649SOL    HW119583   1.991   0.837   6.777 -1.9743  1.4990  3.6358
 2649SOL    HW219584   2.107   0.747   6.833 -0.6769  2.4618  3.6703
 2650SOL     OW19585   2.025   2.727   7.827  0.7052 -0.2119  0.3947
 2650SOL    HW119586   1.985   2.643   7.804  1.7308 -0.4491 -0.4968
 2650SOL    HW219587   2.058   2.762   7.744  1.9115  0.7113  1.2648
 2651SOL     OW19588   4.524   0.601   0.432 -0.3462 -0.1400 -0.0843
 2651SOL    HW119589   4.478   0.677   0.398 -1.2040 -1.4516 -1.8300
 2651SOL    HW219590   4.517   0.531   0.367  2.3828  0.3952 -0.9532
 2652SOL     OW19591   1.934   1.347   8.163  1.2742 -1.2121 -0.3810
 2652SOL    HW119592   2.010   1.312   8.117  1.1360 -0.1038 -1.4515
 2652SOL    HW219593   1.859   1.298   8.127 -1.3561  1.6650  1.1969
 2653SOL     OW19594   0.988   4.496   2.914 -0.3176 -0.1197 -0.2369
 2653SOL    HW119595   0.982   4.482   3.009 -0.1712 -1.1324 -0.3750
 2653SOL    HW219596   0.923   4.436   2.877 -1.1268  0.8625 -0.4164
 2654SOL     OW19597   0.775   0.685   6.372  0.4026  0.3877 -0.4933
 2654SOL    HW119598   0.783   0.777   6.346  0.0681  0.2150 -1.2100
 2654SOL    HW219599   0.861   0.653   6.343  0.3380  0.1446 -0.4152
 2655SOL     OW19600   2.036   2.310   3.885  0.5514  0.7034 -0.6441
 2655SOL    HW119601   1.941   2.301   3.877  0.4220  0.0016  1.7180
 2655SOL    HW219602   2.072   2.312   3.796  0.6989  1.7025 -0.5622
 2656SOL     OW19603   0.125   0.240   0.638  0.2076  0.6863  0.4714
 2656SOL    HW119604   0.121   0.155   0.682 -0.4259  0.9029  0.8281
 2656SOL    HW219605   0.109   0.299   0.712 -0.0551  2.3007 -0.8725
 2657SOL     OW19606   0.018   1.800   5.610  0.0264  0.3515  0.9965
 2657SOL    HW119607   4.712   1.851   5.541 -0.7784 -1.4227  0.1785
 2657SOL    HW219608   0.084   1.867   5.628  0.1156  0.9707 -1.5956
 2658SOL     OW19609   0.711   1.336   2.464 -0.5204  0.0926 -0.7510
 2658SOL    HW119610   0.672   1.269   2.520 -0.7745  0.9029  0.0440
 2658SOL    HW219611   0.667   1.325   2.380  0.4544  0.3929 -1.3096
 2659SOL     OW19612   0.894   1.380  11.695 -0.1235  0.4466 -0.2233
 2659SOL    HW119613   0.966   1.444  11.701 -0.1338  0.6469 -2.0882
 2659SOL    HW219614   0.817   1.428  11.664  0.0740  0.0801 -1.2665
 2660SOL     OW19615   2.310   0.403   3.048  0.2394 -0.7454  0.8725
 2660SOL    HW119616   2.317   0.311   3.025  2.6766 -0.3015 -0.2102
 2660SOL    HW219617   2.385   0.443   3.003 -1.5663  0.0382 -1.4479
 2661SOL     OW19618   1.258   3.690  14.199  0.1084 -0.0651  0.2777
 2661SOL    HW119619   1.197   3.760  14.176 -1.1533 -1.0789  0.5571
 2661SOL    HW219620   1.312   3.680  14.120  0.1668  1.2426  0.1462
 2662SOL     OW19621   3.638   2.215   7.274 -0.8078  0.2432 -0.2121
 2662SOL    HW119622   3.675   2.197   7.188 -0.4675 -1.4122  0.2760
 2662SOL    HW219623   3.660   2.307   7.283  2.8606 -0.3756 -2.7201
 2663SOL     OW19624   3.486   4.140   6.925  0.2550 -0.4848 -0.2413
 2663SOL    HW119625   3.570   4.115   6.886  0.1985 -0.8061 -0.1574
 2663SOL    HW219626   3.493   4.076   6.996  1.8993 -1.8523 -1.6338
 2664SOL     OW19627   3.560   1.100   5.232  0.0449  0.4990  0.6978
 2664SOL    HW119628   3.467   1.122   5.228  0.0433  0.4279  0.3515
 2664SOL    HW219629   3.565   1.012   5.193  2.2060  1.8867 -2.1086
 2665SOL     OW19630   1.934   4.600  10.829 -0.4858 -0.2689  0.7008
 2665SOL    HW119631   1.896   4.590  10.917  0.1312  0.4015  1.0442
 2665SOL    HW219632   1.957   4.511  10.803  2.4708  0.9043 -0.6957
 2666SOL     OW19633   3.628   2.877  14.353 -0.5612  0.0720  0.3435
 2666SOL    HW119634   3.587   2.901  14.270  1.1401 -0.9937 -0.8040
 2666SOL    HW219635   3.634   2.958  14.405  0.2576 -0.4452  1.0539
 2667SOL     OW19636   1.559   0.108   6.427 -0.8081  0.0906 -0.4144
 2667SOL    HW119637   1.537   0.194   6.463  0.1122  1.2420 -2.6405
 2667SOL    HW219638   1.573   0.057   6.507 -2.6609  1.1001  0.5522
 2668SOL     OW19639   2.324   0.793   4.186  0.1924  0.4568 -0.5303
 2668SOL    HW119640   2.385   0.861   4.156 -1.3499  1.5998 -1.0598
 2668SOL    HW219641   2.275   0.774   4.107  1.2399  2.3877 -1.6431
 2669SOL     OW19642   1.789   4.669  11.065  0.4461  0.3535 -0.3492
 2669SOL    HW119643   1.805   0.027  11.064 -0.3791  0.4907 -1.2977
 2669SOL    HW219644   1.809   4.639  11.153  1.0177 -2.3821 -1.4019
 2670SOL     OW19645   1.821   3.137  16.014 -0.2222 -0.8154 -0.0856
 2670SOL    HW119646   1.727   3.156  16.018  0.0540  0.6168 -0.3136
 2670SOL    HW219647   1.847   3.149  16.105 -0.5655 -2.2466  0.2056
 2671SOL     OW19648   1.051   1.861   7.485 -0.0086  0.2915  0.2008
 2671SOL    HW119649   1.079   1.895   7.570  1.2014 -0.7864  0.2319
 2671SOL    HW219650   1.133   1.823   7.452 -0.8606 -1.8549  0.5667
 2672SOL     OW19651   3.571   4.579   4.143 -0.3254  0.0163 -0.1475
 2672SOL    HW119652   3.663   4.592   4.165 -0.8310  0.7085  1.5844
 2672SOL    HW219653   3.543   4.662   4.104 -0.0747  0.2111  0.0877
 2673SOL     OW19654   4.341   0.060   0.505  0.0837  0.5706 -0.2874
 2673SOL    HW119655   4.313   0.136   0.556  0.5109  1.3429 -1.1915
 2673SOL    HW219656   4.321   0.093   0.417  1.3006 -0.9856 -1.1332
 2674SOL     OW19657   0.357   1.243   2.734  0.3508 -0.3436 -0.2259
 2674SOL    HW119658   0.419   1.305   2.772 -0.3925 -1.0638  2.1640
 2674SOL    HW219659   0.302   1.206   2.802  1.2404  1.8988  1.7084
 2675SOL     OW19660   4.199   3.335   5.896  0.2250 -0.4439 -0.3899
 2675SOL    HW119661   4.122   3.278   5.891  1.1304 -1.7535  0.5553
 2675SOL    HW219662   4.251   3.308   5.821  1.5101  2.9953 -0.7545
 2676SOL     OW19663   2.046   1.566   0.052 -0.4691 -0.1418 -0.3960
 2676SOL    HW119664   2.076   1.516  17.720  0.3335 -0.9774  0.4654
 2676SOL    HW219665   2.029   1.495   0.113  1.9853 -0.4255 -0.0247
 2677SOL     OW19666   4.015   0.219  16.081 -0.0748 -0.3350  0.2696
 2677SOL    HW119667   4.086   0.275  16.047  0.7890 -2.1051 -0.8493
 2677SOL    HW219668   4.031   0.145  16.023 -0.4833 -1.1028  1.1436
 2678SOL     OW19669   3.939   2.924   8.418  0.0163 -0.2347 -0.3441
 2678SOL    HW119670   4.011   2.904   8.359  0.7218  0.3959  0.3098
 2678SOL    HW219671   3.860   2.908   8.367 -1.9016  2.4622  1.7536
 2679SOL     OW19672   1.683   1.316  14.914 -0.2070 -0.4593 -0.1643
 2679SOL    HW119673   1.658   1.257  14.986  1.6018  0.2641  1.0547
 2679SOL    HW219674   1.705   1.400  14.953 -0.2093  0.1596 -1.5155
 2680SOL     OW19675   4.043   4.047  11.770  0.1860  0.4762 -0.0867
 2680SOL    HW119676   3.978   3.992  11.726 -0.7300  2.1197 -0.7575
 2680SOL    HW219677   4.098   4.065  11.694  0.6863  0.7135  0.3251
 2681SOL     OW19678   0.818   4.146  14.634  0.1456  0.8577  0.2376
 2681SOL    HW119679   0.809   4.150  14.539 -0.7002  1.2862  0.3306
 2681SOL    HW219680   0.796   4.235  14.662  0.5556  1.1692 -0.4454
 2682SOL     OW19681   1.188   3.967   3.788 -0.1295 -0.0024 -0.5026
 2682SOL    HW119682   1.173   4.061   3.801 -0.1123 -0.2415  1.2059
 2682SOL    HW219683   1.112   3.953   3.731 -0.9106 -0.2931  0.6154
 2683SOL     OW19684   3.611   1.935   3.506  0.0515 -0.2747  0.7170
 2683SOL    HW119685   3.553   2.009   3.521  0.6312  0.2461  0.3892
 2683SOL    HW219686   3.683   1.964   3.450 -2.2498  0.3749 -1.8622
 2684SOL     OW19687   4.415   0.516   7.709  0.2783  0.1181  0.3285
 2684SOL    HW119688   4.365   0.597   7.709 -0.6909 -0.4844 -1.7707
 2684SOL    HW219689   4.361   0.469   7.645  3.9289 -1.7247 -1.3873
 2685SOL     OW19690   0.595   2.768   8.499 -0.1335 -0.2407  0.0862
 2685SOL    HW119691   0.646   2.687   8.503  0.8590  0.3138 -1.6006
 2685SOL    HW219692   0.524   2.738   8.442  0.3942  0.0967 -0.7552
 2686SOL     OW19693   1.048   1.787   2.371 -0.6539  0.4600  0.1650
 2686SOL    HW119694   1.098   1.866   2.389  1.3456 -0.4606 -1.3374
 2686SOL    HW219695   1.027   1.763   2.461  0.7675  0.0050  0.3813
 2687SOL     OW19696   2.610   0.813   2.484 -0.9115  0.2563 -0.2225
 2687SOL    HW119697   2.547   0.879   2.513 -1.8538 -0.1126 -1.4206
 2687SOL    HW219698   2.560   0.733   2.501 -1.0924  0.5642  0.7265
 2688SOL     OW19699   3.608   0.441  15.031  0.1592 -0.7024  1.1166
 2688SOL    HW119700   3.555   0.401  15.099 -1.4042 -0.4963  0.0210
 2688SOL    HW219701   3.667   0.497  15.081  0.9867 -0.3074 -0.2995
 2689SOL     OW19702   2.685   2.119   7.716  0.2596 -0.3682 -0.6850
 2689SOL    HW119703   2.661   2.063   7.789 -0.2336 -1.0615 -1.3691
 2689SOL    HW219704   2.598   2.137   7.681 -0.0208  0.7764  0.6256
 2690SOL     OW19705   3.461   4.299   6.389  0.1884 -0.3574 -0.2946
 2690SOL    HW119706   3.530   4.285   6.453  0.4336  3.7267  0.3361
 2690SOL    HW219707   3.383   4.294   6.444  2.3318  0.7762  2.8011
 2691SOL     OW19708   1.038   3.136   4.525 -0.6546 -0.3207  0.5404
 2691SOL    HW119709   0.976   3.169   4.460 -1.9929  0.7501  2.3756
 2691SOL    HW219710   1.081   3.071   4.469 -0.4694  1.7037 -1.6527
 2692SOL     OW19711   3.673   1.697   3.205 -0.1458  0.4026  0.1140
 2692SOL    HW119712   3.610   1.672   3.138  0.7799 -2.1045  0.2080
 2692SOL    HW219713   3.757   1.703   3.161 -0.2713 -1.6129 -0.3786
 2693SOL     OW19714   2.531   2.356   2.829 -0.1890 -0.2051  0.3561
 2693SOL    HW119715   2.521   2.268   2.795  0.4367 -0.1100 -0.0541
 2693SOL    HW219716   2.538   2.335   2.922 -2.1325  0.3019  0.6160
 2694SOL     OW19717   4.653   2.781   4.761  0.0195  0.0896 -0.0543
 2694SOL    HW119718   4.633   2.840   4.834 -1.4351 -1.4139  0.7555
 2694SOL    HW219719   0.010   2.798   4.744  0.1491 -2.6729 -2.0207
 2695SOL     OW19720   0.567   4.566   3.160  0.2543 -0.3409  0.0779
 2695SOL    HW119721   0.550   4.651   3.119 -0.5588 -1.1004 -1.1495
 2695SOL    HW219722   0.530   4.585   3.246 -0.4463 -0.9536 -0.0950
 2696SOL     OW19723   2.952   4.135   4.253  0.1276  0.7081  0.3461
 2696SOL    HW119724   3.012   4.142   4.179 -2.1708  0.1333 -1.5399
 2696SOL    HW219725   2.883   4.199   4.242 -1.2185 -0.6935  0.5900
 2697SOL     OW19726   3.608   3.859   4.408  0.3750  0.3749  0.0754
 2697SOL    HW119727   3.515   3.845   4.423  0.1125 -0.2980 -2.1494
 2697SOL    HW219728   3.619   3.954   4.407 -3.8036  0.8637  1.6758
 2698SOL     OW19729   1.907   2.922   6.159 -0.4468 -0.3090  0.4552
 2698SOL    HW119730   1.835   2.963   6.206 -0.8339  0.6674 -1.0089
 2698SOL    HW219731   1.944   2.997   6.113  0.0164 -0.7467  0.1088
 2699SOL     OW19732   0.952   4.386  14.793 -0.2320  0.3144 -0.5469
 2699SOL    HW119733   1.035   4.417  14.829  0.0987 -3.3769  1.7435
 2699SOL    HW219734   0.898   4.383  14.871  0.2908  0.2175 -0.1876
 2700SOL     OW19735   4.502   2.123   7.540 -0.1345 -0.4209  0.3990
 2700SOL    HW119736   4.542   2.209   7.553  0.1548 -0.3709 -0.7724
 2700SOL    HW219737   4.490   2.140   7.447 -2.1185 -0.4717  0.6534
 2701SOL     OW19738   1.856   2.001  15.338 -0.2296 -0.4639 -0.0807
 2701SOL    HW119739   1.936   1.976  15.385 -1.2294 -1.3215  1.1747
 2701SOL    HW219740   1.803   1.921  15.340 -1.3495  0.2506 -1.8039
 2702SOL     OW19741   4.216   1.659   7.639  0.0564  0.5501  0.4936
 2702SOL    HW119742   4.227   1.754   7.634 -3.1582  0.9608  1.0967
 2702SOL    HW219743   4.124   1.657   7.665  0.3804  2.9678  1.7743
 2703SOL     OW19744   4.546   1.585   2.662 -0.1813 -0.2947  0.4401
 2703SOL    HW119745   4.583   1.574   2.750  1.1075  1.5956  0.1501
 2703SOL    HW219746   4.560   1.678   2.645  1.4784 -0.8291 -1.1289
 2704SOL     OW19747   2.444   1.942   5.812  0.4264  0.3283  0.3883
 2704SOL    HW119748   2.422   1.984   5.895 -2.6435  0.0759 -0.2831
 2704SOL    HW219749   2.499   1.868   5.838 -2.2718 -2.5900 -2.1280
 2705SOL     OW19750   2.392   2.395   2.215  0.5043 -0.4550  0.2236
 2705SOL    HW119751   2.478   2.434   2.201 -0.0540  0.7563  0.1925
 2705SOL    HW219752   2.341   2.476   2.211 -0.6029 -1.1324  0.7627
 2706SOL     OW19753   4.488   4.511   5.825  0.4619  0.2071 -0.0674
 2706SOL    HW119754   4.439   4.591   5.804  0.9339  0.5806  0.2478
 2706SOL    HW219755   4.571   4.542   5.863 -0.1137  0.7462  0.7503
 2707SOL     OW19756   4.605   0.078   2.035  0.2813 -0.0951 -0.5414
 2707SOL    HW119757   4.622   0.107   2.125  1.0537 -1.8796 -0.1161
 2707SOL    HW219758   4.693   0.078   1.996  0.4773  0.0142 -0.1024
 2708SOL     OW19759   4.468   4.429   4.097  0.3598  0.4679 -0.4051
 2708SOL    HW119760   4.374   4.443   4.106  0.2507  0.8163 -1.9407
 2708SOL    HW219761   4.492   4.503   4.041 -0.1212  1.6217  0.9161
 2709SOL     OW19762   3.947   1.457   3.384 -1.3478 -0.3725  0.2789
 2709SOL    HW119763   3.971   1.426   3.297 -2.0562  0.6356 -0.2819
 2709SOL    HW219764   3.852   1.461   3.368 -1.2186 -0.8898 -0.6124
 2710SOL     OW19765   2.068   4.652  17.656 -0.1751  0.4521  0.1410
 2710SOL    HW119766   2.118   4.658  17.575  0.6057  1.8711  0.7267
 2710SOL    HW219767   2.127   4.687  17.722  1.2316  0.1564 -0.9520
 2711SOL     OW19768   2.488   1.755  11.098 -0.4884 -0.2761  0.4405
 2711SOL    HW119769   2.536   1.838  11.102 -0.4447 -0.2841  0.0483
 2711SOL    HW219770   2.508   1.718  11.184  0.5725  0.1018  0.3582
 2712SOL     OW19771   0.700   0.028   2.169  0.4032 -0.0842 -0.3194
 2712SOL    HW119772   0.790   0.061   2.177  0.9570 -1.8060  0.6158
 2712SOL    HW219773   0.657   0.085   2.232  0.7519 -1.6641  1.3673
 2713SOL     OW19774   0.720   4.615  15.406  0.8442  0.3953 -0.7637
 2713SOL    HW119775   0.727   4.689  15.467  0.3397 -0.8317  0.7940
 2713SOL    HW219776   0.769   4.644  15.330  0.9110 -2.9315 -1.9886
 2714SOL     OW19777   0.756   2.144  13.386 -0.4404 -0.0989  0.3293
 2714SOL    HW119778   0.780   2.076  13.323 -0.7840  0.9475 -0.9403
 2714SOL    HW219779   0.831   2.133  13.444 -0.6355  0.1991  0.6375
 2715SOL     OW19780   2.617   4.467   1.660 -0.1727 -0.1635 -0.3495
 2715SOL    HW119781   2.561   4.408   1.710 -0.5359  1.4259  1.1214
 2715SOL    HW219782   2.696   4.470   1.715  0.1783  1.6021 -0.9478
 2716SOL     OW19783   3.994   3.513  14.394  0.0239 -0.0606  0.5181
 2716SOL    HW119784   3.915   3.566  14.406  0.2866  0.5445 -0.3840
 2716SOL    HW219785   4.024   3.514  14.484 -0.0901 -0.4587  0.5578
 2717SOL     OW19786   0.672   0.813  14.599  0.9482  0.1317  0.2152
 2717SOL    HW119787   0.705   0.897  14.630 -0.7195  1.2853 -1.1588
 2717SOL    HW219788   0.739   0.749  14.624  0.9960 -0.0969 -0.5079
 2718SOL     OW19789   4.681   2.854  16.919 -0.3682 -0.2339  0.0506
 2718SOL    HW119790   4.647   2.908  16.847  0.1129 -0.8398 -0.6242
 2718SOL    HW219791   0.004   2.920  16.955  1.6363 -1.5253 -0.8829
 2719SOL     OW19792   0.478   2.011   9.106  0.2078 -0.1934 -0.2607
 2719SOL    HW119793   0.391   1.998   9.070 -0.1261 -1.7872  1.1252
 2719SOL    HW219794   0.482   2.106   9.118 -0.8622 -0.0332 -1.1937
 2720SOL     OW19795   0.606   0.305  10.942  0.2631 -0.2731 -0.3747
 2720SOL    HW119796   0.657   0.263  11.011 -1.5395 -0.2150  0.9849
 2720SOL    HW219797   0.560   0.379  10.980  1.7188  0.3202  0.2419
 2721SOL     OW19798   3.948   2.160   7.495 -0.2224 -0.2568 -0.2820
 2721SOL    HW119799   3.885   2.123   7.433 -1.2904  0.0249  0.6350
 2721SOL    HW219800   4.021   2.098   7.485 -0.1375 -0.2434  0.2631
 2722SOL     OW19801   4.642   1.474   4.790  0.0609  0.4212  0.1596
 2722SOL    HW119802   4.686   1.527   4.724  0.9350 -0.0042  0.4059
 2722SOL    HW219803   4.717   1.448   4.843 -1.2880 -0.9224  1.4267
 2723SOL     OW19804   2.797   2.415   3.277  0.3698 -0.4616 -0.6463
 2723SOL    HW119805   2.722   2.462   3.316  1.6114  2.0557 -1.2949
 2723SOL    HW219806   2.846   2.492   3.248  1.0735 -1.4956 -2.1400
 2724SOL     OW19807   2.646   4.483   2.676 -0.4580 -0.7781 -0.8373
 2724SOL    HW119808   2.678   4.399   2.709 -0.4212 -0.4095  0.0608
 2724SOL    HW219809   2.616   4.469   2.586  0.1197 -1.0744 -0.9793
 2725SOL     OW19810   0.828   3.171  13.644  0.0874  0.2606 -0.0876
 2725SOL    HW119811   0.852   3.208  13.559  0.6217  1.2502  0.5035
 2725SOL    HW219812   0.741   3.137  13.622  0.0420 -0.8471  1.8055
 2726SOL     OW19813   0.921   0.142  16.572  0.5939  0.3121  0.3704
 2726SOL    HW119814   0.967   0.156  16.654  0.9767 -0.0989  0.2253
 2726SOL    HW219815   0.855   0.211  16.571 -1.6595 -1.8464 -0.4893
 2727SOL     OW19816   2.678   0.979   3.265  0.7867  0.5076 -0.2045
 2727SOL    HW119817   2.753   0.945   3.217  0.6369  1.0363 -0.8173
 2727SOL    HW219818   2.668   0.919   3.340  1.9306  0.7122  0.1115
 2728SOL     OW19819   3.462   1.319  15.086 -0.7097 -0.1755 -0.1036
 2728SOL    HW119820   3.495   1.349  15.001  0.7064  0.2450  0.5991
 2728SOL    HW219821   3.399   1.252  15.058 -0.3803 -0.0998 -1.0238
 2729SOL     OW19822   2.269   3.130  11.505  0.4650 -0.4228  0.5000
 2729SOL    HW119823   2.240   3.215  11.538 -0.9689 -0.8202  0.2508
 2729SOL    HW219824   2.342   3.113  11.564  0.8347 -2.0315 -0.4336
 2730SOL     OW19825   1.592   0.779   2.811 -0.0524 -0.8674  0.4570
 2730SOL    HW119826   1.520   0.726   2.777 -0.6839  0.9061 -0.9409
 2730SOL    HW219827   1.625   0.820   2.731  2.1222 -1.0994  1.2186
 2731SOL     OW19828   4.486   3.696   9.307 -0.0438  0.2914 -0.5377
 2731SOL    HW119829   4.569   3.689   9.260  0.8505  0.3058  1.0132
 2731SOL    HW219830   4.511   3.698   9.400 -0.2176  1.8066 -0.5288
 2732SOL     OW19831   4.181   3.586  11.679 -0.8296 -0.6881 -0.1384
 2732SOL    HW119832   4.183   3.650  11.750 -1.0394 -0.7497 -0.0747
 2732SOL    HW219833   4.091   3.595  11.647 -0.8806 -1.7828 -0.3147
 2733SOL     OW19834   2.511   2.262  16.016  0.2977  0.0294  0.0171
 2733SOL    HW119835   2.530   2.246  15.924 -0.7485  0.0946 -0.2140
 2733SOL    HW219836   2.478   2.352  16.022 -1.1133 -0.5383  0.7875
 2734SOL     OW19837   3.404   3.129   9.141 -0.2417  0.2206  0.5028
 2734SOL    HW119838   3.434   3.044   9.176  0.3047 -0.2266 -1.0723
 2734SOL    HW219839   3.407   3.113   9.047  1.7130 -0.6916  0.7130
 2735SOL     OW19840   1.112   2.762   7.816  0.5474 -1.0727 -0.1762
 2735SOL    HW119841   1.114   2.682   7.869 -1.4740  0.5332  2.3090
 2735SOL    HW219842   1.047   2.725   7.756 -0.2981  2.3035 -1.3387
 2736SOL     OW19843   0.146   3.075   4.353  0.1012  0.3526 -0.0251
 2736SOL    HW119844   0.237   3.048   4.344 -0.7284 -2.3243 -0.3010
 2736SOL    HW219845   0.119   3.083   4.262 -3.3628  1.0777  1.0545
 2737SOL     OW19846   0.957   2.404   8.172  0.3974 -0.7165 -0.1513
 2737SOL    HW119847   0.911   2.432   8.251 -0.8772  1.7710 -1.7806
 2737SOL    HW219848   1.003   2.328   8.209  1.4042 -1.3752 -2.7171
 2738SOL     OW19849   4.611   0.962  10.846  0.0351  0.4346 -0.3978
 2738SOL    HW119850   4.537   0.938  10.790  0.0760  0.9269 -0.6604
 2738SOL    HW219851   4.581   0.916  10.924  2.3889 -0.1842  0.1296
 2739SOL     OW19852   4.708   3.532   2.427  0.2346  0.1199  0.2235
 2739SOL    HW119853   0.009   3.618   2.448 -0.4767  0.6976 -0.8863
 2739SOL    HW219854   4.628   3.556   2.380  0.5698 -2.2162 -1.5368
 2740SOL     OW19855   4.580   4.411   7.320 -0.6645  0.2883  0.3166
 2740SOL    HW119856   4.543   4.454   7.243 -0.6436 -0.2011  0.0350
 2740SOL    HW219857   4.576   4.488   7.376  1.3817  0.7461 -0.1897
 2741SOL     OW19858   2.817   0.237   8.539 -0.0646 -0.4738 -0.1963
 2741SOL    HW119859   2.864   0.166   8.496  1.4649  1.0506 -1.0709
 2741SOL    HW219860   2.730   0.197   8.537  0.2099 -1.1211  0.6465
 2742SOL     OW19861   0.511   0.337   2.638 -0.1499 -0.2262 -0.0909
 2742SOL    HW119862   0.582   0.382   2.592 -2.0177  0.5726 -2.1720
 2742SOL    HW219863   0.546   0.352   2.726 -0.2857 -0.5356  0.0130
 2743SOL     OW19864   2.866   1.187   1.673  0.5043 -0.1216 -0.1031
 2743SOL    HW119865   2.887   1.239   1.596  2.4723  0.1789  0.6316
 2743SOL    HW219866   2.952   1.160   1.704  0.6937  2.5731  1.7044
 2744SOL     OW19867   0.257   3.284   9.734 -0.0920  0.1469 -0.0349
 2744SOL    HW119868   0.313   3.217   9.694  1.2732  1.5337 -0.4854
 2744SOL    HW219869   0.176   3.284   9.683  0.6633 -0.0177 -1.2339
 2745SOL     OW19870   1.146   3.400  12.428 -0.1890 -0.0413  0.0165
 2745SOL    HW119871   1.073   3.340  12.444 -2.6760  3.1703  0.5270
 2745SOL    HW219872   1.220   3.347  12.458  0.7572  0.6828 -1.0706
 2746SOL     OW19873   3.137   1.955   7.064 -0.3613  0.4756 -0.5342
 2746SOL    HW119874   3.052   1.999   7.059 -0.5865  0.2150  1.3372
 2746SOL    HW219875   3.174   1.998   7.141  1.6543 -1.3055 -0.5003
 2747SOL     OW19876   4.422   3.325  15.442  0.2812  0.2639 -0.3241
 2747SOL    HW119877   4.339   3.278  15.441  0.1494  0.4725  0.3702
 2747SOL    HW219878   4.403   3.396  15.382  1.4767  0.9064  0.0664
 2748SOL     OW19879   0.541   3.663   3.745 -0.0576 -0.1093 -1.1299
 2748SOL    HW119880   0.516   3.652   3.836 -1.0620  1.4392 -1.2161
 2748SOL    HW219881   0.601   3.589   3.735  1.5615  0.8981  1.0249
 2749SOL     OW19882   3.699   2.771  13.688  0.0307 -0.0920  0.2738
 2749SOL    HW119883   3.763   2.708  13.654  1.1957  0.6969  0.9869
 2749SOL    HW219884   3.673   2.808  13.604 -0.7742 -0.6204  0.2920
 2750SOL     OW19885   1.504   3.342  10.427 -0.2898  0.1350 -0.2446
 2750SOL    HW119886   1.481   3.423  10.381  2.0469 -0.2281 -2.0767
 2750SOL    HW219887   1.559   3.303  10.359  1.4684  0.1460  1.1935
 2751SOL     OW19888   3.549   0.781  15.285  0.5104 -0.5916  0.0187
 2751SOL    HW119889   3.490   0.855  15.272 -0.4648 -1.8301 -2.7681
 2751SOL    HW219890   3.535   0.759  15.377  4.5778  0.6258  0.9372
 2752SOL     OW19891   2.030   1.550   3.252  0.5474 -0.2360  0.3025
 2752SOL    HW119892   1.943   1.573   3.283  0.1719  1.4022 -1.9576
 2752SOL    HW219893   2.061   1.509   3.333 -1.4855  2.9266  2.6708
 2753SOL     OW19894   2.840   2.874  12.676  0.3515  0.0264  0.0760
 2753SOL    HW119895   2.882   2.842  12.756  0.6704  0.8056  0.2133
 2753SOL    HW219896   2.754   2.910  12.696  0.6189 -0.4858  2.2497
 2754SOL     OW19897   1.522   3.255  12.992 -0.1029  0.8770  0.5974
 2754SOL    HW119898   1.479   3.230  12.910 -1.3290  0.1195  1.4935
 2754SOL    HW219899   1.450   3.285  13.046 -0.1816  0.4813  0.7145
 2755SOL     OW19900   3.232   4.074   7.264 -0.6584 -0.5420 -0.4540
 2755SOL    HW119901   3.225   3.996   7.209  1.1547 -0.0239 -1.4246
 2755SOL    HW219902   3.288   4.036   7.332  2.5627  2.0679 -1.6306
 2756SOL     OW19903   3.068   4.264  12.161 -0.1658  0.2628  0.1831
 2756SOL    HW119904   3.133   4.307  12.105 -1.9792  4.0341  0.9633
 2756SOL    HW219905   3.122   4.199  12.204  0.6021 -0.4689 -1.9019
 2757SOL     OW19906   1.687   4.289  15.336 -0.1781 -0.2115 -0.5137
 2757SOL    HW119907   1.624   4.219  15.352  0.0314 -0.6237 -1.4799
 2757SOL    HW219908   1.772   4.249  15.352 -0.2664 -0.9029 -1.7659
 2758SOL     OW19909   3.263   4.243  14.515  0.1165  0.3954  0.0828
 2758SOL    HW119910   3.351   4.212  14.498 -0.3600 -0.1515 -1.3528
 2758SOL    HW219911   3.227   4.244  14.426 -0.0144  3.2235  0.1689
 2759SOL     OW19912   2.627   0.072  11.659 -0.2988  0.1028  0.3545
 2759SOL    HW119913   2.715   0.095  11.687 -0.6663  1.2795  0.5361
 2759SOL    HW219914   2.629   0.057  11.565 -0.2359  0.0639  0.3624
 2760SOL     OW19915   1.545   0.983   7.357  0.2156  1.0324 -0.4047
 2760SOL    HW119916   1.485   1.029   7.415 -0.7537 -0.2373 -0.3922
 2760SOL    HW219917   1.502   0.898   7.344 -1.9955  2.1114 -0.0649
 2761SOL     OW19918   1.869   3.986  13.024 -0.1350  0.0427  0.4674
 2761SOL    HW119919   1.861   3.919  13.093  1.3426  0.2639  0.8504
 2761SOL    HW219920   1.917   4.052  13.073 -2.0112  1.5805  0.2378
 2762SOL     OW19921   4.021   0.186   3.265 -0.1351  0.3830  0.1297
 2762SOL    HW119922   4.104   0.232   3.256  0.0474 -0.0435 -0.3240
 2762SOL    HW219923   3.999   0.175   3.172  2.4298 -2.7436 -0.0690
 2763SOL     OW19924   4.611   3.095   7.949 -0.2905  0.2008 -0.3413
 2763SOL    HW119925   4.619   3.187   7.973  0.6132 -0.2880  1.1782
 2763SOL    HW219926   4.563   3.062   8.024  0.1488 -1.7925 -0.9412
 2764SOL     OW19927   2.596   0.563   0.979 -0.3145 -0.1523 -0.5623
 2764SOL    HW119928   2.602   0.558   1.074 -0.4394 -0.5727 -0.5743
 2764SOL    HW219929   2.510   0.522   0.968 -0.0046 -1.5775  2.3707
 2765SOL     OW19930   0.235   0.768   6.402  0.1023 -0.3671 -0.2583
 2765SOL    HW119931   0.188   0.797   6.480  0.4632  0.8675 -0.5119
 2765SOL    HW219932   0.199   0.832   6.340 -0.2743 -3.2876 -3.0980
 2766SOL     OW19933   1.255   4.076   5.298 -0.5115  0.3107  0.1394
 2766SOL    HW119934   1.292   4.089   5.211 -1.1793  1.2818  0.0050
 2766SOL    HW219935   1.316   4.136   5.341  1.1541 -1.2334 -0.0376
 2767SOL     OW19936   2.433   3.589   6.592 -0.1764 -0.4732  0.2293
 2767SOL    HW119937   2.374   3.514   6.597  1.0499 -1.4916 -0.5689
 2767SOL    HW219938   2.462   3.578   6.502 -1.6883 -0.9770 -0.1935
 2768SOL     OW19939   3.452   2.526  13.612 -0.1787 -0.0391  0.3242
 2768SOL    HW119940   3.394   2.569  13.675 -1.8121 -2.0838  0.2209
 2768SOL    HW219941   3.454   2.595  13.546 -0.5402 -1.8137 -1.5441
 2769SOL     OW19942   0.146   4.622   8.013 -0.3795 -0.1067 -0.3579
 2769SOL    HW119943   0.135   4.532   8.042 -0.6745 -0.0922 -0.4282
 2769SOL    HW219944   0.236   4.622   7.981  0.3250  1.5586  1.6120
 2770SOL     OW19945   0.497   0.242  15.005  0.3317 -0.0897  0.4379
 2770SOL    HW119946   0.444   0.279  14.935 -0.2924 -2.2496 -0.2306
 2770SOL    HW219947   0.584   0.275  14.984 -0.3096  1.7956  0.7294
 2771SOL     OW19948   1.339   3.574   3.727 -0.5666 -0.3121  0.2940
 2771SOL    HW119949   1.425   3.532   3.725 -1.1723 -1.4802 -1.3751
 2771SOL    HW219950   1.356   3.653   3.778  0.1974 -1.1147  1.2747
 2772SOL     OW19951   2.604   1.744  10.321 -0.1885  0.1199  0.4535
 2772SOL    HW119952   2.694   1.729  10.350  0.2392  2.1196  0.1189
 2772SOL    HW219953   2.567   1.802  10.387 -0.3253  0.7471 -0.1781
 2773SOL     OW19954   2.474   2.588   4.652  0.1182 -0.3892 -0.1262
 2773SOL    HW119955   2.449   2.638   4.574  0.5780  0.1421  0.0600
 2773SOL    HW219956   2.530   2.658   4.687 -0.1956 -0.3951  0.3876
 2774SOL     OW19957   0.249   1.833   6.964 -0.3288  0.3110  0.4032
 2774SOL    HW119958   0.297   1.857   6.885 -0.7797  2.7561  0.8547
 2774SOL    HW219959   0.233   1.740   6.948 -0.9163  0.2472  1.3320
 2775SOL     OW19960   3.839   1.910  16.594  0.2997 -0.2265 -0.2935
 2775SOL    HW119961   3.871   1.912  16.504  1.9719 -0.3125  0.2956
 2775SOL    HW219962   3.750   1.879  16.582  0.0077 -0.1523  1.6086
 2776SOL     OW19963   0.639   4.715   2.569 -0.2375  0.0874  0.2697
 2776SOL    HW119964   0.645   4.729   2.663  0.6368  0.0840  0.2098
 2776SOL    HW219965   0.722   0.021   2.547  1.1436 -2.2141  0.9914
 2777SOL     OW19966   4.331   2.442   6.953 -0.2295  0.2639 -0.7217
 2777SOL    HW119967   4.289   2.359   6.932  1.2752  0.3318 -4.0609
 2777SOL    HW219968   4.370   2.421   7.038  0.3863  0.3371 -0.9819
 2778SOL     OW19969   2.895   2.097   4.352  0.1092 -0.1520  0.1786
 2778SOL    HW119970   2.801   2.104   4.367 -0.0807 -1.2627 -0.5773
 2778SOL    HW219971   2.925   2.182   4.387  2.4774 -1.5344  1.5036
 2779SOL     OW19972   1.698   2.158   8.999  0.0087  0.4265 -0.4912
 2779SOL    HW119973   1.606   2.132   8.991  0.1874 -0.4592  0.3804
 2779SOL    HW219974   1.687   2.247   9.033 -0.4461  1.0535 -2.2373
 2780SOL     OW19975   2.158   0.360   4.776  0.3101  0.2091 -0.7618
 2780SOL    HW119976   2.245   0.399   4.776  1.1223 -1.5374  1.5807
 2780SOL    HW219977   2.178   0.276   4.819 -1.5091  0.6290  0.8919
 2781SOL     OW19978   3.744   1.186   4.026  0.3962 -0.2195  0.0461
 2781SOL    HW119979   3.728   1.102   3.981 -2.0602  0.1468  0.2318
 2781SOL    HW219980   3.670   1.170   4.085 -0.1627 -2.7461 -1.3160
 2782SOL     OW19981   1.322   2.083  15.372 -0.2346 -0.5019 -0.6474
 2782SOL    HW119982   1.249   2.024  15.390 -0.1109 -0.1567  0.9760
 2782SOL    HW219983   1.362   2.090  15.459  0.1514 -1.5787 -0.7395
 2783SOL     OW19984   3.369   3.936  11.453  0.0767 -0.2046  0.2802
 2783SOL    HW119985   3.443   3.995  11.466  1.3862 -2.0189  1.0461
 2783SOL    HW219986   3.316   3.961  11.529  1.9805 -0.4555  1.6948
 2784SOL     OW19987   3.943   0.270  13.859  0.4642 -0.5117 -0.1603
 2784SOL    HW119988   3.941   0.348  13.802  2.8600  0.4930  1.1378
 2784SOL    HW219989   4.034   0.271  13.888  0.4074  1.7076 -0.0735
 2785SOL     OW19990   3.974   4.007   0.393  0.0769 -0.0521  0.3962
 2785SOL    HW119991   3.946   4.035   0.305  1.6963  0.8603  0.1813
 2785SOL    HW219992   4.065   4.037   0.390 -0.3848  1.2332 -1.0712
 2786SOL     OW19993   0.889   0.266  15.684  0.7622 -0.5861  0.3757
 2786SOL    HW119994   0.947   0.323  15.736 -1.5142  0.9558  1.2170
 2786SOL    HW219995   0.825   0.328  15.649  0.7667 -0.1571  1.1259
 2787SOL     OW19996   4.692   2.568   7.795 -0.5968  0.1640  0.3189
 2787SOL    HW119997   4.687   2.663   7.808  1.1364  0.3170 -0.1143
 2787SOL    HW219998   0.018   2.563   7.723 -0.6231 -1.2665  0.3977
 2788SOL     OW19999   4.402   2.872   7.710 -0.5598  0.4269  0.1460
 2788SOL    HW120000   4.344   2.832   7.774  1.9070 -3.1106  0.1780
 2788SOL    HW220001   4.338   2.906   7.648 -0.1694  0.2303 -0.3713
 2789SOL     OW20002   3.589   2.969   7.024 -0.7380  0.3140  0.0662
 2789SOL    HW120003   3.596   2.946   6.931  1.2852  1.0363  0.0450
 2789SOL    HW220004   3.569   3.063   7.016  0.9992  0.6975  0.1130
 2790SOL     OW20005   3.138   0.107   7.559 -0.0061  0.5826 -0.1755
 2790SOL    HW120006   3.113   0.101   7.652 -0.5432  0.1115 -0.3506
 2790SOL    HW220007   3.072   0.167   7.525  0.2755  0.5084 -0.8507
 2791SOL     OW20008   0.239   0.024   6.819  0.2708 -0.1353  0.2079
 2791SOL    HW120009   0.154   4.731   6.851 -0.6225 -0.8064 -2.7166
 2791SOL    HW220010   0.196   0.092   6.767 -2.1883 -1.1963  0.8599
 2792SOL     OW20011   3.211   0.326   6.977 -0.3371  0.2149  0.2823
 2792SOL    HW120012   3.223   0.279   7.059 -1.5613 -0.3462  0.1404
 2792SOL    HW220013   3.191   0.416   7.006 -0.0434  0.7634 -1.2374
 2793SOL     OW20014   1.435   2.826   4.111  0.0053  0.4495 -0.3012
 2793SOL    HW120015   1.449   2.918   4.089  0.3855  0.3582 -0.4467
 2793SOL    HW220016   1.457   2.830   4.204  0.1337  0.1046 -0.3179
 2794SOL     OW20017   2.273   2.926   5.976  0.1208  0.6036 -0.4681
 2794SOL    HW120018   2.325   2.873   6.037 -1.3278 -1.0157 -0.6409
 2794SOL    HW220019   2.209   2.862   5.946 -1.0310  1.2021  0.7379
 2795SOL     OW20020   3.761   4.502   7.479 -0.8979 -0.2506  0.3626
 2795SOL    HW120021   3.852   4.475   7.491 -0.9630 -1.0572 -0.8778
 2795SOL    HW220022   3.714   4.436   7.531  0.3801 -0.8993  0.6967
 2796SOL     OW20023   1.038   3.631   4.002 -0.4806 -0.3886 -0.4148
 2796SOL    HW120024   1.032   3.711   4.055  2.1783 -0.4715  0.0037
 2796SOL    HW220025   1.058   3.567   4.071 -0.5498  2.0000  1.8197
 2797SOL     OW20026   2.887   0.148   4.496  0.3437  0.4675 -0.0982
 2797SOL    HW120027   2.909   0.233   4.532 -0.6612 -0.1058  1.8432
 2797SOL    HW220028   2.951   0.148   4.425 -0.3592 -2.5614 -0.7329
 2798SOL     OW20029   3.144   0.855  10.360  0.0893 -0.0430  0.0690
 2798SOL    HW120030   3.138   0.941  10.318 -1.0960  1.0943  2.5827
 2798SOL    HW220031   3.233   0.845  10.393 -0.1218  1.3407  1.0422
 2799SOL     OW20032   4.422   4.448   6.797  0.2156 -0.6071  0.1829
 2799SOL    HW120033   4.484   4.413   6.733  0.8304  0.2287  0.3255
 2799SOL    HW220034   4.406   4.536   6.763  0.1214 -1.0910 -1.0207
 2800SOL     OW20035   1.243   4.469   8.312  0.1111  0.2958 -0.5218
 2800SOL    HW120036   1.247   4.542   8.374  0.7319  1.4181 -1.8793
 2800SOL    HW220037   1.224   4.399   8.374  0.0730 -0.5187 -1.4416
 2801SOL     OW20038   2.833   1.530   5.666 -0.2650  0.6204 -0.1005
 2801SOL    HW120039   2.851   1.623   5.679 -0.7356  0.5298  1.1411
 2801SOL    HW220040   2.827   1.486   5.750  0.3067 -0.0320 -0.3944
 2802SOL     OW20041   3.811   0.627   0.727  0.3856 -0.4046  0.1958
 2802SOL    HW120042   3.891   0.668   0.696 -0.7170  1.5601 -0.0438
 2802SOL    HW220043   3.754   0.657   0.657 -2.1793  1.4339  3.0621
 2803SOL     OW20044   2.822   1.509   8.743 -0.3614  0.2718  0.0339
 2803SOL    HW120045   2.821   1.535   8.651  0.3694  1.3918  0.3430
 2803SOL    HW220046   2.804   1.596   8.778  2.4165  1.7526 -2.1709
 2804SOL     OW20047   1.342   3.720   7.875 -0.0746  0.0298  0.8456
 2804SOL    HW120048   1.361   3.639   7.828 -0.6166  0.2784  0.1892
 2804SOL    HW220049   1.246   3.728   7.873 -0.0106  1.2379  2.6230
 2805SOL     OW20050   4.553   0.742   4.663  0.2529 -0.2926 -0.4591
 2805SOL    HW120051   4.564   0.834   4.641 -1.6602 -0.2688 -1.2838
 2805SOL    HW220052   4.466   0.724   4.628 -0.2725 -0.5773  1.0021
 2806SOL     OW20053   0.501   3.694   3.312  0.7200  0.7009  0.4001
 2806SOL    HW120054   0.417   3.648   3.320  0.4490  0.7070 -2.2986
 2806SOL    HW220055   0.558   3.624   3.281 -0.1692 -0.0470  0.4617
 2807SOL     OW20056   3.603   1.896   2.909 -0.6436 -0.6649 -0.0733
 2807SOL    HW120057   3.514   1.862   2.919 -0.6722 -0.1037  1.5895
 2807SOL    HW220058   3.579   1.986   2.889  0.5527 -0.6074 -1.2461
 2808SOL     OW20059   2.385   1.234   1.036 -0.9217 -0.2714  0.1627
 2808SOL    HW120060   2.413   1.317   0.998  1.6698 -1.3235 -0.2349
 2808SOL    HW220061   2.307   1.223   0.982 -2.2106  0.1290  1.9580
 2809SOL     OW20062   0.274   4.118   2.803  0.3435 -0.3327 -0.0459
 2809SOL    HW120063   0.189   4.133   2.845 -0.7543 -0.1053 -2.4083
 2809SOL    HW220064   0.255   4.032   2.765  0.5092 -0.8364  1.0017
 2810SOL     OW20065   3.140   0.779   4.670  0.6445  0.4822  0.5693
 2810SOL    HW120066   3.093   0.696   4.673  0.2677  0.7097  0.9373
 2810SOL    HW220067   3.193   0.780   4.749 -0.5971  2.3550  1.3703
 2811SOL     OW20068   2.287   3.975  17.081  0.0200 -0.2767 -0.1032
 2811SOL    HW120069   2.312   3.883  17.091  1.7711  0.3604  1.5237
 2811SOL    HW220070   2.351   4.017  17.138  0.2329 -0.2987 -0.3256
 2812SOL     OW20071   4.218   4.110   2.989  0.2442  0.2415 -0.1113
 2812SOL    HW120072   4.216   4.092   2.895 -1.0907 -1.0694  0.1751
 2812SOL    HW220073   4.230   4.025   3.031  0.1171  1.1000  1.6475
 2813SOL     OW20074   0.356   0.656   7.671 -0.0647 -0.4673  0.1353
 2813SOL    HW120075   0.417   0.590   7.705  1.4365  1.3516  0.9963
 2813SOL    HW220076   0.284   0.595   7.655  1.0410 -1.5270 -0.8857
 2814SOL     OW20077   2.110   4.132   8.392 -0.4127 -0.3236  0.0766
 2814SOL    HW120078   2.030   4.135   8.339 -1.1476 -2.4117  1.0648
 2814SOL    HW220079   2.166   4.094   8.324  1.4811 -0.1832  1.5501
 2815SOL     OW20080   0.181   4.646   1.902  0.4237 -0.6352  0.2295
 2815SOL    HW120081   0.168   4.726   1.850  1.2899  0.2590  1.3806
 2815SOL    HW220082   0.162   4.692   1.984 -3.3246  0.4978 -1.2572
 2816SOL     OW20083   2.667   4.305  11.505  0.0006 -0.6481  0.1178
 2816SOL    HW120084   2.681   4.400  11.499 -0.3632 -0.5561  0.6800
 2816SOL    HW220085   2.639   4.276  11.418  0.2365  1.6556 -0.7299
 2817SOL     OW20086   2.807   0.507   0.805  0.1493  0.2191 -0.4551
 2817SOL    HW120087   2.736   0.545   0.856 -0.0588 -3.0346  1.7266
 2817SOL    HW220088   2.880   0.563   0.829 -1.7932  2.9477 -0.9194
 2818SOL     OW20089   2.907   0.646   3.595  0.2906 -0.7501  0.3368
 2818SOL    HW120090   2.855   0.583   3.545  1.6848 -1.2203 -0.5120
 2818SOL    HW220091   2.991   0.651   3.549 -0.6164 -0.4423 -1.3123
 2819SOL     OW20092   4.613   2.585  14.036 -0.1527  1.0186  0.1353
 2819SOL    HW120093   4.640   2.499  14.066 -2.6211  0.6531  1.2920
 2819SOL    HW220094   4.541   2.616  14.092 -0.3926 -0.9016  0.8709
 2820SOL     OW20095   0.050   4.294   1.429  0.8075  0.1418  0.2259
 2820SOL    HW120096   0.134   4.320   1.392  0.1737  0.4262 -1.0215
 2820SOL    HW220097   4.726   4.322   1.360 -0.2623 -0.5507  0.8719
 2821SOL     OW20098   1.813   4.057   6.760 -0.3424  0.0989  0.3019
 2821SOL    HW120099   1.754   4.131   6.777 -2.0282 -0.7432 -1.8985
 2821SOL    HW220100   1.845   4.066   6.670 -3.7184 -1.9930 -1.0949
 2822SOL     OW20101   0.651   1.042   2.468  0.0480  0.4508 -0.1241
 2822SOL    HW120102   0.734   1.046   2.514 -0.1439 -1.3503  0.3782
 2822SOL    HW220103   0.676   1.059   2.377  1.4620 -2.5524 -0.3025
 2823SOL     OW20104   3.602   0.238   2.527 -0.4559 -0.4786 -0.2937
 2823SOL    HW120105   3.531   0.234   2.590  0.5806  1.2136  0.9910
 2823SOL    HW220106   3.588   0.158   2.477  1.5426 -0.5518 -0.7324
 2824SOL     OW20107   2.739   0.555   4.695 -0.0686  0.9496  0.1677
 2824SOL    HW120108   2.704   0.470   4.669  4.9411 -1.3184  0.6818
 2824SOL    HW220109   2.812   0.528   4.751  1.2282  1.4162 -1.2835
 2825SOL     OW20110   0.267   0.617   2.087 -0.4594  0.4919  0.2228
 2825SOL    HW120111   0.217   0.595   2.008 -1.6404 -0.4218  1.2242
 2825SOL    HW220112   0.318   0.697   2.071  0.0621  0.7737  3.3856
 2826SOL     OW20113   1.885   1.712  15.597 -0.0527 -0.0036 -0.6642
 2826SOL    HW120114   1.904   1.784  15.658 -3.2461  0.4098 -0.1558
 2826SOL    HW220115   1.831   1.744  15.525  0.1438  0.8333 -0.4446
 2827SOL     OW20116   2.404   4.663   1.909 -0.2905  0.2807  0.2790
 2827SOL    HW120117   2.387   4.573   1.939 -1.1795 -0.0721 -1.2828
 2827SOL    HW220118   2.328   4.707   1.946  0.9601  3.7621 -1.3705
 2828SOL     OW20119   4.098   3.285   1.679  0.2929 -0.7531  0.5018
 2828SOL    HW120120   4.093   3.192   1.658 -0.4822 -0.5352 -0.2749
 2828SOL    HW220121   4.151   3.327   1.611 -0.0993 -0.4217  0.3963
 2829SOL     OW20122   0.137   2.869   3.715 -0.3439  0.2466  0.5123
 2829SOL    HW120123   0.105   2.907   3.797 -0.5470 -3.5940  2.1806
 2829SOL    HW220124   0.105   2.939   3.658  1.6700  1.3012  0.6848
 2830SOL     OW20125   1.712   3.617   0.669  0.1931 -0.4547  0.2018
 2830SOL    HW120126   1.784   3.672   0.700 -0.0138  0.5792 -1.1430
 2830SOL    HW220127   1.752   3.560   0.603  0.8471 -0.2550  0.4246
 2831SOL     OW20128   2.146   2.301   2.595 -0.2325 -0.2927  0.2263
 2831SOL    HW120129   2.091   2.324   2.520  0.8740 -0.0884 -0.5230
 2831SOL    HW220130   2.159   2.207   2.579 -0.3499 -0.2794  0.0521
 2832SOL     OW20131   0.766   2.442  10.692 -0.2457  0.1687 -0.5507
 2832SOL    HW120132   0.825   2.427  10.619 -1.7543  2.0252 -2.1497
 2832SOL    HW220133   0.758   2.535  10.674 -0.0551  0.4543  0.8588
 2833SOL     OW20134   0.041   2.376   4.200  0.1736 -0.0851 -0.2609
 2833SOL    HW120135   4.684   2.365   4.184  0.5613 -0.2124 -2.4543
 2833SOL    HW220136   0.066   2.285   4.217  1.7253  0.5778  0.9842
 2834SOL     OW20137   0.755   2.796   6.205 -0.2055 -0.2528 -0.4013
 2834SOL    HW120138   0.795   2.799   6.119  0.7177 -2.0868 -0.0474
 2834SOL    HW220139   0.833   2.810   6.259 -0.5715  1.1271 -0.2347
 2835SOL     OW20140   2.135   3.029  12.172 -0.6248 -0.2032 -0.1665
 2835SOL    HW120141   2.182   2.998  12.094 -0.0290 -0.1557  0.1663
 2835SOL    HW220142   2.083   2.955  12.203  1.4596 -1.2533  0.8632
 2836SOL     OW20143   3.676   0.009   6.775  0.3104 -0.3596  0.1078
 2836SOL    HW120144   3.635   0.026   6.690 -0.4154  1.5196  0.8359
 2836SOL    HW220145   3.599   0.027   6.829  1.1991 -0.7091  1.4971
 2837SOL     OW20146   0.194   0.650  10.716  0.0505  0.2396  0.3895
 2837SOL    HW120147   0.181   0.609  10.801 -3.0397  1.3633  0.4352
 2837SOL    HW220148   0.289   0.663  10.706 -0.3523  3.2670  0.3831
 2838SOL     OW20149   1.568   0.873  13.265  0.4352 -0.4365 -0.0182
 2838SOL    HW120150   1.506   0.805  13.293  0.6768  0.5862  2.9614
 2838SOL    HW220151   1.633   0.822  13.218 -0.4875 -0.7667 -0.9269
 2839SOL     OW20152   2.061   1.834   8.251  0.3227  0.3302  0.5023
 2839SOL    HW120153   2.075   1.754   8.200 -0.5087 -0.2796  1.2199
 2839SOL    HW220154   1.975   1.826   8.292  0.2320  1.6280  0.5639
 2840SOL     OW20155   1.788   1.730   7.007 -0.6283  0.0918  0.3324
 2840SOL    HW120156   1.715   1.672   7.027  0.7337 -0.5813  3.3347
 2840SOL    HW220157   1.860   1.685   7.051  0.0868 -1.2601 -2.2042
 2841SOL     OW20158   1.268   3.482   8.821 -0.4674  0.9400 -0.3780
 2841SOL    HW120159   1.245   3.506   8.911 -0.3361 -0.8593  0.1333
 2841SOL    HW220160   1.279   3.388   8.826  1.5541  1.2801  1.8052
 2842SOL     OW20161   3.680   4.102  15.352 -0.0882  0.1427 -0.2599
 2842SOL    HW120162   3.614   4.158  15.312  1.9281  3.1955  0.6907
 2842SOL    HW220163   3.652   4.080  15.441 -0.2651  1.2902 -0.0303
 2843SOL     OW20164   0.611   4.008   6.550  0.0397 -0.3139 -0.3024
 2843SOL    HW120165   0.532   3.961   6.577  1.4576 -0.7616  3.1239
 2843SOL    HW220166   0.575   4.070   6.486  0.7749 -0.9240 -1.3101
 2844SOL     OW20167   4.449   3.365   1.085 -0.2560 -0.0205 -0.1033
 2844SOL    HW120168   4.514   3.380   1.154  0.0131 -1.1376 -0.1101
 2844SOL    HW220169   4.378   3.429   1.088 -2.3655 -2.3936  0.9348
 2845SOL     OW20170   2.526   0.125   8.542 -0.1748 -0.2785  0.1635
 2845SOL    HW120171   2.477   0.161   8.468 -1.3447  0.4857  1.3108
 2845SOL    HW220172   2.557   0.040   8.513  1.3335 -0.0426  1.0905
 2846SOL     OW20173   3.403   3.732   5.688 -0.5272 -0.0968  0.0505
 2846SOL    HW120174   3.497   3.744   5.679 -0.5311  0.0293  0.1785
 2846SOL    HW220175   3.393   3.643   5.655  1.5321 -0.1141 -0.5474
 2847SOL     OW20176   4.189   1.359   2.736  0.0495  0.2221  0.0952
 2847SOL    HW120177   4.258   1.336   2.674  0.7024 -0.1485  0.9640
 2847SOL    HW220178   4.176   1.273   2.776 -0.1022  0.9945  1.7022
 2848SOL     OW20179   2.501   4.270   1.841  0.2490 -0.4082 -0.6093
 2848SOL    HW120180   2.435   4.203   1.823  0.6888 -0.6732 -1.2544
 2848SOL    HW220181   2.458   4.332   1.899 -1.0068 -0.6726 -1.2401
 2849SOL     OW20182   3.507   4.505   6.873  0.1635  0.3520  0.2186
 2849SOL    HW120183   3.504   4.584   6.927  0.9743 -0.4709  1.4728
 2849SOL    HW220184   3.443   4.457   6.926  0.7572 -0.4825  0.1870
 2850SOL     OW20185   2.834   2.844  16.423 -0.6079 -0.0858 -1.3145
 2850SOL    HW120186   2.844   2.750  16.414 -0.7881 -0.2094 -0.2589
 2850SOL    HW220187   2.925   2.870  16.439 -1.1556  2.1877 -1.8903
 2851SOL     OW20188   2.327   1.249   4.047  0.2703 -0.4037 -0.3222
 2851SOL    HW120189   2.268   1.202   4.107 -0.1342 -0.3512 -0.6742
 2851SOL    HW220190   2.302   1.219   3.960 -2.5746  1.2274 -0.0900
 2852SOL     OW20191   3.972   0.136   6.615 -0.4949 -0.0922  0.2605
 2852SOL    HW120192   4.003   0.221   6.644 -1.5073  0.6139 -0.6957
 2852SOL    HW220193   4.057   0.100   6.590  0.0495  0.7812  0.9082
 2853SOL     OW20194   4.473   0.580   9.363 -0.1461  1.0081  0.0676
 2853SOL    HW120195   4.546   0.631   9.327 -1.2796  0.8617 -2.4365
 2853SOL    HW220196   4.407   0.602   9.296  1.0438  0.2518 -1.3516
 2854SOL     OW20197   0.239   2.634  12.704 -0.2599 -0.1938 -0.3837
 2854SOL    HW120198   0.308   2.600  12.647  2.3414  2.7275  1.0035
 2854SOL    HW220199   0.265   2.609  12.792  1.2281  1.3425 -0.3880
 2855SOL     OW20200   3.460   4.139  16.310  0.6472  0.0642  0.6337
 2855SOL    HW120201   3.438   4.228  16.340 -3.4334 -0.7468  0.0565
 2855SOL    HW220202   3.541   4.150  16.260  0.3964  0.7955  0.3794
 2856SOL     OW20203   1.277   4.103   1.837 -0.2087  0.4343 -0.4259
 2856SOL    HW120204   1.199   4.048   1.834 -0.2286  0.3656  1.4652
 2856SOL    HW220205   1.256   4.143   1.921  0.3156 -0.4720  0.1344
 2857SOL     OW20206   0.431   2.228   7.561 -0.1952 -0.6116 -0.3007
 2857SOL    HW120207   0.423   2.206   7.468 -1.1596 -1.9018  0.0816
 2857SOL    HW220208   0.475   2.311   7.546  0.2670 -1.0835 -1.5981
 2858SOL     OW20209   2.007   0.193   4.219  0.5806 -0.1242  0.4214
 2858SOL    HW120210   2.066   0.168   4.290  1.6324  1.1821  0.0022
 2858SOL    HW220211   1.932   0.220   4.271 -0.7224 -0.1413 -1.4407
 2859SOL     OW20212   2.019   3.741   0.689 -0.0829 -0.2374  0.1595
 2859SOL    HW120213   2.005   3.713   0.598 -1.0368 -2.3239  0.9820
 2859SOL    HW220214   2.031   3.656   0.729 -0.2941 -0.1098  0.4859
 2860SOL     OW20215   1.942   2.769   5.665 -0.3960  0.0303 -0.1165
 2860SOL    HW120216   2.032   2.737   5.663  1.0365  4.0921  0.1956
 2860SOL    HW220217   1.932   2.763   5.760 -0.3676  1.5677 -0.0275
 2861SOL     OW20218   3.999   0.778   8.002  0.0197 -0.3883  0.5033
 2861SOL    HW120219   4.042   0.775   8.088  0.7217 -1.0212  0.1271
 2861SOL    HW220220   4.049   0.720   7.944  1.8865  1.1331  0.5752
 2862SOL     OW20221   3.592   1.256   9.360 -0.1248 -0.5781 -0.2154
 2862SOL    HW120222   3.526   1.193   9.332 -0.7626  1.3453 -3.0859
 2862SOL    HW220223   3.594   1.316   9.285  2.8973  0.6878  0.8691
 2863SOL     OW20224   0.957   2.934  13.387  0.1091 -0.2153  0.4801
 2863SOL    HW120225   0.887   2.943  13.452  0.2708 -2.4688  0.9542
 2863SOL    HW220226   0.916   2.877  13.321  0.2068 -0.2679  0.4654
 2864SOL     OW20227   2.198   2.398  16.257  0.3284 -0.2590  0.8092
 2864SOL    HW120228   2.154   2.441  16.330  0.7889 -0.3370  1.1338
 2864SOL    HW220229   2.244   2.476  16.224  0.3676 -0.4687  0.3689
 2865SOL     OW20230   2.603   2.101   2.603 -0.1655  0.2387 -0.1187
 2865SOL    HW120231   2.517   2.095   2.561 -0.5879  0.6609  0.6864
 2865SOL    HW220232   2.578   2.086   2.694 -0.7891 -1.3767 -0.5512
 2866SOL     OW20233   4.352   1.263  14.293  0.2842 -0.6056  0.5464
 2866SOL    HW120234   4.404   1.337  14.323 -1.6799  0.9195  0.1912
 2866SOL    HW220235   4.290   1.264  14.366  0.7388 -0.3244  0.9301
 2867SOL     OW20236   2.052   4.153   6.480 -1.1297 -0.5281 -0.3255
 2867SOL    HW120237   2.038   4.064   6.450 -1.3315 -0.3822 -0.6638
 2867SOL    HW220238   2.146   4.167   6.484 -1.2894  0.7916 -1.2287
 2868SOL     OW20239   2.584   2.141   5.668  0.1228  0.6474 -0.4625
 2868SOL    HW120240   2.539   2.078   5.725 -0.8987 -0.5170 -2.5334
 2868SOL    HW220241   2.509   2.193   5.638 -0.2433  1.4064  1.7348
 2869SOL     OW20242   1.255   2.248  15.185 -0.1994 -0.1064 -0.0738
 2869SOL    HW120243   1.246   2.193  15.263  0.8579 -1.9600 -1.2551
 2869SOL    HW220244   1.346   2.234  15.157 -0.0865 -1.4264  0.9506
 2870SOL     OW20245   2.473   2.118   1.378 -0.1694  0.5819 -0.0514
 2870SOL    HW120246   2.533   2.043   1.380 -1.5356 -0.4674  1.2964
 2870SOL    HW220247   2.513   2.177   1.314  0.4505 -0.2183 -0.4138
 2871SOL     OW20248   1.244   3.137  15.884  0.1001  0.3415 -0.4653
 2871SOL    HW120249   1.185   3.073  15.844 -0.3240  0.8485 -0.6503
 2871SOL    HW220250   1.324   3.085  15.878 -0.6908 -1.0752  1.3431
 2872SOL     OW20251   3.221   2.244   5.678 -0.0979 -0.4099  0.3897
 2872SOL    HW120252   3.209   2.301   5.754 -0.5344  0.9374 -0.7012
 2872SOL    HW220253   3.270   2.169   5.712 -0.3395  0.4158  2.5888
 2873SOL     OW20254   2.704   3.394   0.826 -0.1753  0.2195  0.9234
 2873SOL    HW120255   2.750   3.319   0.864 -1.3635 -0.4109  1.0971
 2873SOL    HW220256   2.702   3.374   0.732  0.2297 -0.1104  0.9888
 2874SOL     OW20257   4.241   0.265   0.297  0.1073  0.4714  0.3376
 2874SOL    HW120258   4.198   0.180   0.309  0.5094  0.0430 -1.1916
 2874SOL    HW220259   4.238   0.285   0.203  0.4779  1.4016  0.5279
 2875SOL     OW20260   2.828   1.916   1.994  0.4692  0.1775 -0.4268
 2875SOL    HW120261   2.859   2.004   2.014 -0.8233 -0.0254  2.4896
 2875SOL    HW220262   2.908   1.864   1.986 -0.4438 -1.0345 -1.6369
 2876SOL     OW20263   3.382   0.218   0.974 -0.7314  0.5371 -0.6569
 2876SOL    HW120264   3.330   0.169   0.911 -0.7565 -0.3695  0.0751
 2876SOL    HW220265   3.332   0.215   1.056  0.4191  0.1808  0.0309
 2877SOL     OW20266   2.302   4.270   8.152  0.0626 -0.1602  0.0567
 2877SOL    HW120267   2.363   4.204   8.186 -0.6285 -1.6054 -1.4789
 2877SOL    HW220268   2.309   4.260   8.057  0.7137 -2.2049  0.3214
 2878SOL     OW20269   4.162   1.339   3.975 -0.3866 -0.1225  0.2651
 2878SOL    HW120270   4.076   1.306   4.001 -0.5755  2.9083  3.5812
 2878SOL    HW220271   4.174   1.410   4.038 -0.3353 -0.1256  0.2593
 2879SOL     OW20272   0.542   0.379   8.126 -0.0907 -0.4477 -0.3158
 2879SOL    HW120273   0.515   0.299   8.081 -1.8152  0.1501 -0.3604
 2879SOL    HW220274   0.636   0.379   8.141 -0.1982 -0.2813  0.3642
 2880SOL     OW20275   4.509   4.514   6.450  0.1440  0.0263  0.1105
 2880SOL    HW120276   4.453   4.579   6.493 -0.4040 -0.9334  0.8392
 2880SOL    HW220277   4.494   4.432   6.497 -2.5168  1.3156  1.4686
 2881SOL     OW20278   4.636   2.587   5.958  0.1757 -0.1488 -0.1033
 2881SOL    HW120279   4.588   2.532   5.896 -0.4393 -0.6744  0.8334
 2881SOL    HW220280   4.562   2.613   6.013  1.4572  1.7979  0.7149
 2882SOL     OW20281   4.467   0.919  12.836  0.8778  0.5945  0.1411
 2882SOL    HW120282   4.450   0.873  12.918  2.3115  1.6882  1.0673
 2882SOL    HW220283   4.485   0.840  12.786  0.9702  0.0844  0.9732
 2883SOL     OW20284   0.727   0.552  11.924  0.0567  0.0615  0.1475
 2883SOL    HW120285   0.716   0.608  12.001 -0.6705  0.4021 -0.2032
 2883SOL    HW220286   0.638   0.555  11.888  0.0287  1.2641  0.3141
 2884SOL     OW20287   2.283   4.671  17.161 -0.6288  0.0227 -0.2773
 2884SOL    HW120288   2.248   4.584  17.181 -1.2880  0.3880  0.1822
 2884SOL    HW220289   2.324   4.666  17.075  1.5212  2.1706  0.6047
 2885SOL     OW20290   4.634   3.142   2.491 -0.5946  0.1183 -0.2961
 2885SOL    HW120291   4.662   3.051   2.502  0.3718  0.4383 -0.1150
 2885SOL    HW220292   4.621   3.175   2.581 -3.3049 -0.2807 -0.5256
 2886SOL     OW20293   0.270   3.953   7.048  0.0200  0.0289 -0.7777
 2886SOL    HW120294   0.285   4.026   6.988 -0.1762  0.5048 -0.2470
 2886SOL    HW220295   0.218   3.896   6.991 -0.3803  0.3993 -0.7829
 2887SOL     OW20296   0.622   0.426   4.346  0.2362 -0.1103 -0.6292
 2887SOL    HW120297   0.593   0.427   4.437  0.5399  0.7198 -0.5421
 2887SOL    HW220298   0.710   0.389   4.355 -1.4138 -2.9624  4.0461
 2888SOL     OW20299   2.539   2.109   8.107 -0.0178 -0.0806  0.0072
 2888SOL    HW120300   2.543   2.064   8.191 -0.8748 -2.0156 -0.9775
 2888SOL    HW220301   2.602   2.177   8.131 -1.0130  1.3042 -1.3229
 2889SOL     OW20302   3.940   4.595  17.194 -0.8202  0.3133 -0.0892
 2889SOL    HW120303   3.923   4.632  17.281 -3.6322 -0.1884 -0.4208
 2889SOL    HW220304   3.975   4.509  17.214  0.1965  0.6786 -0.2826
 2890SOL     OW20305   0.765   2.098   9.101 -0.1080 -0.7857  0.1533
 2890SOL    HW120306   0.775   2.006   9.125  0.6511 -0.3920  1.3756
 2890SOL    HW220307   0.698   2.096   9.032  0.8559 -0.3353 -0.7914
 2891SOL     OW20308   3.163   2.953   8.391  0.1210 -0.7742 -0.2392
 2891SOL    HW120309   3.167   2.857   8.395  0.8140 -0.7570 -0.4953
 2891SOL    HW220310   3.176   2.966   8.297  0.8551 -0.7764 -0.1441
 2892SOL     OW20311   0.323   4.500   1.712  0.2715 -0.3826  0.0309
 2892SOL    HW120312   0.269   4.423   1.728 -1.0826  0.7617  0.9699
 2892SOL    HW220313   0.280   4.565   1.767 -1.8025 -1.7208 -0.0126
 2893SOL     OW20314   1.128   4.160  14.531  0.7846  0.3640 -0.2628
 2893SOL    HW120315   1.088   4.091  14.478  0.2038  2.4860 -2.6016
 2893SOL    HW220316   1.086   4.239  14.496  0.2935  0.2205  0.0006
 2894SOL     OW20317   3.364   2.459   6.804 -1.1296 -0.3210 -0.0205
 2894SOL    HW120318   3.277   2.423   6.825 -1.7904  1.0911 -0.3176
 2894SOL    HW220319   3.358   2.529   6.869  0.0209 -0.2739  0.0313
 2895SOL     OW20320   1.193   4.343   6.604 -0.5973  0.1349  0.2007
 2895SOL    HW120321   1.173   4.436   6.611 -1.8842 -0.1755  0.7032
 2895SOL    HW220322   1.106   4.311   6.577 -0.6569 -0.4606  1.0978
 2896SOL     OW20323   1.576   2.258   2.951  0.3995  0.2950 -0.8638
 2896SOL    HW120324   1.663   2.226   2.925  0.3407 -0.9459  0.4871
 2896SOL    HW220325   1.568   2.345   2.912  1.8398  0.4901 -0.7190
 2897SOL     OW20326   1.517   1.444  10.039  0.3258  0.1166  1.1846
 2897SOL    HW120327   1.496   1.382  10.109 -1.8337  1.5979  1.8511
 2897SOL    HW220328   1.452   1.421   9.972 -1.1971 -0.3257  2.7995
 2898SOL     OW20329   4.150   2.770  13.080  0.2039 -0.4765  0.3591
 2898SOL    HW120330   4.202   2.818  13.144 -0.0757 -1.1250  1.0892
 2898SOL    HW220331   4.169   2.807  12.994 -0.8307  0.4863  0.5525
 2899SOL     OW20332   1.962   2.975   8.306  0.0778  0.1606  0.0975
 2899SOL    HW120333   2.020   2.913   8.350 -1.5311 -0.2975  1.5679
 2899SOL    HW220334   1.935   2.923   8.231 -2.5870  0.4385  0.8467
 2900SOL     OW20335   2.283   0.396   3.775 -0.7617 -0.3457  0.0793
 2900SOL    HW120336   2.229   0.425   3.701  1.7672  1.5282 -1.0333
 2900SOL    HW220337   2.220   0.379   3.845 -0.1283 -2.7738  0.0795
 2901SOL     OW20338   3.749   3.093   6.454  0.2597  0.0124  1.0364
 2901SOL    HW120339   3.694   3.117   6.380  3.1284  1.1797 -0.7291
 2901SOL    HW220340   3.740   3.166   6.514  0.4220 -0.0853  1.1784
 2902SOL     OW20341   0.111   0.569   8.215  0.2337 -0.2075 -0.4529
 2902SOL    HW120342   0.193   0.551   8.261  0.5214  1.0682 -0.4628
 2902SOL    HW220343   0.100   0.505   8.145 -0.0329 -2.5943  1.7873
 2903SOL     OW20344   3.451   2.392   4.882  0.1513  0.2917 -0.0552
 2903SOL    HW120345   3.426   2.317   4.936  1.3847 -1.4369 -1.8903
 2903SOL    HW220346   3.500   2.448   4.943  1.8914 -0.8335 -0.4248
 2904SOL     OW20347   1.199   4.412   4.564 -0.1541  0.9870  0.5692
 2904SOL    HW120348   1.166   4.421   4.474  0.1901 -0.0766  0.3366
 2904SOL    HW220349   1.290   4.388   4.549  0.2213  2.6994  0.1031
 2905SOL     OW20350   0.524   2.454   0.210 -0.4753 -0.1796 -0.4101
 2905SOL    HW120351   0.472   2.520   0.258 -0.9857 -0.9076  0.0377
 2905SOL    HW220352   0.604   2.505   0.201 -0.6405  0.2499  0.4840
 2906SOL     OW20353   1.591   0.236  15.145  0.2707  0.1597 -0.0982
 2906SOL    HW120354   1.517   0.221  15.205  1.6170 -2.7163  0.8578
 2906SOL    HW220355   1.545   0.200  15.069 -2.1664  2.9675  0.0711
 2907SOL     OW20356   4.728   1.931   3.320  0.0536  0.2567 -0.1672
 2907SOL    HW120357   0.056   2.000   3.309  0.2460  0.1089  0.0179
 2907SOL    HW220358   0.041   1.869   3.374 -1.5964 -0.8544  0.0598
 2908SOL     OW20359   3.321   0.734  14.204  0.6538 -0.4380 -0.0610
 2908SOL    HW120360   3.232   0.697  14.211  0.9380 -1.0826  0.1627
 2908SOL    HW220361   3.324   0.789  14.126 -2.1475 -0.5923 -0.3049
 2909SOL     OW20362   0.060   4.409   2.325 -0.0500  0.0268 -0.1947
 2909SOL    HW120363   0.123   4.419   2.397 -0.5540 -0.7079  0.3512
 2909SOL    HW220364   0.067   4.313   2.323  0.1688  0.0288  0.4121
 2910SOL     OW20365   0.492   4.364  14.330  0.3332 -0.0649  0.3412
 2910SOL    HW120366   0.537   4.404  14.255 -0.0329  1.7352  1.0912
 2910SOL    HW220367   0.567   4.339  14.384 -0.4834  2.0806  2.4246
 2911SOL     OW20368   2.657   2.625   7.657  0.1253  0.1323 -0.1725
 2911SOL    HW120369   2.612   2.577   7.727 -0.3574  2.3581  1.0204
 2911SOL    HW220370   2.743   2.630   7.697  0.5720 -0.6954 -1.0411
 2912SOL     OW20371   2.111   2.585   7.237 -0.3967 -0.1116  0.1527
 2912SOL    HW120372   2.105   2.581   7.333 -0.6171 -1.7185  0.0617
 2912SOL    HW220373   2.189   2.529   7.229 -0.0139  0.0903  2.2725
 2913SOL     OW20374   0.985   2.766   6.352  0.0696 -0.4098  0.7161
 2913SOL    HW120375   1.075   2.767   6.385 -0.8473  0.9350  3.2068
 2913SOL    HW220376   0.954   2.703   6.416 -0.3313 -1.2699 -0.3317
 2914SOL     OW20377   0.910   2.552   2.499  0.2507 -0.6569  0.3516
 2914SOL    HW120378   0.990   2.565   2.448 -0.9917  0.7223 -1.2316
 2914SOL    HW220379   0.917   2.635   2.547 -0.4391  0.5543 -1.6801
 2915SOL     OW20380   3.798   1.987   5.492 -0.2780  0.5526 -0.4308
 2915SOL    HW120381   3.815   2.079   5.511  1.8368 -0.1886  1.2409
 2915SOL    HW220382   3.723   1.975   5.551 -0.0060  0.6598 -0.0618
 2916SOL     OW20383   0.924   1.212   4.830  0.2896 -0.0448  0.1553
 2916SOL    HW120384   0.939   1.125   4.793 -1.7870 -0.0672 -0.6348
 2916SOL    HW220385   0.974   1.198   4.910 -0.8080  1.0300  1.0272
 2917SOL     OW20386   3.919   0.088   8.666 -0.2315  0.2385 -0.2665
 2917SOL    HW120387   3.919   4.731   8.689  2.4074  0.1197 -0.6892
 2917SOL    HW220388   3.952   0.083   8.576 -2.7440 -1.5303 -1.0895
 2918SOL     OW20389   0.915   4.254  15.869  0.1514 -0.2599  0.7239
 2918SOL    HW120390   0.905   4.316  15.797 -1.1531 -1.0261  0.2454
 2918SOL    HW220391   1.009   4.261  15.885  0.3635 -0.1963 -0.5126
 2919SOL     OW20392   4.133   2.767   0.436  0.1254 -0.0135  0.5541
 2919SOL    HW120393   4.124   2.683   0.390 -0.9147  0.2063  0.3570
 2919SOL    HW220394   4.043   2.774   0.469 -0.1540 -1.0828  0.0402
 2920SOL     OW20395   2.639   3.557  14.594  0.1946 -0.2067  0.1771
 2920SOL    HW120396   2.701   3.552  14.667  0.3159  2.4008  0.2411
 2920SOL    HW220397   2.687   3.598  14.523 -1.8328  1.7874 -0.0666
 2921SOL     OW20398   2.521   2.493   4.044 -0.6500 -0.1914  0.0004
 2921SOL    HW120399   2.596   2.551   4.058 -1.2498  0.4316  0.6472
 2921SOL    HW220400   2.487   2.538   3.966  1.6364  2.0312  0.2825
 2922SOL     OW20401   3.978   0.120   1.311  0.3134  0.1906  0.0488
 2922SOL    HW120402   3.917   0.054   1.342 -1.2661  1.5899 -0.0970
 2922SOL    HW220403   3.942   0.196   1.356  2.1663 -0.0345  1.8651
 2923SOL     OW20404   0.957   3.957  11.230 -0.2946 -0.3323  0.4637
 2923SOL    HW120405   0.986   3.890  11.168  2.2576  1.7998 -0.6197
 2923SOL    HW220406   0.917   4.016  11.166 -0.0884  0.0046  0.6514
 2924SOL     OW20407   0.683   3.937   6.102  0.1864  0.0583  0.2982
 2924SOL    HW120408   0.623   3.880   6.151  1.8786 -0.5558  1.6168
 2924SOL    HW220409   0.755   3.880   6.077  1.4085  0.6904  2.4803
 2925SOL     OW20410   3.933   2.765   2.185  0.5448 -0.4012  0.0751
 2925SOL    HW120411   3.890   2.680   2.172  0.5910 -0.3465 -0.4447
 2925SOL    HW220412   4.001   2.748   2.120  0.8389 -3.3124  1.1510
 2926SOL     OW20413   1.206   3.413   3.536  0.7986 -0.0664  0.4348
 2926SOL    HW120414   1.259   3.450   3.607  0.0507  2.1378 -0.1662
 2926SOL    HW220415   1.247   3.453   3.459  0.3313 -1.0020 -0.3054
 2927SOL     OW20416   0.797   4.590  15.716 -0.1157 -0.6682  0.0092
 2927SOL    HW120417   0.817   4.651  15.787  1.7210 -0.2058 -0.9105
 2927SOL    HW220418   0.842   4.636  15.645  0.3644  1.3702  1.6085
 2928SOL     OW20419   3.506   1.116   4.195 -0.2668 -0.6145 -0.2833
 2928SOL    HW120420   3.451   1.194   4.185  1.8583  1.0081  0.5454
 2928SOL    HW220421   3.446   1.058   4.148 -0.6431 -0.4878  0.0309
 2929SOL     OW20422   3.996   1.574  12.186 -0.2340  0.1183 -0.8793
 2929SOL    HW120423   4.000   1.531  12.272 -1.3006  0.3164 -0.7309
 2929SOL    HW220424   4.067   1.529  12.142  1.6304  0.8654  1.3412
 2930SOL     OW20425   2.103   0.079   7.484  0.0076  0.0776  0.2082
 2930SOL    HW120426   2.099   4.721   7.501 -0.4098  0.6230  3.2232
 2930SOL    HW220427   2.161   0.121   7.547  1.5943  0.1354 -1.3177
 2931SOL     OW20428   2.323   4.371  16.321 -0.1094 -0.4479 -0.6927
 2931SOL    HW120429   2.393   4.370  16.387 -0.1614  2.7706 -0.5957
 2931SOL    HW220430   2.383   4.401  16.254  0.8707 -0.8549  0.0052
 2932SOL     OW20431   0.655   0.128   7.302 -0.0262  0.2748  0.2973
 2932SOL    HW120432   0.693   0.206   7.342 -0.6210  0.7502 -0.0634
 2932SOL    HW220433   0.724   0.063   7.287  1.3622  1.5781  1.0661
 2933SOL     OW20434   4.598   2.435  13.630  0.0059 -0.3571 -0.0773
 2933SOL    HW120435   4.526   2.371  13.628 -1.2406  1.1180 -2.4626
 2933SOL    HW220436   4.547   2.515  13.642 -0.0167 -0.0183 -2.3061
 2934SOL     OW20437   0.465   0.462   3.415 -0.2876  0.2599 -0.2630
 2934SOL    HW120438   0.510   0.379   3.399 -2.4782  0.1193 -5.7497
 2934SOL    HW220439   0.536   0.520   3.442 -1.2711  0.8883  0.9879
 2935SOL     OW20440   1.166   3.430   9.937  0.1485 -0.5332 -0.5846
 2935SOL    HW120441   1.080   3.471   9.948  2.6032  4.4792 -0.4807
 2935SOL    HW220442   1.212   3.512   9.921 -0.8722 -0.2810 -2.3078
 2936SOL     OW20443   2.693   1.691   4.705  0.2006 -0.0673  0.8044
 2936SOL    HW120444   2.748   1.613   4.714  2.4411  1.4906  0.7295
 2936SOL    HW220445   2.762   1.750   4.674 -1.6718  1.9333  0.4395
 2937SOL     OW20446   4.127   3.780   3.361  0.0911  0.0798  0.0322
 2937SOL    HW120447   4.102   3.689   3.380  1.5154 -0.2471  0.3402
 2937SOL    HW220448   4.173   3.819   3.435  1.5660  1.0099 -1.3855
 2938SOL     OW20449   3.277   3.119   7.838  0.4933  0.5032  0.1156
 2938SOL    HW120450   3.346   3.081   7.892 -1.2906 -2.0021  0.5934
 2938SOL    HW220451   3.274   3.201   7.889  1.6085  1.1212 -0.8154
 2939SOL     OW20452   4.223   2.362   5.220  0.2157 -0.1856  0.2104
 2939SOL    HW120453   4.172   2.357   5.139  0.9723  0.6457 -0.3103
 2939SOL    HW220454   4.187   2.285   5.264 -1.0808  0.1499 -0.2484
 2940SOL     OW20455   1.657   3.566   1.755  0.7100  0.9647  0.1099
 2940SOL    HW120456   1.705   3.617   1.820 -1.7407  0.8574  2.0099
 2940SOL    HW220457   1.667   3.475   1.784  0.9121  1.0859  0.4138
 2941SOL     OW20458   1.133   3.047   7.543 -0.2033  0.4006 -0.1003
 2941SOL    HW120459   1.093   3.086   7.465 -2.1633  0.7143  1.0619
 2941SOL    HW220460   1.104   2.959   7.519 -0.5390  0.3379  0.5560
 2942SOL     OW20461   0.652   3.420   6.638  0.2829  0.4670  0.6434
 2942SOL    HW120462   0.620   3.369   6.713  2.4879 -0.2741  1.0600
 2942SOL    HW220463   0.608   3.367   6.572 -0.6042 -0.8027  2.2382
 2943SOL     OW20464   3.708   4.659  15.849  0.2324  0.1816 -0.2411
 2943SOL    HW120465   3.660   4.718  15.907 -0.4640  0.8791 -1.5341
 2943SOL    HW220466   3.671   4.666  15.762 -0.0968  0.6033 -0.0672
 2944SOL     OW20467   1.689   3.821   6.869  0.4096 -0.3133  0.3968
 2944SOL    HW120468   1.722   3.907   6.895  1.2534  0.1909 -2.3571
 2944SOL    HW220469   1.599   3.842   6.844  0.1586 -0.8112  0.8631
 2945SOL     OW20470   0.503   1.461   7.804  0.5091  0.1895  0.0910
 2945SOL    HW120471   0.496   1.516   7.882  1.1990 -1.1896  1.1160
 2945SOL    HW220472   0.478   1.373   7.831 -1.1362  1.2584  2.0858
 2946SOL     OW20473   3.316   4.156  16.667  0.0734 -0.6832  0.0710
 2946SOL    HW120474   3.240   4.182  16.615  0.1749  0.5140  0.5110
 2946SOL    HW220475   3.383   4.223  16.653 -0.6280 -0.5191 -2.4939
 2947SOL     OW20476   0.056   2.416   6.169 -0.1099 -0.3440 -0.4277
 2947SOL    HW120477   4.716   2.449   6.217  1.0151  0.5775  0.7614
 2947SOL    HW220478   0.062   2.461   6.085 -0.5751  0.3002 -0.1150
 2948SOL     OW20479   3.475   0.767   2.026 -0.1023 -0.2480 -0.5360
 2948SOL    HW120480   3.442   0.849   2.063 -1.3218 -0.4426 -1.1883
 2948SOL    HW220481   3.453   0.703   2.093  0.1347 -0.2721 -0.4811
 2949SOL     OW20482   3.049   2.968  16.762  0.4631 -0.1014  0.4884
 2949SOL    HW120483   3.005   3.053  16.759 -2.3248 -1.6743 -2.0126
 2949SOL    HW220484   3.029   2.950  16.854 -0.2446 -0.8377  0.1901
 2950SOL     OW20485   3.862   2.013   1.177  0.5735 -0.7542 -0.0962
 2950SOL    HW120486   3.941   2.061   1.155 -0.5089  0.7596 -0.6731
 2950SOL    HW220487   3.804   2.034   1.104  0.9373  1.7905  0.3612
 2951SOL     OW20488   0.956   2.385  11.032  0.0420 -0.5263  0.0592
 2951SOL    HW120489   1.024   2.320  11.014  1.3431  0.3455  1.8451
 2951SOL    HW220490   0.875   2.357  10.988  1.1019 -0.2735 -2.0427
 2952SOL     OW20491   3.168   3.291   2.200  0.3303  0.4737  0.3066
 2952SOL    HW120492   3.129   3.366   2.155  0.2325  0.3557  0.1919
 2952SOL    HW220493   3.258   3.322   2.195 -0.3064  2.2015 -0.5196
 2953SOL     OW20494   1.215   3.669   8.129  0.0975  0.2076 -0.4521
 2953SOL    HW120495   1.300   3.628   8.118  0.4155  0.5199  0.8548
 2953SOL    HW220496   1.158   3.596   8.154  2.1791 -1.2349 -0.0127
 2954SOL     OW20497   1.546   4.264  15.633 -0.2249 -0.4251  0.2100
 2954SOL    HW120498   1.592   4.182  15.653  0.1104 -0.9787 -2.7476
 2954SOL    HW220499   1.519   4.238  15.545  1.0885  0.6995 -0.5295
 2955SOL     OW20500   3.702   0.028   4.582 -0.0255  1.0347 -0.0088
 2955SOL    HW120501   3.671   0.101   4.635 -1.0413  1.2813 -0.9535
 2955SOL    HW220502   3.797   0.020   4.592 -0.4830 -1.6789  2.2409
 2956SOL     OW20503   3.858   1.731   6.167  0.6836  0.5125 -0.4076
 2956SOL    HW120504   3.926   1.798   6.168  1.0218  0.1154  2.2928
 2956SOL    HW220505   3.786   1.787   6.139 -0.1613  0.2308  1.2517
 2957SOL     OW20506   3.712   2.222   4.646  0.4418  0.3407  0.1612
 2957SOL    HW120507   3.630   2.173   4.643 -0.2175  1.3366  2.1865
 2957SOL    HW220508   3.677   2.311   4.643  0.2046  0.1441 -2.8582
 2958SOL     OW20509   1.975   4.517   2.460 -0.7281 -0.3069 -0.5849
 2958SOL    HW120510   1.964   4.424   2.477 -0.6183 -0.2164 -0.0457
 2958SOL    HW220511   2.022   4.537   2.541  0.3779  0.0467 -1.3094
 2959SOL     OW20512   0.288   0.395  12.771 -0.4381 -0.2534  0.0868
 2959SOL    HW120513   0.383   0.387  12.779 -0.4981 -1.6091 -0.5955
 2959SOL    HW220514   0.278   0.490  12.775  0.2221 -0.1964  0.3680
 2960SOL     OW20515   4.192   0.308  12.723  0.2211  0.0477 -0.1030
 2960SOL    HW120516   4.204   0.402  12.716 -0.3021 -0.0112 -1.9340
 2960SOL    HW220517   4.260   0.295  12.788 -0.7448 -0.6135  0.7845
 2961SOL     OW20518   0.134   0.185   2.328 -0.0207 -0.5993  0.2298
 2961SOL    HW120519   0.139   0.263   2.383 -2.4733  0.2883 -0.8171
 2961SOL    HW220520   0.064   0.146   2.381 -0.1690 -2.5852 -1.4246
 2962SOL     OW20521   1.482   3.644  10.634  0.6559 -0.2333  0.0426
 2962SOL    HW120522   1.472   3.728  10.590  1.6629 -0.5201 -0.7434
 2962SOL    HW220523   1.566   3.643  10.680 -0.1179 -2.2597  1.3985
 2963SOL     OW20524   1.270   1.385   2.410  0.1321 -0.2779  0.0987
 2963SOL    HW120525   1.244   1.432   2.331  0.5546  0.6180  0.4911
 2963SOL    HW220526   1.187   1.338   2.418 -0.7410  1.3272  0.5661
 2964SOL     OW20527   0.163   1.883   3.622  0.6666  0.5266 -0.4070
 2964SOL    HW120528   0.123   1.893   3.708  0.8304  0.9293 -0.3805
 2964SOL    HW220529   0.170   1.787   3.618 -2.6507  0.2660 -0.0528
 2965SOL     OW20530   1.268   4.409  13.333 -0.0096  0.2328 -0.6553
 2965SOL    HW120531   1.301   4.443  13.249 -0.9314  0.9438 -0.7333
 2965SOL    HW220532   1.187   4.369  13.303 -0.6356 -0.2308  1.7039
 2966SOL     OW20533   3.374   0.884   3.008  0.3685 -0.5787 -0.7154
 2966SOL    HW120534   3.341   0.965   2.968 -0.0688  0.2020  1.2510
 2966SOL    HW220535   3.386   0.830   2.930  1.0258 -0.5244 -0.6538
 2967SOL     OW20536   1.522   1.407   1.887 -0.1748  0.2359  0.2635
 2967SOL    HW120537   1.445   1.432   1.835  0.3112  1.6895  0.2443
 2967SOL    HW220538   1.525   1.492   1.931  0.9177  0.4348 -0.1886
 2968SOL     OW20539   1.972   3.600  13.126 -0.0209 -0.6476  0.1436
 2968SOL    HW120540   1.879   3.576  13.130  0.0796 -1.2782 -1.6002
 2968SOL    HW220541   1.971   3.687  13.166  1.0124 -0.9801  0.8683
 2969SOL     OW20542   4.488   0.624   0.001  0.5912  0.1248  0.1354
 2969SOL    HW120543   4.546   0.643   0.075 -0.4665  0.5500  0.8686
 2969SOL    HW220544   4.530   0.549  17.704  0.3010  1.6291 -2.9126
 2970SOL     OW20545   3.333   3.442   3.546 -0.4416 -0.2508 -0.3309
 2970SOL    HW120546   3.352   3.504   3.476  0.9402 -2.6687 -2.0554
 2970SOL    HW220547   3.283   3.367   3.514 -0.6085 -0.9708  1.6165
 2971SOL     OW20548   3.056   0.786   4.240 -0.4408  0.6062 -0.0090
 2971SOL    HW120549   3.096   0.843   4.306  1.1646  0.3184 -0.7287
 2971SOL    HW220550   2.964   0.813   4.243 -0.4161  0.4889  2.2149
 2972SOL     OW20551   0.486   1.556   9.200 -0.1153 -0.2349  0.5434
 2972SOL    HW120552   0.469   1.607   9.279 -1.3904  0.7239 -0.3645
 2972SOL    HW220553   0.532   1.617   9.143 -0.4294  0.7140  1.2994
 2973SOL     OW20554   4.447   0.446   8.567 -0.3481  0.3176 -1.0377
 2973SOL    HW120555   4.516   0.498   8.526  0.6526 -1.0017 -1.0586
 2973SOL    HW220556   4.384   0.510   8.600  1.4572  0.3531  2.3597
 2974SOL     OW20557   3.288   4.387   0.900 -0.2798  0.2072  0.1603
 2974SOL    HW120558   3.217   4.442   0.934 -2.0236 -0.3678 -2.5128
 2974SOL    HW220559   3.249   4.300   0.909 -0.3905  0.2276 -0.1325
 2975SOL     OW20560   1.404   3.688   6.604 -0.1489  0.1135 -0.2407
 2975SOL    HW120561   1.483   3.637   6.593 -0.1012  0.2958 -0.7766
 2975SOL    HW220562   1.415   3.739   6.523  2.9719 -1.0003 -0.4988
 2976SOL     OW20563   0.148   3.490   9.281  0.6097  0.5453  0.2505
 2976SOL    HW120564   0.105   3.511   9.364  0.4459 -0.0690  0.3225
 2976SOL    HW220565   0.099   3.552   9.227 -1.6366  0.4092  2.1020
 2977SOL     OW20566   1.997   0.761   2.254 -0.1176  0.8789 -0.1948
 2977SOL    HW120567   1.929   0.725   2.311 -0.4209 -0.4575 -1.3754
 2977SOL    HW220568   2.072   0.756   2.312  1.8891 -1.3563 -2.9615
 2978SOL     OW20569   4.037   2.614   5.440 -0.3346  0.4364  0.5416
 2978SOL    HW120570   3.983   2.536   5.457 -1.6803  0.4802 -3.4474
 2978SOL    HW220571   3.975   2.687   5.438 -0.6468  0.1944  1.2737
 2979SOL     OW20572   1.617   0.932   4.189  0.4823 -0.2592 -0.5275
 2979SOL    HW120573   1.650   0.884   4.114 -0.4281 -0.7454 -0.6227
 2979SOL    HW220574   1.696   0.983   4.203 -0.3792  0.2045  2.8015
 2980SOL     OW20575   3.635   0.843   3.120 -0.3007 -0.3037 -0.1853
 2980SOL    HW120576   3.557   0.839   3.066 -0.0064  1.5748 -0.7317
 2980SOL    HW220577   3.616   0.759   3.162 -0.4695 -0.5659 -0.7796
 2981SOL     OW20578   1.746   1.018   4.828 -0.2589 -0.6816 -0.0053
 2981SOL    HW120579   1.824   1.071   4.845  0.2506 -1.3119 -0.3709
 2981SOL    HW220580   1.785   0.932   4.813  2.8520  0.5264  1.0763
 2982SOL     OW20581   2.359   3.802  16.604  0.1884 -0.1399  0.3923
 2982SOL    HW120582   2.321   3.806  16.516  1.8055  0.0143 -0.2983
 2982SOL    HW220583   2.340   3.895  16.622 -2.2041 -0.2530 -1.5599
 2983SOL     OW20584   0.327   3.929   7.486  0.2772  0.2616 -0.1615
 2983SOL    HW120585   0.278   3.905   7.408 -1.3512 -1.0463  1.2606
 2983SOL    HW220586   0.253   3.923   7.548 -0.4452  0.3536 -1.0144
 2984SOL     OW20587   4.589   2.670  12.714  0.1673  0.3687 -0.4904
 2984SOL    HW120588   4.499   2.659  12.744 -0.1989 -0.3324 -1.8706
 2984SOL    HW220589   4.583   2.663  12.619 -0.5512  0.7373 -0.4717
 2985SOL     OW20590   0.529   2.930   1.632 -0.3225 -0.1014 -0.2968
 2985SOL    HW120591   0.588   2.881   1.690  0.4475  0.5056 -0.5745
 2985SOL    HW220592   0.501   3.009   1.678  3.3529  0.2434  1.3238
 2986SOL     OW20593   1.947   1.499   1.757  0.2087  0.1228 -0.1014
 2986SOL    HW120594   1.905   1.417   1.784  0.9132  0.2128  1.2631
 2986SOL    HW220595   1.901   1.568   1.804 -2.3389 -1.4506 -0.3322
 2987SOL     OW20596   3.182   1.463   1.775 -0.6876 -0.1325 -0.3937
 2987SOL    HW120597   3.236   1.414   1.714  0.7697  2.3854 -1.1160
 2987SOL    HW220598   3.130   1.512   1.711 -1.5071  0.9863  1.1081
 2988SOL     OW20599   1.036   2.407  17.521  0.2063  0.1348 -0.3021
 2988SOL    HW120600   1.039   2.416  17.426 -0.4999 -0.1130 -0.3496
 2988SOL    HW220601   1.111   2.355  17.548  0.6244  1.5791  1.3632
 2989SOL     OW20602   0.863   3.958   8.221 -0.0937  0.3172 -0.0517
 2989SOL    HW120603   0.927   3.943   8.291 -1.4629 -2.2840  0.6250
 2989SOL    HW220604   0.799   3.991   8.284 -0.0258 -0.3053  0.3431
 2990SOL     OW20605   4.477   3.300   8.481  0.6349  0.0645  0.5581
 2990SOL    HW120606   4.513   3.228   8.430  0.4676  1.6587 -1.8175
 2990SOL    HW220607   4.412   3.258   8.537 -1.0236  0.8859 -0.7718
 2991SOL     OW20608   4.377   1.096   8.881 -0.1253 -0.0298  0.1172
 2991SOL    HW120609   4.382   1.191   8.895  1.3499  0.0942 -1.2533
 2991SOL    HW220610   4.285   1.076   8.899 -0.0948 -1.8527 -1.7226
 2992SOL     OW20611   4.472   0.676  12.715  0.1418  0.6978 -0.3408
 2992SOL    HW120612   4.528   0.654  12.789 -0.6109  0.4670  0.1530
 2992SOL    HW220613   4.477   0.600  12.657  1.1989 -0.1531  0.8565
 2993SOL     OW20614   2.898   2.956   3.043 -0.4164  0.1485 -0.0745
 2993SOL    HW120615   2.991   2.937   3.046 -0.0217  2.6806  4.0994
 2993SOL    HW220616   2.887   3.016   3.117  0.2128  0.4299 -0.2090
 2994SOL     OW20617   0.998   2.377   1.771 -0.2495  0.7486  0.2683
 2994SOL    HW120618   1.020   2.406   1.683  1.8012 -0.7625  0.2768
 2994SOL    HW220619   0.971   2.286   1.758 -0.0531  0.7477 -0.1301
 2995SOL     OW20620   3.039   3.821   7.234 -0.1333  0.1042 -0.4411
 2995SOL    HW120621   3.121   3.819   7.283 -0.5649 -3.2371  0.1032
 2995SOL    HW220622   3.022   3.733   7.200 -0.0154 -0.7454  1.6950
 2996SOL     OW20623   2.136   4.347  12.406 -0.1242 -0.1375 -0.0798
 2996SOL    HW120624   2.182   4.382  12.330 -1.3964 -0.1626 -0.8562
 2996SOL    HW220625   2.063   4.302  12.363 -0.4284  2.2282 -2.0563
 2997SOL     OW20626   2.701   1.640   2.409  0.6184 -0.2993 -0.5280
 2997SOL    HW120627   2.612   1.642   2.375  0.5500 -0.3779 -0.3559
 2997SOL    HW220628   2.701   1.718   2.465 -1.2914  0.3313 -1.4156
 2998SOL     OW20629   1.445   0.880   1.709 -0.1396 -0.0618  0.8166
 2998SOL    HW120630   1.462   0.854   1.800  1.7904  0.7690  0.6959
 2998SOL    HW220631   1.405   0.801   1.674  1.9806 -1.5753  1.8369
 2999SOL     OW20632   0.527   4.131  17.505 -1.2093  0.5754 -0.0226
 2999SOL    HW120633   0.618   4.162  17.512  0.0241 -2.5120 -2.2862
 2999SOL    HW220634   0.498   4.155  17.593  0.3811 -0.8603  0.8970
 3000SOL     OW20635   2.720   1.245   8.803  0.5407 -0.3593  0.0643
 3000SOL    HW120636   2.717   1.248   8.899  0.3465 -1.5797  0.1006
 3000SOL    HW220637   2.741   1.336   8.783  3.3392 -0.9799  0.1675
 3001SOL     OW20638   1.265   1.162   9.868  0.1711  0.4086  0.2855
 3001SOL    HW120639   1.297   1.082   9.826 -1.1003 -0.5149  1.1126
 3001SOL    HW220640   1.206   1.133   9.937  1.5490 -0.4639  1.0862
 3002SOL     OW20641   3.525   0.549   9.971 -0.6011  0.3024 -0.0119
 3002SOL    HW120642   3.519   0.544   9.875  0.2081  1.0337 -0.0991
 3002SOL    HW220643   3.598   0.488   9.984 -2.0028 -1.6648 -1.3455
 3003SOL     OW20644   1.803   2.436   4.913  0.2120 -0.6284 -0.0292
 3003SOL    HW120645   1.877   2.478   4.869 -0.6452  1.2034  0.2570
 3003SOL    HW220646   1.744   2.454   4.840  1.4440  0.9413 -0.6402
 3004SOL     OW20647   0.675   1.689  12.987 -0.6953  0.2873 -0.1934
 3004SOL    HW120648   0.613   1.759  13.007  1.6562  2.1555  0.5790
 3004SOL    HW220649   0.702   1.659  13.074 -3.8785  2.1369  1.4332
 3005SOL     OW20650   4.072   4.192   0.057  0.1715  0.1617 -0.3651
 3005SOL    HW120651   4.120   4.220   0.136 -0.3579 -0.6498  0.2407
 3005SOL    HW220652   4.056   4.274   0.010  2.1700  0.1942 -0.9829
 3006SOL     OW20653   0.709   2.501   7.261  0.0211  0.5101  0.3439
 3006SOL    HW120654   0.717   2.417   7.216 -0.6753  0.3638  0.5011
 3006SOL    HW220655   0.787   2.546   7.227  1.6811 -4.0549 -1.8853
 3007SOL     OW20656   0.289   0.423   6.122 -0.2376 -0.1972 -0.5349
 3007SOL    HW120657   0.348   0.353   6.092 -0.4433  0.2877 -2.0668
 3007SOL    HW220658   0.321   0.422   6.213 -1.6317 -1.4476 -0.0569
 3008SOL     OW20659   1.831   2.328   8.022  0.4093 -0.6132 -0.3523
 3008SOL    HW120660   1.853   2.308   8.112 -0.9429  0.0110  0.1239
 3008SOL    HW220661   1.900   2.308   7.959 -0.4729 -0.9222 -1.2350
 3009SOL     OW20662   4.076   1.003  16.621 -0.6563 -0.5703  0.0218
 3009SOL    HW120663   4.143   0.942  16.590 -1.2828  0.2563 -2.9613
 3009SOL    HW220664   4.021   1.005  16.543 -1.0961  1.1871  0.3811
 3010SOL     OW20665   1.062   4.476   4.307  0.0311 -0.2530  0.1349
 3010SOL    HW120666   1.025   4.549   4.358 -0.9097 -2.8632  3.2098
 3010SOL    HW220667   0.992   4.411   4.312 -0.2546  0.0922  0.6598
 3011SOL     OW20668   2.558   1.077   2.639  0.3332  0.9002  0.5783
 3011SOL    HW120669   2.525   1.159   2.676 -0.6970  0.1118  1.4059
 3011SOL    HW220670   2.632   1.103   2.584 -0.0232  1.1401  0.2111
 3012SOL     OW20671   3.517   4.036   7.645  0.0933 -0.1463  0.0080
 3012SOL    HW120672   3.527   4.099   7.575 -0.7999 -1.2898 -1.1578
 3012SOL    HW220673   3.515   4.097   7.718  1.5912 -0.2391  0.1294
 3013SOL     OW20674   2.669   0.231  17.520  0.1661 -0.2303  0.1139
 3013SOL    HW120675   2.592   0.209  17.573 -0.3376  0.2039 -0.4396
 3013SOL    HW220676   2.698   0.312  17.563 -1.9573  0.1924  0.7274
 3014SOL     OW20677   3.060   3.804  10.182 -0.7752  0.3654  0.4510
 3014SOL    HW120678   3.003   3.827  10.109 -1.0579  0.9616  0.8636
 3014SOL    HW220679   3.118   3.878  10.196 -0.9666  0.4878  0.5969
 3015SOL     OW20680   3.190   2.887   2.793  0.1032 -0.4686  0.1510
 3015SOL    HW120681   3.260   2.907   2.731 -1.2830  1.1972 -0.9201
 3015SOL    HW220682   3.136   2.837   2.732  0.0603  0.0797 -0.2679
 3016SOL     OW20683   1.717   3.593   6.106  0.3802 -0.3487  0.2961
 3016SOL    HW120684   1.782   3.524   6.096  1.4041  0.9022 -1.7187
 3016SOL    HW220685   1.742   3.628   6.192 -1.3422  2.8097 -0.4654
 3017SOL     OW20686   3.974   4.163   6.420  0.3387 -0.2267  0.2073
 3017SOL    HW120687   3.931   4.249   6.424 -2.6749 -1.7953  1.2700
 3017SOL    HW220688   3.972   4.136   6.511 -1.0999  1.8915  0.7923
 3018SOL     OW20689   2.726   3.908   0.114  0.2249 -0.4514  0.0011
 3018SOL    HW120690   2.762   3.981   0.165  0.5046 -0.4654 -0.1799
 3018SOL    HW220691   2.789   3.905   0.042 -0.2728  0.0980 -0.4580
 3019SOL     OW20692   4.113   4.677   0.787 -0.3852  0.1527 -0.5687
 3019SOL    HW120693   4.079   0.003   0.852 -0.0954  0.0514 -0.3225
 3019SOL    HW220694   4.182   4.734   0.753  1.5514 -1.5741  0.5080
 3020SOL     OW20695   0.747   2.936   4.921  0.5259  0.0635  0.1943
 3020SOL    HW120696   0.757   2.842   4.907  1.0969 -0.0527  1.3771
 3020SOL    HW220697   0.810   2.974   4.860  1.8462 -2.0158  0.2732
 3021SOL     OW20698   2.549   1.033   0.948 -0.0955  0.1748 -0.5086
 3021SOL    HW120699   2.500   1.097   1.000 -0.9660 -1.5121  0.7616
 3021SOL    HW220700   2.573   1.084   0.871  1.8628  0.0481  0.0134
 3022SOL     OW20701   3.045   0.936   2.521  0.5050 -0.2948  0.5748
 3022SOL    HW120702   3.036   0.880   2.598 -1.7674 -0.0296  0.4858
 3022SOL    HW220703   2.958   0.976   2.516  1.3238  1.4124 -0.1814
 3023SOL     OW20704   2.384   3.098   3.976 -0.4710  0.4924 -0.4114
 3023SOL    HW120705   2.420   3.038   4.041  0.2660  2.0223  0.5995
 3023SOL    HW220706   2.298   3.061   3.959  0.0077 -0.7794 -0.0973
 3024SOL     OW20707   2.850   4.186  11.033 -0.0539 -0.0391  0.5773
 3024SOL    HW120708   2.759   4.175  11.062 -0.4316  1.4534 -0.0708
 3024SOL    HW220709   2.846   4.254  10.966  1.4268  0.7877  1.3297
 3025SOL     OW20710   0.110   1.536  13.227  1.0313  0.6527 -0.3860
 3025SOL    HW120711   0.079   1.621  13.195  0.7841  2.0792  3.5910
 3025SOL    HW220712   0.129   1.483  13.150  2.2115  0.7992 -0.1867
 3026SOL     OW20713   4.506   2.324   5.870  0.0990  0.6114  0.5298
 3026SOL    HW120714   4.532   2.304   5.780  0.8639 -2.1466  1.3732
 3026SOL    HW220715   4.411   2.325   5.855  0.1245 -3.1406  0.1022
 3027SOL     OW20716   0.386   0.584   6.712 -0.5767  0.1103  0.1594
 3027SOL    HW120717   0.377   0.674   6.740 -0.9858 -0.2757  1.2659
 3027SOL    HW220718   0.381   0.597   6.617  0.8808 -1.2701 -0.1096
 3028SOL     OW20719   0.926   2.144   2.896  0.1646  0.4484 -0.1084
 3028SOL    HW120720   1.020   2.138   2.911 -0.5025 -2.6119  3.0078
 3028SOL    HW220721   0.923   2.166   2.803  3.2223 -2.6310 -0.9341
 3029SOL     OW20722   2.550   3.037   4.762 -0.6098  0.0949  0.0920
 3029SOL    HW120723   2.494   3.101   4.718 -1.9985 -0.5883  0.8773
 3029SOL    HW220724   2.476   3.012   4.817  1.7738  0.1081  3.3406
 3030SOL     OW20725   1.398   0.309   2.922  0.2517  0.1306  0.4304
 3030SOL    HW120726   1.474   0.359   2.891 -1.5788  1.7595 -1.3970
 3030SOL    HW220727   1.414   0.221   2.889 -2.7188  0.0837 -0.8347
 3031SOL     OW20728   4.131   4.620   5.093 -1.0407  0.5378 -0.5973
 3031SOL    HW120729   4.164   4.530   5.085 -0.3443  0.7937 -0.5903
 3031SOL    HW220730   4.072   4.631   5.018 -1.0871  0.4069 -0.5796
 3032SOL     OW20731   1.623   2.419   9.101 -0.3321 -0.3358 -0.5220
 3032SOL    HW120732   1.542   2.466   9.084 -1.6555 -2.0373  1.1081
 3032SOL    HW220733   1.681   2.464   9.039 -1.9901  2.0498 -0.3222
 3033SOL     OW20734   4.579   3.177  15.608 -0.8985  0.4473  0.7525
 3033SOL    HW120735   4.671   3.204  15.608 -0.0541 -2.5080 -1.6095
 3033SOL    HW220736   4.541   3.234  15.542  0.6633 -1.3544 -1.7080
 3034SOL     OW20737   0.877   3.940   7.241 -0.1270  1.0361 -0.3359
 3034SOL    HW120738   0.889   3.866   7.182 -0.6350 -0.4658  1.4621
 3034SOL    HW220739   0.842   3.892   7.316  0.2768  0.2556 -0.6504
 3035SOL     OW20740   3.526   1.288   1.234 -0.0362  0.2362  0.8078
 3035SOL    HW120741   3.504   1.208   1.280 -4.8108  2.0591  1.6904
 3035SOL    HW220742   3.595   1.326   1.289  0.7343  2.4229 -1.5982
 3036SOL     OW20743   4.126   0.646   5.614 -0.4917 -0.1911 -0.1332
 3036SOL    HW120744   4.160   0.571   5.662  0.5768 -0.1476 -0.8365
 3036SOL    HW220745   4.096   0.614   5.529  0.6508 -1.8290  0.0809
 3037SOL     OW20746   1.196   3.172  13.584 -1.0699  0.2507  0.2096
 3037SOL    HW120747   1.141   3.216  13.649 -0.9791 -1.0528  1.1741
 3037SOL    HW220748   1.243   3.101  13.629 -1.0207  0.4804  0.5228
 3038SOL     OW20749   4.464   0.834   3.555  0.9316 -0.3494  0.0474
 3038SOL    HW120750   4.468   0.852   3.462 -3.9661 -3.4578 -0.7640
 3038SOL    HW220751   4.483   0.923   3.586  2.1506 -0.4664 -0.3532
 3039SOL     OW20752   3.632   2.417   5.529  0.5631 -0.1223  0.4170
 3039SOL    HW120753   3.596   2.424   5.617  2.1562 -1.0443  1.1326
 3039SOL    HW220754   3.551   2.403   5.480 -0.9069  0.5252  2.7064
 3040SOL     OW20755   1.088   0.138   0.883 -0.6324  0.5840 -0.5188
 3040SOL    HW120756   1.070   0.101   0.969  0.9054  2.7502  0.7335
 3040SOL    HW220757   1.170   0.098   0.852 -0.0662  2.0196 -0.8639
 3041SOL     OW20758   3.777   0.346   4.268 -0.5284  0.1283  0.1078
 3041SOL    HW120759   3.823   0.390   4.340 -1.8968 -1.0455  1.6949
 3041SOL    HW220760   3.736   0.426   4.234 -0.8986  0.2376  0.8119
 3042SOL     OW20761   2.076   1.993   8.752  0.1551  0.2750  0.9573
 3042SOL    HW120762   1.995   2.035   8.721  0.5910  0.5355  0.1837
 3042SOL    HW220763   2.092   1.924   8.687 -1.3284  0.1259  0.7486
 3043SOL     OW20764   0.578   0.812   5.049  0.5744  0.8537 -0.2353
 3043SOL    HW120765   0.551   0.729   5.089  0.7274  0.4269 -1.0090
 3043SOL    HW220766   0.571   0.860   5.131 -1.8994  0.5026 -0.2356
 3044SOL     OW20767   3.639   0.105  13.029 -0.6302 -0.7036  0.3181
 3044SOL    HW120768   3.545   0.122  13.020 -0.2623  1.1689 -0.0440
 3044SOL    HW220769   3.662   0.078  12.940 -0.5591  0.3109  0.0339
 3045SOL     OW20770   2.494   2.881   6.536  0.0186  0.5637  0.7443
 3045SOL    HW120771   2.459   2.803   6.579 -2.1988  0.2794 -1.5465
 3045SOL    HW220772   2.545   2.842   6.464  0.7671  2.5345  0.2152
 3046SOL     OW20773   0.722   1.728   3.821 -0.2161  0.2477  0.0017
 3046SOL    HW120774   0.756   1.653   3.869 -1.4991 -0.9774 -1.0097
 3046SOL    HW220775   0.627   1.717   3.820 -0.1481 -0.0156 -4.0377
 3047SOL     OW20776   3.518   0.780   7.809  0.4051  0.6108 -0.6188
 3047SOL    HW120777   3.610   0.767   7.833  0.8818  1.3810 -2.0556
 3047SOL    HW220778   3.464   0.781   7.889  2.9045 -0.4614  1.0881
 3048SOL     OW20779   1.516   1.007   8.841 -0.1144  0.3144 -0.3836
 3048SOL    HW120780   1.486   0.963   8.920 -0.9363  1.4957 -0.0293
 3048SOL    HW220781   1.548   1.094   8.867  0.9243 -0.0422 -0.4708
 3049SOL     OW20782   4.137   4.315  17.591  0.1808  0.2271  0.4469
 3049SOL    HW120783   4.046   4.311  17.563  0.4769  1.4637 -0.7044
 3049SOL    HW220784   4.169   4.234  17.552  1.6599  0.7981  0.4707
 3050SOL     OW20785   0.818   2.648   7.027  0.3462  0.0645  0.4075
 3050SOL    HW120786   0.872   2.668   6.951  0.9611  2.0305  1.3422
 3050SOL    HW220787   0.761   2.580   6.992  0.5033  0.7816 -1.2394
 3051SOL     OW20788   2.230   1.560  16.332 -0.2674 -0.8496  0.1384
 3051SOL    HW120789   2.248   1.507  16.254  0.0409 -1.7612  0.8232
 3051SOL    HW220790   2.320   1.592  16.334 -0.9194  0.9183  0.9686
 3052SOL     OW20791   3.385   0.221   7.854 -0.1107 -0.2298 -0.4997
 3052SOL    HW120792   3.369   0.306   7.813 -1.5485 -0.8906 -1.2770
 3052SOL    HW220793   3.393   0.172   7.772  1.0171 -0.5445 -0.1984
 3053SOL     OW20794   0.069   3.407   8.558  0.1905  0.4048  0.5925
 3053SOL    HW120795   0.046   3.497   8.535  0.0112 -0.1455 -1.4123
 3053SOL    HW220796   4.721   3.368   8.579 -0.9985  1.0976 -2.9241
 3054SOL     OW20797   1.733   0.144  14.233  0.3519  0.4669 -0.2079
 3054SOL    HW120798   1.694   0.176  14.151 -0.0839 -1.4225 -0.7591
 3054SOL    HW220799   1.769   0.224  14.270  1.0219 -0.2793  0.7404
 3055SOL     OW20800   2.048   0.780  10.003  0.2323 -0.5766 -0.1412
 3055SOL    HW120801   2.036   0.839  10.077  0.9203  0.3688 -0.7813
 3055SOL    HW220802   1.994   0.702  10.013 -1.1349  0.4585  0.5373
 3056SOL     OW20803   0.905   4.193   2.098 -0.1950  0.7091  0.5939
 3056SOL    HW120804   0.825   4.241   2.120 -0.6467  0.2020  0.0609
 3056SOL    HW220805   0.887   4.182   2.004 -0.9741 -1.5513  1.0171
 3057SOL     OW20806   1.691   1.865  16.024  0.1424 -0.4736  0.0255
 3057SOL    HW120807   1.613   1.907  16.063  0.4683  2.5501 -2.5498
 3057SOL    HW220808   1.768   1.920  16.037 -0.0446 -0.7354  2.1341
 3058SOL     OW20809   2.927   1.145   5.868  0.4076  0.0558 -0.1901
 3058SOL    HW120810   2.864   1.141   5.940 -0.4376  0.5898 -0.9006
 3058SOL    HW220811   2.880   1.104   5.796  1.4710 -0.0652 -0.8204
 3059SOL     OW20812   3.403   2.066   6.906  0.0846 -0.2035 -0.1547
 3059SOL    HW120813   3.336   2.008   6.943 -0.5296  0.6572  0.0793
 3059SOL    HW220814   3.348   2.139   6.877  2.0547  1.5867  0.6278
 3060SOL     OW20815   0.123   1.624   3.334 -0.7438 -0.2736 -0.6315
 3060SOL    HW120816   0.034   1.604   3.363  0.3518 -1.8269  1.7559
 3060SOL    HW220817   0.171   1.549   3.369 -1.1141 -0.4671 -0.5412
 3061SOL     OW20818   4.204   0.947   6.875  0.0125  0.0911  0.7033
 3061SOL    HW120819   4.180   0.878   6.937  1.0644  0.0561  1.0823
 3061SOL    HW220820   4.247   0.899   6.804 -2.7589  0.4286 -1.2007
 3062SOL     OW20821   2.045   3.010   2.666 -0.0941  0.1215  0.1596
 3062SOL    HW120822   2.067   3.092   2.621  2.3984 -1.2190 -1.0243
 3062SOL    HW220823   2.030   3.045   2.754  1.8203  2.4395 -0.4475
 3063SOL     OW20824   1.454   2.760   1.385  0.6908 -0.1910 -0.2012
 3063SOL    HW120825   1.430   2.850   1.410 -0.7785 -1.0891  1.6493
 3063SOL    HW220826   1.541   2.748   1.423  0.9247  0.1901 -0.6160
 3064SOL     OW20827   2.668   3.497   5.664 -0.2515 -0.2204 -0.1653
 3064SOL    HW120828   2.753   3.535   5.686 -0.9005  0.0591  1.8603
 3064SOL    HW220829   2.678   3.403   5.677  0.8714 -0.0302  0.3717
 3065SOL     OW20830   2.978   2.072   2.488  0.2493  0.2975 -1.0601
 3065SOL    HW120831   2.929   2.009   2.436 -0.4425  0.4314 -0.5682
 3065SOL    HW220832   2.918   2.143   2.463 -0.2877  0.4431  0.6831
 3066SOL     OW20833   2.277   4.300  11.097  0.4224  0.3257  0.3274
 3066SOL    HW120834   2.247   4.213  11.120 -0.8434  0.1796 -1.8302
 3066SOL    HW220835   2.265   4.301  11.002  0.4561 -1.0942  0.3087
 3067SOL     OW20836   1.425   0.548   7.230 -0.0106 -0.0068  0.3384
 3067SOL    HW120837   1.367   0.601   7.284 -0.6796 -1.1395  0.7353
 3067SOL    HW220838   1.361   0.486   7.195  0.8738  0.1347 -1.5541
 3068SOL     OW20839   3.897   1.693   2.876 -0.1288  0.1477 -0.2161
 3068SOL    HW120840   3.866   1.728   2.959  0.1375  0.4765 -0.2572
 3068SOL    HW220841   3.989   1.718   2.878 -0.0331 -0.2553  0.3866
 3069SOL     OW20842   0.184   1.637   7.271  0.0076 -0.0996 -0.4031
 3069SOL    HW120843   0.181   1.614   7.364  1.3307  1.2688 -0.0229
 3069SOL    HW220844   0.094   1.667   7.255 -0.6737 -1.6216  0.5368
 3070SOL     OW20845   0.644   2.026   6.234 -0.2004  0.2959  0.6062
 3070SOL    HW120846   0.581   2.080   6.185  1.0585  0.1779 -1.1184
 3070SOL    HW220847   0.687   1.969   6.171 -2.6505  0.1225 -0.9286
 3071SOL     OW20848   1.287   2.499   7.710  0.4008 -0.2071 -0.7184
 3071SOL    HW120849   1.281   2.436   7.781 -2.4080  1.1240  0.2327
 3071SOL    HW220850   1.339   2.568   7.750 -1.8061  2.3502 -2.2183
 3072SOL     OW20851   1.083   4.417  11.177 -0.9699 -0.4939  0.0355
 3072SOL    HW120852   0.996   4.403  11.216 -0.0281 -0.1364  2.2732
 3072SOL    HW220853   1.069   4.378  11.091 -0.9888  2.0845 -1.1509
 3073SOL     OW20854   4.226   3.718   5.060  0.2946  0.2202 -0.3218
 3073SOL    HW120855   4.219   3.755   5.148 -0.3618  3.2094 -1.6198
 3073SOL    HW220856   4.167   3.643   5.049  0.4773 -0.0405  0.4467
 3074SOL     OW20857   4.378   1.097   5.710 -0.3327  0.3491  0.7743
 3074SOL    HW120858   4.353   1.005   5.711  1.0504 -0.0181  1.9866
 3074SOL    HW220859   4.294   1.142   5.708 -0.9321 -0.8611 -1.4953
 3075SOL     OW20860   0.270   4.053  11.254 -0.0397  0.0017  0.3762
 3075SOL    HW120861   0.260   4.146  11.273 -3.9639 -0.4494  0.5337
 3075SOL    HW220862   0.326   4.021  11.326 -0.8059  0.1797  1.0462
 3076SOL     OW20863   0.201   2.855   9.309 -0.2194  0.2239  0.0019
 3076SOL    HW120864   0.151   2.926   9.268  0.1588  0.7391  0.4398
 3076SOL    HW220865   0.284   2.883   9.271 -0.1999 -1.9795 -1.5688
 3077SOL     OW20866   3.933   2.809   7.548 -0.3303 -0.1837  0.6632
 3077SOL    HW120867   3.873   2.833   7.619 -0.2253  0.2625  0.6030
 3077SOL    HW220868   4.000   2.876   7.563  1.1478 -1.7035  0.7819
 3078SOL     OW20869   2.157   1.938   2.612 -0.1256  0.2048 -0.3857
 3078SOL    HW120870   2.195   1.865   2.660 -0.4292  1.9679  2.5121
 3078SOL    HW220871   2.072   1.944   2.657 -0.3372 -0.6439 -0.6782
 3079SOL     OW20872   2.421   3.606  16.801  0.2728  0.0429 -0.1880
 3079SOL    HW120873   2.427   3.522  16.755 -0.4521 -0.8598  1.3423
 3079SOL    HW220874   2.396   3.666  16.731 -0.5459 -1.2500 -1.0135
 3080SOL     OW20875   1.661   1.374   3.476 -0.6041  0.0941 -0.2277
 3080SOL    HW120876   1.741   1.324   3.458 -0.0010  0.7015  0.7155
 3080SOL    HW220877   1.680   1.417   3.560  0.8325 -0.9516 -0.0088
 3081SOL     OW20878   2.828   3.633  16.637 -0.3897 -0.1031  0.1512
 3081SOL    HW120879   2.916   3.670  16.641  0.3166 -1.5358 -2.1263
 3081SOL    HW220880   2.776   3.695  16.586  1.0528 -1.2613 -2.7077
 3082SOL     OW20881   1.515   3.305   6.687 -0.1420  0.1916 -0.1106
 3082SOL    HW120882   1.430   3.318   6.644 -0.9446 -2.0559  0.8267
 3082SOL    HW220883   1.574   3.371   6.651 -2.2781  2.5462  0.7121
 3083SOL     OW20884   3.988   2.709   2.618 -1.0946 -0.1660 -0.1876
 3083SOL    HW120885   3.929   2.668   2.682  0.5263  0.2162  1.5445
 3083SOL    HW220886   4.066   2.724   2.672 -2.8819  0.1697  2.3056
 3084SOL     OW20887   4.100   0.317   8.659  0.2151 -0.1453  0.2964
 3084SOL    HW120888   4.037   0.255   8.696 -1.5721  0.6089 -1.4696
 3084SOL    HW220889   4.056   0.397   8.688  2.6609  0.9113  1.1363
 3085SOL     OW20890   2.530   0.741   8.624  0.0987 -0.4174  0.3793
 3085SOL    HW120891   2.611   0.791   8.624 -0.0943 -0.1036 -0.7394
 3085SOL    HW220892   2.573   0.657   8.607 -0.8650 -0.7321 -0.5885
 3086SOL     OW20893   1.863   0.197   7.412 -0.0674  0.3215  0.1809
 3086SOL    HW120894   1.940   0.148   7.442 -0.8397 -0.6051  0.6720
 3086SOL    HW220895   1.913   0.261   7.361 -1.8439  1.3560 -0.2581
 3087SOL     OW20896   1.249   0.728  12.235  0.5582  0.6561 -0.4290
 3087SOL    HW120897   1.172   0.727  12.291  0.0897  2.8159 -1.0303
 3087SOL    HW220898   1.314   0.785  12.278  0.1528 -0.4947  1.6798
 3088SOL     OW20899   1.869   3.612   1.409 -0.6767  1.1590  0.1677
 3088SOL    HW120900   1.825   3.673   1.350  1.6173 -0.5440 -3.3532
 3088SOL    HW220901   1.834   3.524   1.395  1.6673 -0.0889  1.9440
 3089SOL     OW20902   2.657   0.559  16.029 -0.7267 -0.4171  0.2849
 3089SOL    HW120903   2.582   0.509  15.996  1.1865 -2.8719 -0.3336
 3089SOL    HW220904   2.715   0.548  15.954 -0.2103  2.9066  0.1842
 3090SOL     OW20905   4.012   4.471  10.368 -0.1681 -0.6409 -0.6418
 3090SOL    HW120906   3.949   4.533  10.331  0.4783  1.1567  1.2683
 3090SOL    HW220907   3.991   4.473  10.461 -2.7739  0.1940 -1.2462
 3091SOL     OW20908   2.132   0.003   0.892 -0.0333  0.5259  0.0200
 3091SOL    HW120909   2.184   0.078   0.921  0.1563  0.6342 -0.6085
 3091SOL    HW220910   2.052   0.047   0.863  2.0272  2.8739 -2.1001
 3092SOL     OW20911   3.220   1.115  15.453 -0.0900  0.2764 -0.3795
 3092SOL    HW120912   3.252   1.139  15.541  0.2887 -0.3764 -0.3345
 3092SOL    HW220913   3.138   1.164  15.451 -0.6088 -0.6199 -0.8020
 3093SOL     OW20914   3.047   3.649   3.359  0.5746 -0.2248 -0.8540
 3093SOL    HW120915   3.040   3.556   3.381  0.9247  0.4150  1.9694
 3093SOL    HW220916   3.118   3.673   3.418  0.1273  0.6165 -0.6555
 3094SOL     OW20917   0.039   0.730   6.853  0.1718  0.1162  0.4526
 3094SOL    HW120918   4.704   0.783   6.889  0.3774  0.7701 -0.1066
 3094SOL    HW220919   0.094   0.748   6.929 -1.9708 -0.8933  2.2669
 3095SOL     OW20920   3.260   0.175   1.216  0.4838 -0.1271 -0.2401
 3095SOL    HW120921   3.169   0.145   1.217 -0.6142  3.2761 -0.6914
 3095SOL    HW220922   3.253   0.250   1.275  2.5141 -1.7717  2.0826
 3096SOL     OW20923   2.145   3.611  11.747  0.0495  0.5051  0.2976
 3096SOL    HW120924   2.092   3.647  11.676 -0.1265 -0.4021 -0.0263
 3096SOL    HW220925   2.227   3.662  11.746  0.1146  0.3804 -0.2762
 3097SOL     OW20926   2.824   2.570   4.793 -0.2153  0.3554 -0.9259
 3097SOL    HW120927   2.758   2.633   4.824 -0.6406 -0.5210 -0.0430
 3097SOL    HW220928   2.803   2.490   4.841 -0.5856  0.4094 -0.9913
 3098SOL     OW20929   2.106   0.241   3.344 -0.6727  0.3864  0.4852
 3098SOL    HW120930   2.038   0.224   3.279  1.9185 -0.7997 -1.9372
 3098SOL    HW220931   2.065   0.206   3.423  0.6891 -0.4482  0.8247
 3099SOL     OW20932   0.751   3.028   4.456 -0.1027 -0.0694  0.6402
 3099SOL    HW120933   0.750   2.935   4.477  1.2338 -0.2783 -0.2730
 3099SOL    HW220934   0.671   3.063   4.495 -0.2586 -0.9876  1.1236
 3100SOL     OW20935   3.019   1.691   6.071  0.3047 -0.1433  0.2953
 3100SOL    HW120936   3.077   1.615   6.081  1.1944  0.5772  0.5463
 3100SOL    HW220937   2.991   1.680   5.980 -0.3885 -0.2435  0.5153
 3101SOL     OW20938   3.546   3.199  14.548  0.5019 -0.6251  0.7389
 3101SOL    HW120939   3.549   3.284  14.504  1.9466 -1.1370 -0.1615
 3101SOL    HW220940   3.636   3.178  14.573  0.7205 -1.5130 -0.7972
 3102SOL     OW20941   1.832   0.705   2.465 -0.3521 -0.1422  0.2648
 3102SOL    HW120942   1.841   0.766   2.539  0.5695 -0.7618  0.6596
 3102SOL    HW220943   1.744   0.668   2.463 -0.1755 -0.6331  2.1715
 3103SOL     OW20944   2.886   0.127  11.653 -0.1639  0.3914 -0.7177
 3103SOL    HW120945   2.886   0.218  11.623 -1.9572  0.5505 -0.2243
 3103SOL    HW220946   2.928   0.088  11.576  1.2562  3.2899 -1.4213
 3104SOL     OW20947   3.023   2.156   9.033 -0.0086 -0.5258  0.1904
 3104SOL    HW120948   2.952   2.092   9.040 -0.3659  0.0042  1.3709
 3104SOL    HW220949   3.057   2.128   8.947 -0.7154 -1.1045  0.1011
 3105SOL     OW20950   3.473   4.311   5.320 -0.3417  0.5354  0.0572
 3105SOL    HW120951   3.494   4.292   5.411  1.2556 -0.1090 -0.4591
 3105SOL    HW220952   3.486   4.405   5.308  0.5926  0.6921  2.3715
 3106SOL     OW20953   3.715   4.545  17.010 -0.7798 -0.1630 -0.2918
 3106SOL    HW120954   3.799   4.553  17.055 -0.8716  1.5417 -0.4164
 3106SOL    HW220955   3.745   4.497  16.933 -1.6225 -2.1082  0.5810
 3107SOL     OW20956   0.688   0.533  14.392 -0.4875  0.1084  0.4583
 3107SOL    HW120957   0.738   0.571  14.320 -1.3925  0.4666  0.0251
 3107SOL    HW220958   0.597   0.536  14.364 -0.0338  2.8650 -0.6850
 3108SOL     OW20959   1.388   0.977   9.486  0.0486  0.5415  0.1497
 3108SOL    HW120960   1.482   0.980   9.499  0.0179  2.3010 -0.0723
 3108SOL    HW220961   1.388   1.029   9.406 -0.2522  1.2147  0.5868
 3109SOL     OW20962   3.000   3.449  12.777 -0.4353 -0.3736 -0.2742
 3109SOL    HW120963   2.973   3.360  12.754  0.0334 -1.0694  1.8177
 3109SOL    HW220964   3.081   3.461  12.728  0.3509 -3.9937  0.0920
 3110SOL     OW20965   3.675   3.566   0.517  0.3166  0.4228  0.1801
 3110SOL    HW120966   3.742   3.520   0.466 -0.7612 -0.4751 -0.4443
 3110SOL    HW220967   3.591   3.524   0.498  0.4218  0.6501 -0.7900
 3111SOL     OW20968   0.361   0.702   7.387 -0.3228  0.2809  0.1631
 3111SOL    HW120969   0.273   0.673   7.363  0.1041 -0.6821 -0.2219
 3111SOL    HW220970   0.353   0.731   7.478  0.2119  0.1457  0.2553
 3112SOL     OW20971   3.277   1.277  16.269 -0.6175  0.0285  0.1091
 3112SOL    HW120972   3.233   1.294  16.352 -1.8891 -0.9570 -0.3600
 3112SOL    HW220973   3.362   1.244  16.297 -0.4061  0.6666  0.2018
 3113SOL     OW20974   3.177   1.877   7.737  0.0268  0.3288 -0.2829
 3113SOL    HW120975   3.237   1.949   7.714 -0.9677  1.8945  2.0700
 3113SOL    HW220976   3.098   1.929   7.748  0.3949 -0.0764  3.9604
 3114SOL     OW20977   4.334   2.266   3.767 -0.0450  0.1409 -1.1176
 3114SOL    HW120978   4.271   2.198   3.743 -0.4361 -0.2240  0.9460
 3114SOL    HW220979   4.373   2.203   3.827 -1.1211 -0.8363 -1.4591
 3115SOL     OW20980   1.598   2.954   9.558 -0.0617  0.6615 -0.2195
 3115SOL    HW120981   1.639   2.882   9.606  0.3975  0.0447 -1.5365
 3115SOL    HW220982   1.510   2.946   9.595  0.9395 -0.1817  2.0092
 3116SOL     OW20983   1.250   2.248  12.098  0.2781  0.2438 -0.1735
 3116SOL    HW120984   1.286   2.263  12.185  1.8383 -0.8598 -0.6216
 3116SOL    HW220985   1.274   2.156  12.083 -0.7046 -0.5997  3.5606
 3117SOL     OW20986   1.337   1.823   7.526 -0.9539  0.2668 -0.5566
 3117SOL    HW120987   1.355   1.903   7.576  1.0682 -1.3473  1.2663
 3117SOL    HW220988   1.374   1.760   7.587 -1.2117  0.7045  0.0593
 3118SOL     OW20989   1.559   2.584   7.529  0.7383  0.0424  0.0400
 3118SOL    HW120990   1.570   2.584   7.434 -0.1314 -2.8543 -0.0533
 3118SOL    HW220991   1.467   2.609   7.538  0.8350  0.9606 -1.4482
 3119SOL     OW20992   2.825   0.304   0.057  0.1274  0.5531 -0.0423
 3119SOL    HW120993   2.773   0.230   0.089  0.1045  1.4554  2.0172
 3119SOL    HW220994   2.850   0.343   0.141  0.0047  1.2133 -0.3144
 3120SOL     OW20995   0.473   4.282  10.171 -0.3345  0.0114  0.3214
 3120SOL    HW120996   0.437   4.333  10.098 -0.1643  0.5287  0.6067
 3120SOL    HW220997   0.424   4.200  10.157 -1.1275  0.5240  0.1197
 3121SOL     OW20998   3.620   4.553   2.949 -0.4978 -0.0271  0.0758
 3121SOL    HW120999   3.543   4.528   2.999 -1.3674 -0.0393 -1.2633
 3121SOL    HW221000   3.692   4.546   3.011 -0.6387 -3.0996 -0.1169
 3122SOL     OW21001   3.764   4.042   8.028 -0.3076  0.1570  0.2127
 3122SOL    HW121002   3.755   4.049   8.123 -0.9796 -0.1537  0.1756
 3122SOL    HW221003   3.859   4.054   8.019 -0.2188  0.2788  1.2512
 3123SOL     OW21004   1.955   2.738   6.376 -0.0503 -0.4189 -0.4123
 3123SOL    HW121005   1.931   2.793   6.302 -1.5235  0.7592  0.9247
 3123SOL    HW221006   2.035   2.786   6.400 -0.7367  0.3037  0.4310
 3124SOL     OW21007   1.293   2.024   6.110  0.1721 -0.2775  0.3209
 3124SOL    HW121008   1.293   2.037   6.205  0.9478 -1.0902  0.4340
 3124SOL    HW221009   1.231   1.952   6.106 -1.6396  1.2207  1.1711
 3125SOL     OW21010   2.915   4.413   1.650 -0.6642  0.2605 -0.3264
 3125SOL    HW121011   2.927   4.484   1.713  1.9888  0.3311 -0.9074
 3125SOL    HW221012   2.912   4.335   1.704 -0.7387 -1.0485 -2.2287
 3126SOL     OW21013   3.739   2.808   2.431  0.3985  0.5739  0.4147
 3126SOL    HW121014   3.802   2.758   2.483  0.2510  1.2129  1.2269
 3126SOL    HW221015   3.784   2.818   2.348 -4.3634  2.8862 -1.8871
 3127SOL     OW21016   4.344   3.308   4.085  0.4051  0.3257 -0.2341
 3127SOL    HW121017   4.391   3.288   4.166  1.2177 -1.7130 -1.1816
 3127SOL    HW221018   4.407   3.321   4.014 -1.1752  2.2463 -1.2760
 3128SOL     OW21019   0.055   2.912   2.299 -0.1087 -0.0974 -0.3639
 3128SOL    HW121020   0.006   2.897   2.380  1.3684  1.1844  0.7547
 3128SOL    HW221021   0.031   2.837   2.244  0.1462 -0.0649 -0.5182
 3129SOL     OW21022   4.345   1.843   0.706 -0.0153 -0.3395 -0.0364
 3129SOL    HW121023   4.380   1.876   0.789  1.2403  1.8814 -1.4546
 3129SOL    HW221024   4.388   1.897   0.640  0.3038 -0.2303  0.2616
 3130SOL     OW21025   4.397   1.622   7.230 -0.0563  0.4377  0.4654
 3130SOL    HW121026   4.363   1.659   7.148  0.1109 -1.5136 -0.4767
 3130SOL    HW221027   4.384   1.530   7.209 -1.7884  0.9648 -0.7996
 3131SOL     OW21028   0.932   1.291  12.253  0.0432 -0.2046 -0.3643
 3131SOL    HW121029   1.008   1.258  12.206  0.2896 -0.7009  0.3866
 3131SOL    HW221030   0.979   1.300  12.336 -3.5213  0.4029  1.5838
 3132SOL     OW21031   2.624   1.054  10.672 -0.1700 -0.3023  0.0934
 3132SOL    HW121032   2.650   0.982  10.615 -0.6659 -0.1701 -0.2947
 3132SOL    HW221033   2.708   1.095  10.696 -1.4745  1.7590  1.1263
 3133SOL     OW21034   3.215   2.657  17.040  0.5608 -0.0696 -0.1718
 3133SOL    HW121035   3.283   2.632  17.103 -0.6143 -1.6055  0.4856
 3133SOL    HW221036   3.201   2.569  17.005 -1.3488  0.1383  0.0728
 3134SOL     OW21037   3.377   0.823   4.941  0.0015 -0.0253 -0.2053
 3134SOL    HW121038   3.344   0.908   4.915  0.8887  0.1628 -0.7213
 3134SOL    HW221039   3.435   0.848   5.013  1.4986 -0.0942 -1.3752
 3135SOL     OW21040   3.977   1.324  14.080 -0.1361  0.4002  0.4093
 3135SOL    HW121041   3.945   1.266  14.011 -1.8885 -0.0888  1.6425
 3135SOL    HW221042   3.903   1.308  14.138 -2.0370  0.1916 -2.0832
 3136SOL     OW21043   1.548   4.075  13.778 -0.2585 -0.1468 -0.2433
 3136SOL    HW121044   1.454   4.060  13.795 -0.0814 -4.6141 -3.1018
 3136SOL    HW221045   1.583   3.987  13.788  2.9955  1.2843  0.8034
 3137SOL     OW21046   2.102   0.440   3.982  0.6373  0.1488 -0.2695
 3137SOL    HW121047   2.134   0.530   3.986  1.2177  0.0118 -1.7877
 3137SOL    HW221048   2.083   0.421   4.074  0.5641 -0.8206 -0.4844
 3138SOL     OW21049   0.636   1.510   5.469  0.2885  0.3468 -0.1893
 3138SOL    HW121050   0.601   1.529   5.382 -2.7639 -1.3661  0.6790
 3138SOL    HW221051   0.557   1.523   5.522  0.1066 -2.8734  0.2988
 3139SOL     OW21052   1.276   0.268   1.892 -0.0932  0.3350 -0.2836
 3139SOL    HW121053   1.279   0.271   1.796  1.9328 -0.8188 -0.2470
 3139SOL    HW221054   1.320   0.186   1.916 -0.6759  0.4553  1.2219
 3140SOL     OW21055   0.877   2.590   6.029  0.1908 -0.3810  0.4580
 3140SOL    HW121056   0.920   2.505   6.017 -0.9512 -0.5781 -1.9955
 3140SOL    HW221057   0.835   2.564   6.111  2.0899  0.5476  1.7379
 3141SOL     OW21058   4.022   0.309   4.583  0.7431 -0.0495 -0.7661
 3141SOL    HW121059   3.953   0.364   4.547 -0.5436  0.5911  2.7285
 3141SOL    HW221060   4.063   0.369   4.645 -0.1371  2.1348 -2.3161
 3142SOL     OW21061   4.701   4.204   0.969  0.0473  0.3741  0.5244
 3142SOL    HW121062   0.002   4.292   0.973 -0.8618  0.8088 -0.4841
 3142SOL    HW221063   4.610   4.218   0.993  0.0185  2.5250 -0.8417
 3143SOL     OW21064   0.371   0.610   5.815 -0.1039 -0.3791 -0.3845
 3143SOL    HW121065   0.409   0.542   5.760 -1.5165 -1.5840  0.1378
 3143SOL    HW221066   0.370   0.567   5.900 -3.4864  1.0052  0.3042
 3144SOL     OW21067   0.282   1.068   8.619  0.1772 -0.0950 -0.3031
 3144SOL    HW121068   0.371   1.103   8.608 -1.1511  3.6857  1.0782
 3144SOL    HW221069   0.281   0.973   8.608  4.5181  0.2586 -3.6335
 3145SOL     OW21070   2.604   3.165   8.953 -0.5616 -0.0605  0.2063
 3145SOL    HW121071   2.655   3.187   8.875  0.5453  1.0253  1.2254
 3145SOL    HW221072   2.578   3.253   8.982  2.1176  0.7895  0.1082
 3146SOL     OW21073   4.438   1.555   5.257  0.1074 -0.5460  0.3647
 3146SOL    HW121074   4.425   1.585   5.167 -0.2727 -4.8345 -0.9765
 3146SOL    HW221075   4.408   1.465   5.248 -0.0459 -0.4386 -0.2171
 3147SOL     OW21076   1.448   4.393   9.301  0.4046  0.7023 -0.0734
 3147SOL    HW121077   1.482   4.467   9.252 -1.8860  1.0714 -1.0757
 3147SOL    HW221078   1.455   4.430   9.389 -0.5571  3.1201 -1.0222
 3148SOL     OW21079   3.550   3.438  15.803 -0.5506 -0.3022  0.3123
 3148SOL    HW121080   3.627   3.382  15.813  0.4766  1.5417  2.6195
 3148SOL    HW221081   3.563   3.481  15.887 -0.8745 -0.4353  0.4274
 3149SOL     OW21082   1.170   2.615   1.738 -0.1561  0.3545 -0.5868
 3149SOL    HW121083   1.196   2.652   1.823 -2.4621  0.5783  0.0360
 3149SOL    HW221084   1.100   2.561   1.775 -0.0302 -0.2363 -1.2056
 3150SOL     OW21085   3.938   4.168  15.315  0.5722 -0.0787 -0.0381
 3150SOL    HW121086   3.874   4.097  15.311  2.0744 -1.4071 -0.4692
 3150SOL    HW221087   3.911   4.216  15.237  2.1784  1.0370  0.0739
 3151SOL     OW21088   3.540   1.079   7.118  0.0846  0.1109  0.5025
 3151SOL    HW121089   3.598   1.122   7.055 -0.2810  0.1912  0.2137
 3151SOL    HW221090   3.451   1.111   7.100  0.3053 -0.3866 -1.5079
 3152SOL     OW21091   2.701   1.065  11.664 -0.1267  0.1131 -0.5051
 3152SOL    HW121092   2.679   1.035  11.752  0.2375  2.4949  0.4113
 3152SOL    HW221093   2.795   1.052  11.662  0.2644  2.8784  0.2306
 3153SOL     OW21094   3.069   3.565   4.212  0.2348 -0.8031  0.7215
 3153SOL    HW121095   3.155   3.596   4.242  0.1349  1.8747 -1.7030
 3153SOL    HW221096   3.097   3.521   4.132  0.3595  1.3745 -0.4362
 3154SOL     OW21097   1.773   2.128   7.727 -0.4774 -0.0288  0.3472
 3154SOL    HW121098   1.726   2.212   7.720 -1.7090 -0.7764 -0.3277
 3154SOL    HW221099   1.791   2.114   7.634 -0.5521  1.9180  0.0352
 3155SOL     OW21100   3.663   0.143   0.947  0.3934 -0.3016 -0.3731
 3155SOL    HW121101   3.685   0.232   0.919  2.3372 -0.6902 -0.0881
 3155SOL    HW221102   3.568   0.148   0.936  0.4047 -2.2569 -1.4457
 3156SOL     OW21103   2.497   3.479  17.282 -0.2369 -0.8559  0.0183
 3156SOL    HW121104   2.413   3.498  17.323 -1.0161 -2.1725 -0.9529
 3156SOL    HW221105   2.469   3.472  17.191 -0.7920  0.1930  0.1066
 3157SOL     OW21106   2.559   1.053   6.421 -0.5439 -0.0488 -0.4840
 3157SOL    HW121107   2.648   1.030   6.393 -0.4643 -0.4303  0.0826
 3157SOL    HW221108   2.547   1.033   6.513 -0.6891 -0.1048 -0.5160
 3158SOL     OW21109   1.277   1.025   7.149 -0.1138  0.9058  0.7285
 3158SOL    HW121110   1.186   0.996   7.152  0.3727 -0.3275  3.0936
 3158SOL    HW221111   1.329   0.947   7.133  1.4685  2.5032 -2.0018
 3159SOL     OW21112   0.969   1.050  16.872 -0.4005  0.0948 -0.0266
 3159SOL    HW121113   1.015   0.966  16.874  1.5625  1.1501 -0.0828
 3159SOL    HW221114   0.936   1.040  16.783 -2.7281  0.4585  0.8192
 3160SOL     OW21115   0.331   3.435   8.697  0.2094  0.0013 -0.0526
 3160SOL    HW121116   0.246   3.407   8.662  0.1034  0.5962 -0.2654
 3160SOL    HW221117   0.336   3.380   8.775 -0.9326 -1.2281 -0.8421
 3161SOL     OW21118   3.843   2.819  15.832 -0.9416 -0.0153 -0.6424
 3161SOL    HW121119   3.763   2.774  15.861  0.1195 -0.8646  0.9756
 3161SOL    HW221120   3.910   2.751  15.822  0.2591  0.6036  3.3214
 3162SOL     OW21121   3.236   1.983   2.397  0.3462 -0.3717  0.3303
 3162SOL    HW121122   3.217   1.915   2.333  0.4648 -0.4398  0.3681
 3162SOL    HW221123   3.165   2.047   2.400  0.5851 -0.0948  0.0848
 3163SOL     OW21124   0.204   1.039   0.893  0.5819  0.4252  0.0305
 3163SOL    HW121125   0.235   1.109   0.837  2.1546  0.5948  1.1157
 3163SOL    HW221126   0.143   0.997   0.832 -1.1849  1.2170  1.2501
 3164SOL     OW21127   3.462   1.466   0.262 -0.2326  0.1755 -0.2182
 3164SOL    HW121128   3.428   1.475   0.351  0.7214 -1.4204  0.3056
 3164SOL    HW221129   3.551   1.490   0.288 -0.9545  1.1760  1.3353
 3165SOL     OW21130   3.924   3.900  17.727  0.5096 -0.2291 -0.0056
 3165SOL    HW121131   4.006   3.865   0.016  0.8641 -0.6370 -1.3085
 3165SOL    HW221132   3.888   3.826  17.678  1.6111 -0.7235 -0.0628
 3166SOL     OW21133   1.867   4.503   6.824  0.0255 -0.6856  0.4184
 3166SOL    HW121134   1.782   4.460   6.818  0.6519 -2.0548  1.2851
 3166SOL    HW221135   1.928   4.432   6.803  0.7224 -0.4364  1.5812
 3167SOL     OW21136   2.931   1.945   7.600 -0.2140 -0.3048 -0.3876
 3167SOL    HW121137   2.896   2.014   7.655  0.1375 -0.6563  0.2743
 3167SOL    HW221138   2.862   1.879   7.592  1.2136 -1.6623 -1.5724
 3168SOL     OW21139   0.947   2.617   2.933 -0.6136  0.1157 -0.0020
 3168SOL    HW121140   0.991   2.561   2.998  0.4231  1.6629  0.6331
 3168SOL    HW221141   0.855   2.600   2.955 -1.1767  3.3663  0.1894
 3169SOL     OW21142   3.486   0.700   5.369 -0.2115 -0.5414 -0.5049
 3169SOL    HW121143   3.478   0.739   5.456 -0.4330 -0.1491 -0.7023
 3169SOL    HW221144   3.423   0.629   5.385 -0.3176  0.0638  1.7421
 3170SOL     OW21145   4.447   3.978   1.362  0.5150 -0.0799  0.0885
 3170SOL    HW121146   4.447   3.950   1.454  2.1714 -1.2137 -0.2675
 3170SOL    HW221147   4.515   4.044   1.373  1.4205 -1.1360  0.8895
 3171SOL     OW21148   3.696   2.799   9.294 -0.5648 -0.3366 -0.0697
 3171SOL    HW121149   3.677   2.716   9.251 -2.3242 -0.0780  0.2317
 3171SOL    HW221150   3.609   2.826   9.324  0.6216  2.4616  0.8512
 3172SOL     OW21151   1.509   1.502   2.376  0.1285 -0.3642 -0.2966
 3172SOL    HW121152   1.427   1.456   2.394  0.8328 -0.9300  1.4987
 3172SOL    HW221153   1.476   1.591   2.372 -2.5976 -1.3123  1.3163
 3173SOL     OW21154   2.793   4.008  17.335 -0.1457  0.1175 -0.6077
 3173SOL    HW121155   2.866   4.052  17.378 -0.5691 -0.1645  0.3854
 3173SOL    HW221156   2.732   4.041  17.400  0.0779  1.5201 -1.1077
 3174SOL     OW21157   2.030   2.455   8.460  0.1773 -0.4055  0.0509
 3174SOL    HW121158   2.001   2.463   8.550 -1.8732  0.1464 -0.6571
 3174SOL    HW221159   2.121   2.426   8.468 -0.3214 -2.2100 -0.7941
 3175SOL     OW21160   4.156   3.531   7.825  0.2646  0.1405  0.8187
 3175SOL    HW121161   4.129   3.621   7.806  1.3796  0.6385  1.6284
 3175SOL    HW221162   4.249   3.544   7.840  0.4705  0.4882 -0.7458
 3176SOL     OW21163   4.229   3.924   2.555 -0.5464 -0.0691  0.3953
 3176SOL    HW121164   4.167   3.885   2.616 -0.8373  1.4871  1.1020
 3176SOL    HW221165   4.180   3.993   2.510 -1.1198 -1.8222 -1.6102
 3177SOL     OW21166   1.835   3.944   1.260  0.0513  0.1515  0.2792
 3177SOL    HW121167   1.912   3.979   1.306  0.1209  1.0769 -0.5508
 3177SOL    HW221168   1.874   3.881   1.200 -1.0467  0.5435 -0.8314
 3178SOL     OW21169   2.691   2.251  13.319 -0.3039 -0.2249  0.0402
 3178SOL    HW121170   2.651   2.314  13.260 -0.6264 -1.6052 -1.2072
 3178SOL    HW221171   2.631   2.258  13.394  0.0656 -2.8527  0.5879
 3179SOL     OW21172   0.123   4.237   4.899  0.7246  0.2111 -0.1200
 3179SOL    HW121173   0.204   4.223   4.949  0.7950  3.0963  0.5608
 3179SOL    HW221174   0.063   4.174   4.938  2.9457 -1.6309  0.3744
 3180SOL     OW21175   1.580   2.851   6.655  0.1284  0.3588  0.4096
 3180SOL    HW121176   1.597   2.932   6.703  0.3152 -0.4333  1.6679
 3180SOL    HW221177   1.663   2.804   6.649 -0.6445 -1.1537  1.3664
 3181SOL     OW21178   2.336   2.071   8.793  0.2265 -0.1499  0.2738
 3181SOL    HW121179   2.242   2.064   8.775  0.3454  1.0249 -0.8546
 3181SOL    HW221180   2.337   2.121   8.875 -1.9652  1.0155 -0.4114
 3182SOL     OW21181   2.178   0.767   9.764  0.2819  0.2262  0.2593
 3182SOL    HW121182   2.126   0.805   9.835 -0.7411  2.3971 -1.6406
 3182SOL    HW221183   2.157   0.675   9.778  0.7198  0.3733  1.8983
 3183SOL     OW21184   0.465   4.248   2.596  0.0939  0.3564  0.5191
 3183SOL    HW121185   0.497   4.261   2.685 -2.2572  0.9907  1.2903
 3183SOL    HW221186   0.397   4.188   2.629  1.0508  0.2190  2.2152
 3184SOL     OW21187   1.449   0.933   3.001 -0.0954  0.4863  0.0172
 3184SOL    HW121188   1.397   0.986   2.941 -0.9168  1.8471  1.9053
 3184SOL    HW221189   1.512   0.888   2.945 -0.3636 -0.5195  0.5190
 3185SOL     OW21190   2.584   3.288   3.918  0.2198 -0.5015  0.6773
 3185SOL    HW121191   2.512   3.224   3.923  0.1097 -0.2156  2.7324
 3185SOL    HW221192   2.618   3.291   4.008  1.2541 -0.0777  0.2601
 3186SOL     OW21193   1.680   2.794   7.682  0.3615  0.6810 -0.0531
 3186SOL    HW121194   1.603   2.847   7.705 -0.2123 -0.2908  0.2604
 3186SOL    HW221195   1.638   2.718   7.644 -0.0674  1.2846 -0.7921
 3187SOL     OW21196   4.365   1.114   0.039  0.2112  0.9176 -0.6243
 3187SOL    HW121197   4.397   1.041   0.091 -0.5149  0.3347 -0.9978
 3187SOL    HW221198   4.425   1.127  17.710 -0.4117  2.4307 -0.8769
 3188SOL     OW21199   0.032   4.563   5.919  0.3723  0.2214  0.3977
 3188SOL    HW121200   0.024   4.506   5.995 -2.0053  0.5837  0.4025
 3188SOL    HW221201   0.069   4.641   5.960  2.5305  1.1681 -3.2963
 3189SOL     OW21202   3.489   0.568   8.381 -0.0056 -0.2597  0.2274
 3189SOL    HW121203   3.520   0.526   8.461  0.1015 -0.0608  0.2881
 3189SOL    HW221204   3.405   0.602   8.411  0.5092  0.0273  1.3577
 3190SOL     OW21205   1.943   2.799   8.100 -0.5084  0.5551 -0.1618
 3190SOL    HW121206   1.977   2.805   8.010 -0.6071 -0.3263 -0.2582
 3190SOL    HW221207   1.878   2.731   8.082 -0.7826  1.0714 -1.1307
 3191SOL     OW21208   3.444   4.345   2.062  0.1483 -0.0759 -0.3297
 3191SOL    HW121209   3.485   4.430   2.072  0.8603 -0.3991 -0.5130
 3191SOL    HW221210   3.380   4.357   1.992  0.3209  1.3212 -0.2401
 3192SOL     OW21211   0.345   4.595   7.163  0.1241 -0.1589  0.4143
 3192SOL    HW121212   0.302   4.675   7.191  0.9678  0.0460  1.1410
 3192SOL    HW221213   0.398   4.578   7.241  1.2358  2.2373  0.1581
 3193SOL     OW21214   1.727   4.607   8.079 -0.0954  0.6955  0.2867
 3193SOL    HW121215   1.678   4.541   8.128  1.2211  0.5769  1.4399
 3193SOL    HW221216   1.673   4.685   8.092  0.5283  0.9882  1.1099
 3194SOL     OW21217   3.249   4.730   2.631 -0.0678  0.2948 -0.5627
 3194SOL    HW121218   3.253   4.642   2.670  1.7505  1.4743  1.9345
 3194SOL    HW221219   3.262   4.703   2.540 -2.7132 -2.0680 -0.2491
 3195SOL     OW21220   2.280   0.804   6.079 -0.2767 -0.6331  0.3265
 3195SOL    HW121221   2.228   0.852   6.014  2.4733  0.0080 -1.4364
 3195SOL    HW221222   2.256   0.856   6.156 -0.0090  1.1399 -0.7661
 3196SOL     OW21223   2.658   0.788   0.818 -0.6705 -0.0527  0.1212
 3196SOL    HW121224   2.630   0.712   0.869 -0.6706 -0.6101 -0.7154
 3196SOL    HW221225   2.639   0.861   0.878 -0.3754  0.2064 -0.1019
 3197SOL     OW21226   0.769   0.091   2.800  0.0388  0.1281 -0.2998
 3197SOL    HW121227   0.792   0.181   2.822  1.0893 -0.4580  1.0281
 3197SOL    HW221228   0.856   0.050   2.806  0.4180  0.6338 -2.2331
 3198SOL     OW21229   0.217   3.715   8.471  0.3988 -0.0007 -0.1681
 3198SOL    HW121230   0.298   3.670   8.448 -0.4585 -1.7789  0.3246
 3198SOL    HW221231   0.243   3.742   8.559 -0.6255  0.1833  0.0829
 3199SOL     OW21232   4.061   2.249  13.017 -0.1661  0.8921 -0.5474
 3199SOL    HW121233   4.091   2.339  13.019  1.5989  0.2611  0.4698
 3199SOL    HW221234   3.981   2.259  13.069  0.3598  3.5963 -0.2629
 3200SOL     OW21235   1.853   2.453  16.311 -0.1292 -0.2086 -0.4559
 3200SOL    HW121236   1.884   2.446  16.221 -0.0822  0.0064 -0.4562
 3200SOL    HW221237   1.851   2.549  16.318 -4.2295 -0.5130  2.4785
 3201SOL     OW21238   1.378   3.175   7.703 -0.1735  0.2096 -1.2490
 3201SOL    HW121239   1.283   3.165   7.709 -0.1514  0.0868 -1.0899
 3201SOL    HW221240   1.403   3.084   7.722  0.1795  0.2000 -1.7520
 3202SOL     OW21241   4.384   2.580   8.459 -0.2602 -0.3437 -0.2419
 3202SOL    HW121242   4.442   2.512   8.425  1.0783  0.6242  0.1172
 3202SOL    HW221243   4.342   2.621   8.383  1.2173  2.3810  0.4164
 3203SOL     OW21244   0.488   1.601   8.040 -0.2339 -0.4312 -0.4750
 3203SOL    HW121245   0.478   1.693   8.018  0.6741 -0.2743 -0.2512
 3203SOL    HW221246   0.411   1.582   8.093  0.4910  0.9438  1.0632
 3204SOL     OW21247   1.409   2.303  13.837  0.3684  0.1267  0.7839
 3204SOL    HW121248   1.366   2.387  13.855  1.1044  0.9610 -1.2657
 3204SOL    HW221249   1.462   2.294  13.916  1.3843 -0.7909  0.0052
 3205SOL     OW21250   2.949   0.462   2.024 -0.2307  0.0694 -0.0072
 3205SOL    HW121251   2.886   0.391   2.012  0.6790 -0.5411 -1.1568
 3205SOL    HW221252   2.890   0.537   2.024 -0.6091 -0.2410 -3.8158
 3206SOL     OW21253   4.544   2.895   9.340  0.8740 -0.2833 -0.5690
 3206SOL    HW121254   4.496   2.964   9.387  0.0775 -1.0482 -0.2550
 3206SOL    HW221255   4.632   2.931   9.353  0.6365 -0.3466  1.2082
 3207SOL     OW21256   4.038   2.892   5.055 -0.8248 -0.7594 -0.4259
 3207SOL    HW121257   3.979   2.957   5.017  0.2911  0.6836  0.3088
 3207SOL    HW221258   4.023   2.823   4.990  0.5654 -1.9596  0.5369
 3208SOL     OW21259   1.866   1.679  16.792 -0.1105 -0.1105  0.2298
 3208SOL    HW121260   1.884   1.665  16.699 -1.8713 -0.9813  0.0162
 3208SOL    HW221261   1.786   1.626  16.797 -0.0310 -0.0693  1.8822
 3209SOL     OW21262   0.426   4.696  16.345  0.3177 -0.3783  0.5870
 3209SOL    HW121263   0.496   0.025  16.341 -0.0194  0.0722  2.0395
 3209SOL    HW221264   0.369   0.006  16.284  1.5041 -0.4223 -0.5367
 3210SOL     OW21265   4.246   4.072   9.014  0.4235 -0.2217 -0.0232
 3210SOL    HW121266   4.165   4.087   8.965 -1.0254 -0.9234  2.1152
 3210SOL    HW221267   4.212   4.091   9.102 -1.8511 -0.2239 -0.8845
 3211SOL     OW21268   1.612   0.640   7.400 -0.3700 -0.0695 -0.0496
 3211SOL    HW121269   1.553   0.602   7.334 -2.6413 -0.7417  2.3700
 3211SOL    HW221270   1.697   0.608   7.372 -0.9412 -0.2388 -1.5866
 3212SOL     OW21271   3.866   0.930  12.197  0.3023 -0.3315  0.5515
 3212SOL    HW121272   3.888   1.005  12.251 -1.8419  0.9484 -0.3166
 3212SOL    HW221273   3.954   0.914  12.163 -0.5735  0.8608 -2.3127
 3213SOL     OW21274   4.059   3.528   7.553 -0.1873  0.5072  0.2567
 3213SOL    HW121275   4.113   3.513   7.631 -0.7640 -0.7912  0.4198
 3213SOL    HW221276   3.990   3.577   7.598 -0.6014 -3.0069  3.4751
 3214SOL     OW21277   0.118   4.202  10.425 -0.4101 -0.1443  0.2799
 3214SOL    HW121278   0.130   4.222  10.333 -0.9164  0.4459  0.3438
 3214SOL    HW221279   0.206   4.210  10.462 -1.1539 -0.4654  2.1661
 3215SOL     OW21280   0.659   0.209   5.045  0.4267  0.2977  0.2665
 3215SOL    HW121281   0.727   0.253   4.995  0.1234  0.3246 -0.1232
 3215SOL    HW221282   0.623   0.156   4.974 -1.1217 -0.3070  1.4913
 3216SOL     OW21283   3.492   3.595   9.558  0.0882 -0.1917 -0.2562
 3216SOL    HW121284   3.423   3.545   9.514  0.8692 -1.0054 -0.5596
 3216SOL    HW221285   3.450   3.681   9.562  1.4880  0.4199  1.5525
 3217SOL     OW21286   2.816   2.011   9.091  0.1866 -0.0046 -0.1073
 3217SOL    HW121287   2.758   1.963   9.032  1.0900 -0.3796 -0.6884
 3217SOL    HW221288   2.767   2.081   9.135  0.3989  0.1149 -0.0576
 3218SOL     OW21289   2.941   2.450   9.053  0.5019 -0.7077  0.2965
 3218SOL    HW121290   2.999   2.443   9.128 -1.1973  2.0788  1.8689
 3218SOL    HW221291   2.971   2.377   8.998 -1.5908 -1.4843  0.1956
 3219SOL     OW21292   1.015   0.902   4.028 -0.5950 -0.3807 -1.0400
 3219SOL    HW121293   1.010   0.807   4.035 -2.1980 -0.2846 -0.8421
 3219SOL    HW221294   0.942   0.932   3.973 -0.4826 -1.4033 -1.7470
 3220SOL     OW21295   3.457   0.614  13.973  0.1495 -0.0798 -0.0269
 3220SOL    HW121296   3.539   0.574  13.944  0.2704  0.6915 -0.7533
 3220SOL    HW221297   3.493   0.698  13.999  1.1803 -1.0179  1.5845
 3221SOL     OW21298   0.904   3.251   4.996  0.0987 -0.0246 -0.2345
 3221SOL    HW121299   0.818   3.241   5.036 -0.1381  0.6798 -0.5733
 3221SOL    HW221300   0.888   3.328   4.942 -1.3455 -0.8317 -0.9495
 3222SOL     OW21301   3.876   1.042   9.304  0.3550  0.6572 -0.4389
 3222SOL    HW121302   3.831   1.076   9.382 -2.0796 -0.2120 -1.4852
 3222SOL    HW221303   3.935   1.114   9.283 -0.5500  1.9016  1.2921
 3223SOL     OW21304   2.045   4.566   5.301  0.4863 -0.0359 -0.6969
 3223SOL    HW121305   2.104   4.640   5.291 -0.6958  0.8373 -1.3369
 3223SOL    HW221306   1.964   4.594   5.258  0.5823  1.4131  0.0555
 3224SOL     OW21307   3.017   0.272   1.665 -0.0804 -0.2118  0.1640
 3224SOL    HW121308   3.088   0.216   1.697 -0.3104  0.0037  1.0513
 3224SOL    HW221309   2.939   0.234   1.706  0.1618  2.1711  2.8133
 3225SOL     OW21310   0.538   4.032  10.564 -0.0985 -0.0146  0.1432
 3225SOL    HW121311   0.504   4.053  10.651  0.0908 -2.3388  0.7994
 3225SOL    HW221312   0.603   3.966  10.589 -0.7403 -0.4937  0.5575
 3226SOL     OW21313   2.722   4.552  11.423 -0.5831 -0.3213  0.1431
 3226SOL    HW121314   2.658   4.622  11.412 -0.1698  0.4668  2.6930
 3226SOL    HW221315   2.736   4.513  11.337  1.0908  0.7824 -0.0647
 3227SOL     OW21316   2.124   0.554   3.581  0.2470  0.6361 -0.6460
 3227SOL    HW121317   2.149   0.516   3.497  0.7961 -1.4913  0.4976
 3227SOL    HW221318   2.178   0.633   3.580  0.5563  0.4216 -0.6541
 3228SOL     OW21319   3.902   0.361   6.778 -0.1479 -0.0246 -0.4400
 3228SOL    HW121320   3.952   0.436   6.810  0.3207 -0.0225 -1.1539
 3228SOL    HW221321   3.821   0.408   6.760 -0.3492  0.1018  0.8039
 3229SOL     OW21322   2.575   1.809  11.919 -0.2545 -0.3000  0.7024
 3229SOL    HW121323   2.505   1.804  11.984 -0.5525 -0.3735  0.3785
 3229SOL    HW221324   2.640   1.745  11.946 -0.8473  0.3131  3.6470
 3230SOL     OW21325   0.011   3.819   8.734 -0.2220 -0.1584 -0.8173
 3230SOL    HW121326   4.722   3.893   8.680 -1.9675  0.3137  0.6741
 3230SOL    HW221327   4.714   3.846   8.820 -1.7931  0.3621 -1.6006
 3231SOL     OW21328   3.990   1.930  16.342  0.2884 -0.0502 -0.2641
 3231SOL    HW121329   4.030   2.014  16.319 -0.7223  0.0507 -1.6814
 3231SOL    HW221330   4.059   1.891  16.395  0.2939  0.5006  0.1469
 3232SOL     OW21331   2.496   3.499   0.129 -0.9451  0.6006 -0.5546
 3232SOL    HW121332   2.413   3.546   0.137  0.0491  2.0243  1.3414
 3232SOL    HW221333   2.512   3.481   0.036  0.8240  0.6045 -0.2560
 3233SOL     OW21334   3.138   1.378  11.296 -0.1348 -0.4331  0.5506
 3233SOL    HW121335   3.119   1.471  11.286 -1.2521 -0.8669 -1.5433
 3233SOL    HW221336   3.211   1.366  11.236 -0.0349 -0.4138  0.6690
 3234SOL     OW21337   4.378   0.412  16.684  0.5366  0.2783  0.1624
 3234SOL    HW121338   4.437   0.348  16.645  0.1099  0.1954 -0.3389
 3234SOL    HW221339   4.427   0.493  16.665  1.9324 -1.3758 -3.1389
 3235SOL     OW21340   0.438   2.414   1.046  0.5255  0.5998  0.8879
 3235SOL    HW121341   0.461   2.491   0.993  2.4075  0.2520  1.1946
 3235SOL    HW221342   0.344   2.429   1.049  0.2971 -0.0555 -2.3254
 3236SOL     OW21343   2.347   2.713   2.994 -0.1094 -0.0608 -0.3529
 3236SOL    HW121344   2.301   2.635   2.966  1.4343 -1.3210  0.5990
 3236SOL    HW221345   2.431   2.673   2.973 -0.2668  0.2278 -1.4986
 3237SOL     OW21346   4.345   3.705   2.443  0.1360  0.2257  0.7355
 3237SOL    HW121347   4.384   3.723   2.358  0.6072  1.5536  1.2331
 3237SOL    HW221348   4.331   3.787   2.490  2.2867  1.5633 -0.9914
 3238SOL     OW21349   3.171   0.903   3.570 -0.5835 -0.0133  0.1359
 3238SOL    HW121350   3.157   0.957   3.493  0.5756 -1.3878 -1.0517
 3238SOL    HW221351   3.159   0.817   3.528  3.6751  0.0432 -1.1601
 3239SOL     OW21352   0.838   2.394   6.260 -0.0524 -0.5960  0.1451
 3239SOL    HW121353   0.814   2.308   6.227  1.2702 -0.5904 -0.8146
 3239SOL    HW221354   0.908   2.367   6.319  0.6908 -2.7366 -1.7246
 3240SOL     OW21355   2.664   0.343  15.457  0.3272 -0.0532 -0.6555
 3240SOL    HW121356   2.691   0.252  15.443  2.0350  0.0591  1.8186
 3240SOL    HW221357   2.622   0.328  15.541 -1.9449  0.0383 -1.7908
 3241SOL     OW21358   1.555   1.663   8.342 -0.1226 -0.3458  0.0690
 3241SOL    HW121359   1.509   1.685   8.424  0.9771 -1.1646  0.9083
 3241SOL    HW221360   1.546   1.569   8.332 -0.4761 -0.2338 -0.6425
 3242SOL     OW21361   4.544   4.313   4.997 -0.3369  0.7255  0.0433
 3242SOL    HW121362   4.539   4.219   5.017 -2.6575  0.8524  0.0581
 3242SOL    HW221363   4.594   4.322   4.917  0.3251 -0.4142  0.3300
 3243SOL     OW21364   2.868   0.307   0.347 -0.1168 -0.0528 -0.2999
 3243SOL    HW121365   2.896   0.269   0.431 -0.6120  0.4854  0.1060
 3243SOL    HW221366   2.839   0.392   0.379 -1.8018 -0.7083 -0.1152
 3244SOL     OW21367   2.650   1.517   3.120 -0.0705  1.0739  0.4431
 3244SOL    HW121368   2.562   1.535   3.088 -0.1416  0.8856  0.5327
 3244SOL    HW221369   2.641   1.431   3.161  0.4809  0.3538 -0.9230
 3245SOL     OW21370   3.940   3.786  17.414 -0.3874  0.0366  0.1584
 3245SOL    HW121371   4.030   3.754  17.417  0.1277  1.3383 -1.4264
 3245SOL    HW221372   3.895   3.711  17.453 -1.0207  0.4085  0.1393
 3246SOL     OW21373   2.455   4.201   2.725  0.1324 -0.2306 -0.0001
 3246SOL    HW121374   2.548   4.214   2.742  0.5191 -2.8823 -0.0889
 3246SOL    HW221375   2.435   4.142   2.798 -0.0038  2.2758  1.9792
 3247SOL     OW21376   1.928   1.286   3.410  0.5516 -0.4255  0.2544
 3247SOL    HW121377   2.006   1.307   3.462  0.4151  0.2553  0.1798
 3247SOL    HW221378   1.906   1.201   3.448 -2.0613 -0.1133 -0.5610
 3248SOL     OW21379   2.709   4.495  15.255  0.2033  0.3096  0.5919
 3248SOL    HW121380   2.631   4.441  15.271  0.3263 -0.1586 -0.3703
 3248SOL    HW221381   2.752   4.498  15.340 -0.9002 -0.1350  1.1679
 3249SOL     OW21382   3.174   0.109  14.729 -0.5116 -0.5692  0.0827
 3249SOL    HW121383   3.124   0.191  14.724  0.2324 -0.0857  0.5933
 3249SOL    HW221384   3.165   0.080  14.638  2.0115  1.8326 -0.9572
 3250SOL     OW21385   2.341   1.749  15.004 -0.1790  0.2796 -0.5574
 3250SOL    HW121386   2.316   1.825  15.057 -1.1113  0.1095 -0.7495
 3250SOL    HW221387   2.261   1.697  15.012  0.1377  0.0946  1.3187
 3251SOL     OW21388   2.830   1.659   8.503 -0.6216 -0.0867  0.0344
 3251SOL    HW121389   2.739   1.689   8.513 -0.3102  0.2246  1.9110
 3251SOL    HW221390   2.852   1.669   8.410  0.7604  1.2284  0.5062
 3252SOL     OW21391   2.024   1.961   3.261  0.0496 -1.0889  0.1243
 3252SOL    HW121392   2.119   1.974   3.272  0.1559  0.2629 -2.3737
 3252SOL    HW221393   1.989   2.010   3.335  0.0828 -0.6366 -0.1566
 3253SOL     OW21394   4.046   2.205   9.337  0.2914  0.0314  0.1680
 3253SOL    HW121395   4.093   2.150   9.399  0.8007  0.6441  0.3350
 3253SOL    HW221396   3.971   2.237   9.386  1.8982  0.7002  2.1972
 3254SOL     OW21397   3.050   0.453   5.803  0.0038  0.2028  0.5882
 3254SOL    HW121398   3.034   0.486   5.891 -3.7673 -1.2911  0.5090
 3254SOL    HW221399   2.985   0.506   5.756 -1.6098 -2.3866 -0.1524
 3255SOL     OW21400   1.666   0.112   9.172  0.7477  0.0524  0.2216
 3255SOL    HW121401   1.607   0.046   9.207  0.1173  0.0061 -0.9143
 3255SOL    HW221402   1.618   0.187   9.206 -1.5000 -1.9568  1.4506
 3256SOL     OW21403   1.518   3.126  16.757  0.3474 -0.7318  0.0432
 3256SOL    HW121404   1.477   3.140  16.842 -0.3373 -4.1884  0.2781
 3256SOL    HW221405   1.484   3.202  16.710  2.1981 -0.1897 -0.4283
 3257SOL     OW21406   3.535   4.357  14.738  0.4956  0.6625 -0.5224
 3257SOL    HW121407   3.545   4.291  14.669 -3.9283  0.0127 -0.5554
 3257SOL    HW221408   3.585   4.428  14.699  1.4883 -0.6346 -1.6030
 3258SOL     OW21409   4.003   2.695  12.238 -0.1662 -0.3734 -0.4267
 3258SOL    HW121410   4.094   2.671  12.221  0.0473  0.1195  0.0034
 3258SOL    HW221411   3.973   2.725  12.152 -0.4244  1.0960  0.1725
 3259SOL     OW21412   0.145   2.520   5.347 -0.3544  0.1466  0.0156
 3259SOL    HW121413   0.173   2.442   5.299  0.7843  1.0703 -0.8354
 3259SOL    HW221414   0.207   2.510   5.419 -2.4472 -3.4885  1.2640
 3260SOL     OW21415   3.019   0.587   8.990  0.0811  0.6013  0.3106
 3260SOL    HW121416   2.950   0.554   9.048  0.0771 -0.3401 -0.2227
 3260SOL    HW221417   2.987   0.669   8.954  0.7159 -0.2227 -2.1922
 3261SOL     OW21418   1.607   4.176  13.546 -0.0720  0.3305  0.2203
 3261SOL    HW121419   1.583   4.156  13.637  1.2124 -2.0041  0.0615
 3261SOL    HW221420   1.693   4.135  13.553  0.0480  0.6034  0.3454
 3262SOL     OW21421   4.696   1.892   1.787 -0.6896 -0.4612 -0.0940
 3262SOL    HW121422   4.727   1.802   1.781 -1.7040 -0.8500  0.4212
 3262SOL    HW221423   4.624   1.901   1.725 -0.5614  2.8717  0.2077
 3263SOL     OW21424   2.269   4.607   8.114  0.1171  0.2110  0.2382
 3263SOL    HW121425   2.266   4.701   8.130  0.3502  0.4540 -1.1947
 3263SOL    HW221426   2.194   4.598   8.056 -0.5363 -0.8733  1.2368
 3264SOL     OW21427   3.306   2.275   6.198  0.2311  0.6364  0.7780
 3264SOL    HW121428   3.244   2.249   6.266  2.8596 -2.3972  2.0605
 3264SOL    HW221429   3.375   2.211   6.214 -0.9273 -0.7185  0.3862
 3265SOL     OW21430   0.089   0.183   6.657 -0.1271  0.1349 -0.1722
 3265SOL    HW121431   0.136   0.184   6.573 -1.5254  0.8359 -0.9383
 3265SOL    HW221432   0.090   0.278   6.671 -2.0698  0.1578 -0.2694
 3266SOL     OW21433   1.313   2.108   6.377  0.1391  0.2413 -0.1274
 3266SOL    HW121434   1.353   2.025   6.403  0.0981  0.1821 -0.2519
 3266SOL    HW221435   1.282   2.146   6.459 -1.5293 -0.1607 -0.5883
 3267SOL     OW21436   3.761   1.738   0.328  0.2008  0.6340  0.4897
 3267SOL    HW121437   3.765   1.645   0.350 -0.2007  0.1977 -1.3002
 3267SOL    HW221438   3.776   1.739   0.233  1.7100  4.1040  0.7919
 3268SOL     OW21439   1.512   2.401   2.261  0.0349 -0.1001  0.5270
 3268SOL    HW121440   1.516   2.363   2.349 -0.0725 -1.4405 -0.0351
 3268SOL    HW221441   1.420   2.387   2.236 -0.2621  1.2285  0.9129
 3269SOL     OW21442   3.870   4.616  16.115 -0.2833 -0.0658  0.0606
 3269SOL    HW121443   3.855   4.610  16.021  0.8424 -1.7447 -0.0238
 3269SOL    HW221444   3.795   4.670  16.139 -0.4378 -0.9363  1.5452
 3270SOL     OW21445   3.031   3.930   6.399  1.0077  0.4248 -0.3814
 3270SOL    HW121446   3.016   3.883   6.317  0.0449 -2.1590  1.2667
 3270SOL    HW221447   3.027   3.858   6.462  1.3149  0.7026 -0.0491
 3271SOL     OW21448   3.673   1.456   0.425  0.4199 -0.2592 -0.4679
 3271SOL    HW121449   3.726   1.465   0.505 -0.2381 -0.1676 -0.0430
 3271SOL    HW221450   3.629   1.374   0.447  2.0071 -0.6617  1.1728
 3272SOL     OW21451   0.166   0.123   2.590  0.1893 -0.0364  0.2480
 3272SOL    HW121452   0.201   0.205   2.555  0.3119 -0.3122 -0.2734
 3272SOL    HW221453   0.227   0.063   2.548  0.3906 -1.1246  2.0625
 3273SOL     OW21454   1.438   2.282   8.180  0.1496 -0.0905  0.5583
 3273SOL    HW121455   1.476   2.334   8.251  0.5534  0.3049  0.0544
 3273SOL    HW221456   1.520   2.248   8.142 -0.7617 -1.0183 -0.5610
 3274SOL     OW21457   4.297   1.746   8.635  0.3153 -0.2161  0.1624
 3274SOL    HW121458   4.370   1.772   8.691  0.9905 -0.5688 -0.5500
 3274SOL    HW221459   4.348   1.757   8.555 -0.8669  2.4965 -0.2118
 3275SOL     OW21460   3.146   0.371  11.113 -0.0454 -0.2833 -0.2592
 3275SOL    HW121461   3.104   0.443  11.066  0.6036  0.4686  0.3069
 3275SOL    HW221462   3.141   0.306  11.043  1.1736 -0.1589 -0.4578
 3276SOL     OW21463   2.520   1.883   3.788 -0.3602  0.2230  0.3040
 3276SOL    HW121464   2.554   1.917   3.871 -2.1218 -0.0723  1.1531
 3276SOL    HW221465   2.519   1.792   3.817  0.5250  0.8623  2.3737
 3277SOL     OW21466   1.350   4.390  13.647 -0.2093 -1.0486 -0.8981
 3277SOL    HW121467   1.342   4.477  13.609  1.1951 -0.2922  0.5367
 3277SOL    HW221468   1.298   4.382  13.727  3.3003 -0.4711  1.4343
 3278SOL     OW21469   1.640   1.015   1.124 -0.6814  0.2259  0.0520
 3278SOL    HW121470   1.645   0.928   1.083  0.1665 -0.0829  0.7947
 3278SOL    HW221471   1.593   1.005   1.207 -0.1198 -0.6771  0.2665
 3279SOL     OW21472   3.108   4.210  13.850 -0.1357 -0.1684 -0.3796
 3279SOL    HW121473   3.100   4.170  13.937 -2.4149  0.7266 -0.1751
 3279SOL    HW221474   3.016   4.226  13.827  0.0016 -1.7188 -2.0479
 3280SOL     OW21475   3.741   1.947   5.211  0.0810  0.3349  0.8288
 3280SOL    HW121476   3.769   1.970   5.299 -1.7204 -4.4591  2.6455
 3280SOL    HW221477   3.676   1.885   5.244 -0.1809 -0.3159 -0.8807
 3281SOL     OW21478   0.896   4.134   5.060  0.0541 -0.1285  0.8356
 3281SOL    HW121479   0.841   4.109   4.986 -2.1817 -0.0534  2.4646
 3281SOL    HW221480   0.847   4.204   5.103  0.7733  0.6986  0.2970
 3282SOL     OW21481   4.088   4.654   8.472 -0.0822  0.7858  0.0344
 3282SOL    HW121482   4.153   4.604   8.522 -0.7405  0.2003  0.3095
 3282SOL    HW221483   4.133   0.002   8.465  0.9326  0.1742 -0.8612
 3283SOL     OW21484   0.548   2.577   0.868 -0.1099 -0.4052 -0.4979
 3283SOL    HW121485   0.613   2.620   0.923  0.1358  1.8358 -2.5543
 3283SOL    HW221486   0.609   2.537   0.806 -0.5364  0.9398 -1.7971
 3284SOL     OW21487   4.052   3.831   2.711 -0.5420 -0.2764  0.2520
 3284SOL    HW121488   4.005   3.755   2.743 -2.1516  0.3268 -0.6877
 3284SOL    HW221489   3.980   3.885   2.679 -0.7921 -1.1857 -0.7410
 3285SOL     OW21490   1.071   0.573   4.238  0.2483 -0.8531  0.2170
 3285SOL    HW121491   1.139   0.560   4.303  1.1968  0.2021 -0.5705
 3285SOL    HW221492   0.994   0.592   4.293 -0.2828 -1.6552 -0.2470
 3286SOL     OW21493   0.345   0.340   2.063  0.0470 -0.3711  0.9873
 3286SOL    HW121494   0.354   0.422   2.113 -3.1840  1.0861 -0.8285
 3286SOL    HW221495   0.404   0.355   1.989 -1.3277  1.1592  0.2137
 3287SOL     OW21496   3.103   1.958  12.658  0.0657  0.2738 -0.1080
 3287SOL    HW121497   3.105   2.003  12.573  1.1694  2.2122  0.9411
 3287SOL    HW221498   3.029   1.898  12.654  0.1563  0.0277  1.9420
 3288SOL     OW21499   0.293   0.062   4.497 -0.0738 -0.0946  0.5259
 3288SOL    HW121500   0.323   0.135   4.551  2.1223 -0.3911 -0.2991
 3288SOL    HW221501   0.375   0.020   4.473 -0.4350  0.5100 -1.6946
 3289SOL     OW21502   0.387   2.407  17.018 -0.4022 -0.2947  0.0018
 3289SOL    HW121503   0.394   2.383  17.110 -1.4039 -0.0235  0.1520
 3289SOL    HW221504   0.447   2.344  16.978 -0.8619 -2.1028  2.1665
 3290SOL     OW21505   1.131   2.512   7.980 -0.1861  0.3620  0.5993
 3290SOL    HW121506   1.063   2.474   8.036 -0.9315  2.0735  0.8638
 3290SOL    HW221507   1.188   2.545   8.049 -0.6352 -0.8968  1.5637
 3291SOL     OW21508   2.297   2.006   3.307  0.1681 -0.1602 -0.4523
 3291SOL    HW121509   2.354   1.930   3.318  0.0439  0.2713  3.0175
 3291SOL    HW221510   2.365   2.063   3.272 -0.0050  0.0300 -0.4760
 3292SOL     OW21511   2.834   4.215  13.750  0.2660  0.0167  0.2768
 3292SOL    HW121512   2.752   4.263  13.735  1.2849  1.7546  0.3107
 3292SOL    HW221513   2.868   4.237  13.663 -0.1848  0.3383  0.1801
 3293SOL     OW21514   3.744   1.551   4.548 -0.1843  0.5614 -0.9595
 3293SOL    HW121515   3.726   1.457   4.553  1.6520  0.3550  2.1319
 3293SOL    HW221516   3.788   1.552   4.463 -0.8578 -0.6454 -1.3297
 3294SOL     OW21517   1.499   0.302  10.344  0.3597 -0.0385  0.0177
 3294SOL    HW121518   1.585   0.327  10.377 -0.0232  2.4257 -0.8770
 3294SOL    HW221519   1.508   0.215  10.384  1.5164  1.4166  2.9844
 3295SOL     OW21520   4.633   3.367   1.319  0.1888 -0.0545  0.0494
 3295SOL    HW121521   4.638   3.451   1.365  1.8204  1.2639 -2.5044
 3295SOL    HW221522   4.646   3.306   1.392  0.4765  1.7719  1.5181
 3296SOL     OW21523   4.593   0.499   4.761  0.4421  0.3791 -0.2479
 3296SOL    HW121524   4.639   0.447   4.695  0.1099 -1.3825  0.8791
 3296SOL    HW221525   4.579   0.580   4.714 -1.0222  0.3131  0.0760
 3297SOL     OW21526   1.238   1.912  17.401  0.5194 -0.0508  0.2068
 3297SOL    HW121527   1.329   1.881  17.392  0.2275  0.4155 -4.3816
 3297SOL    HW221528   1.245   1.993  17.352  0.4566  0.7113  1.4591
 3298SOL     OW21529   0.053   4.463   9.428 -0.2220 -0.3830  0.2272
 3298SOL    HW121530   4.704   4.491   9.396  0.3033 -1.0319 -1.7758
 3298SOL    HW221531   0.101   4.523   9.371 -0.2223 -0.1006  0.5324
 3299SOL     OW21532   4.668   0.785   4.106 -0.0827  0.0219  0.1664
 3299SOL    HW121533   4.689   0.816   4.018  1.4223 -1.8101 -0.1077
 3299SOL    HW221534   4.629   0.699   4.091 -0.8142 -0.0103  2.2146
 3300SOL     OW21535   3.233   2.692  14.869  0.0162 -0.1534  0.0811
 3300SOL    HW121536   3.328   2.691  14.881  0.1820  1.3200 -1.0364
 3300SOL    HW221537   3.218   2.600  14.889  0.5815  0.0321  1.3472
 3301SOL     OW21538   4.102   0.721   1.923  0.0295 -0.0659 -0.1546
 3301SOL    HW121539   4.136   0.637   1.954 -2.3105 -0.8195  0.3819
 3301SOL    HW221540   4.140   0.734   1.836 -0.4464  2.0188 -0.0602
 3302SOL     OW21541   0.438   4.289   4.359  0.6171  0.2226  0.6063
 3302SOL    HW121542   0.387   4.323   4.285 -1.5108 -0.2762  1.8535
 3302SOL    HW221543   0.380   4.285   4.435 -0.1578 -0.9033 -0.0486
 3303SOL     OW21544   2.066   4.465   3.951 -0.2147 -0.2330  0.4292
 3303SOL    HW121545   1.989   4.513   3.983 -0.2564 -0.5448  0.8015
 3303SOL    HW221546   2.095   4.426   4.034  0.0167 -0.2909  0.3214
 3304SOL     OW21547   4.278   0.910   7.894  0.0619 -0.0218  0.4152
 3304SOL    HW121548   4.357   0.861   7.917  0.1664 -0.5448 -1.0416
 3304SOL    HW221549   4.248   0.862   7.817 -0.8595 -2.5798  2.3583
 3305SOL     OW21550   3.201   1.587   6.796  0.4955 -0.1596 -0.2529
 3305SOL    HW121551   3.220   1.656   6.859  0.6475  0.6273 -1.1581
 3305SOL    HW221552   3.198   1.519   6.863 -0.1410 -0.7955 -0.9255
 3306SOL     OW21553   2.345   0.545  15.482 -0.1333 -0.1549  0.1580
 3306SOL    HW121554   2.258   0.585  15.490  0.2264  0.1918  2.4630
 3306SOL    HW221555   2.341   0.511  15.393  0.5027  0.6179 -0.1697
 3307SOL     OW21556   1.525   1.606   7.738 -0.1917  0.0028 -0.6556
 3307SOL    HW121557   1.430   1.602   7.732 -0.2425 -0.4906  0.5223
 3307SOL    HW221558   1.535   1.645   7.825  0.3021  1.6965 -1.4673
 3308SOL     OW21559   4.054   2.500   6.554 -0.1571  0.5146  0.3788
 3308SOL    HW121560   4.008   2.580   6.579  3.3357  1.7596  2.7143
 3308SOL    HW221561   3.992   2.434   6.586  0.9654  0.5010  2.5337
 3309SOL     OW21562   1.736   2.570   4.373 -0.8601  0.3260  0.2780
 3309SOL    HW121563   1.643   2.583   4.393 -1.7130 -0.7003 -3.1040
 3309SOL    HW221564   1.759   2.658   4.342  1.2513 -0.1786  0.3795
 3310SOL     OW21565   2.098   1.645   3.975  0.1571 -0.1775 -0.2549
 3310SOL    HW121566   2.163   1.576   3.985  0.5746  0.2960  0.3423
 3310SOL    HW221567   2.149   1.712   3.929 -0.5118 -0.3152 -1.1891
 3311SOL     OW21568   4.279   0.052   2.727 -0.3635  0.2344  0.3024
 3311SOL    HW121569   4.251   0.106   2.801 -0.6562  1.2341 -0.5286
 3311SOL    HW221570   4.353   0.011   2.770 -1.1657 -2.2999 -0.7116
 3312SOL     OW21571   1.462   0.608   3.308  0.2926 -0.0967 -0.1095
 3312SOL    HW121572   1.462   0.558   3.390  2.1238 -2.0585 -1.2941
 3312SOL    HW221573   1.371   0.596   3.284  0.5308 -0.7283 -0.6862
 3313SOL     OW21574   0.723   1.726  15.724 -0.3889  0.2601  0.0420
 3313SOL    HW121575   0.775   1.803  15.747 -1.2947  0.9130 -0.0916
 3313SOL    HW221576   0.655   1.762  15.668  1.4595  0.4639 -2.0740
 3314SOL     OW21577   0.676   2.412  17.661 -0.1940 -0.5416 -0.4822
 3314SOL    HW121578   0.698   2.479  17.726 -1.5181 -1.0082  0.4531
 3314SOL    HW221579   0.730   2.337  17.686 -0.0383 -0.6816 -1.2540
 3315SOL     OW21580   4.632   0.718   2.954 -0.3537 -0.0156  0.4904
 3315SOL    HW121581   4.558   0.769   2.920  0.7307  1.3282  0.1826
 3315SOL    HW221582   4.605   0.629   2.932 -1.3742  0.6261 -0.8624
 3316SOL     OW21583   4.557   0.171   6.717 -0.3136 -0.2976 -0.0176
 3316SOL    HW121584   4.652   0.175   6.727 -0.5431  0.6135  1.7615
 3316SOL    HW221585   4.535   0.237   6.651  2.3336  0.3122 -0.2708
 3317SOL     OW21586   3.200   3.479  13.336 -0.1855 -0.3969 -0.1112
 3317SOL    HW121587   3.142   3.480  13.412 -1.3512  0.2239 -1.0120
 3317SOL    HW221588   3.224   3.571  13.326  0.9780 -0.7647 -0.7778
 3318SOL     OW21589   1.889   1.128   2.666 -0.2847  0.1955 -0.4586
 3318SOL    HW121590   1.896   1.107   2.573  1.5958 -1.1603  0.0025
 3318SOL    HW221591   1.817   1.191   2.672  0.1519  0.5476  1.0369
 3319SOL     OW21592   1.782   3.956   8.772  0.2008  0.2544 -0.0832
 3319SOL    HW121593   1.707   4.007   8.801 -1.2918 -1.2302 -1.3454
 3319SOL    HW221594   1.742   3.870   8.759 -0.5383  0.5584  0.1495
 3320SOL     OW21595   3.457   2.919  14.610 -0.0394  0.1094 -0.0420
 3320SOL    HW121596   3.380   2.917  14.666 -1.5958  1.0747 -2.1697
 3320SOL    HW221597   3.462   3.014  14.597  0.7410  0.0774 -0.0001
 3321SOL     OW21598   2.060   4.144  12.796 -0.0057 -0.3724 -0.0914
 3321SOL    HW121599   1.973   4.167  12.829 -0.1446  1.0836 -1.4754
 3321SOL    HW221600   2.113   4.216  12.831  1.1015 -0.4683 -1.5838
 3322SOL     OW21601   0.880   0.368   4.374 -0.3082  0.0358 -0.3498
 3322SOL    HW121602   0.929   0.383   4.294 -0.4591 -0.8580 -0.6103
 3322SOL    HW221603   0.949   0.336   4.432 -0.7295 -0.7122 -0.2528
 3323SOL     OW21604   4.469   1.815   3.985 -0.0783 -0.1714 -0.4940
 3323SOL    HW121605   4.382   1.777   3.978 -0.7623  0.9918  1.5345
 3323SOL    HW221606   4.487   1.802   4.078 -2.2097 -2.2358 -0.3955
 3324SOL     OW21607   3.895   1.934   1.943 -0.3588 -0.0747 -0.4384
 3324SOL    HW121608   3.843   1.861   1.910 -0.4495 -0.6563  0.9885
 3324SOL    HW221609   3.863   2.006   1.890 -0.1469  0.3042 -0.0519
 3325SOL     OW21610   0.886   3.400   6.855  0.7128 -0.1453  0.8953
 3325SOL    HW121611   0.853   3.482   6.892  3.4977  1.1071  0.6532
 3325SOL    HW221612   0.821   3.351   6.804  1.0710 -0.0672  0.3554
 3326SOL     OW21613   0.890   4.244   4.336  0.6152 -0.1616  0.1341
 3326SOL    HW121614   0.803   4.205   4.351  0.4719  0.1956  0.2188
 3326SOL    HW221615   0.947   4.172   4.364  0.7112 -0.4594 -0.8301
 3327SOL     OW21616   1.374   0.522   8.420 -0.1537  0.2728  0.8478
 3327SOL    HW121617   1.363   0.437   8.463 -0.3148 -1.1151 -1.9128
 3327SOL    HW221618   1.285   0.556   8.430 -0.8100 -1.2414  0.2413
 3328SOL     OW21619   0.348   1.292   7.453 -0.4800 -0.4639 -0.2833
 3328SOL    HW121620   0.277   1.232   7.474 -0.6860  0.3331  1.2831
 3328SOL    HW221621   0.427   1.240   7.440  0.3964  0.9278 -0.5103
 3329SOL     OW21622   0.782   1.630   0.060 -0.0166 -0.3587  0.6407
 3329SOL    HW121623   0.828   1.681   0.127  1.7425  0.6393 -1.3290
 3329SOL    HW221624   0.863   1.603   0.017  0.2331  1.2998  0.0417
 3330SOL     OW21625   3.774   4.668   6.002  0.0054  0.2619  0.1986
 3330SOL    HW121626   3.755   4.714   6.084 -0.0799 -2.2774  1.5937
 3330SOL    HW221627   3.795   4.583   6.039  1.4149 -0.0249 -1.2750
 3331SOL     OW21628   3.865   4.654   4.288 -0.3934 -0.1367 -0.4073
 3331SOL    HW121629   3.953   4.650   4.250  0.4102  1.5324  1.2598
 3331SOL    HW221630   3.877   4.697   4.372  2.3781 -1.1059 -0.3151
 3332SOL     OW21631   0.086   3.068  13.785 -0.2674 -0.3604 -0.5385
 3332SOL    HW121632   0.119   3.051  13.873  0.3337 -2.1125 -1.1007
 3332SOL    HW221633   0.075   3.163  13.788 -2.8706 -0.5830 -3.5046
 3333SOL     OW21634   4.130   2.711  16.901 -0.4371  0.3637 -0.0052
 3333SOL    HW121635   4.124   2.805  16.882 -0.5131  0.8504  2.4799
 3333SOL    HW221636   4.062   2.712  16.968 -0.5251  1.6004 -0.1118
 3334SOL     OW21637   0.654   4.482   4.131 -0.3853 -0.0929  0.3629
 3334SOL    HW121638   0.637   4.440   4.047  1.0913 -4.2113  2.1056
 3334SOL    HW221639   0.724   4.544   4.113  0.1697 -0.0574  2.5402
 3335SOL     OW21640   1.886   0.894   2.030 -0.1991 -0.2733  0.4795
 3335SOL    HW121641   1.907   0.827   2.094  0.8995 -1.7924 -1.4521
 3335SOL    HW221642   1.961   0.953   2.039  0.4691 -0.9644 -0.5861
 3336SOL     OW21643   1.812   0.087   7.677 -0.2642  0.8761 -0.0586
 3336SOL    HW121644   1.785   0.067   7.587  0.7006 -1.3621  0.1468
 3336SOL    HW221645   1.722   0.086   7.709  0.4211  0.3403  1.8384
 3337SOL     OW21646   0.253   3.933   4.224 -0.4025 -0.1253 -0.4601
 3337SOL    HW121647   0.215   4.017   4.251  0.0509 -0.8162  2.3915
 3337SOL    HW221648   0.327   3.926   4.285  0.5099  1.3827 -1.3943
 3338SOL     OW21649   3.815   0.130   4.119 -0.1131 -0.5664 -0.0598
 3338SOL    HW121650   3.804   0.215   4.162 -1.4623 -0.6219 -0.2926
 3338SOL    HW221651   3.837   0.076   4.194 -1.7682 -0.1740  0.7048
 3339SOL     OW21652   3.842   3.088   2.616 -0.4293 -0.1373  0.1933
 3339SOL    HW121653   3.808   3.008   2.577 -0.8131 -1.2140  2.7528
 3339SOL    HW221654   3.906   3.127   2.557 -1.9738  2.5728  0.2887
 3340SOL     OW21655   2.357   4.473   4.816 -0.1766 -0.4235 -0.0186
 3340SOL    HW121656   2.263   4.478   4.796  0.3178 -1.3300 -2.5949
 3340SOL    HW221657   2.396   4.499   4.733 -1.7116  0.2168 -0.5420
 3341SOL     OW21658   1.537   2.509  11.145 -0.1551  0.0828  0.0446
 3341SOL    HW121659   1.522   2.585  11.200 -1.9348  1.9627 -3.0356
 3341SOL    HW221660   1.613   2.539  11.095 -1.5986  2.2672 -0.8314
 3342SOL     OW21661   1.628   3.230   3.506 -0.3127  0.2000  0.3729
 3342SOL    HW121662   1.596   3.257   3.420  1.7165 -0.5799 -0.6379
 3342SOL    HW221663   1.712   3.271   3.528 -0.3673 -0.3072  1.5183
 3343SOL     OW21664   3.826   3.044   3.002 -0.2884  0.0589  0.0592
 3343SOL    HW121665   3.848   3.103   2.929  0.6899  1.3319  1.3928
 3343SOL    HW221666   3.887   2.971   2.992  0.2199  0.5973 -0.7322
 3344SOL     OW21667   0.352   4.347   4.092 -0.6619  0.1291 -0.0098
 3344SOL    HW121668   0.420   4.298   4.046 -3.0624 -2.2167 -1.0409
 3344SOL    HW221669   0.384   4.435   4.072  1.8896 -0.3148  2.0901
 3345SOL     OW21670   0.620   1.429   1.259 -0.5893  0.0671 -0.3743
 3345SOL    HW121671   0.708   1.467   1.264 -1.0761  1.0064  1.1498
 3345SOL    HW221672   0.564   1.499   1.225 -1.8505 -0.7172  0.0834
 3346SOL     OW21673   1.370   2.074   1.525  0.2446 -0.0618  0.1110
 3346SOL    HW121674   1.347   2.121   1.445  0.1921 -1.3918 -0.6616
 3346SOL    HW221675   1.465   2.071   1.515  0.5507  4.6056  1.5118
 3347SOL     OW21676   1.762   2.190   2.522  0.1570 -0.0994  0.2482
 3347SOL    HW121677   1.677   2.235   2.524  1.4684  2.4521 -0.5535
 3347SOL    HW221678   1.732   2.106   2.489  2.3963 -1.0456  0.6633
 3348SOL     OW21679   0.452   3.987   5.699  0.3513 -0.4651 -0.3627
 3348SOL    HW121680   0.521   4.053   5.708 -1.3005  1.0889  0.9919
 3348SOL    HW221681   0.504   3.919   5.656 -1.0683 -1.3154 -0.7288
 3349SOL     OW21682   1.434   0.129  14.079 -0.4832 -0.7783 -0.0206
 3349SOL    HW121683   1.452   0.218  14.108  0.0266 -0.7974 -0.2906
 3349SOL    HW221684   1.418   0.092  14.166 -1.7201  0.8052  0.4365
 3350SOL     OW21685   1.010   2.511   9.537 -0.0244 -0.2950 -0.3461
 3350SOL    HW121686   0.945   2.565   9.583  0.7992  0.2963  0.1199
 3350SOL    HW221687   1.077   2.513   9.605 -0.3094 -0.4158 -0.0618
 3351SOL     OW21688   2.946   0.590   6.962 -0.3006 -0.0694  0.0456
 3351SOL    HW121689   2.889   0.600   7.038 -2.8610  1.3709 -2.0752
 3351SOL    HW221690   2.923   0.502   6.933  0.2163  0.2717 -1.4016
 3352SOL     OW21691   0.779   1.385   8.957  0.2265  0.3496  0.2250
 3352SOL    HW121692   0.855   1.363   8.904  0.1294 -0.9198  0.6302
 3352SOL    HW221693   0.820   1.417   9.037  0.6324 -1.6988  0.8279
 3353SOL     OW21694   0.806   2.919   5.189 -0.2360  0.5529  0.3209
 3353SOL    HW121695   0.713   2.937   5.204 -0.3165 -1.0608  1.6924
 3353SOL    HW221696   0.802   2.941   5.096  0.9182  0.7438  0.3141
 3354SOL     OW21697   1.666   2.372  10.160  0.1099  0.7462  0.1180
 3354SOL    HW121698   1.744   2.410  10.202  0.8678  1.1118 -1.6123
 3354SOL    HW221699   1.596   2.428  10.192 -0.8654 -1.8380  2.4938
 3355SOL     OW21700   3.759   1.686   7.337 -0.6810 -0.3733 -0.0063
 3355SOL    HW121701   3.848   1.717   7.352 -0.4236 -1.4961  0.8398
 3355SOL    HW221702   3.738   1.668   7.429 -1.4564 -1.2765 -0.3658
 3356SOL     OW21703   3.991   0.300  17.035  0.4018  0.2816  0.4972
 3356SOL    HW121704   3.981   0.211  17.001  0.5270 -0.0981  1.4752
 3356SOL    HW221705   4.068   0.331  16.987 -0.0121 -1.3229 -1.2162
 3357SOL     OW21706   2.939   1.815   4.331  0.0647  0.8277 -0.3824
 3357SOL    HW121707   2.883   1.892   4.334 -0.1295  0.5997  1.7738
 3357SOL    HW221708   3.026   1.839   4.297 -0.3367  1.2511 -1.1013
 3358SOL     OW21709   4.662   1.974   6.779  0.0264 -0.5650 -0.3221
 3358SOL    HW121710   4.573   1.937   6.778 -0.4419  0.6052 -1.7579
 3358SOL    HW221711   4.708   1.930   6.707 -0.1653 -0.6608 -0.3867
 3359SOL     OW21712   2.075   1.698   5.801  0.3991 -0.3657 -0.4643
 3359SOL    HW121713   2.121   1.615   5.810 -1.2412 -1.3078 -0.7319
 3359SOL    HW221714   2.139   1.745   5.748 -1.4648 -0.8190 -3.1342
 3360SOL     OW21715   0.509   3.148   8.012  0.5844  0.2526  0.1788
 3360SOL    HW121716   0.584   3.149   7.952  0.8200  3.7085  0.5687
 3360SOL    HW221717   0.439   3.150   7.947 -1.4839 -0.0920  2.3940
 3361SOL     OW21718   0.398   1.721   5.385  0.0847 -0.2901 -0.6341
 3361SOL    HW121719   0.443   1.761   5.311 -0.0837  0.1443 -0.5050
 3361SOL    HW221720   0.307   1.722   5.356 -0.0297 -0.9662 -0.2989
 3362SOL     OW21721   0.964   3.186  12.433 -0.1012 -0.1447  0.0553
 3362SOL    HW121722   1.034   3.129  12.464  0.1970  0.4601  0.4999
 3362SOL    HW221723   0.899   3.134  12.386 -1.5463  2.2172 -0.5766
 3363SOL     OW21724   1.364   3.369   5.642 -0.1041 -0.2289  0.1986
 3363SOL    HW121725   1.286   3.410   5.680 -0.6255 -0.0391 -1.0720
 3363SOL    HW221726   1.322   3.358   5.557 -0.4726 -0.0488  0.3599
 3364SOL     OW21727   0.374   2.496  15.062 -0.2742 -0.2046 -0.5319
 3364SOL    HW121728   0.418   2.482  15.146 -0.3044  0.6965 -0.3704
 3364SOL    HW221729   0.373   2.407  15.026  3.8173 -0.1354 -0.8402
 3365SOL     OW21730   3.089   1.395   9.071  0.3933  0.2953  0.5242
 3365SOL    HW121731   3.019   1.460   9.077  0.7247  0.7605 -0.5779
 3365SOL    HW221732   3.152   1.455   9.032  0.2734 -0.9546 -1.6203
 3366SOL     OW21733   4.498   1.254   4.671  0.4290  0.5531 -0.9102
 3366SOL    HW121734   4.403   1.268   4.673  0.4842  0.6397  0.6240
 3366SOL    HW221735   4.541   1.330   4.711 -2.0620  1.4567  0.0902
 3367SOL     OW21736   0.529   3.863   3.516 -0.3968 -0.1973  0.1083
 3367SOL    HW121737   0.565   3.813   3.589  0.4842 -0.9926 -0.8650
 3367SOL    HW221738   0.535   3.800   3.444  2.7826 -0.4432  0.5956
 3368SOL     OW21739   3.857   4.586   5.224 -0.4460  0.1399 -0.5880
 3368SOL    HW121740   3.915   4.559   5.154  1.2526 -0.6413  1.1220
 3368SOL    HW221741   3.774   4.565   5.181 -0.6933  0.9940 -0.5390
 3369SOL     OW21742   1.980   0.388   7.163 -0.3239 -0.5126  0.5398
 3369SOL    HW121743   2.075   0.383   7.159 -0.3037 -1.1236  2.0141
 3369SOL    HW221744   1.957   0.458   7.101  1.1282  0.6493  1.3011
 3370SOL     OW21745   3.864   1.127   5.850  0.3037  0.6387 -0.3289
 3370SOL    HW121746   3.911   1.045   5.868  0.4747  0.4304 -1.6824
 3370SOL    HW221747   3.776   1.091   5.841  0.6667 -0.4010  0.2126
 3371SOL     OW21748   1.569   0.126   5.774  0.2109 -0.4255 -0.2338
 3371SOL    HW121749   1.588   0.047   5.825  1.7133  1.4228  2.0264
 3371SOL    HW221750   1.606   0.192   5.832  0.1501 -1.8819  1.4597
 3372SOL     OW21751   3.086   1.376   5.892  0.2813 -0.4267  0.1596
 3372SOL    HW121752   3.165   1.350   5.938  0.6426 -0.6174 -0.5642
 3372SOL    HW221753   3.024   1.303   5.899  0.9302 -1.2274 -2.5425
 3373SOL     OW21754   2.130   4.249   5.072 -0.1432 -0.1311  0.0816
 3373SOL    HW121755   2.095   4.336   5.050 -1.3847 -0.8991 -0.9443
 3373SOL    HW221756   2.087   4.233   5.156  1.1211 -1.6460  0.4344
 3374SOL     OW21757   2.760   3.028   3.815 -0.1564  0.1004 -0.1500
 3374SOL    HW121758   2.838   3.080   3.795  2.0394 -2.7156  1.0516
 3374SOL    HW221759   2.780   2.987   3.900  2.6810  1.2626 -0.2479
 3375SOL     OW21760   4.230   4.120   6.286 -0.4053 -0.0509  0.1962
 3375SOL    HW121761   4.139   4.148   6.297 -0.8751 -1.6760  0.3301
 3375SOL    HW221762   4.254   4.106   6.377 -0.6342  1.0977  0.4357
 3376SOL     OW21763   3.711   0.051   9.169  0.3672 -0.3995  0.3709
 3376SOL    HW121764   3.715   4.693   9.156  0.5613 -0.4739  1.0119
 3376SOL    HW221765   3.751   0.077   9.085  0.1488 -1.9955 -0.2333
 3377SOL     OW21766   2.895   3.814   4.196  0.2972  0.0778 -0.5649
 3377SOL    HW121767   2.990   3.825   4.196  0.2710  0.2771  0.8432
 3377SOL    HW221768   2.885   3.879   4.126  1.0230  1.2186  0.3949
 3378SOL     OW21769   0.986   0.165  11.424  0.2811 -0.1329 -0.1727
 3378SOL    HW121770   0.976   0.260  11.430  1.9956  0.1782 -1.9009
 3378SOL    HW221771   0.923   0.141  11.491 -0.6660  1.3872 -0.5295
 3379SOL     OW21772   4.554   0.273  16.549  0.3549 -0.7684  0.5654
 3379SOL    HW121773   4.553   0.180  16.529  0.6987 -0.3422 -1.3980
 3379SOL    HW221774   4.638   0.296  16.507  0.2461  0.8275  1.1916
 3380SOL     OW21775   3.188   0.402  16.518 -0.0433  0.2471  0.3667
 3380SOL    HW121776   3.122   0.418  16.586 -0.0081  1.8925  0.0196
 3380SOL    HW221777   3.130   0.339  16.475  2.2669 -1.0958 -0.7987
 3381SOL     OW21778   2.112   1.767   6.563  0.1214 -0.5290  0.5540
 3381SOL    HW121779   2.071   1.780   6.649 -2.0697  1.3794 -0.7647
 3381SOL    HW221780   2.037   1.729   6.517 -0.5022  1.4123 -0.0565
 3382SOL     OW21781   2.181   3.224   1.978  0.4450 -0.1066  0.0492
 3382SOL    HW121782   2.272   3.195   1.982 -0.0908 -1.6625  0.7878
 3382SOL    HW221783   2.126   3.149   1.955 -0.9119  1.1977 -0.9369
 3383SOL     OW21784   4.196   3.095   7.189  0.3372  0.1864  0.1774
 3383SOL    HW121785   4.266   3.103   7.254 -0.1458 -3.1790  1.1125
 3383SOL    HW221786   4.157   3.013   7.219 -1.5322  1.0596  0.1303
 3384SOL     OW21787   2.336   0.481   0.309  0.4006 -0.0487 -0.4540
 3384SOL    HW121788   2.259   0.530   0.283 -1.4464 -1.5240  2.2380
 3384SOL    HW221789   2.380   0.548   0.362 -0.3345  0.0479  0.0333
 3385SOL     OW21790   0.443   0.476  17.363  0.1862 -0.0638  0.0371
 3385SOL    HW121791   0.408   0.487  17.274  2.1090  0.8031 -0.6274
 3385SOL    HW221792   0.375   0.521  17.413 -1.4244 -4.2813  1.5333
 3386SOL     OW21793   2.454   1.449   9.046 -0.0001 -0.6049 -0.6083
 3386SOL    HW121794   2.526   1.405   9.090 -0.2357 -1.5747 -1.1928
 3386SOL    HW221795   2.444   1.392   8.970 -0.7209 -1.5425  0.1847
 3387SOL     OW21796   0.774   0.359   7.471  0.4161  0.3966  0.4394
 3387SOL    HW121797   0.705   0.418   7.441  0.1953 -0.3571 -0.5394
 3387SOL    HW221798   0.770   0.371   7.566  1.1281  2.8382  0.1574
 3388SOL     OW21799   2.824   4.360   1.382 -0.3784  0.3773 -0.2283
 3388SOL    HW121800   2.857   4.373   1.471  0.6107 -0.6504 -0.4443
 3388SOL    HW221801   2.852   4.444   1.346  0.8241 -0.4251 -1.1652
 3389SOL     OW21802   1.157   3.389   7.484  0.3666  0.0342  0.4171
 3389SOL    HW121803   1.103   3.458   7.447 -0.9694 -2.8419 -3.0174
 3389SOL    HW221804   1.117   3.305   7.460 -0.3121  1.0263 -1.8881
 3390SOL     OW21805   4.103   4.736  15.847 -0.2151  0.2723 -0.0054
 3390SOL    HW121806   4.045   4.660  15.851 -1.5877  1.4601  2.1351
 3390SOL    HW221807   4.189   4.696  15.829 -0.1226  0.4644  0.0149
 3391SOL     OW21808   4.023   2.136   5.857  0.2268  0.0774 -0.7067
 3391SOL    HW121809   3.974   2.157   5.778 -1.0500 -2.2434 -0.5095
 3391SOL    HW221810   3.952   2.154   5.918 -0.5444 -3.2244 -0.6265
 3392SOL     OW21811   0.675   4.336   3.512 -0.0428  0.4926  0.0903
 3392SOL    HW121812   0.621   4.403   3.554 -1.7852 -0.4919 -0.5403
 3392SOL    HW221813   0.618   4.259   3.511  2.0216 -1.0034 -1.5056
 3393SOL     OW21814   3.351   0.324  11.607  0.4198 -0.2670 -0.4758
 3393SOL    HW121815   3.400   0.244  11.589  2.2974  0.4449  1.5463
 3393SOL    HW221816   3.416   0.389  11.580  1.8862 -1.6158 -0.1758
 3394SOL     OW21817   1.806   3.324   7.442 -1.0372 -0.0868 -0.1136
 3394SOL    HW121818   1.815   3.264   7.368 -0.6090  0.4860 -0.5200
 3394SOL    HW221819   1.714   3.345   7.426 -0.8819  1.4232  1.0517
 3395SOL     OW21820   3.262   0.463   4.528 -0.2379 -0.7420  0.4550
 3395SOL    HW121821   3.309   0.546   4.537 -1.0195 -0.1875 -0.4825
 3395SOL    HW221822   3.306   0.407   4.591 -0.3689  1.9238  2.8997
 3396SOL     OW21823   4.117   2.649   7.199 -0.0552  0.5607 -0.1487
 3396SOL    HW121824   4.198   2.612   7.235  1.1090  1.4046 -1.8961
 3396SOL    HW221825   4.089   2.581   7.138 -4.9741 -0.3150  3.1538
 3397SOL     OW21826   3.391   2.962   4.016 -0.7494 -0.4213  0.3288
 3397SOL    HW121827   3.470   2.970   4.069  2.0526 -1.9085 -3.6346
 3397SOL    HW221828   3.343   2.883   4.042  0.9088 -0.8004  2.2628
 3398SOL     OW21829   1.693   4.150  17.573  0.1108 -0.2352  0.1000
 3398SOL    HW121830   1.723   4.203  17.499  1.4904 -1.0955  0.0400
 3398SOL    HW221831   1.751   4.074  17.564 -0.4252 -0.7176  0.7597
 3399SOL     OW21832   2.017   0.957   3.373  0.1192  0.0331 -0.7252
 3399SOL    HW121833   1.992   0.952   3.465 -1.7749  0.8190 -1.2032
 3399SOL    HW221834   1.943   1.004   3.336  0.5455  2.7918  1.8810
 3400SOL     OW21835   3.711   2.403  14.835 -0.3387  0.1634  0.7144
 3400SOL    HW121836   3.749   2.406  14.748 -0.5199 -1.2523  0.5918
 3400SOL    HW221837   3.791   2.405  14.887  1.5446  0.2823 -2.2547
 3401SOL     OW21838   3.924   3.268   3.451 -0.4039  0.2483 -0.2020
 3401SOL    HW121839   3.900   3.274   3.359  1.7106  1.0136 -0.7009
 3401SOL    HW221840   3.837   3.247   3.486 -0.0277  1.0152  1.2248
 3402SOL     OW21841   0.641   2.384   9.451 -0.1340  0.2126  0.3454
 3402SOL    HW121842   0.726   2.343   9.438  0.1492  0.4389  1.4537
 3402SOL    HW221843   0.615   2.347   9.536  1.0749 -0.3857  0.4524
 3403SOL     OW21844   2.392   1.473   0.441 -0.3472 -0.0963 -0.0838
 3403SOL    HW121845   2.403   1.567   0.459  3.0704 -0.3582 -0.8648
 3403SOL    HW221846   2.465   1.439   0.492 -1.4654 -1.4519  0.6008
 3404SOL     OW21847   1.145   2.440   3.606 -0.1447 -0.3189 -0.1727
 3404SOL    HW121848   1.064   2.405   3.570 -0.4441 -0.2921  0.4767
 3404SOL    HW221849   1.198   2.441   3.527 -0.7844 -2.0068 -0.6221
 3405SOL     OW21850   1.791   1.467  10.632 -0.4088  0.0341  0.6477
 3405SOL    HW121851   1.767   1.497  10.544 -0.6927 -1.8891  0.0659
 3405SOL    HW221852   1.801   1.372  10.631  1.4533  0.2168  1.6522
 3406SOL     OW21853   0.993   3.464   0.687 -0.0601  0.1791 -0.2541
 3406SOL    HW121854   0.985   3.465   0.591 -0.8615  0.6856 -0.1818
 3406SOL    HW221855   0.964   3.374   0.699  2.1454 -0.8234 -2.4576
 3407SOL     OW21856   4.489   1.857   8.431 -0.2232 -0.2180  0.4265
 3407SOL    HW121857   4.531   1.774   8.412  1.4245  0.0677  2.9281
 3407SOL    HW221858   4.547   1.920   8.389  1.1203 -0.8633  1.3164
 3408SOL     OW21859   3.660   1.148  12.298 -0.5323  0.0632 -0.6606
 3408SOL    HW121860   3.603   1.071  12.308 -0.2190 -0.0582  0.2126
 3408SOL    HW221861   3.613   1.195  12.229  1.0077  1.3093 -0.8550
 3409SOL     OW21862   1.211   1.244  14.928  0.0138 -1.0176 -1.0797
 3409SOL    HW121863   1.288   1.214  14.881 -0.0396  2.0202 -3.0715
 3409SOL    HW221864   1.248   1.313  14.982 -0.0867  0.0108 -2.3404
 3410SOL     OW21865   0.806   4.490   1.411 -0.0227  0.1663  0.7592
 3410SOL    HW121866   0.802   4.456   1.500  0.0222  0.3186  0.8206
 3410SOL    HW221867   0.858   4.421   1.370 -0.2287  1.3500 -1.4925
 3411SOL     OW21868   4.620   4.091   0.719 -0.0330 -0.6054 -0.1752
 3411SOL    HW121869   4.686   4.116   0.784  0.1507 -1.0196 -0.2066
 3411SOL    HW221870   4.548   4.148   0.747  0.3394 -0.1821 -0.0767
 3412SOL     OW21871   1.339   2.683  14.122  0.2730 -0.2000  0.4925
 3412SOL    HW121872   1.284   2.759  14.142  0.1295  0.0561 -0.8556
 3412SOL    HW221873   1.374   2.653  14.206 -2.1293 -0.9563  1.2452
 3413SOL     OW21874   0.966   3.168   6.356  0.0368  0.1806  0.3121
 3413SOL    HW121875   0.980   3.149   6.264 -1.2303  0.3956  0.0667
 3413SOL    HW221876   0.981   3.261   6.373  2.2601 -0.0729 -0.3095
 3414SOL     OW21877   4.351   2.940   2.904 -0.0390  0.3590 -0.3894
 3414SOL    HW121878   4.388   2.929   2.992  1.0889  0.4894 -0.8527
 3414SOL    HW221879   4.326   3.032   2.904 -2.1429 -0.2115 -1.7373
 3415SOL     OW21880   4.481   1.162  14.720 -0.2082  0.0345  0.3407
 3415SOL    HW121881   4.512   1.080  14.682  0.2724  0.2441  0.2810
 3415SOL    HW221882   4.385   1.154  14.715 -0.2541 -2.0176  4.4996
 3416SOL     OW21883   0.996   3.801   5.419 -0.0048  0.1854  0.4627
 3416SOL    HW121884   0.941   3.745   5.475 -0.6225  0.1664 -0.1564
 3416SOL    HW221885   1.025   3.737   5.355 -1.9651 -0.0967 -0.1659
 3417SOL     OW21886   1.257   0.569  11.659  0.1467  0.3977  0.1017
 3417SOL    HW121887   1.185   0.602  11.713  1.0610  2.7007 -0.0961
 3417SOL    HW221888   1.320   0.538  11.725  1.4558  0.5258 -1.0895
 3418SOL     OW21889   4.164   4.603   4.710  0.1207  0.2772  0.7215
 3418SOL    HW121890   4.226   4.614   4.638 -0.8348 -0.3526 -0.2096
 3418SOL    HW221891   4.211   4.542   4.767 -1.1542 -1.4972 -0.1315
 3419SOL     OW21892   4.237   0.387   3.267  0.3476 -0.0484 -0.1433
 3419SOL    HW121893   4.307   0.372   3.203  0.9736 -1.5011  0.8798
 3419SOL    HW221894   4.271   0.460   3.320 -0.5107 -0.6533  1.2587
 3420SOL     OW21895   3.784   3.762   2.152 -0.3976 -0.3893  0.3574
 3420SOL    HW121896   3.862   3.729   2.107  0.7771  2.2494  0.4357
 3420SOL    HW221897   3.817   3.766   2.241 -1.2481 -2.5235  0.7630
 3421SOL     OW21898   4.203   1.267   8.181  0.3129 -0.0789  0.1512
 3421SOL    HW121899   4.143   1.315   8.237 -0.8959  0.3420 -1.4897
 3421SOL    HW221900   4.208   1.313   8.097 -1.1425  0.6692  0.4845
 3422SOL     OW21901   0.733   0.512  13.720 -0.9312 -0.2406 -0.0176
 3422SOL    HW121902   0.643   0.507  13.688 -1.6410 -0.6398  2.0867
 3422SOL    HW221903   0.746   0.419  13.740  0.3766 -0.0625  0.0171
 3423SOL     OW21904   4.546   1.275   4.998 -0.0517  0.1244  0.8016
 3423SOL    HW121905   4.584   1.191   4.971 -3.7912 -1.7473  1.3750
 3423SOL    HW221906   4.607   1.334   4.953 -1.4900  0.3380 -0.8432
 3424SOL     OW21907   0.375   3.476  10.830 -0.0428  0.1488  0.4455
 3424SOL    HW121908   0.348   3.390  10.862  0.8403  0.0266  0.8351
 3424SOL    HW221909   0.333   3.522  10.903 -0.4960  0.1736  0.1735
 3425SOL     OW21910   1.697   0.050   1.016  0.1670 -0.7882  0.2802
 3425SOL    HW121911   1.773   0.081   0.966  0.5299  0.9420  1.9066
 3425SOL    HW221912   1.681   4.708   0.964  1.1551 -0.7117 -0.1363
 3426SOL     OW21913   1.323   2.891   8.982 -0.6849 -0.4985 -0.1391
 3426SOL    HW121914   1.400   2.890   8.926 -0.3215  0.9109  0.3338
 3426SOL    HW221915   1.308   2.985   8.983  4.4375  0.2787  0.1735
 3427SOL     OW21916   4.143   4.083   3.967  0.1853  0.4665 -0.2015
 3427SOL    HW121917   4.164   4.149   3.901 -0.4841  1.5206  0.6442
 3427SOL    HW221918   4.121   4.013   3.906 -2.1654  0.8095  0.2451
 3428SOL     OW21919   0.020   0.056   3.882 -0.0164  0.0325  0.6464
 3428SOL    HW121920   4.665   0.034   3.865  0.0991 -0.7569  0.9914
 3428SOL    HW221921   0.043   0.022   3.969  0.0817 -3.2947 -0.6576
 3429SOL     OW21922   0.404   1.688   9.482  0.1429 -0.3929  0.4294
 3429SOL    HW121923   0.312   1.664   9.491  0.4738 -2.5684 -2.0008
 3429SOL    HW221924   0.392   1.782   9.468 -1.9849 -0.6889  0.3629
 3430SOL     OW21925   0.950   4.433  14.537  0.5834  0.2143 -0.5225
 3430SOL    HW121926   0.858   4.405  14.533 -0.2982  2.8637  1.1302
 3430SOL    HW221927   0.956   4.440  14.632 -2.7167 -0.2062 -0.2749
 3431SOL     OW21928   3.995   3.619  13.413 -0.0657 -0.6693 -0.0800
 3431SOL    HW121929   4.008   3.601  13.506  1.3491  1.8157  0.1866
 3431SOL    HW221930   3.973   3.711  13.420 -1.2469 -0.9072 -0.6981
 3432SOL     OW21931   0.878   1.554   1.353 -0.7847 -0.0737  0.0220
 3432SOL    HW121932   0.908   1.612   1.283 -0.5148  0.9453  0.9781
 3432SOL    HW221933   0.893   1.619   1.422 -0.7223  1.1795 -1.1673
 3433SOL     OW21934   1.649   3.426  12.583 -0.0116 -1.1788  0.2058
 3433SOL    HW121935   1.742   3.413  12.568 -0.0110  0.0563 -0.7723
 3433SOL    HW221936   1.610   3.380  12.509 -0.7454  0.9442 -0.7305
 3434SOL     OW21937   4.347   1.618  14.562  0.2015  0.2943 -0.1815
 3434SOL    HW121938   4.271   1.580  14.606  0.3197  3.1073  2.4889
 3434SOL    HW221939   4.413   1.550  14.562 -1.6955 -1.5334 -1.0005
 3435SOL     OW21940   1.287   1.638   5.125 -0.5335 -0.5910  0.0457
 3435SOL    HW121941   1.382   1.634   5.122 -0.5863 -0.8505 -1.2412
 3435SOL    HW221942   1.272   1.607   5.215  1.6114 -0.9543  0.2806
 3436SOL     OW21943   4.100   2.328  13.728 -0.1270 -0.2090 -0.6351
 3436SOL    HW121944   4.067   2.309  13.816 -0.6943  2.1053 -0.3547
 3436SOL    HW221945   4.026   2.313  13.669 -0.4257  1.5699 -0.7183
 3437SOL     OW21946   3.547   3.801   2.011 -0.6819 -0.2878  0.3251
 3437SOL    HW121947   3.632   3.838   2.036 -0.2441 -0.0072 -1.6062
 3437SOL    HW221948   3.525   3.834   1.924  1.7210 -0.8507 -0.4987
 3438SOL     OW21949   4.286   0.150   5.177  0.7655 -0.2113 -0.4337
 3438SOL    HW121950   4.242   0.099   5.244  0.0437  0.3060 -0.5122
 3438SOL    HW221951   4.318   0.082   5.118  1.9050 -0.2566  0.2386
 3439SOL     OW21952   3.460   3.524   1.821  0.0795  0.6547  0.7982
 3439SOL    HW121953   3.531   3.471   1.858  0.8488  0.4151 -1.0506
 3439SOL    HW221954   3.397   3.513   1.893 -1.2327  0.2299 -0.4253
 3440SOL     OW21955   0.389   4.376   6.037 -0.2857 -0.2902 -0.3096
 3440SOL    HW121956   0.348   4.461   6.051 -0.3630 -0.3053 -0.4455
 3440SOL    HW221957   0.388   4.338   6.125 -1.2478  0.9250  0.1950
 3441SOL     OW21958   4.263   2.176   8.837 -0.4755 -0.4249  0.0045
 3441SOL    HW121959   4.246   2.220   8.920 -0.0428  2.0081 -1.1736
 3441SOL    HW221960   4.300   2.092   8.862  0.1274 -0.0882  0.2384
 3442SOL     OW21961   1.672   3.094   6.717  0.5334  0.1102  0.6693
 3442SOL    HW121962   1.610   3.167   6.717 -0.7052 -0.9421  1.6590
 3442SOL    HW221963   1.752   3.147   6.725  1.0048 -0.9636  3.1928
 3443SOL     OW21964   1.398   3.975   5.856 -0.3696  0.3150 -0.0941
 3443SOL    HW121965   1.381   4.025   5.936 -0.4804  0.4093 -0.1764
 3443SOL    HW221966   1.381   3.885   5.884  0.1256 -0.2068 -1.4488
 3444SOL     OW21967   3.614   3.786   7.613  0.3625  0.0133 -0.9952
 3444SOL    HW121968   3.554   3.725   7.570  0.4125  0.0499 -1.1179
 3444SOL    HW221969   3.576   3.873   7.613  0.5392  0.0789  1.0356
 3445SOL     OW21970   3.838   1.006   6.614 -0.3090 -0.5501  0.0093
 3445SOL    HW121971   3.887   0.950   6.675 -0.6163  1.0659  1.7423
 3445SOL    HW221972   3.904   1.064   6.574  0.8513 -1.0225  1.2338
 3446SOL     OW21973   3.310   1.481   7.995 -0.2748  0.1839  0.0548
 3446SOL    HW121974   3.315   1.477   7.899 -1.6676 -3.2147  0.1283
 3446SOL    HW221975   3.214   1.490   7.994 -0.0079  3.1000 -0.4894
 3447SOL     OW21976   0.676   2.162   7.943 -0.2300  0.3130 -0.1160
 3447SOL    HW121977   0.719   2.117   8.016  1.3473  1.8204 -0.1317
 3447SOL    HW221978   0.671   2.091   7.879 -3.6663  0.0786  0.3988
 3448SOL     OW21979   1.811   3.003   5.129  0.0171  0.5785 -0.0806
 3448SOL    HW121980   1.787   3.044   5.212 -2.0290 -0.2061 -0.2855
 3448SOL    HW221981   1.733   2.952   5.106 -0.4005  0.8037  0.8585
 3449SOL     OW21982   2.841   2.597   7.163 -0.4902  0.4481  0.5038
 3449SOL    HW121983   2.919   2.633   7.121 -0.3443 -0.2817  0.1416
 3449SOL    HW221984   2.825   2.639   7.247 -0.0489  0.0323  0.7935
 3450SOL     OW21985   0.610   3.781  15.258 -0.3392 -0.1980  0.3731
 3450SOL    HW121986   0.585   3.815  15.172 -1.2371 -1.1292  0.2499
 3450SOL    HW221987   0.631   3.693  15.225 -1.5180 -0.3862  0.1184
 3451SOL     OW21988   0.036   1.827   4.645  0.5389 -0.2892  0.1051
 3451SOL    HW121989   0.129   1.833   4.621  0.2625  3.0905 -0.1187
 3451SOL    HW221990   0.004   1.756   4.590 -1.5919  1.3391 -0.7465
 3452SOL     OW21991   3.498   3.343   6.915  0.0183  0.2507  0.0388
 3452SOL    HW121992   3.512   3.436   6.901 -0.6510  0.1812 -1.1242
 3452SOL    HW221993   3.586   3.313   6.893 -0.2183  0.9303 -1.8487
 3453SOL     OW21994   1.050   4.272  13.252 -0.1991 -0.0221  0.4252
 3453SOL    HW121995   1.078   4.192  13.296  2.5899  0.8931  0.2909
 3453SOL    HW221996   1.011   4.235  13.173  2.1359 -1.3760 -0.0967
 3454SOL     OW21997   1.092   3.042   5.160 -0.3788  0.3413  0.2530
 3454SOL    HW121998   1.136   3.089   5.231 -1.1181 -2.2925  2.4612
 3454SOL    HW221999   1.052   3.112   5.109  0.0530  0.4892  0.1174
 3455SOL     OW22000   0.659   0.533   8.428  0.2730 -0.0123 -0.0498
 3455SOL    HW122001   0.576   0.576   8.407  0.2670  0.1064  0.2243
 3455SOL    HW222002   0.679   0.580   8.509 -1.4827  2.2018 -0.9041
 3456SOL     OW22003   2.139   3.486   1.931  0.2724 -0.1569  0.0067
 3456SOL    HW122004   2.138   3.393   1.952  1.7887 -0.2950 -0.5618
 3456SOL    HW222005   2.210   3.490   1.867 -0.7760  0.6947 -1.1049
 3457SOL     OW22006   4.154   2.127   2.345  0.3461 -0.7180  0.1354
 3457SOL    HW122007   4.127   2.190   2.412  0.0889  1.0740 -1.6827
 3457SOL    HW222008   4.074   2.106   2.298  0.7621  0.2009 -0.9741
 3458SOL     OW22009   1.821   4.023  13.627  0.5140 -0.3538  0.2626
 3458SOL    HW122010   1.835   4.003  13.720  1.1745 -0.3650  0.1609
 3458SOL    HW222011   1.828   3.944  13.573 -2.9276 -1.4427  1.3822
 3459SOL     OW22012   1.503   1.889   5.173  1.1358  0.4846 -0.1642
 3459SOL    HW122013   1.482   1.848   5.090  2.1993 -0.4444  0.0219
 3459SOL    HW222014   1.471   1.979   5.168  1.1450  0.4397 -0.9546
 3460SOL     OW22015   3.528   4.467   1.059 -0.3498 -0.3292  0.4547
 3460SOL    HW122016   3.590   4.527   1.016  0.7260 -1.2929  0.6705
 3460SOL    HW222017   3.469   4.435   0.991 -0.9603 -3.3916  2.4441
 3461SOL     OW22018   3.784   4.719   7.124  0.3548 -0.1709  0.2852
 3461SOL    HW122019   3.824   0.008   7.041  1.3573  0.4667  0.9683
 3461SOL    HW222020   3.777   0.071   7.160  0.4634  1.0639 -2.7927
 3462SOL     OW22021   2.535   3.626   7.020 -0.7879 -0.2988  0.3564
 3462SOL    HW122022   2.464   3.681   7.052  1.5292  1.1413  3.0326
 3462SOL    HW222023   2.608   3.687   7.025 -0.7100 -0.2578 -1.5682
 3463SOL     OW22024   4.421   1.865   1.699  0.0656  0.2739  0.2753
 3463SOL    HW122025   4.345   1.894   1.750  0.5834 -0.3898  1.4257
 3463SOL    HW222026   4.426   1.776   1.734 -1.4163 -0.3380 -1.0544
 3464SOL     OW22027   2.775   0.545   1.730  0.9048  0.7812  0.1285
 3464SOL    HW122028   2.745   0.455   1.716  2.7510  0.0237  0.9881
 3464SOL    HW222029   2.734   0.576   1.811  0.4659 -0.0440  0.2209
 3465SOL     OW22030   2.288   0.869   9.539  0.6687 -0.0318 -0.9099
 3465SOL    HW122031   2.281   0.870   9.635  0.7208  0.7387 -0.9151
 3465SOL    HW222032   2.340   0.789   9.528  0.0400 -0.4583 -0.7732
 3466SOL     OW22033   2.316   1.987   4.179  0.0894  0.1128  0.5696
 3466SOL    HW122034   2.324   2.033   4.096  2.9063  0.5222  1.0902
 3466SOL    HW222035   2.242   1.926   4.169  0.6192 -0.1665 -1.4722
 3467SOL     OW22036   4.379   2.105   7.879  0.3435 -0.1699  0.2952
 3467SOL    HW122037   4.412   2.194   7.888 -0.5777  0.2867 -0.8256
 3467SOL    HW222038   4.448   2.055   7.923 -0.0990 -0.9567  0.1031
 3468SOL     OW22039   3.499   2.731   7.927  0.0286 -0.2582 -0.0551
 3468SOL    HW122040   3.413   2.763   7.951 -0.8258 -1.1599 -1.9103
 3468SOL    HW222041   3.499   2.652   7.981  1.4612 -2.0535 -2.7033
 3469SOL     OW22042   4.102   0.301  16.400  0.2520 -0.2248 -0.4019
 3469SOL    HW122043   4.174   0.358  16.428  1.5250 -1.9927 -0.0616
 3469SOL    HW222044   4.125   0.208  16.396  3.2044  0.6241 -3.1116
 3470SOL     OW22045   0.552   0.112   8.885  0.2744 -0.3770  0.1538
 3470SOL    HW122046   0.545   0.121   8.790 -0.4305  0.1349  0.2598
 3470SOL    HW222047   0.463   0.134   8.912  0.3682  1.2360 -0.8974
 3471SOL     OW22048   2.112   0.025   4.713 -0.0694 -0.0916  0.0739
 3471SOL    HW122049   2.196   0.036   4.668 -0.9609  0.5934 -1.4290
 3471SOL    HW222050   2.144   0.038   4.802  1.1235 -1.3167 -0.1815
 3472SOL     OW22051   4.575   3.926   2.248  0.1406  0.2276 -0.4652
 3472SOL    HW122052   4.548   3.835   2.239 -0.3488  0.5295 -2.0173
 3472SOL    HW222053   4.669   3.906   2.239  0.6707  2.3838  0.3264
 3473SOL     OW22054   1.558   1.846   0.967 -0.4451 -0.5073 -0.2566
 3473SOL    HW122055   1.559   1.769   1.024 -0.3396 -2.4720 -2.9294
 3473SOL    HW222056   1.511   1.821   0.888  1.6520 -2.3618 -0.9202
 3474SOL     OW22057   2.842   4.576   1.216  0.1126  0.1115  0.4254
 3474SOL    HW122058   2.781   4.577   1.142  0.0763  0.6633  0.4686
 3474SOL    HW222059   2.793   4.619   1.285  0.8647 -0.2868  1.2062
 3475SOL     OW22060   1.710   4.239   3.592 -0.4899  0.1573 -0.4887
 3475SOL    HW122061   1.771   4.189   3.538 -0.6460 -0.4126 -0.1404
 3475SOL    HW222062   1.640   4.174   3.599  0.7697 -1.0339  1.1388
 3476SOL     OW22063   1.683   1.333   2.730 -0.4225  0.0238 -0.2749
 3476SOL    HW122064   1.598   1.336   2.687 -0.6104  2.3783  0.2586
 3476SOL    HW222065   1.660   1.367   2.816 -0.4718 -0.2593 -0.1756
 3477SOL     OW22066   4.625   0.854   8.869 -0.7543 -0.6999 -0.3572
 3477SOL    HW122067   4.625   0.843   8.964 -0.2256 -0.5931 -0.3402
 3477SOL    HW222068   4.645   0.946   8.857  2.7866 -1.3774  0.1771
 3478SOL     OW22069   1.436   0.566  12.869 -0.1507 -0.1807  0.2227
 3478SOL    HW122070   1.489   0.577  12.790 -0.4384 -0.6344 -0.0301
 3478SOL    HW222071   1.436   0.470  12.872  1.6202 -0.2163 -0.6710
 3479SOL     OW22072   3.127   1.329   1.997 -0.3911  0.3927 -0.0364
 3479SOL    HW122073   3.137   1.373   1.913  0.2565 -0.9596 -0.6692
 3479SOL    HW222074   3.192   1.374   2.051  0.6319  1.8271 -2.4736
 3480SOL     OW22075   0.319   4.657   6.066 -0.0641 -0.1146  0.3555
 3480SOL    HW122076   0.255   4.640   6.134  0.6082  2.6104  1.6804
 3480SOL    HW222077   0.272   4.730   6.026 -0.8053 -0.4222  0.6725
 3481SOL     OW22078   3.768   2.650   5.409  0.4147  0.0660  0.0914
 3481SOL    HW122079   3.711   2.587   5.452 -1.7108  1.6766 -0.3839
 3481SOL    HW222080   3.731   2.729   5.449 -1.1421 -0.0938 -1.0557
 3482SOL     OW22081   3.270   2.506   9.259 -0.7791  0.7901  0.2523
 3482SOL    HW122082   3.211   2.436   9.230  0.6247  0.2570 -1.2929
 3482SOL    HW222083   3.282   2.483   9.351 -1.0933 -0.4150 -0.0068
 3483SOL     OW22084   3.587   2.197   6.435 -0.0407  0.5231  0.0164
 3483SOL    HW122085   3.517   2.217   6.498  1.0616  1.0977  1.0687
 3483SOL    HW222086   3.630   2.125   6.482  3.2529  3.5684  1.7410
 3484SOL     OW22087   4.653   1.969   8.967  0.1169  0.4050  0.0375
 3484SOL    HW122088   4.646   1.885   9.013  1.0523  0.1755 -0.2394
 3484SOL    HW222089   4.618   1.944   8.882  1.8378  1.9997 -1.1245
 3485SOL     OW22090   2.815   2.046   5.486  0.1593  0.1400  0.3364
 3485SOL    HW122091   2.880   2.062   5.555  0.8355 -1.4764  0.0901
 3485SOL    HW222092   2.734   2.056   5.535 -1.3462 -0.0396 -2.1498
 3486SOL     OW22093   4.736   4.378   3.858  0.0792 -0.2760  0.0066
 3486SOL    HW122094   0.032   4.447   3.800  1.9698  0.3470  1.7872
 3486SOL    HW222095   4.657   4.422   3.890  0.4961  0.6153 -0.1834
 3487SOL     OW22096   4.382   0.942   2.132 -0.3432 -0.1448  0.0803
 3487SOL    HW122097   4.418   0.992   2.205  0.8278 -0.0527 -0.5738
 3487SOL    HW222098   4.420   0.979   2.053  3.5046 -1.3515  1.3781
 3488SOL     OW22099   4.582   2.028  13.599  0.3243 -0.0497 -0.6211
 3488SOL    HW122100   4.518   1.971  13.555 -1.5578  0.1868  1.8372
 3488SOL    HW222101   4.551   2.115  13.574  0.7108  0.6293  1.2599
 3489SOL     OW22102   0.850   0.860   6.729  0.3636  0.1850 -0.4961
 3489SOL    HW122103   0.898   0.795   6.781 -0.2698  1.5768  1.8125
 3489SOL    HW222104   0.848   0.938   6.785 -2.0004 -0.5272  0.4120
 3490SOL     OW22105   1.980   3.939   3.661  0.0201  0.0625  0.1781
 3490SOL    HW122106   1.971   4.014   3.720 -0.1506  0.7664 -0.7508
 3490SOL    HW222107   2.061   3.962   3.616  0.3800 -1.2489  0.1458
 3491SOL     OW22108   3.052   0.340   0.692  0.3619  0.7044 -0.6467
 3491SOL    HW122109   3.001   0.314   0.768  1.8328 -1.7399 -0.4854
 3491SOL    HW222110   3.042   0.259   0.642  0.1274  0.3473 -0.0162
 3492SOL     OW22111   0.523   3.836   8.471  0.7202 -0.2507  0.0088
 3492SOL    HW122112   0.580   3.772   8.513 -0.2975  0.0702  1.8707
 3492SOL    HW222113   0.496   3.791   8.390 -3.3414 -1.1435  1.8655
 3493SOL     OW22114   2.853   0.343   1.467  0.2572  0.6121  0.0678
 3493SOL    HW122115   2.841   0.437   1.461  0.0001  0.6185  0.6643
 3493SOL    HW222116   2.927   0.340   1.527 -0.7446 -1.8270  1.1874
 3494SOL     OW22117   4.175   0.518   0.447  0.4323  0.0740  0.1740
 3494SOL    HW122118   4.241   0.493   0.512  0.8852  1.6334  0.3007
 3494SOL    HW222119   4.226   0.575   0.390  0.6007  0.2177  0.4643
 3495SOL     OW22120   0.901   1.130   3.266  0.2113 -0.3748  0.1806
 3495SOL    HW122121   0.933   1.172   3.346 -2.3216  0.5460  0.7069
 3495SOL    HW222122   0.850   1.194   3.217 -1.9342 -1.3320  1.1424
 3496SOL     OW22123   0.175   1.790   7.658 -0.0646 -0.6555  0.0141
 3496SOL    HW122124   0.132   1.738   7.590 -2.3499  1.2462 -0.0090
 3496SOL    HW222125   0.110   1.861   7.664  1.6758  0.7091  2.6590
 3497SOL     OW22126   2.475   1.669   4.549  0.0320 -0.1031 -0.0738
 3497SOL    HW122127   2.490   1.755   4.510  0.1973 -0.5836 -1.0876
 3497SOL    HW222128   2.536   1.669   4.622 -0.9252  4.1778  0.7128
 3498SOL     OW22129   2.097   1.286   2.644  0.5022 -0.2751  0.0898
 3498SOL    HW122130   2.033   1.357   2.641 -1.2801 -1.8170  1.4614
 3498SOL    HW222131   2.029   1.219   2.651  1.0091 -0.6966  0.9366
 3499SOL     OW22132   0.433   1.791   1.680 -0.5795  0.3412  0.0699
 3499SOL    HW122133   0.465   1.856   1.618  1.4840  0.7926  1.6144
 3499SOL    HW222134   0.339   1.801   1.662 -0.9409 -0.6041  1.4361
 3500SOL     OW22135   2.005   4.617   3.353  0.1715  0.3199 -0.5384
 3500SOL    HW122136   1.996   4.525   3.378  1.6394  0.0375 -1.0298
 3500SOL    HW222137   1.926   4.642   3.304 -0.0013  0.2977 -0.2679
 3501SOL     OW22138   1.180   4.731  11.131  0.1838  0.0231  0.1308
 3501SOL    HW122139   1.137   4.647  11.140  0.6749 -0.3334 -0.8662
 3501SOL    HW222140   1.188   0.022  11.223 -3.1448  1.0489  0.0983
 3502SOL     OW22141   0.917   2.178   6.714 -0.1863 -0.4022 -0.2376
 3502SOL    HW122142   0.926   2.083   6.708  1.4269 -0.0440 -3.8698
 3502SOL    HW222143   0.900   2.195   6.807  0.3141  1.3899 -0.4540
 3503SOL     OW22144   2.243   1.427   2.906  0.1332  0.2554  0.1091
 3503SOL    HW122145   2.221   1.372   2.982  2.1627 -1.8369 -0.8045
 3503SOL    HW222146   2.186   1.386   2.841 -2.7234  2.9677  0.9181
 3504SOL     OW22147   3.966   4.021   8.387 -0.7985  0.5444  0.7043
 3504SOL    HW122148   3.885   4.039   8.436 -0.6930 -0.3571  1.2035
 3504SOL    HW222149   3.995   4.097   8.335 -1.8987  0.5535  0.0977
 3505SOL     OW22150   0.397   3.519   8.979  0.3789 -0.5117 -0.6017
 3505SOL    HW122151   0.378   3.590   8.917 -1.4563  0.5716  1.1999
 3505SOL    HW222152   0.383   3.560   9.064 -0.7149  1.4177 -1.7072
 3506SOL     OW22153   3.552   3.602   4.070  0.1210 -0.3622 -0.6801
 3506SOL    HW122154   3.544   3.643   3.984 -0.1495  0.8206 -0.0921
 3506SOL    HW222155   3.622   3.658   4.102  0.1266 -1.0671  0.5413
 3507SOL     OW22156   3.872   3.681   7.699 -0.8019  0.4055  0.1480
 3507SOL    HW122157   3.782   3.711   7.684 -0.5324  0.3556 -1.5882
 3507SOL    HW222158   3.866   3.623   7.775 -0.8272  1.8334  1.2297
 3508SOL     OW22159   4.322   2.097  13.836  0.1111 -0.1663  0.3916
 3508SOL    HW122160   4.242   2.086  13.784  0.4132 -2.0775  0.3304
 3508SOL    HW222161   4.373   2.018  13.819 -0.1831  0.0968 -1.7147
 3509SOL     OW22162   1.997   1.111   9.913 -0.3504  0.0006  0.1425
 3509SOL    HW122163   1.938   1.162   9.968  0.5819  2.4156 -1.1363
 3509SOL    HW222164   2.019   1.028   9.956  1.3961  0.5392  0.2918
 3510SOL     OW22165   2.015   4.605   2.994 -0.3874 -0.1006 -0.6465
 3510SOL    HW122166   2.003   4.512   3.017 -2.4275  0.5406  0.8731
 3510SOL    HW222167   2.072   4.634   3.065  2.0163 -2.3209 -1.6436
 3511SOL     OW22168   2.893   3.087   3.491  0.2666  0.5061  0.1465
 3511SOL    HW122169   2.895   3.141   3.570  0.7623 -1.1380  1.2531
 3511SOL    HW222170   2.855   3.010   3.531  0.0698  1.8661  2.5990
 3512SOL     OW22171   2.424   0.931  10.860  0.3449  0.0088 -0.1843
 3512SOL    HW122172   2.491   0.974  10.807  0.4924  1.9235  1.5505
 3512SOL    HW222173   2.473   0.897  10.935  2.2741  2.1445 -0.4844
 3513SOL     OW22174   3.802   2.241  13.187  0.0900  0.2081  0.3265
 3513SOL    HW122175   3.727   2.183  13.203  1.0743 -1.5021 -1.1597
 3513SOL    HW222176   3.755   2.298  13.126 -1.4657 -0.1361  1.2032
 3514SOL     OW22177   2.284   1.120   3.814  0.1894  0.6368  0.0123
 3514SOL    HW122178   2.342   1.046   3.833  0.4445  0.7299 -0.4073
 3514SOL    HW222179   2.246   1.085   3.735  1.9722 -0.9204 -0.1516
 3515SOL     OW22180   2.729   0.253   7.236  0.5570 -0.1498  1.0627
 3515SOL    HW122181   2.725   0.346   7.259  2.8591  0.2253 -0.0843
 3515SOL    HW222182   2.785   0.225   7.308 -1.1197 -0.0385  2.4307
 3516SOL     OW22183   4.670   3.641   8.530 -1.3719  0.5577 -0.1307
 3516SOL    HW122184   4.590   3.692   8.543 -3.2494 -2.1938 -0.8723
 3516SOL    HW222185   4.727   3.704   8.572  1.2867 -0.5323 -2.1154
 3517SOL     OW22186   1.892   0.551   9.997 -0.4749  0.3857  0.5461
 3517SOL    HW122187   1.841   0.534  10.076  1.2907 -0.1154  1.5955
 3517SOL    HW222188   1.906   0.462   9.963 -1.2244  0.8752 -1.0611
 3518SOL     OW22189   1.202   4.305   6.961  0.5551  0.0669 -0.4833
 3518SOL    HW122190   1.120   4.332   6.920  1.8784  2.3511 -1.6241
 3518SOL    HW222191   1.248   4.389   6.963  0.7103 -0.1116  3.3116
 3519SOL     OW22192   4.723   3.478   3.817 -0.2151 -0.4160 -0.1170
 3519SOL    HW122193   0.024   3.416   3.755  3.1618 -1.6984  3.2048
 3519SOL    HW222194   0.014   3.560   3.774 -1.3407 -0.1787 -0.3871
 3520SOL     OW22195   1.480   1.276   9.591 -0.1271  0.2278 -0.6971
 3520SOL    HW122196   1.447   1.263   9.502 -3.1684 -0.4112  0.5230
 3520SOL    HW222197   1.517   1.190   9.610 -3.2596 -1.0541 -0.4706
 3521SOL     OW22198   3.258   0.400   3.180  0.1529  0.2615  0.0191
 3521SOL    HW122199   3.190   0.335   3.166 -0.1893  0.9637 -1.5818
 3521SOL    HW222200   3.205   0.480   3.180  1.3716  1.0824  2.4430
 3522SOL     OW22201   2.555   3.940   1.845 -0.3532 -0.1979  0.2146
 3522SOL    HW122202   2.623   3.970   1.905  0.5587  2.6902 -2.3008
 3522SOL    HW222203   2.585   3.970   1.759  2.0926  0.4502  1.2981
 3523SOL     OW22204   3.349   3.183  15.449 -0.4665  0.4308  0.1817
 3523SOL    HW122205   3.333   3.202  15.541  1.6010  0.4039  0.5513
 3523SOL    HW222206   3.422   3.240  15.427 -0.3828  0.5440  0.7786
 3524SOL     OW22207   4.731   4.369   2.692  0.0396 -0.3469  0.5848
 3524SOL    HW122208   4.709   4.290   2.643 -1.9770  1.0534 -0.7854
 3524SOL    HW222209   0.065   4.405   2.639 -0.7625 -1.0519 -0.9582
 3525SOL     OW22210   3.130   4.508   6.022  0.2865 -0.4323 -0.4473
 3525SOL    HW122211   3.175   4.550   6.095 -1.1387  0.2130  0.0528
 3525SOL    HW222212   3.040   4.512   6.054  0.5849 -3.7671  0.7949
 3526SOL     OW22213   2.103   4.162   1.042 -0.0945 -0.1546  0.2015
 3526SOL    HW122214   2.133   4.081   1.000 -0.4474 -0.3807  0.3829
 3526SOL    HW222215   2.052   4.212   0.979 -0.0264 -2.4696 -1.6824
 3527SOL     OW22216   4.453   3.717   0.417  0.1884  0.0577  0.1252
 3527SOL    HW122217   4.459   3.623   0.399 -1.2761 -0.3966  2.1120
 3527SOL    HW222218   4.366   3.705   0.455  0.4448  2.0177  1.2814
 3528SOL     OW22219   4.629   0.323   1.084  0.0569  0.1831  0.4121
 3528SOL    HW122220   4.639   0.260   1.155  0.1768 -0.4768 -0.1946
 3528SOL    HW222221   4.599   0.400   1.133 -0.2697  0.5678 -0.3912
 3529SOL     OW22222   4.388   1.257   5.294 -0.5617 -0.2507  0.1708
 3529SOL    HW122223   4.423   1.184   5.346  1.4271  0.8997  0.4326
 3529SOL    HW222224   4.313   1.212   5.257 -0.7076 -0.1752  0.3770
 3530SOL     OW22225   2.539   0.484   5.794  0.7459 -0.2509  0.2382
 3530SOL    HW122226   2.537   0.503   5.888  4.8951  1.5067 -0.0460
 3530SOL    HW222227   2.513   0.392   5.793  0.8039 -0.3214  3.5096
 3531SOL     OW22228   4.394   1.200   4.355 -0.2432  0.1245 -0.2443
 3531SOL    HW122229   4.414   1.211   4.262 -0.8398 -0.5507 -0.4563
 3531SOL    HW222230   4.308   1.240   4.360  0.6150  1.8286  0.7067
 3532SOL     OW22231   3.241   1.954   4.631 -0.5156  0.3174  0.3403
 3532SOL    HW122232   3.166   1.937   4.687  0.1547  0.1714  1.1956
 3532SOL    HW222233   3.274   1.863   4.630 -2.7415 -0.4802  0.3487
 3533SOL     OW22234   2.975   1.867   3.912 -0.2567  0.4415 -0.1825
 3533SOL    HW122235   2.987   1.799   3.978  1.1843  1.0998  0.2314
 3533SOL    HW222236   2.983   1.942   3.971 -0.8478 -0.5211  1.1235
 3534SOL     OW22237   4.667   1.669   7.313 -1.2577  0.1108  0.1989
 3534SOL    HW122238   4.650   1.656   7.406 -2.2729  1.2212  0.1727
 3534SOL    HW222239   4.581   1.654   7.274  0.1295 -0.3236 -2.7146
 3535SOL     OW22240   3.772   3.379   5.198  0.4836  0.2691  0.2633
 3535SOL    HW122241   3.745   3.454   5.145 -2.2194  0.8161  2.4303
 3535SOL    HW222242   3.803   3.411   5.283  2.0756 -1.0441  0.1846
 3536SOL     OW22243   2.394   3.534   8.320 -0.2681 -0.1405 -0.4745
 3536SOL    HW122244   2.328   3.594   8.285 -0.2917  1.2969  2.1093
 3536SOL    HW222245   2.349   3.479   8.384  0.9025 -1.0186 -0.4021
 3537SOL     OW22246   4.040   1.419   1.711  0.7648 -0.0190  0.1292
 3537SOL    HW122247   4.037   1.340   1.656  0.5476 -0.5586  0.9045
 3537SOL    HW222248   4.127   1.453   1.690  0.5621  1.4276  1.6084
 3538SOL     OW22249   3.489   1.644   5.135 -0.2237  0.1734  0.0085
 3538SOL    HW122250   3.394   1.639   5.119 -0.4506 -0.4336  1.5500
 3538SOL    HW222251   3.499   1.609   5.224 -3.3297  1.6098  0.9088
 3539SOL     OW22252   4.316   1.387   1.644 -0.1285  0.3622 -0.1308
 3539SOL    HW122253   4.279   1.299   1.635 -0.3041  0.1592  2.3603
 3539SOL    HW222254   4.305   1.420   1.556  0.2006 -0.0049 -0.3109
 3540SOL     OW22255   0.720   4.189  10.068 -0.1672  0.0552 -0.3459
 3540SOL    HW122256   0.651   4.245  10.104 -1.4469 -1.9906  0.3844
 3540SOL    HW222257   0.668   4.119  10.028 -2.0307  0.0915  2.0587
 3541SOL     OW22258   3.565   0.570   5.874  0.0988  0.0642  0.1352
 3541SOL    HW122259   3.513   0.650   5.880  1.6708  1.1219 -0.2304
 3541SOL    HW222260   3.574   0.573   5.779 -0.2635 -2.4243  0.0431
 3542SOL     OW22261   2.991   2.801   2.581 -0.4776  0.7011  0.3265
 3542SOL    HW122262   2.954   2.778   2.496  0.4211 -1.8484  0.6125
 3542SOL    HW222263   3.051   2.872   2.558 -3.9419  3.8202  1.0345
 3543SOL     OW22264   4.533   4.210   2.250  0.5685  0.6766 -0.1396
 3543SOL    HW122265   4.540   4.116   2.231  0.7310  1.0040 -1.6580
 3543SOL    HW222266   4.476   4.240   2.179  2.2562  0.1112 -1.7134
 3544SOL     OW22267   3.498   1.642   4.393  0.3756 -0.2790  0.4185
 3544SOL    HW122268   3.536   1.665   4.478 -2.1251  0.2313  1.3991
 3544SOL    HW222269   3.571   1.596   4.352  1.0211  0.4891  0.7123
 3545SOL     OW22270   0.003   4.432  15.421  0.2666  0.4394  0.1157
 3545SOL    HW122271   0.065   4.433  15.348  1.1852 -3.3507  0.8475
 3545SOL    HW222272   4.729   4.340  15.443 -0.7894  0.7097  0.7417
 3546SOL     OW22273   1.242   1.463   5.339  0.2343  0.2045  0.4395
 3546SOL    HW122274   1.256   1.396   5.272  2.7278  0.3469  0.8264
 3546SOL    HW222275   1.299   1.431   5.409  1.8881 -1.1657 -1.5472
 3547SOL     OW22276   0.392   1.075   6.686 -0.3222  0.1040 -0.9501
 3547SOL    HW122277   0.301   1.069   6.657 -1.4690  1.1775  2.4705
 3547SOL    HW222278   0.405   1.141   6.754 -1.1870  0.2872 -0.9590
 3548SOL     OW22279   1.622   4.640  13.765 -0.1327  0.2019 -0.0968
 3548SOL    HW122280   1.698   4.685  13.801 -0.2795  0.4990 -0.1584
 3548SOL    HW222281   1.617   4.571  13.831 -1.7417 -0.7320 -1.1965
 3549SOL     OW22282   2.402   2.887   0.630 -0.4732 -0.9945  0.2262
 3549SOL    HW122283   2.492   2.889   0.663  0.1398 -2.2420 -1.3911
 3549SOL    HW222284   2.350   2.895   0.711  0.9491 -0.6255  1.1044
 3550SOL     OW22285   3.566   2.973   4.516  0.3716  0.1084  0.0086
 3550SOL    HW122286   3.642   2.923   4.487  0.5436 -0.1156  0.8386
 3550SOL    HW222287   3.606   3.036   4.575  0.1588 -0.7193  1.0332
 3551SOL     OW22288   2.929   1.419   3.920 -0.2622 -0.4782 -0.0720
 3551SOL    HW122289   2.928   1.388   4.010  3.0671 -0.9257 -0.1924
 3551SOL    HW222290   2.909   1.508   3.948 -0.6652 -0.0690 -1.6323
 3552SOL     OW22291   0.045   3.607   4.513  0.4675  0.5278 -0.0860
 3552SOL    HW122292   4.725   3.676   4.547  0.6838  0.5345  0.2557
 3552SOL    HW222293   0.114   3.629   4.576  1.0537  0.8226 -0.8288
 3553SOL     OW22294   3.598   3.895  16.094 -0.1219 -0.6224  0.1627
 3553SOL    HW122295   3.504   3.903  16.114 -0.2166 -0.0946 -0.4836
 3553SOL    HW222296   3.646   3.976  16.109 -0.1795 -0.8606  1.6251
 3554SOL     OW22297   2.820   4.454  11.158 -0.1871 -0.1828 -0.2939
 3554SOL    HW122298   2.776   4.384  11.111 -0.5509  0.8984 -1.5659
 3554SOL    HW222299   2.906   4.412  11.169  0.3033  0.3317 -2.1378
 3555SOL     OW22300   1.198   3.508  14.377 -0.1713  0.3184  0.0434
 3555SOL    HW122301   1.231   3.575  14.317  0.6156 -0.2079 -0.1126
 3555SOL    HW222302   1.268   3.444  14.392  0.4616  0.9545 -0.1587
 3556SOL     OW22303   1.826   1.661   5.355  0.3495 -0.5720  0.1589
 3556SOL    HW122304   1.914   1.689   5.382 -0.6371  1.4992  1.2674
 3556SOL    HW222305   1.801   1.742   5.310 -0.8026 -1.2911 -0.4798
 3557SOL     OW22306   3.425   0.515   8.106 -0.0710 -0.1394 -0.3499
 3557SOL    HW122307   3.436   0.503   8.200  0.4076  1.7844 -0.1684
 3557SOL    HW222308   3.481   0.444   8.072  0.1246 -0.4602  0.6388
 3558SOL     OW22309   0.320   2.532   6.493 -0.4398 -0.0742 -0.7090
 3558SOL    HW122310   0.376   2.567   6.562 -2.4499  1.5142  0.1333
 3558SOL    HW222311   0.247   2.499   6.546  0.5391  0.4299  0.9399
 3559SOL     OW22312   3.172   3.754  17.605  0.2072 -0.0653 -0.2187
 3559SOL    HW122313   3.262   3.777  17.627 -0.1766  0.2167  1.0261
 3559SOL    HW222314   3.152   3.808  17.528 -0.4056 -1.4134 -1.0282
 3560SOL     OW22315   3.163   3.830   5.723 -0.0287  0.3454 -0.6801
 3560SOL    HW122316   3.241   3.777   5.737 -0.4230  0.0433  0.4510
 3560SOL    HW222317   3.145   3.796   5.636  0.5438 -2.1952  0.1925
 3561SOL     OW22318   2.154   0.872   0.844  0.2805  0.3928  0.5638
 3561SOL    HW122319   2.066   0.908   0.838  0.6367  1.3813  1.4866
 3561SOL    HW222320   2.194   0.920   0.916  0.6208  0.3053  0.4365
 3562SOL     OW22321   2.493   0.592   2.928  0.5594 -0.5831 -0.1176
 3562SOL    HW122322   2.511   0.681   2.897  0.3988  0.2187  2.1005
 3562SOL    HW222323   2.522   0.589   3.019 -3.3419 -0.1055  1.1212
 3563SOL     OW22324   0.981   2.383   4.709  0.1596  0.4723  0.6328
 3563SOL    HW122325   0.949   2.428   4.788 -1.8491  0.2178 -0.0235
 3563SOL    HW222326   0.893   2.361   4.677  0.3259 -0.5984  0.9091
 3564SOL     OW22327   0.950   2.793  10.729  0.4645  0.5896 -0.0924
 3564SOL    HW122328   0.962   2.787  10.824 -0.8343  0.4982  0.0722
 3564SOL    HW222329   1.035   2.823  10.698  0.6680  1.7703  1.6431
 3565SOL     OW22330   0.236   4.242   8.479  0.0755  0.0702  0.6220
 3565SOL    HW122331   0.166   4.279   8.532 -0.9608 -1.1353  0.1033
 3565SOL    HW222332   0.265   4.172   8.538  0.1040  0.5850  1.2099
 3566SOL     OW22333   4.550   4.506   0.288  0.3247 -0.3362 -0.0112
 3566SOL    HW122334   4.547   4.411   0.280  0.5204 -0.1546 -2.2942
 3566SOL    HW222335   4.529   4.534   0.199 -1.6319  2.0990  1.2078
 3567SOL     OW22336   0.804   4.188   1.864 -0.2390 -0.3493  0.5702
 3567SOL    HW122337   0.710   4.179   1.876 -0.1222  0.4081  2.1102
 3567SOL    HW222338   0.820   4.111   1.810  0.6058 -0.1928  0.5981
 3568SOL     OW22339   2.042   0.665   1.040  0.3195 -0.2337 -0.1988
 3568SOL    HW122340   2.058   0.634   1.129  0.3992  0.3429 -0.0132
 3568SOL    HW222341   2.098   0.742   1.033  2.0366 -1.5182 -0.5085
 3569SOL     OW22342   0.037   0.522   3.704  0.0011 -0.2027 -0.2292
 3569SOL    HW122343   4.686   0.500   3.671 -0.0914  0.0414 -0.1493
 3569SOL    HW222344   0.072   0.545   3.617 -1.8936  0.4655 -0.8139
 3570SOL     OW22345   1.809   0.607   4.229 -0.0513 -0.1520 -0.6221
 3570SOL    HW122346   1.783   0.540   4.166  1.6252 -2.0166  0.6663
 3570SOL    HW222347   1.819   0.684   4.174  0.4181 -1.6652 -2.6667
 3571SOL     OW22348   2.592   1.073  11.229  0.1755  0.5470 -0.0793
 3571SOL    HW122349   2.602   1.133  11.303 -0.5731  0.7489 -0.1401
 3571SOL    HW222350   2.587   1.142  11.162  0.9925  0.6816  0.0029
 3572SOL     OW22351   4.467   0.658   6.910  0.0619  0.3746 -0.4350
 3572SOL    HW122352   4.512   0.729   6.956 -0.5286 -0.6071  1.6839
 3572SOL    HW222353   4.444   0.704   6.829 -0.2316  0.2684 -0.4122
 3573SOL     OW22354   1.110   1.877  12.553 -0.2944  0.4486 -0.3755
 3573SOL    HW122355   1.151   1.906  12.472 -0.8930 -1.8398 -1.4925
 3573SOL    HW222356   1.023   1.856  12.518 -0.4782 -0.8893  0.8839
 3574SOL     OW22357   0.992   4.595   3.290  0.9324 -0.0091 -0.4914
 3574SOL    HW122358   0.932   4.522   3.279 -1.3935  1.8213  0.1456
 3574SOL    HW222359   1.078   4.555   3.276 -0.1676 -2.8831  1.0233
 3575SOL     OW22360   3.344   4.505   8.096 -0.9440 -1.0469  1.0659
 3575SOL    HW122361   3.341   4.434   8.159  0.0147  0.3091  2.6426
 3575SOL    HW222362   3.367   4.464   8.013 -1.1606 -1.1705  1.0663
 3576SOL     OW22363   0.078   0.353   0.882 -0.8486 -0.2774 -0.5125
 3576SOL    HW122364   4.732   0.362   0.931  0.1770  2.3166  0.7100
 3576SOL    HW222365   0.118   0.282   0.932 -0.1091  0.0207 -0.6905
 3577SOL     OW22366   0.015   4.655   0.419  0.2288 -0.3467 -0.3846
 3577SOL    HW122367   4.725   0.008   0.394  2.5668  0.3100 -0.5347
 3577SOL    HW222368   4.692   4.610   0.359 -0.3076 -1.2137  0.8017
 3578SOL     OW22369   3.590   0.970   3.438 -0.4474 -0.0288 -0.2365
 3578SOL    HW122370   3.544   1.000   3.359  0.7209 -0.7817 -1.1890
 3578SOL    HW222371   3.521   0.926   3.488  0.5517  0.1601  1.2914
 3579SOL     OW22372   1.368   3.661   2.661  0.4049  0.6228  0.6306
 3579SOL    HW122373   1.278   3.640   2.633  0.4702 -0.9139  1.5987
 3579SOL    HW222374   1.352   3.688   2.751  0.5042  0.7297  0.6159
 3580SOL     OW22375   2.673   2.951   2.895 -0.2038 -0.2146  0.1195
 3580SOL    HW122376   2.692   3.043   2.881  0.1337 -0.5257 -1.3885
 3580SOL    HW222377   2.744   2.931   2.956 -0.2130 -2.3722 -0.5784
 3581SOL     OW22378   1.557   0.871   3.267  0.1932  0.1319  0.3170
 3581SOL    HW122379   1.524   0.782   3.273 -1.5513  0.5205 -3.6179
 3581SOL    HW222380   1.516   0.899   3.185  0.9948 -1.4416 -0.6210
 3582SOL     OW22381   4.543   1.846   8.744  0.4653  0.4093 -0.0131
 3582SOL    HW122382   4.609   1.785   8.710 -0.6459 -0.6366 -0.2609
 3582SOL    HW222383   4.536   1.919   8.684 -0.7741 -0.0169 -0.3719
 3583SOL     OW22384   3.789   2.060   2.385 -0.0487 -0.1567 -0.3700
 3583SOL    HW122385   3.772   2.055   2.292 -1.0598 -0.2153 -0.1799
 3583SOL    HW222386   3.850   1.991   2.413 -1.7565 -0.2615  3.1468
 3584SOL     OW22387   1.935   3.982   7.002 -0.9216  0.3008  0.1800
 3584SOL    HW122388   2.012   3.928   6.984  0.3555  1.2755  2.7017
 3584SOL    HW222389   1.906   4.014   6.916  0.7489  2.9704  0.6106
 3585SOL     OW22390   3.561   3.957   2.481  0.4614  0.2566 -0.0831
 3585SOL    HW122391   3.469   3.932   2.493  0.0415  2.2353  0.7568
 3585SOL    HW222392   3.553   3.993   2.393 -1.2168  2.6089  1.0445
 3586SOL     OW22393   3.856   4.281  14.662 -0.3417  0.4844  0.4584
 3586SOL    HW122394   3.832   4.279  14.569  2.2035 -0.1750 -0.1803
 3586SOL    HW222395   3.840   4.372  14.685  0.5449  0.7506 -0.0026
 3587SOL     OW22396   0.448   0.959   3.007  0.6407 -0.6250  0.1964
 3587SOL    HW122397   0.510   0.973   2.936  1.3504 -1.2128  0.7143
 3587SOL    HW222398   0.368   0.986   2.960  2.0670  0.3835 -1.6360
 3588SOL     OW22399   3.338   4.690   2.361  0.4497 -0.2504  0.0238
 3588SOL    HW122400   3.324   0.047   2.346  1.7782 -0.0753 -0.1289
 3588SOL    HW222401   3.430   4.693   2.385  0.4310 -1.9426  0.2416
 3589SOL     OW22402   3.862   0.039  14.792  0.7057  0.1694  0.5396
 3589SOL    HW122403   3.904   0.125  14.789  0.2176  0.4691  2.4867
 3589SOL    HW222404   3.769   0.049  14.811 -0.1333  1.0325 -4.0015
 3590SOL     OW22405   1.558   2.601   9.383 -0.3574  0.0522 -0.2298
 3590SOL    HW122406   1.578   2.513   9.416  1.1689  1.1978  1.8548
 3590SOL    HW222407   1.629   2.614   9.320  0.1784  0.2220  0.4176
 3591SOL     OW22408   1.212   4.120  11.093 -0.4350 -0.2431 -0.7206
 3591SOL    HW122409   1.170   4.183  11.033 -0.2832  0.7717  0.2306
 3591SOL    HW222410   1.132   4.067  11.098  0.2744 -1.0571  2.1077
 3592SOL     OW22411   2.355   3.824   3.532  0.0770 -0.3488 -0.2014
 3592SOL    HW122412   2.325   3.909   3.565  0.2533 -0.2572 -0.2739
 3592SOL    HW222413   2.289   3.805   3.466 -0.9928  1.1634  0.4103
 3593SOL     OW22414   1.765   2.395   7.565  0.7532  0.0724  0.3630
 3593SOL    HW122415   1.704   2.335   7.522  0.7601 -0.0561  0.5310
 3593SOL    HW222416   1.708   2.471   7.573  0.7327  0.1651 -0.6133
 3594SOL     OW22417   4.529   3.736  14.123  0.3458  0.4271 -0.1972
 3594SOL    HW122418   4.525   3.665  14.186  0.0554  0.9623  0.3840
 3594SOL    HW222419   4.546   3.687  14.043  1.0583  1.8020 -0.8995
 3595SOL     OW22420   2.719   1.292   9.090 -0.1889 -0.0315  0.4311
 3595SOL    HW122421   2.761   1.367   9.132 -2.3525  0.6284  1.4168
 3595SOL    HW222422   2.743   1.227   9.155 -0.7282  1.8934  2.5509
 3596SOL     OW22423   2.165   0.672  12.532 -0.0894 -0.2745 -0.5812
 3596SOL    HW122424   2.191   0.641  12.445  2.7630  0.5509 -0.0310
 3596SOL    HW222425   2.170   0.589  12.578 -0.7736 -0.4991 -0.9076
 3597SOL     OW22426   0.857   3.076   3.554  0.6177 -0.3789  0.3759
 3597SOL    HW122427   0.823   3.085   3.465 -0.3499 -1.0293  0.6823
 3597SOL    HW222428   0.951   3.091   3.542  0.5344  0.1622  0.3780
 3598SOL     OW22429   0.684   2.345   8.663 -0.5914  0.4699 -0.0026
 3598SOL    HW122430   0.626   2.361   8.738 -0.4638 -2.5162  0.7485
 3598SOL    HW222431   0.742   2.421   8.666 -0.0977  0.0128  2.2279
 3599SOL     OW22432   3.520   0.591   3.982  0.4201  0.5365  0.3666
 3599SOL    HW122433   3.497   0.561   3.895  1.5837 -0.0444  0.2587
 3599SOL    HW222434   3.613   0.573   3.969 -0.2487 -1.5749 -1.4394
 3600SOL     OW22435   0.553   0.589   6.240  0.0096  0.0226  0.3061
 3600SOL    HW122436   0.613   0.638   6.298 -0.3692  1.6478 -0.6648
 3600SOL    HW222437   0.570   0.634   6.158  1.2644 -0.4227  0.3229
 3601SOL     OW22438   1.449   1.028   6.355  0.0093 -0.0481  0.2607
 3601SOL    HW122439   1.518   1.040   6.290 -1.0705  0.7691 -0.7423
 3601SOL    HW222440   1.378   1.011   6.293 -0.3811  3.6118 -0.2539
 3602SOL     OW22441   2.721   0.384   8.123 -0.3967 -0.6608  0.1737
 3602SOL    HW122442   2.684   0.395   8.035 -1.4529  0.7678  0.8038
 3602SOL    HW222443   2.692   0.292   8.128 -0.1994 -0.7351 -0.0392
 3603SOL     OW22444   0.793   3.942  16.150  0.2816 -0.3198  0.0799
 3603SOL    HW122445   0.748   3.909  16.072  3.1079 -1.3943 -1.0705
 3603SOL    HW222446   0.772   4.035  16.137  0.4236 -0.1379  1.1537
 3604SOL     OW22447   3.431   2.398   7.717 -0.1298 -0.2914  0.0131
 3604SOL    HW122448   3.417   2.306   7.693 -0.3587  0.1436 -1.5277
 3604SOL    HW222449   3.396   2.403   7.806 -1.3850 -0.3388 -0.4738
 3605SOL     OW22450   1.311   1.293   7.188  0.1666  0.0187 -0.7008
 3605SOL    HW122451   1.240   1.329   7.241 -0.3638 -1.0414 -0.6898
 3605SOL    HW222452   1.286   1.201   7.184  1.9647 -0.4794 -0.3352
 3606SOL     OW22453   2.864   4.506  15.481  0.6323 -0.2346 -0.3278
 3606SOL    HW122454   2.829   4.530  15.566 -0.0196 -1.3355 -0.2783
 3606SOL    HW222455   2.893   4.585  15.435  1.5899 -1.4333 -1.7894
 3607SOL     OW22456   4.133   3.587   8.530  0.5601  0.1039  0.9823
 3607SOL    HW122457   4.189   3.536   8.588  1.3612 -0.1615 -0.0232
 3607SOL    HW222458   4.175   3.672   8.545  0.3199 -0.2433  3.5735
 3608SOL     OW22459   4.450   4.653   4.540  0.0085 -0.2523  0.1477
 3608SOL    HW122460   4.450   4.677   4.448 -1.6231  2.7720  0.9387
 3608SOL    HW222461   4.499   4.570   4.541 -0.5463 -0.5826 -0.2321
 3609SOL     OW22462   1.314   1.750   1.284  0.0204  0.1920  0.0917
 3609SOL    HW122463   1.354   1.683   1.227 -1.0797 -1.0060  0.7411
 3609SOL    HW222464   1.273   1.813   1.225  0.2391 -0.5819 -0.8865
 3610SOL     OW22465   2.252   4.409   2.716 -0.4897 -0.0853 -0.5620
 3610SOL    HW122466   2.320   4.342   2.710 -1.0146 -0.8439  2.1896
 3610SOL    HW222467   2.188   4.355   2.762 -2.6850  0.2626 -3.2256
 3611SOL     OW22468   4.104   4.238   3.751  0.0264 -0.2012 -0.2970
 3611SOL    HW122469   4.048   4.306   3.788 -0.1185 -0.6095  0.2184
 3611SOL    HW222470   4.176   4.287   3.711 -1.6656  1.8756 -0.7850
 3612SOL     OW22471   1.981   2.414   9.286 -0.3565  0.0954  0.5901
 3612SOL    HW122472   2.022   2.330   9.267  2.6703  1.3805  1.5443
 3612SOL    HW222473   2.032   2.443   9.361  2.2177 -0.1076 -1.0816
 3613SOL     OW22474   1.552   1.241   2.426 -0.2096  0.6028  0.0357
 3613SOL    HW122475   1.472   1.189   2.434  0.0150  0.1735 -0.4911
 3613SOL    HW222476   1.522   1.331   2.414  1.4045  1.1702  0.2482
 3614SOL     OW22477   2.444   0.141  17.200 -0.1888  0.2974  0.0560
 3614SOL    HW122478   2.397   0.058  17.202  1.7387 -0.7931 -0.1728
 3614SOL    HW222479   2.374   0.206  17.209 -0.9363 -0.2154 -2.1761
 3615SOL     OW22480   1.893   0.088   5.453 -0.2898  0.4649 -0.1970
 3615SOL    HW122481   1.866   0.056   5.367 -0.8898 -0.1937  0.2356
 3615SOL    HW222482   1.884   0.183   5.445 -0.3292  0.1960 -3.4193
 3616SOL     OW22483   0.974   1.266  15.766  0.1785  0.5422 -0.6005
 3616SOL    HW122484   0.952   1.194  15.708 -2.1223  1.2900 -0.6737
 3616SOL    HW222485   1.069   1.266  15.764  0.1670 -1.2312 -0.5308
 3617SOL     OW22486   3.684   2.227   3.402 -0.1642 -0.1376 -0.1888
 3617SOL    HW122487   3.591   2.229   3.424 -0.2084 -1.4673 -0.2525
 3617SOL    HW222488   3.701   2.321   3.391  1.9256 -0.2595  2.0995
 3618SOL     OW22489   0.407   4.475   9.521  0.3067  0.0474 -0.3760
 3618SOL    HW122490   0.392   4.541   9.590 -1.7306  0.5569 -1.3239
 3618SOL    HW222491   0.330   4.469   9.466  0.2156 -0.5121 -0.1857
 3619SOL     OW22492   0.551   4.210   7.083 -0.3658  0.1557  0.4499
 3619SOL    HW122493   0.544   4.299   7.048 -0.7546  0.4578  1.2808
 3619SOL    HW222494   0.614   4.225   7.154 -0.5687 -2.2137  1.1176
 3620SOL     OW22495   1.882   0.613   5.206  0.3958 -0.6182 -0.3659
 3620SOL    HW122496   1.821   0.559   5.156  0.4397  1.2738 -2.4688
 3620SOL    HW222497   1.856   0.703   5.185  0.2006  0.1420  3.0819
 3621SOL     OW22498   0.560   1.837   6.457 -0.2634  0.0167  0.0707
 3621SOL    HW122499   0.571   1.925   6.492  3.8774 -0.6399  0.4302
 3621SOL    HW222500   0.644   1.823   6.413 -0.0745  1.3363  0.0235
 3622SOL     OW22501   2.796   2.084  12.596 -0.0994  0.0783  0.5863
 3622SOL    HW122502   2.832   2.002  12.631  1.0421  1.1177  1.8685
 3622SOL    HW222503   2.822   2.060  12.507  1.2670  1.6510  0.5638
 3623SOL     OW22504   1.300   0.587  17.513 -0.1044 -0.2872  0.4934
 3623SOL    HW122505   1.238   0.634  17.458  0.4118  0.9091  0.9450
 3623SOL    HW222506   1.232   0.556  17.572  0.0683 -1.3736  0.1308
 3624SOL     OW22507   0.529   1.493   0.066  0.1416  0.2580  0.5312
 3624SOL    HW122508   0.554   1.427   0.131  0.2257 -0.9437 -0.7263
 3624SOL    HW222509   0.607   1.547   0.055  1.1925 -1.1069  1.3290
 3625SOL     OW22510   1.352   2.273   9.476 -0.3059  0.3096  0.0648
 3625SOL    HW122511   1.305   2.228   9.546  0.0480 -0.5724 -0.2632
 3625SOL    HW222512   1.406   2.334   9.526 -0.7678  0.5264  0.3022
 3626SOL     OW22513   4.313   3.000   9.496 -0.1280  0.9734 -0.1876
 3626SOL    HW122514   4.219   3.001   9.476 -0.2229  1.6832  0.2932
 3626SOL    HW222515   4.351   3.063   9.435 -0.1071 -2.0477 -3.2698
 3627SOL     OW22516   1.884   1.623  15.269 -0.2262 -0.2497 -0.2378
 3627SOL    HW122517   1.853   1.532  15.267 -1.9430  0.3933 -2.6207
 3627SOL    HW222518   1.806   1.679  15.266 -0.1605 -0.1375  0.1867
 3628SOL     OW22519   3.228   3.726   8.084  0.0847  0.0717 -0.0669
 3628SOL    HW122520   3.221   3.694   8.173 -0.7315 -1.5497 -0.7224
 3628SOL    HW222521   3.179   3.660   8.036  0.1317 -0.4431  0.5984
 3629SOL     OW22522   4.254   0.444   7.490  0.2764 -0.1611 -0.0601
 3629SOL    HW122523   4.166   0.411   7.512  0.1005  0.4950  0.2255
 3629SOL    HW222524   4.292   0.365   7.453  0.9434 -0.1544  0.6096
 3630SOL     OW22525   0.191   0.603   3.276 -0.4826  0.4424  0.3110
 3630SOL    HW122526   0.109   0.645   3.299  0.3875  1.8951  0.7343
 3630SOL    HW222527   0.193   0.534   3.343 -2.0969  0.5862  0.4881
 3631SOL     OW22528   1.466   2.602   4.011  0.2809 -0.2397  0.4809
 3631SOL    HW122529   1.446   2.679   4.063 -2.2764  0.2515 -1.2191
 3631SOL    HW222530   1.428   2.615   3.924 -0.8656 -0.6392  0.9195
 3632SOL     OW22531   4.444   3.350   7.671 -0.2975 -0.4140  0.2341
 3632SOL    HW122532   4.424   3.390   7.755 -0.8864 -0.3679  0.0729
 3632SOL    HW222533   4.358   3.359   7.630 -0.2745 -0.3090  0.2094
 3633SOL     OW22534   2.148   1.563   8.363  0.0761 -0.4694  0.7102
 3633SOL    HW122535   2.225   1.518   8.327  0.0852  0.6312 -0.6648
 3633SOL    HW222536   2.092   1.546   8.288 -0.8094  0.7733  1.0812
 3634SOL     OW22537   2.948   0.039  10.911 -0.1961 -0.1644  0.2122
 3634SOL    HW122538   3.031   0.029  10.863  0.7610  1.8849  1.4154
 3634SOL    HW222539   2.906   0.121  10.884  1.1106  0.1706 -0.8062
 3635SOL     OW22540   3.619   1.574  16.229 -0.4394 -0.3801  0.6334
 3635SOL    HW122541   3.634   1.551  16.321 -1.2537  1.1435  1.1464
 3635SOL    HW222542   3.704   1.613  16.207 -1.3196  1.0560 -0.2222
 3636SOL     OW22543   3.477   0.668   3.485  0.4105  0.4119  0.3373
 3636SOL    HW122544   3.504   0.659   3.394 -0.7524 -0.1498  0.0405
 3636SOL    HW222545   3.401   0.610   3.488  2.0207 -1.8525 -2.3279
 3637SOL     OW22546   4.139   1.252   4.393 -0.3165 -0.4003  0.0835
 3637SOL    HW122547   4.071   1.241   4.459 -0.7114 -2.0546 -0.6005
 3637SOL    HW222548   4.096   1.297   4.321  0.0494 -1.7171 -0.9620
 3638SOL     OW22549   0.660   0.888   1.882 -0.3200  0.1947  0.8022
 3638SOL    HW122550   0.606   0.865   1.807 -0.8088 -0.3842  1.3340
 3638SOL    HW222551   0.606   0.857   1.955 -0.4786 -0.8025  0.2580
 3639SOL     OW22552   1.128   2.602   2.743  0.0166  0.3956 -0.1517
 3639SOL    HW122553   1.089   2.657   2.675 -0.5602 -1.3553 -1.2425
 3639SOL    HW222554   1.065   2.610   2.815 -2.2203 -0.7438 -1.9905
 3640SOL     OW22555   0.109   2.599   9.358  0.2285 -0.3933 -0.2265
 3640SOL    HW122556   0.141   2.682   9.323  2.3831 -0.7739  0.8662
 3640SOL    HW222557   0.067   2.626   9.440 -1.3828 -3.5678 -0.0047
 3641SOL     OW22558   0.800   2.015   9.406  0.3104  0.2567 -0.6517
 3641SOL    HW122559   0.825   2.089   9.351  0.1200  1.7243  1.2594
 3641SOL    HW222560   0.712   1.990   9.380 -0.5080  0.6956  1.6852
 3642SOL     OW22561   1.586   3.318   3.011  0.3181 -0.4617 -0.0335
 3642SOL    HW122562   1.503   3.271   3.012 -1.4642  2.7064  0.1772
 3642SOL    HW222563   1.627   3.297   2.926 -1.2984  0.2613 -0.9822
 3643SOL     OW22564   0.934   0.629   8.661 -0.2172 -0.3394  0.2193
 3643SOL    HW122565   0.842   0.654   8.667 -0.2154 -0.3211  0.1668
 3643SOL    HW222566   0.972   0.672   8.738 -0.5192 -1.0433  0.7661
 3644SOL     OW22567   1.425   3.053   8.103  0.1282  0.5509 -0.0793
 3644SOL    HW122568   1.363   3.101   8.158 -1.3515 -2.1493  0.6056
 3644SOL    HW222569   1.470   3.124   8.058  1.1487 -1.6978 -2.6124
 3645SOL     OW22570   3.588   1.195  15.284 -0.0319  0.5260 -0.0451
 3645SOL    HW122571   3.511   1.138  15.286  0.4779 -0.1782 -0.6159
 3645SOL    HW222572   3.563   1.264  15.222 -0.2770  1.3660  0.9841
 3646SOL     OW22573   1.878   1.068   9.640 -0.3980  0.1792 -0.1237
 3646SOL    HW122574   1.935   1.070   9.563 -0.0358  2.9052  0.2080
 3646SOL    HW222575   1.931   1.093   9.716  1.2078 -2.2842 -0.4350
 3647SOL     OW22576   1.909   0.592   6.987  0.1576  0.3126  0.0709
 3647SOL    HW122577   1.937   0.666   6.934 -1.1537  0.5037 -0.3633
 3647SOL    HW222578   1.835   0.634   7.032 -0.5147  1.5429 -2.1650
 3648SOL     OW22579   0.750   3.335  11.838  0.4041 -0.1471 -0.3388
 3648SOL    HW122580   0.792   3.257  11.876 -0.0346  0.2106  0.8913
 3648SOL    HW222581   0.791   3.349  11.753 -0.8298 -0.5728 -1.0076
 3649SOL     OW22582   2.538   3.247  15.656  0.5941 -0.5784  0.0180
 3649SOL    HW122583   2.459   3.296  15.634  0.4235  0.2083  2.4369
 3649SOL    HW222584   2.544   3.190  15.579  0.9687 -1.4790  0.7104
 3650SOL     OW22585   2.722   2.819   3.517  0.6532 -0.4220  0.0068
 3650SOL    HW122586   2.708   2.740   3.465 -0.6640 -0.7549  0.8421
 3650SOL    HW222587   2.646   2.866   3.482 -0.4757 -0.8644  1.8500
 3651SOL     OW22588   2.839   4.509   4.964 -0.8265  0.0613 -0.4278
 3651SOL    HW122589   2.755   4.464   4.962 -1.5005  1.3610 -1.4426
 3651SOL    HW222590   2.808   4.592   4.928  0.2423  1.0459  0.9393
 3652SOL     OW22591   4.106   0.902   2.123  0.9796 -0.2743  0.1255
 3652SOL    HW122592   4.100   0.842   2.049  1.4679 -2.9939  2.3002
 3652SOL    HW222593   4.199   0.923   2.132  0.3241  1.3437  3.0034
 3653SOL     OW22594   1.159   0.834   0.972 -0.3217  0.4563  0.2767
 3653SOL    HW122595   1.090   0.898   0.990  0.1403  1.5895 -2.0272
 3653SOL    HW222596   1.133   0.802   0.885 -2.0543 -1.5498  1.5375
 3654SOL     OW22597   0.151   1.765   8.842  0.4220  0.0952 -0.5937
 3654SOL    HW122598   0.180   1.830   8.779  0.3639 -0.0840 -0.8067
 3654SOL    HW222599   0.137   1.821   8.918  4.3670  1.2034 -0.6966
 3655SOL     OW22600   0.110   4.659   5.016 -0.2488  0.2318 -0.7650
 3655SOL    HW122601   0.085   0.012   4.993  2.0901  0.5845 -1.9991
 3655SOL    HW222602   0.038   4.623   5.067 -1.6936  1.5104 -1.9216
 3656SOL     OW22603   2.390   4.448   3.513  0.2685 -0.0289  0.0735
 3656SOL    HW122604   2.462   4.401   3.556  0.2940  0.3480  0.4499
 3656SOL    HW222605   2.431   4.456   3.427  0.6012 -0.0466  0.2312
 3657SOL     OW22606   2.274   0.670   5.422 -0.2866  0.0763  0.2749
 3657SOL    HW122607   2.286   0.691   5.515  2.2221 -3.2296  0.6895
 3657SOL    HW222608   2.363   0.649   5.393 -0.7088  0.5748 -1.3475
 3658SOL     OW22609   1.223   1.216   8.793  0.2209  0.6027  0.5016
 3658SOL    HW122610   1.254   1.227   8.704 -1.8102  1.2587 -0.1403
 3658SOL    HW222611   1.190   1.126   8.795  2.1856 -0.1175  0.2968
 3659SOL     OW22612   2.850   1.878  16.798  0.0102  0.3134  0.4291
 3659SOL    HW122613   2.930   1.828  16.811 -0.9832 -0.7817  2.3147
 3659SOL    HW222614   2.799   1.861  16.877  2.6002  1.7230  2.4218
 3660SOL     OW22615   3.476   4.272   5.757  0.2326  0.4777  0.2600
 3660SOL    HW122616   3.406   4.218   5.721 -1.3809  1.6158  1.7174
 3660SOL    HW222617   3.500   4.213   5.828 -0.8508 -0.1141  0.1280
 3661SOL     OW22618   3.915   0.185  16.664  0.4057  0.0251 -0.6974
 3661SOL    HW122619   3.837   0.129  16.672 -0.4739  1.4043  0.3393
 3661SOL    HW222620   3.968   0.142  16.732 -0.4458 -1.0370 -0.7031
 3662SOL     OW22621   4.188   1.836   1.855  0.0111 -0.0662 -0.0389
 3662SOL    HW122622   4.147   1.913   1.895 -1.0536 -0.5715 -0.1639
 3662SOL    HW222623   4.117   1.773   1.870  0.1106 -0.4260 -1.1095
 3663SOL     OW22624   3.237   0.247  11.987 -0.3387  0.2167 -0.1411
 3663SOL    HW122625   3.145   0.253  11.960 -0.8125 -0.8098  1.2286
 3663SOL    HW222626   3.271   0.334  11.966 -0.3166  0.0156 -0.9341
 3664SOL     OW22627   0.642   4.732   0.643  0.1763 -0.4335  0.9806
 3664SOL    HW122628   0.646   0.088   0.667 -2.2754 -0.2497  0.6671
 3664SOL    HW222629   0.553   4.707   0.668 -1.1806  3.3310 -0.0113
 3665SOL     OW22630   2.024   2.845   2.944  0.3170  0.0508 -0.0440
 3665SOL    HW122631   2.052   2.759   2.977 -0.0967 -0.7348 -1.7418
 3665SOL    HW222632   2.075   2.900   3.004 -1.6903  0.4483  1.2938
 3666SOL     OW22633   4.360   1.571   9.284 -0.2793  0.0909  0.0228
 3666SOL    HW122634   4.413   1.506   9.331 -1.2190 -2.1575 -2.0592
 3666SOL    HW222635   4.335   1.520   9.208  0.5808  0.9129 -0.8146
 3667SOL     OW22636   1.410   2.844  12.620  0.4373  0.2805 -0.7834
 3667SOL    HW122637   1.377   2.779  12.682 -0.4295 -0.6539 -2.2311
 3667SOL    HW222638   1.487   2.886  12.660 -0.1254 -0.2637  0.8925
 3668SOL     OW22639   3.574   4.350   3.136 -0.6201 -0.1252 -0.2274
 3668SOL    HW122640   3.564   4.330   3.044 -1.1424 -0.6088 -0.0624
 3668SOL    HW222641   3.608   4.266   3.168  1.5038  0.1586 -1.7340
 3669SOL     OW22642   2.441   2.183  15.578  0.1846  0.0151  0.0876
 3669SOL    HW122643   2.396   2.260  15.613 -0.8380 -0.3151 -0.5144
 3669SOL    HW222644   2.510   2.168  15.642 -0.3824 -1.7217  0.2823
 3670SOL     OW22645   4.128   3.304   6.683  0.2632  0.0378  0.1436
 3670SOL    HW122646   4.142   3.227   6.738  2.0146 -0.0412 -0.4056
 3670SOL    HW222647   4.085   3.366   6.742  1.1898  0.9069 -0.0945
 3671SOL     OW22648   2.712   0.993   4.452  0.6604  0.0257 -0.1171
 3671SOL    HW122649   2.653   0.998   4.528 -2.3875 -0.0526 -2.5072
 3671SOL    HW222650   2.769   0.923   4.487 -0.5432  0.5693  2.9106
 3672SOL     OW22651   2.048   2.763   4.394  0.2474 -0.1572 -0.3507
 3672SOL    HW122652   1.963   2.806   4.407 -0.4840 -1.6263 -0.3260
 3672SOL    HW222653   2.061   2.721   4.479 -0.9811  2.7426  1.2638
 3673SOL     OW22654   0.225   3.525   5.360  0.6933 -0.0099  0.0683
 3673SOL    HW122655   0.217   3.600   5.300 -0.9564  0.5322  0.9718
 3673SOL    HW222656   0.244   3.569   5.443  1.1271  1.6990 -0.9328
 3674SOL     OW22657   3.973   1.813   5.881 -0.4474 -0.1598 -0.2922
 3674SOL    HW122658   4.065   1.816   5.856 -0.1920 -0.6574  0.5796
 3674SOL    HW222659   3.971   1.874   5.956  1.0104 -0.0971 -0.3068
 3675SOL     OW22660   0.560   4.498   8.615  0.3203 -0.2721  0.3105
 3675SOL    HW122661   0.583   4.407   8.600  1.8136  0.0361  0.7285
 3675SOL    HW222662   0.527   4.513   8.526 -2.1240  1.3295  1.4949
 3676SOL     OW22663   3.891   0.540  16.556  0.0333 -0.4076  0.0204
 3676SOL    HW122664   3.941   0.584  16.625  1.0060 -1.0971 -0.2379
 3676SOL    HW222665   3.805   0.560  16.591  0.7264 -0.7341  1.9386
 3677SOL     OW22666   2.730   4.155   1.956  0.0413  0.2638 -0.2357
 3677SOL    HW122667   2.736   4.226   2.020 -1.8114  0.3001 -0.0958
 3677SOL    HW222668   2.668   4.197   1.897  1.2268  0.2300 -1.4849
 3678SOL     OW22669   2.507   4.714  15.385 -0.7959 -0.4414  0.4520
 3678SOL    HW122670   2.464   0.027  15.316 -0.2249  1.4210  1.4217
 3678SOL    HW222671   2.492   4.628  15.347  0.7411  0.4774 -2.2305
 3679SOL     OW22672   4.102   4.427  12.929 -0.0237  0.4229 -0.2297
 3679SOL    HW122673   4.101   4.332  12.933 -1.4991  0.4051 -0.8516
 3679SOL    HW222674   4.063   4.448  13.014 -1.7587  0.8830 -1.1494
 3680SOL     OW22675   0.409   2.349   3.979  0.0566 -0.4872  0.1094
 3680SOL    HW122676   0.399   2.398   4.061 -1.0141  0.5264 -0.6341
 3680SOL    HW222677   0.388   2.257   3.992 -0.7780 -0.1347  1.2967
 3681SOL     OW22678   0.133   1.172  11.273  0.5978 -0.1307 -0.5798
 3681SOL    HW122679   0.201   1.126  11.224 -0.6377 -1.2341 -1.2587
 3681SOL    HW222680   0.166   1.258  11.248  0.7823  0.5221  1.9493
 3682SOL     OW22681   4.678   4.054   0.442 -0.5664 -0.1778  0.3106
 3682SOL    HW122682   4.643   4.119   0.381 -0.6564 -0.4892  0.0277
 3682SOL    HW222683   4.645   4.103   0.517 -0.5816  0.0847  0.1347
 3683SOL     OW22684   4.459   2.766   4.569  0.4422 -0.0408  0.1864
 3683SOL    HW122685   4.489   2.688   4.522  1.7067  0.2957  0.4454
 3683SOL    HW222686   4.518   2.767   4.645 -0.4627  1.1018  0.8765
 3684SOL     OW22687   3.595   2.310  17.451 -0.7156 -0.3360 -0.2748
 3684SOL    HW122688   3.550   2.344  17.373 -0.2317 -3.2280 -1.8091
 3684SOL    HW222689   3.668   2.273  17.401 -0.6473 -1.1214  0.3987
 3685SOL     OW22690   3.615   0.591   4.276  0.5691  0.0099 -0.5320
 3685SOL    HW122691   3.555   0.610   4.203  0.2378  2.4010  0.3317
 3685SOL    HW222692   3.676   0.664   4.269  2.7269 -1.5429  2.2846
 3686SOL     OW22693   3.199   3.559   1.138  0.0028 -0.5378  0.3148
 3686SOL    HW122694   3.271   3.514   1.181  0.6128  0.0089 -0.1347
 3686SOL    HW222695   3.231   3.649   1.135  2.3185 -1.3419  0.9139
 3687SOL     OW22696   1.474   3.370  14.148 -0.7316  0.0625 -0.4915
 3687SOL    HW122697   1.411   3.298  14.156 -0.5716  0.1704  1.7493
 3687SOL    HW222698   1.466   3.418  14.230  0.6254 -0.6172  0.0243
 3688SOL     OW22699   3.096   4.194  15.771 -0.0632  0.0352 -0.2804
 3688SOL    HW122700   3.102   4.221  15.679  0.9313 -0.9144 -0.4956
 3688SOL    HW222701   3.032   4.257  15.805  0.8048  0.7009  0.1175
 3689SOL     OW22702   1.641   4.372   2.326 -0.2702  0.2647 -0.8665
 3689SOL    HW122703   1.552   4.369   2.291 -0.1836 -1.5728 -0.9337
 3689SOL    HW222704   1.658   4.278   2.339  0.5232  0.2404 -2.0437
 3690SOL     OW22705   1.829   1.460   7.856  0.6713 -0.4130  0.4587
 3690SOL    HW122706   1.747   1.412   7.866 -1.1390  2.0655 -2.4530
 3690SOL    HW222707   1.818   1.537   7.911  1.4739  1.2546 -1.7396
 3691SOL     OW22708   3.713   0.418   0.920 -0.0544  0.5228  0.3112
 3691SOL    HW122709   3.799   0.405   0.959  1.0272  2.8245 -1.3871
 3691SOL    HW222710   3.729   0.475   0.845 -1.1785 -2.1162 -1.9535
 3692SOL     OW22711   0.719   3.252  15.233  0.5867  0.2361 -0.2086
 3692SOL    HW122712   0.737   3.322  15.170 -0.9345  1.9727  1.2520
 3692SOL    HW222713   0.645   3.219  15.183  1.9974 -3.0011 -0.1415
 3693SOL     OW22714   0.015   1.647   8.046  0.0811  0.5085 -0.0620
 3693SOL    HW122715   4.670   1.639   8.096  1.7668  2.7158  3.0112
 3693SOL    HW222716   0.034   1.553   8.041  0.8944  0.6446  0.5687
 3694SOL     OW22717   4.388   3.034   6.210  0.4313  0.2876 -0.1368
 3694SOL    HW122718   4.367   3.028   6.117  0.1460  1.1943 -0.1360
 3694SOL    HW222719   4.301   3.034   6.252 -0.5021 -1.5675 -2.1104
 3695SOL     OW22720   4.580   4.503   4.318 -0.1676  0.2008 -0.2040
 3695SOL    HW122721   4.549   4.482   4.230 -1.5416 -3.0204  1.0434
 3695SOL    HW222722   4.673   4.518   4.301 -0.7264  1.4534 -2.1414
 3696SOL     OW22723   4.629   4.044   8.183  0.0906 -0.8288  0.5169
 3696SOL    HW122724   4.702   4.059   8.122 -0.0201 -1.4115  0.2461
 3696SOL    HW222725   4.680   4.032   8.263  0.2693 -0.5983  0.4383
 3697SOL     OW22726   0.797   0.558  14.628 -0.4055 -0.3267 -0.2174
 3697SOL    HW122727   0.754   0.550  14.543  0.7667 -0.3305 -0.8040
 3697SOL    HW222728   0.719   0.542  14.681 -0.0499 -1.9996 -0.1859
 3698SOL     OW22729   4.521   0.429  13.869  0.1097  0.6072  0.1811
 3698SOL    HW122730   4.573   0.353  13.894 -0.2804  0.7606  1.5004
 3698SOL    HW222731   4.454   0.386  13.817  0.2746  1.0698 -0.4145
 3699SOL     OW22732   4.413   3.235   4.935  0.3092  0.3498 -0.6971
 3699SOL    HW122733   4.485   3.182   4.970  0.4088  1.2035  0.3908
 3699SOL    HW222734   4.365   3.274   5.008  0.9604 -0.1694  0.0099
 3700SOL     OW22735   3.038   3.167   4.334 -0.3563  0.7496 -0.3651
 3700SOL    HW122736   3.074   3.102   4.393  0.1211  0.5902 -0.8313
 3700SOL    HW222737   3.033   3.111   4.256  0.0473  0.5460 -0.2432
 3701SOL     OW22738   4.493   3.507  15.249 -0.2619  0.5308 -0.0400
 3701SOL    HW122739   4.540   3.427  15.274  1.5696  1.8611  0.7349
 3701SOL    HW222740   4.557   3.547  15.190 -0.8703  0.0941 -0.9894
 3702SOL     OW22741   0.039   4.495  10.209 -0.2239  0.2744 -0.3851
 3702SOL    HW122742   4.725   4.451  10.278 -1.1220 -1.5991 -2.2550
 3702SOL    HW222743   0.109   4.535  10.261 -0.0343 -0.2672 -0.2259
 3703SOL     OW22744   2.213   2.190   9.439 -0.2128 -0.3201 -0.0339
 3703SOL    HW122745   2.262   2.130   9.383  0.8909  1.0364 -0.4924
 3703SOL    HW222746   2.167   2.123   9.491  4.2197 -2.1504  1.4786
 3704SOL     OW22747   3.531   1.781   5.388 -0.0048 -0.2280  0.3062
 3704SOL    HW122748   3.474   1.853   5.415 -0.3210  0.5243 -2.3544
 3704SOL    HW222749   3.580   1.775   5.469 -2.4170  0.8393  1.8338
 3705SOL     OW22750   4.550   0.449   8.170 -0.0586 -0.0446 -0.1781
 3705SOL    HW122751   4.603   0.370   8.160  1.6414  0.9885  0.6599
 3705SOL    HW222752   4.570   0.471   8.261  0.3342  1.0824 -0.5320
 3706SOL     OW22753   2.569   3.250  15.217  0.2313 -0.0195 -0.1846
 3706SOL    HW122754   2.491   3.303  15.235  1.1572  0.9341  1.0295
 3706SOL    HW222755   2.628   3.323  15.198  1.1643 -0.6404  0.3279
 3707SOL     OW22756   2.541   0.647  12.478 -0.3873  0.1730  0.3053
 3707SOL    HW122757   2.460   0.652  12.428  1.4019  1.0177 -2.4949
 3707SOL    HW222758   2.534   0.571  12.536 -3.2979 -0.6368 -1.1325
 3708SOL     OW22759   2.264   0.782  10.672  0.0110 -0.7432  0.9454
 3708SOL    HW122760   2.338   0.826  10.713 -1.0190  0.3562  1.6385
 3708SOL    HW222761   2.248   0.713  10.736 -1.2608 -0.1988  1.2111
 3709SOL     OW22762   1.229   1.649   3.323  0.8607 -0.1662 -0.3967
 3709SOL    HW122763   1.241   1.684   3.412 -2.9668  0.8590 -0.2991
 3709SOL    HW222764   1.304   1.679   3.272  1.8820 -2.9209 -0.5280
 3710SOL     OW22765   1.113   4.694  15.165 -0.0781 -0.7857  0.3451
 3710SOL    HW122766   1.180   4.654  15.221  1.0836 -0.9212 -1.1227
 3710SOL    HW222767   1.166   0.030  15.130 -2.4156  0.9680  0.3845
 3711SOL     OW22768   3.976   3.559   3.455  0.4391 -0.3377  0.5756
 3711SOL    HW122769   3.912   3.488   3.463  0.4487 -0.2954  1.0240
 3711SOL    HW222770   3.924   3.631   3.490 -0.1151 -1.4173  1.9514
 3712SOL     OW22771   0.375   3.423   4.468  0.1139  0.1724  0.2586
 3712SOL    HW122772   0.365   3.497   4.528  1.5469  0.7342 -0.1855
 3712SOL    HW222773   0.389   3.354   4.532  1.1537  0.3923  0.2692
 3713SOL     OW22774   4.626   1.799  10.442 -0.2825 -0.2014 -0.2062
 3713SOL    HW122775   4.563   1.733  10.412  0.6655 -1.1851 -0.0180
 3713SOL    HW222776   4.586   1.881  10.413 -1.0853  0.3806  2.5846
 3714SOL     OW22777   0.863   3.345   7.861 -0.0094  0.5578  0.6104
 3714SOL    HW122778   0.802   3.405   7.817 -1.5776  1.5569  4.1560
 3714SOL    HW222779   0.945   3.378   7.825 -0.1726  0.7212  0.3852
 3715SOL     OW22780   1.161   1.405   2.783 -0.6538 -0.0948 -0.1192
 3715SOL    HW122781   1.094   1.421   2.849 -0.3899 -0.0705  0.1425
 3715SOL    HW222782   1.116   1.445   2.708  2.5554  2.4580 -0.6896
 3716SOL     OW22783   0.174   0.382   6.471 -0.1064 -0.2187  0.0584
 3716SOL    HW122784   0.237   0.454   6.477  1.9640 -1.9878 -0.1053
 3716SOL    HW222785   0.227   0.307   6.443 -1.1980 -1.2786  0.8084
 3717SOL     OW22786   4.579   1.635   3.420  0.3617 -0.4060  0.0843
 3717SOL    HW122787   4.555   1.628   3.512  0.6260 -1.9505  0.0232
 3717SOL    HW222788   4.494   1.668   3.388  1.2299  0.5933 -1.1875
 3718SOL     OW22789   4.623   3.419   7.435  0.2672 -0.0109 -0.3905
 3718SOL    HW122790   4.629   3.513   7.423  0.3469  0.1388  0.8193
 3718SOL    HW222791   4.598   3.411   7.527 -1.7556  0.4575 -0.8974
 3719SOL     OW22792   1.347   3.798  12.166 -0.1967  0.2212 -0.8826
 3719SOL    HW122793   1.257   3.829  12.165 -0.1534  0.3720 -0.4836
 3719SOL    HW222794   1.347   3.752  12.250  2.3424  0.1447 -0.9130
 3720SOL     OW22795   1.703   0.361   3.501  0.2123 -0.0435  0.1287
 3720SOL    HW122796   1.679   0.331   3.589  1.9683 -1.4022  0.1313
 3720SOL    HW222797   1.761   0.435   3.521  0.4533 -0.4066  0.7818
 3721SOL     OW22798   2.815   1.405   2.038 -0.5275  0.2610  0.9341
 3721SOL    HW122799   2.901   1.365   2.046 -0.7164 -0.7845 -2.0580
 3721SOL    HW222800   2.767   1.324   2.054  0.3170 -0.5518 -0.6490
 3722SOL     OW22801   0.652   1.647   4.585  0.1564  0.2085  0.0429
 3722SOL    HW122802   0.742   1.671   4.608  0.0442  0.7285 -0.0631
 3722SOL    HW222803   0.627   1.580   4.649 -0.4411  0.6696  0.2988
 3723SOL     OW22804   2.857   3.535   2.958  0.2133 -0.6776 -0.0453
 3723SOL    HW122805   2.861   3.460   3.017  0.4043 -0.4519  0.2269
 3723SOL    HW222806   2.946   3.568   2.970  0.5405 -0.9712 -1.6555
 3724SOL     OW22807   2.082   1.779   6.053  0.1047  0.2349  0.2105
 3724SOL    HW122808   2.084   1.753   5.961  1.5365  2.5902 -0.4301
 3724SOL    HW222809   1.992   1.809   6.064 -0.6378 -1.2350 -1.7940
 3725SOL     OW22810   4.633   3.447   6.597  0.1991 -0.3011 -0.5122
 3725SOL    HW122811   4.603   3.440   6.507  1.7114 -0.3294 -1.0174
 3725SOL    HW222812   4.657   3.356   6.615  0.0873 -0.2078  0.1231
 3726SOL     OW22813   3.263   0.215   1.853  0.9032 -0.2926 -0.0139
 3726SOL    HW122814   3.304   0.290   1.896  1.6155 -0.2234 -0.8099
 3726SOL    HW222815   3.340   0.168   1.823 -0.4069  0.1132 -4.0038
 3727SOL     OW22816   0.019   0.193   4.620  0.4335 -0.1716  0.0132
 3727SOL    HW122817   4.664   0.220   4.615  0.4452 -0.2913 -0.9029
 3727SOL    HW222818   0.015   0.104   4.585 -2.0138  0.1992 -0.5979
 3728SOL     OW22819   2.327   3.144   5.823 -0.5621  0.2887 -0.1524
 3728SOL    HW122820   2.301   3.056   5.852  1.0585 -0.1494 -0.0185
 3728SOL    HW222821   2.413   3.147   5.864 -0.5920 -1.5913  0.0780
 3729SOL     OW22822   3.074   2.765   3.888  0.3634  0.1248 -0.4116
 3729SOL    HW122823   3.094   2.681   3.845  0.3527  0.3694 -0.8915
 3729SOL    HW222824   2.979   2.764   3.879  0.1848 -0.6520  1.4356
 3730SOL     OW22825   1.649   0.590   7.066 -0.5911 -0.2573 -0.3947
 3730SOL    HW122826   1.566   0.570   7.109 -1.2000 -0.0994 -1.5103
 3730SOL    HW222827   1.681   0.502   7.049  0.3179 -0.2805  1.4827
 3731SOL     OW22828   1.167   1.864   2.061  1.0366 -0.1459 -0.2931
 3731SOL    HW122829   1.207   1.951   2.057  0.4328  0.1460 -0.0460
 3731SOL    HW222830   1.083   1.884   2.101  0.5393  0.6545 -1.7442
 3732SOL     OW22831   0.123   1.875   8.415  0.0297 -0.5903 -0.2083
 3732SOL    HW122832   0.097   1.930   8.341  1.8255 -0.0689 -0.4431
 3732SOL    HW222833   0.218   1.875   8.403 -0.0540  0.0355 -0.8969
 3733SOL     OW22834   4.144   2.136  16.616 -0.1970 -0.4323 -0.2154
 3733SOL    HW122835   4.114   2.183  16.537 -1.4021  0.6945  0.9115
 3733SOL    HW222836   4.152   2.044  16.593  3.0838  0.0477 -0.9642
 3734SOL     OW22837   3.744   0.906   6.943 -0.0313  0.0113 -0.2267
 3734SOL    HW122838   3.740   0.999   6.918 -1.4839  0.7083  2.6018
 3734SOL    HW222839   3.658   0.886   6.980  1.1502 -1.1495  1.9094
 3735SOL     OW22840   1.360   1.406   9.783 -0.1449 -0.1248 -0.1759
 3735SOL    HW122841   1.409   1.383   9.704  0.3461 -1.7363  0.5964
 3735SOL    HW222842   1.329   1.319   9.811  2.3122 -1.1841 -0.7409
 3736SOL     OW22843   3.580   2.512  13.313 -0.7413 -0.0104  0.1565
 3736SOL    HW122844   3.675   2.522  13.314 -0.6630 -0.7376  0.0074
 3736SOL    HW222845   3.572   2.471  13.227  0.7645  2.1012 -0.9971
 3737SOL     OW22846   2.130   0.344   5.993  0.4100 -0.5888 -0.0753
 3737SOL    HW122847   2.136   0.346   5.897  1.8327  0.1493  0.0282
 3737SOL    HW222848   2.194   0.410   6.020 -0.2805 -0.1568  0.5056
 3738SOL     OW22849   0.106   0.893  11.019  0.6041  0.4136  0.3808
 3738SOL    HW122850   0.025   0.849  10.991  0.1945  0.4956  1.4497
 3738SOL    HW222851   0.129   0.941  10.939 -2.1516 -0.0121 -0.6742
 3739SOL     OW22852   2.962   1.246   5.291 -0.3301  0.0422 -0.2712
 3739SOL    HW122853   2.988   1.307   5.360 -1.4664 -0.0816  0.2750
 3739SOL    HW222854   2.912   1.181   5.341  0.9821  0.7841  1.9758
 3740SOL     OW22855   3.416   3.410   4.769 -0.3446  0.4201 -0.3510
 3740SOL    HW122856   3.424   3.371   4.857 -0.8666  0.0216 -0.4770
 3740SOL    HW222857   3.394   3.337   4.711 -2.2252 -0.1983  1.1205
 3741SOL     OW22858   3.631   0.700  14.908  0.8075 -0.5853  0.4319
 3741SOL    HW122859   3.602   0.721  14.819 -0.4021  2.0141  1.4685
 3741SOL    HW222860   3.605   0.608  14.921 -0.3994 -0.2508  0.4012
 3742SOL     OW22861   4.185   4.204  14.122 -0.6919 -0.2088  0.1426
 3742SOL    HW122862   4.254   4.152  14.081 -0.2232 -1.4611  2.5434
 3742SOL    HW222863   4.229   4.269  14.177  2.2922 -1.2314 -1.0110
 3743SOL     OW22864   2.098   2.320   6.061  0.5057  0.0769 -0.2537
 3743SOL    HW122865   2.051   2.267   6.125  0.4758  2.7434  1.9139
 3743SOL    HW222866   2.018   2.359   6.024 -0.8720 -1.0338  1.5340
 3744SOL     OW22867   1.723   2.708   2.671 -0.2722 -0.0528 -0.0336
 3744SOL    HW122868   1.710   2.802   2.680 -2.2332 -0.2837 -0.6912
 3744SOL    HW222869   1.757   2.683   2.757  0.3993 -2.7982 -1.1027
 3745SOL     OW22870   0.766   1.288   0.121  0.2402 -0.4989  0.0438
 3745SOL    HW122871   0.767   1.326   0.210 -1.8738  0.8317 -0.4903
 3745SOL    HW222872   0.844   1.316   0.074  0.5510 -1.0379  0.2431
 3746SOL     OW22873   3.326   0.503  15.121 -0.1204  0.1653 -0.0857
 3746SOL    HW122874   3.357   0.574  15.178  0.9241 -0.9443  0.7409
 3746SOL    HW222875   3.243   0.532  15.085 -0.3848 -0.1009  0.3112
 3747SOL     OW22876   1.457   1.749   6.189  0.5684 -0.2019  0.2679
 3747SOL    HW122877   1.382   1.697   6.161 -0.0627  0.9597 -0.1887
 3747SOL    HW222878   1.473   1.798   6.108  0.3576  1.7933  1.4355
 3748SOL     OW22879   4.640   4.604   2.485  0.3749  0.1178 -0.1001
 3748SOL    HW122880   4.591   4.529   2.520 -0.8159  1.1588  0.4345
 3748SOL    HW222881   4.711   4.569   2.431  0.8113 -1.4686  1.5198
 3749SOL     OW22882   3.277   3.982   6.561 -0.3366 -0.4331 -0.0094
 3749SOL    HW122883   3.205   3.930   6.599 -1.7068 -0.0994 -2.1295
 3749SOL    HW222884   3.275   4.047   6.631 -0.4883 -1.6164  1.0848
 3750SOL     OW22885   3.878   4.267   5.878 -0.3507 -0.4963  0.5397
 3750SOL    HW122886   3.862   4.326   5.805  1.0195 -0.6288  0.1221
 3750SOL    HW222887   3.860   4.333   5.944 -1.0743 -2.0281  1.8754
 3751SOL     OW22888   4.008   1.831   4.849  0.2314 -0.3813  0.7155
 3751SOL    HW122889   4.007   1.737   4.831  0.1737 -0.4560  1.0921
 3751SOL    HW222890   3.946   1.868   4.785  0.2593 -0.4931  0.6243
 3752SOL     OW22891   0.257   4.366   5.753  0.2337 -0.4151 -0.0074
 3752SOL    HW122892   0.163   4.368   5.768  0.1277  0.7350 -0.8325
 3752SOL    HW222893   0.294   4.379   5.841  0.4524 -2.3794  0.1883
 3753SOL     OW22894   1.615   1.365   4.822 -0.0387 -0.2976 -0.2835
 3753SOL    HW122895   1.583   1.277   4.845 -3.2820  0.6824 -0.9392
 3753SOL    HW222896   1.599   1.360   4.727  0.2791  0.4578 -0.3724
 3754SOL     OW22897   2.328   0.372   1.385 -0.2791  0.1602  0.3370
 3754SOL    HW122898   2.363   0.290   1.420  1.4840  0.5552 -0.4814
 3754SOL    HW222899   2.261   0.396   1.449 -0.9649 -0.5741 -0.1173
 3755SOL     OW22900   0.840   0.541   4.725 -0.4800 -0.5200  0.4452
 3755SOL    HW122901   0.847   0.600   4.801  0.4406  0.8199 -0.6753
 3755SOL    HW222902   0.853   0.606   4.655 -0.6510 -1.5350 -0.5249
 3756SOL     OW22903   2.449   4.460   4.040  0.1802 -0.0998 -0.4335
 3756SOL    HW122904   2.451   4.520   3.965 -0.7043  1.3107  0.6722
 3756SOL    HW222905   2.446   4.376   3.996  0.0597  0.3774 -1.3378
 3757SOL     OW22906   3.448   1.043   1.341 -0.4185 -0.4174  0.1777
 3757SOL    HW122907   3.513   1.012   1.404  0.4578  1.6921  0.2878
 3757SOL    HW222908   3.419   0.971   1.284  0.6607 -0.9091  0.2489
 3758SOL     OW22909   3.117   3.932   4.348 -0.4596  0.1906  0.5366
 3758SOL    HW122910   3.054   4.001   4.329 -2.3771 -1.3497  1.3979
 3758SOL    HW222911   3.068   3.872   4.404  2.1137 -0.4144  2.1684
 3759SOL     OW22912   1.136   2.042  17.616  0.0548 -0.4484 -0.5096
 3759SOL    HW122913   1.201   2.110  17.633 -0.6701  0.0632  0.1915
 3759SOL    HW222914   1.180   1.998  17.543 -0.2905 -1.1499 -0.2859
 3760SOL     OW22915   0.088   2.591  16.862  0.2098  0.0154  0.1877
 3760SOL    HW122916   0.158   2.581  16.798  2.0723  0.7903  2.1032
 3760SOL    HW222917   0.013   2.618  16.808  0.1785 -0.1928  0.1245
 3761SOL     OW22918   2.549   2.841   6.087 -0.0743  0.0076  0.6114
 3761SOL    HW122919   2.599   2.880   6.016  0.1106  1.5711  1.5928
 3761SOL    HW222920   2.517   2.760   6.047 -0.7906 -0.1272  1.4377
 3762SOL     OW22921   3.120   4.054   8.298 -0.5881 -0.6270 -0.5259
 3762SOL    HW122922   3.103   3.983   8.237  2.9140 -0.0860 -2.1408
 3762SOL    HW222923   3.110   4.016   8.385  0.6988  1.5561  0.5777
 3763SOL     OW22924   0.522   4.618   6.935 -0.2160  0.4444  0.3220
 3763SOL    HW122925   0.481   4.645   6.853  0.7552  1.3514  0.1430
 3763SOL    HW222926   0.460   4.637   7.006 -0.1789  2.1992 -0.1422
 3764SOL     OW22927   0.052   0.552   5.693  0.4556  0.0973 -0.0676
 3764SOL    HW122928   0.122   0.601   5.650 -0.3976 -0.2797 -1.8874
 3764SOL    HW222929   0.096   0.495   5.756 -0.9664  1.2535  1.9905
 3765SOL     OW22930   1.294   0.522   3.856 -0.2611  0.3602  0.3261
 3765SOL    HW122931   1.301   0.433   3.891 -1.4005  0.0540 -0.2275
 3765SOL    HW222932   1.325   0.502   3.768  2.6216 -2.3803  2.0002
 3766SOL     OW22933   2.473   3.839   4.879  0.2020  0.2275 -0.1485
 3766SOL    HW122934   2.416   3.848   4.803 -2.8073  0.9469  2.1820
 3766SOL    HW222935   2.423   3.885   4.946  1.7387  0.6405  0.7114
 3767SOL     OW22936   3.587   4.252   2.838  0.7990 -0.2716  0.3761
 3767SOL    HW122937   3.534   4.253   2.758  1.2774 -1.5014  0.0486
 3767SOL    HW222938   3.625   4.165   2.845 -0.5722 -1.2150 -3.6627
 3768SOL     OW22939   0.610   4.433   0.868 -0.1844 -0.0153 -0.4046
 3768SOL    HW122940   0.681   4.378   0.834 -0.1511 -0.3659  0.2283
 3768SOL    HW222941   0.654   4.491   0.930 -1.1036 -0.2411  0.4682
 3769SOL     OW22942   3.709   4.302  16.831 -0.1579 -0.0064  0.2679
 3769SOL    HW122943   3.740   4.213  16.847  2.1279  0.8590  0.5287
 3769SOL    HW222944   3.657   4.316  16.910 -0.5167 -1.0319  0.2226
 3770SOL     OW22945   1.184   1.610  16.636  0.1303  0.4989 -0.3308
 3770SOL    HW122946   1.210   1.695  16.602  0.5591 -0.4494 -2.3724
 3770SOL    HW222947   1.089   1.619  16.641 -0.2551 -3.2607 -0.7996
 3771SOL     OW22948   3.317   0.235  16.833 -0.3172  0.1850 -0.5058
 3771SOL    HW122949   3.334   0.238  16.927 -0.3613  0.5964 -0.5080
 3771SOL    HW222950   3.225   0.264  16.834  0.1485  1.6438 -0.1741
 3772SOL     OW22951   3.582   3.538   8.001 -0.3095 -0.2737  0.1334
 3772SOL    HW122952   3.596   3.633   8.000  1.6389 -0.5837 -0.9588
 3772SOL    HW222953   3.546   3.523   7.914  0.1502 -0.9186  0.0557
 3773SOL     OW22954   1.738   4.714   7.005 -0.9165  0.2895 -0.3963
 3773SOL    HW122955   1.783   4.637   6.969 -1.9700 -0.7492  0.4734
 3773SOL    HW222956   1.647   4.685   7.010 -0.4309 -1.1773  0.0543
 3774SOL     OW22957   2.487   1.845   3.045  0.1143  0.3398  0.1437
 3774SOL    HW122958   2.499   1.767   2.990 -2.1572 -0.8016  1.2741
 3774SOL    HW222959   2.401   1.822   3.080 -1.3353  2.0690 -2.2760
 3775SOL     OW22960   1.938   2.454   8.710  0.7437  0.5070  0.0189
 3775SOL    HW122961   1.878   2.525   8.733 -1.1164 -0.5456 -1.6065
 3775SOL    HW222962   1.951   2.407   8.792 -0.1246  0.4188  0.0980
 3776SOL     OW22963   0.775   0.644   1.139  0.5885  0.0687  0.9503
 3776SOL    HW122964   0.693   0.652   1.091 -0.0504  1.0172  2.1925
 3776SOL    HW222965   0.841   0.615   1.076 -0.1216  1.2850 -0.3575
 3777SOL     OW22966   3.654   0.321  16.510  0.0088  1.2677 -0.8517
 3777SOL    HW122967   3.629   0.408  16.542  0.4175  0.9610  0.3176
 3777SOL    HW222968   3.598   0.328  16.433 -1.8015  1.4673  0.4936
 3778SOL     OW22969   1.859   3.361  11.598 -0.2856 -0.1876 -0.1057
 3778SOL    HW122970   1.849   3.360  11.693  0.9451 -1.6450  0.0226
 3778SOL    HW222971   1.771   3.389  11.573 -0.1385  0.7286  0.4304
 3779SOL     OW22972   1.538   0.301   6.024  0.3787 -0.2614 -0.5450
 3779SOL    HW122973   1.608   0.357   5.992  0.5444 -0.0263  0.2234
 3779SOL    HW222974   1.503   0.361   6.090  0.5402 -1.1296  0.3205
 3780SOL     OW22975   2.654   1.020   7.112 -0.2151  0.5201  0.0540
 3780SOL    HW122976   2.719   0.955   7.085 -0.5560  0.3071 -0.2423
 3780SOL    HW222977   2.585   0.969   7.155  2.2630 -0.7547  2.4957
 3781SOL     OW22978   0.995   0.921   7.674  0.1435  0.0589 -0.3502
 3781SOL    HW122979   0.995   0.994   7.612 -0.0408  1.6733  1.5458
 3781SOL    HW222980   0.957   0.951   7.757 -0.5986 -1.0944 -0.2676
 3782SOL     OW22981   3.286   4.596  17.737  0.0029 -0.6540 -0.0405
 3782SOL    HW122982   3.209   4.567  17.688  1.1778 -1.5468 -1.3870
 3782SOL    HW222983   3.340   4.517  17.728  1.4360  0.0624  2.3232
 3783SOL     OW22984   1.717   0.939   7.876  0.0215 -0.2162  0.0285
 3783SOL    HW122985   1.653   0.888   7.924 -2.0006 -0.6762 -3.1957
 3783SOL    HW222986   1.783   0.870   7.867 -1.3223 -1.7370  1.9862
 3784SOL     OW22987   1.767   4.372   0.006 -0.2987  0.0390 -0.0258
 3784SOL    HW122988   1.791   4.327   0.087 -2.0986 -0.5455  0.1699
 3784SOL    HW222989   1.780   4.303  17.686 -0.9791  0.3748 -0.5202
 3785SOL     OW22990   1.810   1.852   2.187  0.2355 -0.0065 -0.1080
 3785SOL    HW122991   1.883   1.912   2.170 -0.9386  1.3367 -0.4316
 3785SOL    HW222992   1.843   1.766   2.162  0.1518  0.8275 -3.0411
 3786SOL     OW22993   3.526   2.343   8.501  0.4513 -0.0590  0.4007
 3786SOL    HW122994   3.466   2.411   8.470  0.7695  0.7003  1.4721
 3786SOL    HW222995   3.543   2.371   8.591  0.5980 -1.8085  0.9222
 3787SOL     OW22996   1.359   1.471   8.129  0.1514  0.0998  0.2156
 3787SOL    HW122997   1.296   1.537   8.159 -0.2286  0.2750 -0.9769
 3787SOL    HW222998   1.383   1.441   8.216  2.7798  0.9512 -0.2288
 3788SOL     OW22999   3.983   1.044   7.734  0.4186 -0.0487  0.2170
 3788SOL    HW123000   4.012   0.981   7.668 -1.6133  0.1675 -0.8904
 3788SOL    HW223001   3.941   0.981   7.792  2.8908 -2.0177 -0.1373
 3789SOL     OW23002   1.604   3.196  12.420  0.0609 -0.2141  0.1110
 3789SOL    HW123003   1.667   3.136  12.460  0.4208  0.4671  0.5554
 3789SOL    HW223004   1.592   3.177  12.327 -1.9322 -0.0416  0.3180
 3790SOL     OW23005   1.235   0.665  11.410 -0.1128  0.1962 -0.1000
 3790SOL    HW123006   1.208   0.620  11.489  1.2482  1.5245  1.1115
 3790SOL    HW223007   1.318   0.704  11.438 -0.8519  1.5222  0.2612
 3791SOL     OW23008   2.308   2.078   8.350 -0.2558  0.0605  0.7452
 3791SOL    HW123009   2.364   2.117   8.417  0.0246  1.9831 -0.5957
 3791SOL    HW223010   2.297   1.989   8.382 -0.7563 -0.5850 -1.1787
 3792SOL     OW23011   0.193   3.820  16.030  0.2192  0.2604  0.0313
 3792SOL    HW123012   0.279   3.808  16.070  1.1217  0.4422 -1.8495
 3792SOL    HW223013   0.197   3.910  15.996  2.7444 -0.9958 -3.0454
 3793SOL     OW23014   3.042   4.019  11.468 -0.1302  0.1502  0.5120
 3793SOL    HW123015   3.050   3.927  11.445 -2.3720 -0.4055  1.9837
 3793SOL    HW223016   3.085   4.017  11.553  1.0201  0.8103 -0.0523
 3794SOL     OW23017   0.643   4.296   8.456  0.4772 -0.1235 -0.8031
 3794SOL    HW123018   0.647   4.204   8.431  0.5239 -0.2508 -0.3205
 3794SOL    HW223019   0.668   4.350   8.381  1.2832 -0.1960 -0.5803
 3795SOL     OW23020   0.169   2.239   7.999 -0.4308 -0.1422 -0.2935
 3795SOL    HW123021   0.115   2.317   7.986  1.5951  1.2644 -0.1192
 3795SOL    HW223022   0.261   2.265   8.006 -0.4189 -0.4730  0.9013
 3796SOL     OW23023   2.505   2.771  13.185  0.1214 -0.0381 -0.0844
 3796SOL    HW123024   2.544   2.845  13.138  0.5560 -0.1061  0.1620
 3796SOL    HW223025   2.439   2.752  13.118 -0.4987  2.2106 -0.0878
 3797SOL     OW23026   0.034   3.251  11.816 -0.6070  0.1280 -0.3942
 3797SOL    HW123027   0.027   3.306  11.738  2.0612  1.1943  0.1146
 3797SOL    HW223028   0.107   3.300  11.853 -0.3784 -1.0520  0.7211
 3798SOL     OW23029   4.586   3.755   7.774 -0.6004  0.3315 -0.0251
 3798SOL    HW123030   4.676   3.720   7.773 -0.5616  0.4242  0.2903
 3798SOL    HW223031   4.587   3.800   7.858 -0.9570 -2.3713  1.4277
 3799SOL     OW23032   2.708   4.240   2.775  0.7316 -0.4966  0.4573
 3799SOL    HW123033   2.724   4.274   2.863  0.7810  0.9854 -0.1094
 3799SOL    HW223034   2.787   4.190   2.753  1.2493 -0.8090  2.9791
 3800SOL     OW23035   0.889   3.513   8.381 -0.2215 -0.0831  0.0832
 3800SOL    HW123036   0.964   3.476   8.427 -1.7695 -2.2570  0.8280
 3800SOL    HW223037   0.891   3.471   8.295  2.4189  0.7003 -0.2449
 3801SOL     OW23038   3.163   4.507   8.549  0.0682 -0.3998 -0.0167
 3801SOL    HW123039   3.141   4.493   8.642  0.3150 -0.5868  0.0161
 3801SOL    HW223040   3.219   4.431   8.531  0.8738  0.1132  0.3311
 3802SOL     OW23041   1.405   0.404  11.184 -0.5712  0.5240  0.0199
 3802SOL    HW123042   1.465   0.331  11.175  0.4585  1.6404 -2.0539
 3802SOL    HW223043   1.388   0.403  11.279  0.9717  0.2019  0.2935
 3803SOL     OW23044   1.622   4.215   5.213  0.2083  0.0919 -0.1857
 3803SOL    HW123045   1.580   4.175   5.289  1.4399  0.8438  0.8889
 3803SOL    HW223046   1.552   4.254   5.160  1.7058  0.7094 -1.6899
 3804SOL     OW23047   2.949   2.688   4.584  0.1256  0.6102 -0.1076
 3804SOL    HW123048   2.890   2.761   4.563  0.6833  1.7842  2.3472
 3804SOL    HW223049   2.896   2.640   4.647  1.3176 -2.4994 -1.4731
 3805SOL     OW23050   2.286   1.969   7.851 -0.1813 -0.2933 -0.1696
 3805SOL    HW123051   2.238   2.001   7.774  0.1493  1.1071  0.1945
 3805SOL    HW223052   2.257   2.029   7.920  0.1766 -1.5202  1.0398
 3806SOL     OW23053   0.964   4.011   2.891  0.0874 -0.3043 -0.3258
 3806SOL    HW123054   0.919   3.930   2.912  0.3290 -0.6227 -1.0434
 3806SOL    HW223055   0.896   4.070   2.859  1.6558  1.2818 -0.7598
 3807SOL     OW23056   3.089   1.772  12.148  0.5532  0.2872  0.4140
 3807SOL    HW123057   3.095   1.728  12.233  1.3236 -1.2323 -0.4119
 3807SOL    HW223058   3.080   1.691  12.097 -0.8833  1.9723 -1.9918
 3808SOL     OW23059   2.910   2.746   8.559 -0.2881 -0.2344 -0.0784
 3808SOL    HW123060   2.952   2.757   8.645  2.1165 -3.1467 -0.8942
 3808SOL    HW223061   2.876   2.835   8.554 -1.4261 -0.6591  0.2399
 3809SOL     OW23062   2.213   0.853  12.736 -0.1997 -0.5011 -0.4924
 3809SOL    HW123063   2.194   0.792  12.664 -1.5118 -0.6801  0.0122
 3809SOL    HW223064   2.297   0.816  12.766 -0.7663  0.0482  1.7636
 3810SOL     OW23065   3.177   2.310   6.944 -0.3327  0.0425 -0.1451
 3810SOL    HW123066   3.089   2.342   6.926 -0.9525 -2.0788 -0.8273
 3810SOL    HW223067   3.182   2.319   7.040 -1.2799  1.5848 -0.2336
 3811SOL     OW23068   3.262   0.497  14.648 -0.2166  0.1570  0.0513
 3811SOL    HW123069   3.321   0.442  14.699  0.0104  1.2413  0.9554
 3811SOL    HW223070   3.257   0.434  14.577 -1.2468 -1.0935  1.2107
 3812SOL     OW23071   4.168   2.916   8.039 -0.0731 -0.7554 -0.4845
 3812SOL    HW123072   4.191   3.009   8.034 -0.6686 -0.5891 -0.0906
 3812SOL    HW223073   4.179   2.909   8.134  1.6959 -1.7361 -0.7740
 3813SOL     OW23074   3.869   0.709   4.241 -0.4010 -0.0378 -1.0522
 3813SOL    HW123075   3.837   0.702   4.151  0.3277  0.5828 -1.3624
 3813SOL    HW223076   3.963   0.705   4.223 -0.3064  1.0464 -0.8284
 3814SOL     OW23077   1.611   3.019  12.776 -0.1551  0.0577 -0.1421
 3814SOL    HW123078   1.572   2.963  12.843 -0.0181  1.0389  0.7553
 3814SOL    HW223079   1.538   3.080  12.765  0.0949 -0.2979 -3.7982
 3815SOL     OW23080   1.782   2.592   7.977 -0.4468  0.2943  0.2762
 3815SOL    HW123081   1.781   2.499   8.000  1.3117 -0.1551 -1.4406
 3815SOL    HW223082   1.768   2.588   7.882  4.1952  0.5581 -0.4237
 3816SOL     OW23083   2.708   3.337   4.803 -0.3601  0.5093  0.0565
 3816SOL    HW123084   2.633   3.383   4.839  0.1111  0.7849  0.6810
 3816SOL    HW223085   2.687   3.350   4.710  0.4466  0.8616 -0.0781
 3817SOL     OW23086   4.230   1.324   4.687  0.0040  0.4703 -0.1707
 3817SOL    HW123087   4.205   1.232   4.696  1.0148  0.4856  2.9067
 3817SOL    HW223088   4.206   1.355   4.774 -2.2393  0.6105 -0.8327
 3818SOL     OW23089   2.728   1.561  14.778 -0.8482  0.0032  0.0784
 3818SOL    HW123090   2.715   1.481  14.727 -0.8730  0.7006 -1.0102
 3818SOL    HW223091   2.775   1.609  14.710  0.6804 -0.5536  0.7383
 3819SOL     OW23092   3.082   4.447   3.870  0.2498  0.8281  0.0025
 3819SOL    HW123093   2.994   4.424   3.900 -0.0115  1.3101 -0.3995
 3819SOL    HW223094   3.113   4.500   3.944 -1.2409 -2.2039  2.8133
 3820SOL     OW23095   3.106   0.079   0.042 -0.0817 -0.2421 -0.5364
 3820SOL    HW123096   3.055   0.108  17.711 -1.0787  0.2660  0.3295
 3820SOL    HW223097   3.168   0.021  17.742  2.0507  0.5931  1.3595
 3821SOL     OW23098   3.397   1.728   5.723 -0.2222  0.0498  0.2776
 3821SOL    HW123099   3.482   1.745   5.683  0.0932  1.5792  1.5557
 3821SOL    HW223100   3.428   1.741   5.813  0.3718  0.5789 -0.0058
 3822SOL     OW23101   3.160   4.565   6.356 -0.1015 -0.0774  0.3169
 3822SOL    HW123102   3.191   4.521   6.435 -1.7724  1.4430  1.8432
 3822SOL    HW223103   3.245   4.558   6.313  0.7949 -1.3794  2.2988
 3823SOL     OW23104   3.803   1.989   4.378  0.2664 -0.1829  0.2307
 3823SOL    HW123105   3.851   1.929   4.322 -0.3913 -0.7399  0.2631
 3823SOL    HW223106   3.717   1.993   4.336  1.0982 -0.4118 -1.5089
 3824SOL     OW23107   1.871   0.792   4.645 -0.0502  0.4707 -0.0883
 3824SOL    HW123108   1.904   0.864   4.590 -2.1076  1.3587 -0.1640
 3824SOL    HW223109   1.906   0.718   4.595  0.9322  0.1316  1.1147
 3825SOL     OW23110   3.025   3.974  15.516  0.4683 -0.7110  0.3518
 3825SOL    HW123111   3.019   3.891  15.564 -0.5147 -0.7573  0.1388
 3825SOL    HW223112   3.111   3.956  15.477 -0.2634 -0.4243 -1.4023
 3826SOL     OW23113   1.228   3.060   1.541  0.1857  0.3054  0.1848
 3826SOL    HW123114   1.213   3.074   1.447 -0.6551  2.4226  0.6222
 3826SOL    HW223115   1.141   3.029   1.567 -0.5607  0.2391 -2.3573
 3827SOL     OW23116   1.579   3.256   3.767  0.3979 -0.0215  0.4095
 3827SOL    HW123117   1.588   3.347   3.740 -0.5909 -0.0367  0.0207
 3827SOL    HW223118   1.593   3.223   3.678 -0.2327  1.1511 -0.1224
 3828SOL     OW23119   4.407   2.945   3.170  0.2249  0.3364  0.9016
 3828SOL    HW123120   4.346   2.977   3.236 -1.4164  0.7239 -0.8115
 3828SOL    HW223121   4.482   2.919   3.223 -0.1831  0.3797  1.4916
 3829SOL     OW23122   0.337   4.604  14.738 -0.0359 -0.2471 -0.0790
 3829SOL    HW123123   0.261   4.546  14.746  1.1594 -1.8547 -0.2519
 3829SOL    HW223124   0.321   4.628  14.647  1.7343  0.0302 -0.3257
 3830SOL     OW23125   2.945   3.072   1.985  0.2085 -0.1052  0.2667
 3830SOL    HW123126   2.936   3.108   2.074 -0.2695 -1.9127  0.9614
 3830SOL    HW223127   3.038   3.069   1.964  0.1423 -0.3535 -0.0013
 3831SOL     OW23128   0.525   1.094  15.669 -0.5825  0.7556  0.3325
 3831SOL    HW123129   0.599   1.034  15.664 -0.2493  1.2636 -0.7470
 3831SOL    HW223130   0.448   1.038  15.661  0.6739 -0.9505  0.1730
 3832SOL     OW23131   3.190   3.092  16.236 -0.4986 -0.0938 -0.3672
 3832SOL    HW123132   3.189   3.126  16.147 -2.0008  0.4893 -0.1365
 3832SOL    HW223133   3.180   3.170  16.291 -3.9338 -0.0756 -1.0117
 3833SOL     OW23134   4.481   2.492  14.638 -0.1736  0.3190 -0.1697
 3833SOL    HW123135   4.519   2.466  14.554  0.7723 -2.7295  1.2218
 3833SOL    HW223136   4.429   2.414  14.658  1.1856 -0.6054 -0.2858
 3834SOL     OW23137   2.418   1.077   5.545 -0.1294  0.3692 -0.4897
 3834SOL    HW123138   2.336   1.072   5.594 -0.8604  0.3012 -1.7074
 3834SOL    HW223139   2.433   0.985   5.520  0.9637  0.4529 -0.1343
 3835SOL     OW23140   1.102   1.573   8.749  0.4807  0.1285 -1.2255
 3835SOL    HW123141   1.103   1.585   8.654  0.4965  0.3815 -1.1924
 3835SOL    HW223142   1.195   1.562   8.766  0.0371 -1.4019  0.3042
 3836SOL     OW23143   3.625   2.151  16.662 -0.0281  0.3370 -0.5098
 3836SOL    HW123144   3.685   2.077  16.657 -0.3150 -0.0961  2.2009
 3836SOL    HW223145   3.538   2.114  16.644  0.4717 -2.1909  2.2261
 3837SOL     OW23146   1.142   3.936   8.070 -0.2937  0.1146 -0.3561
 3837SOL    HW123147   1.142   3.841   8.061  0.5925  0.0570  0.2647
 3837SOL    HW223148   1.236   3.955   8.071  0.1006 -1.8614 -0.2709
 3838SOL     OW23149   3.314   4.279   3.812  0.1757  0.1773 -0.2380
 3838SOL    HW123150   3.237   4.333   3.828 -1.2310 -1.7788 -0.4740
 3838SOL    HW223151   3.387   4.321   3.859  0.7761 -1.8357  0.6026
 3839SOL     OW23152   0.710   4.345   4.650  0.6443  0.6964 -0.1323
 3839SOL    HW123153   0.729   4.409   4.582 -1.5645  1.4047 -0.0707
 3839SOL    HW223154   0.796   4.314   4.679  0.5915  2.3117  1.7279
 3840SOL     OW23155   4.009   1.644   1.874  0.1192  0.2043  0.2292
 3840SOL    HW123156   4.006   1.557   1.834 -1.4420 -1.0696  3.1384
 3840SOL    HW223157   3.941   1.691   1.826  0.5576  1.3625  0.7491
 3841SOL     OW23158   0.250   3.222   9.398 -0.2110  0.2858  0.4727
 3841SOL    HW123159   0.242   3.300   9.343  0.7689 -1.3668 -2.0693
 3841SOL    HW223160   0.345   3.211   9.406 -0.3037 -2.4386 -1.9893
 3842SOL     OW23161   1.368   2.564  15.736  0.2162  0.2217 -0.1573
 3842SOL    HW123162   1.290   2.611  15.766  2.3747  2.8268  1.3650
 3842SOL    HW223163   1.365   2.562  15.640 -1.4703  0.8084 -0.1169
 3843SOL     OW23164   3.275   1.468   2.892 -0.1716 -0.1338 -0.1979
 3843SOL    HW123165   3.359   1.441   2.856 -0.0471  2.0246 -1.5065
 3843SOL    HW223166   3.212   1.425   2.834  1.2328 -2.0121 -0.3054
 3844SOL     OW23167   4.673   1.935   7.706  0.1966  0.9783 -0.0893
 3844SOL    HW123168   4.631   2.015   7.675 -1.3747 -0.1680 -0.9104
 3844SOL    HW223169   4.642   1.932   7.796  0.4005 -0.3314 -0.0563
 3845SOL     OW23170   2.665   0.736   8.186  0.4093 -0.6163 -0.1415
 3845SOL    HW123171   2.664   0.699   8.098 -1.0051  0.1598 -0.4534
 3845SOL    HW223172   2.588   0.691   8.221 -1.0904  1.4257 -0.7892
 3846SOL     OW23173   4.551   2.909  10.119  1.0861 -0.1964  0.4147
 3846SOL    HW123174   4.559   2.824  10.161  0.5627  0.2485  1.4170
 3846SOL    HW223175   4.541   2.882  10.028 -4.2540  1.4446  0.5450
 3847SOL     OW23176   1.256   1.250  10.185 -0.1388  0.6389  0.2759
 3847SOL    HW123177   1.268   1.278  10.275  2.2713  0.3845  0.0413
 3847SOL    HW223178   1.325   1.184  10.171 -0.8626 -0.3596  1.4045
 3848SOL     OW23179   2.099   2.038   7.657 -0.7845 -0.9154  0.4296
 3848SOL    HW123180   2.127   2.115   7.608  1.8348 -1.6735  0.7476
 3848SOL    HW223181   2.011   2.062   7.687 -0.6258 -0.0485  0.1943
 3849SOL     OW23182   2.663   3.858   8.669 -0.4917  0.5365 -0.6424
 3849SOL    HW123183   2.582   3.856   8.720 -0.8627  1.6262 -1.1739
 3849SOL    HW223184   2.648   3.787   8.607 -0.4233 -0.8581  0.9414
 3850SOL     OW23185   4.572   0.085   2.334 -0.1125 -0.6346  0.0832
 3850SOL    HW123186   4.600   0.016   2.393 -0.1184 -2.2456 -1.8097
 3850SOL    HW223187   4.480   0.073   2.310 -0.0541  1.3484 -1.1396
 3851SOL     OW23188   0.252   4.344  16.256  0.3723 -0.6807  0.0135
 3851SOL    HW123189   0.195   4.406  16.210  1.1684  1.3160  1.6964
 3851SOL    HW223190   0.227   4.259  16.221  0.3622 -0.2151 -1.1221
 3852SOL     OW23191   3.402   4.507   2.793  0.0676  0.2982  0.3482
 3852SOL    HW123192   3.438   4.442   2.732 -0.0548  1.0579 -0.5434
 3852SOL    HW223193   3.474   4.568   2.810  0.1483 -0.3434  2.3268
 3853SOL     OW23194   3.086   2.229   3.574 -0.8174 -0.2627 -0.1081
 3853SOL    HW123195   3.049   2.208   3.488 -1.1495  0.4283 -0.1360
 3853SOL    HW223196   3.066   2.154   3.630 -3.5532  0.1301 -0.5661
 3854SOL     OW23197   0.316   1.036  11.608 -0.2453 -0.2156 -0.6942
 3854SOL    HW123198   0.310   1.003  11.697 -2.6160 -1.2124 -1.2344
 3854SOL    HW223199   0.240   1.093  11.597 -0.1083  0.1083  0.0168
 3855SOL     OW23200   2.642   3.637   7.646 -0.1169  0.4535  0.0303
 3855SOL    HW123201   2.581   3.583   7.696 -1.0606  1.5969  0.1197
 3855SOL    HW223202   2.714   3.580   7.619 -1.9407 -1.1626 -1.3403
 3856SOL     OW23203   0.049   1.525  16.756  0.3919  0.2205 -0.2616
 3856SOL    HW123204   0.060   1.532  16.850 -0.9113  2.1872 -0.2491
 3856SOL    HW223205   0.098   1.446  16.733  1.5549  1.2146 -1.2060
 3857SOL     OW23206   4.651   3.009  16.689 -0.1336 -0.2433  0.0848
 3857SOL    HW123207   4.660   3.103  16.699 -2.2852  0.0497 -0.6919
 3857SOL    HW223208   4.668   2.998  16.595  1.8322  0.8284  0.3116
 3858SOL     OW23209   0.465   3.849  17.668  0.2940 -0.8773 -0.2672
 3858SOL    HW123210   0.518   3.892  17.601 -0.5267 -1.2320 -1.1420
 3858SOL    HW223211   0.381   3.878  17.632  0.2931 -1.6270 -0.8774
 3859SOL     OW23212   3.232   0.394   8.646  0.0992 -0.5651  0.3946
 3859SOL    HW123213   3.137   0.404   8.655 -0.0953 -1.2855 -0.8511
 3859SOL    HW223214   3.251   0.414   8.737  0.5985  2.0152 -0.2740
 3860SOL     OW23215   2.822   2.320   7.610 -0.3231  0.2925  0.0281
 3860SOL    HW123216   2.745   2.373   7.593 -0.6610  0.4890  2.1839
 3860SOL    HW223217   2.782   2.240   7.644 -0.0088  0.2318  0.2598
 3861SOL     OW23218   1.447   0.043   9.697 -0.8516 -0.2302 -0.1064
 3861SOL    HW123219   1.392   4.704   9.717  1.1355 -1.5838  0.2373
 3861SOL    HW223220   1.387   0.118   9.699  0.4714  0.8574 -0.9596
 3862SOL     OW23221   0.736   0.174   5.289 -0.2623 -0.1867 -0.4876
 3862SOL    HW123222   0.682   0.226   5.348  1.5694  3.2008 -1.8214
 3862SOL    HW223223   0.708   0.195   5.200  1.2336 -1.9607 -1.3859
 3863SOL     OW23224   3.444   3.606   6.477  0.6253  0.4497 -0.6597
 3863SOL    HW123225   3.375   3.539   6.469  0.4460  0.6324 -0.6477
 3863SOL    HW223226   3.420   3.663   6.404  0.9608  0.4023 -0.8037
 3864SOL     OW23227   1.091   0.623   7.903  0.4066  0.1251  0.0483
 3864SOL    HW123228   1.152   0.643   7.832 -0.3344 -1.0247 -0.9111
 3864SOL    HW223229   1.118   0.681   7.974 -0.6638 -0.9544  1.3219
 3865SOL     OW23230   1.554   2.340   3.528  0.5710  0.1141 -0.1275
 3865SOL    HW123231   1.567   2.378   3.615  0.2665  1.1537 -0.5397
 3865SOL    HW223232   1.497   2.402   3.483  3.0555  3.3295  1.1288
 3866SOL     OW23233   3.300   1.793   8.641  0.3885  0.1613  0.1525
 3866SOL    HW123234   3.282   1.702   8.664  0.2507 -0.5604 -2.9318
 3866SOL    HW223235   3.264   1.804   8.554  0.9517 -1.2052 -0.2528
 3867SOL     OW23236   3.525   2.187  13.300  0.6508  0.0021 -0.0157
 3867SOL    HW123237   3.500   2.197  13.208 -0.7476 -0.5857  0.2997
 3867SOL    HW223238   3.467   2.112  13.316  1.5908 -0.4201  1.4341
 3868SOL     OW23239   2.114   2.259   7.169  0.4876  0.0006  0.1454
 3868SOL    HW123240   2.109   2.285   7.077  1.3902  0.9869  0.3758
 3868SOL    HW223241   2.186   2.317   7.194  1.3396  0.1226 -2.6731
 3869SOL     OW23242   2.287   1.817   7.493  0.2424 -0.2324  0.8983
 3869SOL    HW123243   2.240   1.894   7.527 -1.0690 -0.4221 -0.5109
 3869SOL    HW223244   2.250   1.794   7.408 -1.9433 -0.5281  1.9155
 3870SOL     OW23245   2.579   2.837   8.211  0.0607  0.5135 -0.3175
 3870SOL    HW123246   2.577   2.863   8.303 -0.2416  1.2555 -0.5284
 3870SOL    HW223247   2.542   2.749   8.214  1.0973  0.1464  1.4517
 3871SOL     OW23248   4.210   3.608   8.222 -0.0660  0.0300 -0.2243
 3871SOL    HW123249   4.200   3.681   8.161  1.3491  2.1050  2.0484
 3871SOL    HW223250   4.233   3.658   8.300 -0.6665 -0.9538  0.5757
 3872SOL     OW23251   3.701   3.140   4.744  0.0871 -0.2854  0.0142
 3872SOL    HW123252   3.761   3.172   4.677 -1.0551  0.4673 -0.6567
 3872SOL    HW223253   3.760   3.112   4.814  0.1571  3.2205  1.3252
 3873SOL     OW23254   2.136   1.424   7.281  0.1093 -0.2320 -0.3224
 3873SOL    HW123255   2.212   1.412   7.338  0.8347 -0.9994 -1.4564
 3873SOL    HW223256   2.073   1.444   7.350  0.7766  0.1222  0.1917
 3874SOL     OW23257   4.578   1.548  16.461  0.1033  0.3782  0.8740
 3874SOL    HW123258   4.499   1.543  16.407  0.6937 -0.3735  0.0909
 3874SOL    HW223259   4.612   1.460  16.444  0.5735  0.3430  2.0083
 3875SOL     OW23260   2.908   1.460   4.955  0.3484 -0.5965  0.1100
 3875SOL    HW123261   2.869   1.504   5.030  0.6377 -4.4399  2.5150
 3875SOL    HW223262   2.873   1.496   4.874  0.4801 -0.8267 -0.0507
 3876SOL     OW23263   1.628   3.849   3.863 -0.1498 -0.2912  0.5110
 3876SOL    HW123264   1.534   3.832   3.857  0.0784 -1.6415  0.7756
 3876SOL    HW223265   1.631   3.859   3.959 -0.9794  1.9077  0.3303
 3877SOL     OW23266   0.148   3.878   7.285 -0.7891  0.2729  0.4311
 3877SOL    HW123267   0.195   3.925   7.215 -0.4872 -0.6598  0.0079
 3877SOL    HW223268   0.063   3.899   7.246 -0.5059 -0.7279 -0.7287
 3878SOL     OW23269   1.859   2.109   8.600  0.5407 -0.4699  0.3505
 3878SOL    HW123270   1.806   2.088   8.522  0.7924  0.2248 -0.0008
 3878SOL    HW223271   1.851   2.204   8.605  1.9004 -0.2840 -1.2874
 3879SOL     OW23272   0.373   1.280   2.451 -0.3861  0.1440  0.1984
 3879SOL    HW123273   0.395   1.372   2.462  1.2777 -0.2752  0.3585
 3879SOL    HW223274   0.367   1.254   2.543  0.1760  0.9588  0.4618
 3880SOL     OW23275   0.807   1.189   1.209  0.3128  0.4808 -0.6422
 3880SOL    HW123276   0.717   1.169   1.184  0.0011  0.0088  0.8560
 3880SOL    HW223277   0.840   1.104   1.238  1.0256  0.8436 -0.3793
 3881SOL     OW23278   3.517   4.220   0.299 -0.0236  0.4299  0.0947
 3881SOL    HW123279   3.467   4.215   0.217  0.0527  0.5356  0.0419
 3881SOL    HW223280   3.605   4.203   0.266  0.2328 -0.9189  1.4890
 3882SOL     OW23281   2.943   0.189  14.469  0.4640 -0.4588  0.5192
 3882SOL    HW123282   2.962   0.211  14.378 -1.1657 -1.7549 -0.1285
 3882SOL    HW223283   2.932   0.273  14.515 -2.3892  0.4369 -1.8066
 3883SOL     OW23284   0.066   3.351  15.673  0.5582  0.1710  0.4443
 3883SOL    HW123285   0.142   3.300  15.700  1.4607  0.7265 -1.0292
 3883SOL    HW223286   0.080   3.426  15.731  1.1828  1.1722 -1.0099
 3884SOL     OW23287   2.885   3.728   6.538  0.1457  0.4380  0.3374
 3884SOL    HW123288   2.821   3.694   6.600  0.5736  0.4938  0.8073
 3884SOL    HW223289   2.882   3.655   6.477 -2.4589  0.5434  0.3515
 3885SOL     OW23290   2.972   0.008   5.605  0.0042  0.6301 -0.0809
 3885SOL    HW123291   2.929   0.047   5.529  0.8776 -1.9516 -1.8792
 3885SOL    HW223292   2.988   4.659   5.565 -2.5100 -0.1929  0.6689
 3886SOL     OW23293   2.751   0.152   6.971  0.0592 -0.1161  0.0624
 3886SOL    HW123294   2.727   0.179   7.060  0.4092  0.4926 -0.0245
 3886SOL    HW223295   2.670   0.108   6.946 -0.9369  0.6560  1.8501
 3887SOL     OW23296   2.850   2.236   6.271 -0.3516 -0.6005  0.0975
 3887SOL    HW123297   2.810   2.153   6.299  1.1741 -1.1910  0.5106
 3887SOL    HW223298   2.875   2.271   6.356  0.3540  3.3278 -1.7176
 3888SOL     OW23299   0.647   0.156  11.417  0.2974 -0.1106 -0.3682
 3888SOL    HW123300   0.670   0.126  11.505  0.3812  0.4993 -0.1830
 3888SOL    HW223301   0.576   0.212  11.451 -0.4595 -3.0030  2.8304
 3889SOL     OW23302   3.188   0.612   7.543 -0.1694  0.3851  0.2961
 3889SOL    HW123303   3.210   0.677   7.476  0.9490 -0.7158 -0.3966
 3889SOL    HW223304   3.160   0.536   7.493 -0.8754  0.7475  0.1337
 3890SOL     OW23305   3.141   0.672   1.362 -0.2907  0.1595  0.7245
 3890SOL    HW123306   3.123   0.673   1.456  1.0379  0.9578  0.9672
 3890SOL    HW223307   3.175   0.584   1.350 -1.0325 -0.2606  1.7199
 3891SOL     OW23308   1.621   2.081   3.592  0.0293 -0.4378  0.7721
 3891SOL    HW123309   1.618   2.169   3.557 -1.1091 -1.3242 -1.3589
 3891SOL    HW223310   1.609   2.088   3.687 -1.7360  0.8560  0.4566
 3892SOL     OW23311   0.840   1.001   3.794  0.1503  0.0158  0.0810
 3892SOL    HW123312   0.781   1.034   3.726  0.4889 -2.3321 -1.3337
 3892SOL    HW223313   0.881   1.085   3.815 -0.5422  0.3709  0.0453
 3893SOL     OW23314   0.358   0.832   4.135 -0.5511 -0.5752  0.0064
 3893SOL    HW123315   0.270   0.859   4.162  0.1722  1.3257  0.5188
 3893SOL    HW223316   0.346   0.853   4.043 -3.0946 -1.8833  0.0557
 3894SOL     OW23317   1.974   1.072   3.819 -0.0753 -0.3720  0.4346
 3894SOL    HW123318   2.025   1.048   3.896  1.5267  0.2899 -0.4001
 3894SOL    HW223319   2.028   1.034   3.749  1.0092  1.4929  0.2788
 3895SOL     OW23320   4.254   3.949   5.212 -0.1008 -0.1386  0.4341
 3895SOL    HW123321   4.279   3.986   5.128 -1.1453  0.1718  0.2587
 3895SOL    HW223322   4.302   4.009   5.268 -1.0076 -0.1899  1.2737
 3896SOL     OW23323   0.411   0.205   5.185  0.1926 -0.0398  0.4025
 3896SOL    HW123324   0.453   0.230   5.102 -1.7815  0.2809 -0.5021
 3896SOL    HW223325   0.481   0.206   5.250  0.7144 -0.7884 -0.1558
 3897SOL     OW23326   4.304   0.834   5.698  0.2938  0.0507 -0.1261
 3897SOL    HW123327   4.381   0.782   5.675  0.0652 -0.8959  1.1872
 3897SOL    HW223328   4.236   0.769   5.679 -0.8702  1.3775 -0.4396
 3898SOL     OW23329   1.810   0.234   0.405 -0.1500 -0.0196 -0.3798
 3898SOL    HW123330   1.823   0.227   0.500  3.0983 -2.3685 -1.0331
 3898SOL    HW223331   1.895   0.276   0.393 -0.3225 -0.0674 -1.7191
 3899SOL     OW23332   3.638   0.749   1.809  0.5698  0.2988  0.1464
 3899SOL    HW123333   3.561   0.725   1.758  0.5403  0.6955  0.0043
 3899SOL    HW223334   3.580   0.769   1.882 -0.6633  2.2895 -1.3765
 3900SOL     OW23335   0.475   4.053   5.288  0.0558 -0.7150 -0.3381
 3900SOL    HW123336   0.470   4.124   5.352 -0.7195 -0.9019 -0.1959
 3900SOL    HW223337   0.469   3.981   5.351  0.6478 -0.7530 -0.3263
 3901SOL     OW23338   3.553   3.720   3.190 -0.1790 -0.5536 -0.6510
 3901SOL    HW123339   3.585   3.630   3.198  0.5133 -0.0149  2.3416
 3901SOL    HW223340   3.626   3.773   3.221 -0.9901  1.9989 -3.0908
 3902SOL     OW23341   4.019   1.373   3.126 -0.1181 -0.2822  0.0927
 3902SOL    HW123342   4.037   1.279   3.128  0.8835 -0.0661  1.1307
 3902SOL    HW223343   4.011   1.392   3.033 -1.2206  0.4001  0.3278
 3903SOL     OW23344   2.550   4.659   3.841 -0.0880 -0.2776  0.1848
 3903SOL    HW123345   2.501   4.735   3.809  0.4734 -0.4243 -1.0044
 3903SOL    HW223346   2.565   4.617   3.756 -1.3156  1.2090 -0.7657
 3904SOL     OW23347   3.487   4.314  16.030 -0.5704  0.2212 -0.4946
 3904SOL    HW123348   3.572   4.304  15.986 -0.7316 -0.1100 -0.7371
 3904SOL    HW223349   3.503   4.379  16.098  0.7432 -0.2423 -0.3548
 3905SOL     OW23350   1.305   0.616   8.855  0.2483  0.1002  1.3458
 3905SOL    HW123351   1.213   0.641   8.864  0.2304 -0.1086  1.7441
 3905SOL    HW223352   1.296   0.526   8.824  2.0200  0.3397  0.0917
 3906SOL     OW23353   0.130   2.477  13.671  0.2415  0.4521  0.3573
 3906SOL    HW123354   0.042   2.455  13.640  0.4103  0.4591 -0.1305
 3906SOL    HW223355   0.164   2.389  13.692  1.5717 -0.0753 -4.0515
 3907SOL     OW23356   0.746   3.634  12.268 -0.2106 -0.3468 -0.1164
 3907SOL    HW123357   0.831   3.642  12.313 -1.0580 -1.5571  1.7245
 3907SOL    HW223358   0.751   3.703  12.202  0.9518 -1.4096 -1.1639
 3908SOL     OW23359   4.576   3.989   4.268  0.2074  0.3967  0.0438
 3908SOL    HW123360   4.588   3.894   4.266  1.3759  0.5013  2.2982
 3908SOL    HW223361   4.498   3.995   4.213  0.6289  1.0054 -0.4778
 3909SOL     OW23362   3.293   3.430   3.232  0.1330  0.1557 -0.2774
 3909SOL    HW123363   3.314   3.505   3.288 -0.5486 -0.3202  0.6171
 3909SOL    HW223364   3.373   3.380   3.251 -0.3808 -1.4418 -2.3643
 3910SOL     OW23365   1.788   3.574  13.764 -0.3293  0.2073  0.4133
 3910SOL    HW123366   1.830   3.555  13.847  0.5258  1.8211  0.3485
 3910SOL    HW223367   1.736   3.494  13.756 -0.6745  0.4720 -0.0396
 3911SOL     OW23368   1.566   2.274   6.648  0.3039 -0.1553  0.3995
 3911SOL    HW123369   1.536   2.199   6.698 -1.3988  0.8775  0.9284
 3911SOL    HW223370   1.515   2.344   6.688  0.9039 -0.3659  1.5274
 3912SOL     OW23371   1.134   3.439  12.043 -0.6520 -0.1063  0.0154
 3912SOL    HW123372   1.202   3.501  12.017  0.7976 -1.8013 -0.2396
 3912SOL    HW223373   1.179   3.355  12.055  1.5694  0.4820 -4.1230
 3913SOL     OW23374   0.662   2.382   7.690 -0.9766 -0.0353  0.1779
 3913SOL    HW123375   0.661   2.327   7.768 -2.1164  0.7957  0.7577
 3913SOL    HW223376   0.678   2.314   7.625 -1.1062 -0.6332  0.7691
 3914SOL     OW23377   1.616   0.069   4.922 -0.2367  0.0975 -0.2108
 3914SOL    HW123378   1.613   0.054   5.016 -1.1108  0.9962 -0.0964
 3914SOL    HW223379   1.592   0.161   4.926  1.2003  0.4344  0.6449
 3915SOL     OW23380   3.279   3.567   8.593  0.1873 -0.3549  0.5301
 3915SOL    HW123381   3.349   3.520   8.639 -0.7418 -1.0152  1.2843
 3915SOL    HW223382   3.291   3.657   8.622 -1.1438 -0.2374  0.7334
 3916SOL     OW23383   4.032   4.724  17.438  0.3407 -0.2327 -0.2774
 3916SOL    HW123384   4.046   4.682  17.523 -0.0931 -0.8892 -0.5327
 3916SOL    HW223385   4.029   0.080  17.461  0.1778  0.1488 -1.8436
 3917SOL     OW23386   4.113   3.125   4.240  0.4147 -0.0027  0.5737
 3917SOL    HW123387   4.128   3.045   4.190 -2.2374  0.0397 -0.3033
 3917SOL    HW223388   4.183   3.175   4.199  0.6926 -0.1590  0.8629
 3918SOL     OW23389   4.715   0.994   4.674  0.1335 -0.1906 -0.1064
 3918SOL    HW123390   0.047   1.002   4.740 -0.8496 -1.2657  1.0344
 3918SOL    HW223391   4.691   1.086   4.667  1.1354  0.0750 -0.0893
 3919SOL     OW23392   3.653   3.464   3.537  0.2712  0.4393  0.1477
 3919SOL    HW123393   3.703   3.423   3.607 -0.0364  0.7404  0.5467
 3919SOL    HW223394   3.565   3.447   3.571 -0.4697  3.3917 -0.2729
 3920SOL     OW23395   1.684   3.504   5.437  0.3034  0.0671 -0.7056
 3920SOL    HW123396   1.591   3.501   5.456  0.6878 -1.8230  0.8781
 3920SOL    HW223397   1.715   3.499   5.528  1.5048  1.6795 -1.0382
 3921SOL     OW23398   4.201   0.854  13.431 -0.0572  0.3799 -0.7362
 3921SOL    HW123399   4.239   0.890  13.351  1.8356 -0.9850 -0.4422
 3921SOL    HW223400   4.272   0.878  13.492 -0.3160 -2.9859  0.9243
 3922SOL     OW23401   0.519   0.709   2.800 -0.0897  0.3136  0.2061
 3922SOL    HW123402   0.427   0.728   2.782  0.2567 -0.2989 -2.2135
 3922SOL    HW223403   0.516   0.716   2.896  3.2104  3.5152  0.0773
 3923SOL     OW23404   2.831   0.254  14.154  0.1112  0.0116  0.3019
 3923SOL    HW123405   2.819   0.160  14.138 -0.0181 -0.2500  1.8891
 3923SOL    HW223406   2.756   0.277  14.100 -0.2254 -0.8456  0.3953
 3924SOL     OW23407   0.140   0.504   7.637 -0.1034  0.1972 -0.0335
 3924SOL    HW123408   0.095   0.441   7.580 -0.8572  0.1708  0.5900
 3924SOL    HW223409   0.069   0.562   7.664 -0.7607 -0.6202  0.0089
 3925SOL     OW23410   1.016   2.153   5.973  0.8733  0.2148  0.7110
 3925SOL    HW123411   0.975   2.122   6.053 -0.5362 -0.1243 -0.1370
 3925SOL    HW223412   1.029   2.070   5.927 -0.3234 -0.1486  1.0318
 3926SOL     OW23413   2.174   3.758   7.874  0.0951  0.0109 -0.0710
 3926SOL    HW123414   2.101   3.734   7.932  2.4071 -0.5469  2.5890
 3926SOL    HW223415   2.233   3.687   7.899  0.8236  0.4410 -0.5591
 3927SOL     OW23416   3.133   3.566   9.911  0.3703  0.3822 -0.3477
 3927SOL    HW123417   3.204   3.556   9.974 -1.0632  2.4877  1.5805
 3927SOL    HW223418   3.106   3.477   9.889 -2.2541  0.4535  2.6714
 3928SOL     OW23419   2.115   2.874   3.618  0.2619  0.4360  0.4684
 3928SOL    HW123420   2.072   2.800   3.574  0.3468  0.5883  0.1311
 3928SOL    HW223421   2.088   2.945   3.561  0.4918  0.7740  0.7836
 3929SOL     OW23422   2.871   3.788  16.895  0.2582 -0.6877 -0.0081
 3929SOL    HW123423   2.776   3.788  16.901  0.2151  0.4315 -0.6653
 3929SOL    HW223424   2.877   3.726  16.822 -0.3083 -0.8386  0.0791
 3930SOL     OW23425   1.773   2.491  14.182  0.0449  0.0904 -0.2228
 3930SOL    HW123426   1.784   2.560  14.117  3.5348 -0.4919 -0.2462
 3930SOL    HW223427   1.688   2.506  14.223 -1.0771 -2.7030 -1.4975
 3931SOL     OW23428   4.309   3.978   6.796 -0.4168  0.2688 -0.2333
 3931SOL    HW123429   4.224   3.954   6.834 -0.4511  1.6300  0.5418
 3931SOL    HW223430   4.351   4.015   6.874 -0.4226 -0.6202  0.2032
 3932SOL     OW23431   0.475   2.683   3.028  0.3487 -0.3508 -0.2283
 3932SOL    HW123432   0.422   2.627   3.084  0.9949  0.9627  1.6932
 3932SOL    HW223433   0.558   2.635   3.026 -0.8368 -2.4186 -0.1254
 3933SOL     OW23434   0.002   2.404  15.870 -0.1445  0.7453 -0.1640
 3933SOL    HW123435   0.044   2.352  15.938  1.6564 -0.1306 -1.9597
 3933SOL    HW223436   0.010   2.485  15.921 -1.3530  0.4428  0.4920
 3934SOL     OW23437   2.402   1.052   5.836  0.0337  0.2547  0.2330
 3934SOL    HW123438   2.471   0.987   5.846  0.2049  0.1490 -1.7755
 3934SOL    HW223439   2.430   1.083   5.750  0.3175  2.0083  0.9590
 3935SOL     OW23440   3.774   3.677   7.368  0.0018 -0.1166  0.0442
 3935SOL    HW123441   3.783   3.708   7.458 -2.6840  2.4873 -0.5804
 3935SOL    HW223442   3.850   3.718   7.327 -0.7894  0.7772 -0.5111
 3936SOL     OW23443   3.404   2.992  11.134 -0.1287 -0.8678 -0.4419
 3936SOL    HW123444   3.376   2.995  11.043  0.6303  1.8029 -0.5689
 3936SOL    HW223445   3.437   3.080  11.150  0.8917 -1.5648  1.3400
 3937SOL     OW23446   0.169   3.425   2.769 -0.0634 -0.5741  0.2033
 3937SOL    HW123447   0.261   3.436   2.793  0.4703 -2.3602 -1.0707
 3937SOL    HW223448   0.133   3.380   2.846 -1.7818 -1.1162 -0.9279
 3938SOL     OW23449   1.688   0.586   7.954 -0.4972 -0.4856  0.0297
 3938SOL    HW123450   1.630   0.662   7.944 -0.2244 -0.4948 -1.7559
 3938SOL    HW223451   1.776   0.622   7.940  0.2379 -1.3357  2.6245
 3939SOL     OW23452   0.475   0.796   5.321  0.1045  0.5680  0.2271
 3939SOL    HW123453   0.421   0.717   5.326 -0.6996  1.0119 -1.4035
 3939SOL    HW223454   0.556   0.759   5.356  0.4027  0.4897 -0.5550
 3940SOL     OW23455   3.366   1.642   2.267 -0.2587 -0.7220 -0.9489
 3940SOL    HW123456   3.408   1.649   2.352 -1.8788  0.4160 -0.2458
 3940SOL    HW223457   3.299   1.709   2.281  1.2496  0.8689 -1.3582
 3941SOL     OW23458   0.375   2.494   4.997  0.0032 -0.2861  0.1000
 3941SOL    HW123459   0.310   2.425   4.983  0.5743 -0.2055 -2.8523
 3941SOL    HW223460   0.323   2.569   5.025 -0.2052 -0.2062 -0.5004
 3942SOL     OW23461   0.079   4.553   6.195 -0.0565 -0.3288 -0.1788
 3942SOL    HW123462   0.072   4.467   6.237 -0.2706 -1.4979 -2.5723
 3942SOL    HW223463   0.012   4.600   6.244  1.3223 -0.9372  2.3044
 3943SOL     OW23464   4.297   2.892  17.204  0.1214 -0.3099  0.2604
 3943SOL    HW123465   4.204   2.873  17.192  0.3284 -2.0234  1.3095
 3943SOL    HW223466   4.358   2.823  17.179 -0.5229 -0.2209 -1.5613
 3944SOL     OW23467   3.721   4.016   2.911 -0.1903 -0.4026 -0.0976
 3944SOL    HW123468   3.705   3.923   2.924  0.7910 -0.3470  1.5430
 3944SOL    HW223469   3.809   4.021   2.947 -0.3783 -1.1772  0.4752
 3945SOL     OW23470   3.154   1.577   1.519 -0.5902  0.2050 -0.4718
 3945SOL    HW123471   3.119   1.661   1.490  0.2508  0.9532  0.6597
 3945SOL    HW223472   3.240   1.564   1.478  0.1014  0.0567  1.0077
 3946SOL     OW23473   1.863   2.186  16.385 -0.7245  0.1597  0.1800
 3946SOL    HW123474   1.950   2.163  16.350  0.2067  1.4154  1.6712
 3946SOL    HW223475   1.864   2.282  16.379  1.7783  0.1362 -0.0111
 3947SOL     OW23476   0.593   0.447   9.063 -0.4265  0.3063 -0.2596
 3947SOL    HW123477   0.554   0.381   9.120  1.8688 -1.4842 -0.7401
 3947SOL    HW223478   0.573   0.530   9.106 -1.7697  0.8837 -1.9758
 3948SOL     OW23479   3.682   2.786  14.718 -0.1227  0.1725  0.3890
 3948SOL    HW123480   3.746   2.855  14.734  0.4379 -0.3840  0.5628
 3948SOL    HW223481   3.619   2.820  14.655  0.1275  1.2119  0.7100
 3949SOL     OW23482   0.148   1.831   9.121 -0.5672  0.1763  0.0487
 3949SOL    HW123483   0.120   1.878   9.200  2.6471  2.2769 -0.0326
 3949SOL    HW223484   0.117   1.741   9.129  2.5645 -1.0325 -1.1092
 3950SOL     OW23485   2.380   1.240   8.833 -0.3490 -0.6211  0.1535
 3950SOL    HW123486   2.454   1.223   8.774 -1.5689  0.1415 -1.6206
 3950SOL    HW223487   2.311   1.190   8.789 -0.1822 -0.0380 -0.7754
 3951SOL     OW23488   1.181   1.259   6.654 -0.0791  0.0371  0.1396
 3951SOL    HW123489   1.254   1.202   6.627 -0.8350  0.0946 -2.0466
 3951SOL    HW223490   1.125   1.181   6.653  1.4924 -1.1084  0.9212
 3952SOL     OW23491   3.772   2.141   1.824 -0.6498 -0.0118 -0.4045
 3952SOL    HW123492   3.789   2.147   1.730  0.0882 -0.1931 -0.2865
 3952SOL    HW223493   3.710   2.212   1.841 -0.7175 -0.1926  0.1078
 3953SOL     OW23494   0.865   3.719  15.062 -0.0019 -0.1712  0.0364
 3953SOL    HW123495   0.807   3.790  15.090 -0.6519 -0.6035 -0.2467
 3953SOL    HW223496   0.807   3.699  14.989 -0.6940 -1.6244  1.0060
 3954SOL     OW23497   2.450   4.558  10.240  0.2488 -0.0971  0.6383
 3954SOL    HW123498   2.429   4.645  10.205  0.4839 -0.0574  0.5994
 3954SOL    HW223499   2.526   4.589  10.289  0.0709 -1.5514  1.8206
 3955SOL     OW23500   0.935   0.731  14.081  0.1563  0.2297 -0.5310
 3955SOL    HW123501   0.925   0.797  14.149 -0.2306  0.8956 -1.2423
 3955SOL    HW223502   0.950   0.780  14.000  0.3977  0.8441 -0.1152
 3956SOL     OW23503   0.567   0.192  10.694  0.3263  0.0081  0.0155
 3956SOL    HW123504   0.580   0.234  10.779 -2.9503 -1.1735  1.0960
 3956SOL    HW223505   0.599   0.254  10.628  1.9294 -0.2896  0.5124
 3957SOL     OW23506   1.614   0.573  11.967 -0.4040  0.2297 -0.1034
 3957SOL    HW123507   1.622   0.601  11.875  2.1071 -0.0934  0.0028
 3957SOL    HW223508   1.524   0.596  11.990 -0.7717 -1.0617 -0.3074
 3958SOL     OW23509   0.082   0.256   8.246  0.7554 -0.1705 -0.1434
 3958SOL    HW123510   0.156   0.312   8.271 -0.4254  1.1678  0.3242
 3958SOL    HW223511   0.040   0.247   8.332  1.5218 -1.3769  0.1110
 3959SOL     OW23512   4.143   3.462   6.308  0.0134  0.2903 -0.3749
 3959SOL    HW123513   4.118   3.382   6.354  1.2029 -0.1221 -0.4357
 3959SOL    HW223514   4.067   3.521   6.306  0.7338  1.1742 -2.0271
 3960SOL     OW23515   1.010   2.810   2.573  0.2701 -0.4244 -0.3734
 3960SOL    HW123516   1.038   2.901   2.578 -3.3530  0.8066 -2.4784
 3960SOL    HW223517   0.917   2.830   2.560  0.3026  0.2242  0.3966
 3961SOL     OW23518   1.948   2.000  14.522 -0.1283 -0.3333 -0.5281
 3961SOL    HW123519   2.011   2.060  14.481 -0.9401 -0.0216 -1.3269
 3961SOL    HW223520   2.000   1.922  14.508 -0.1246 -0.3796 -0.2573
 3962SOL     OW23521   4.408   1.745  14.271  0.6881  0.3693  0.0028
 3962SOL    HW123522   4.354   1.805  14.219  0.2941  1.3217  1.4931
 3962SOL    HW223523   4.356   1.752  14.351  2.4334  1.8362  1.0029
 3963SOL     OW23524   4.616   2.726  17.291  0.0613 -0.1008  0.0282
 3963SOL    HW123525   4.613   2.750  17.383  0.6015 -1.1578  0.3295
 3963SOL    HW223526   4.699   2.762  17.258 -0.2221 -1.1657 -1.8521
 3964SOL     OW23527   1.589   2.424   1.573  0.3990  0.2956 -0.0707
 3964SOL    HW123528   1.585   2.362   1.646  0.5006  0.8355  0.3964
 3964SOL    HW223529   1.504   2.409   1.533 -0.0209  1.4382  0.3732
 3965SOL     OW23530   4.485   2.431   7.935 -0.4616  0.3196  0.1646
 3965SOL    HW123531   4.407   2.437   7.880 -1.4877 -0.8992  1.4642
 3965SOL    HW223532   4.548   2.467   7.873  0.4521 -2.7709 -0.7218
 3966SOL     OW23533   0.369   3.564   7.736  0.1587  0.0345  0.0992
 3966SOL    HW123534   0.332   3.499   7.676  0.3786 -0.4318  0.4664
 3966SOL    HW223535   0.424   3.618   7.680 -1.0444  0.2924 -0.8137
 3967SOL     OW23536   3.029   3.998   5.362  0.3571 -0.0686 -0.3004
 3967SOL    HW123537   2.970   4.054   5.311  1.4108  0.1793 -1.2568
 3967SOL    HW223538   2.965   3.926   5.366 -1.6054  1.7218  0.6618
 3968SOL     OW23539   3.110   1.794   2.238 -0.1356 -0.3957  0.4578
 3968SOL    HW123540   3.087   1.807   2.146 -1.5214 -2.4053  0.5383
 3968SOL    HW223541   3.046   1.724   2.252  0.5427 -0.6812  2.1174
 3969SOL     OW23542   3.350   1.341   4.157  0.3394 -0.2448 -0.0956
 3969SOL    HW123543   3.414   1.361   4.090  1.0810  3.3824  1.6923
 3969SOL    HW223544   3.281   1.303   4.103  0.2336 -0.2538  0.0461
 3970SOL     OW23545   4.306   0.498   6.482  0.6380  0.2226 -0.4839
 3970SOL    HW123546   4.249   0.480   6.407 -0.1672 -0.3805  0.2741
 3970SOL    HW223547   4.324   0.592   6.479  0.2155  0.2786 -1.1633
 3971SOL     OW23548   2.625   2.718   6.340 -0.0193  0.2465  0.0190
 3971SOL    HW123549   2.621   2.629   6.303 -2.3782  0.1411  0.5848
 3971SOL    HW223550   2.574   2.764   6.273  2.3311  1.7232 -0.7567
 3972SOL     OW23551   4.015   2.720   7.919  0.3564  0.3753 -0.2532
 3972SOL    HW123552   3.996   2.734   8.012  0.8004  2.2598 -0.4582
 3972SOL    HW223553   4.059   2.803   7.902 -0.0965  0.6984  0.1610
 3973SOL     OW23554   0.156   3.668   2.611 -0.1253 -0.3772 -0.3721
 3973SOL    HW123555   0.163   3.573   2.625  2.6642 -0.0278  0.6934
 3973SOL    HW223556   0.194   3.670   2.523 -0.9183  1.5959 -0.6508
 3974SOL     OW23557   3.676   2.993   5.935 -0.2602  0.1887  0.4816
 3974SOL    HW123558   3.667   2.974   6.028  1.2104  0.5694  0.7064
 3974SOL    HW223559   3.591   2.978   5.894 -0.0327 -0.5663  0.2896
 3975SOL     OW23560   0.873   2.975   6.492 -0.2161  0.0192 -0.2860
 3975SOL    HW123561   0.901   3.051   6.442  3.6674 -1.3062 -0.1299
 3975SOL    HW223562   0.919   2.913   6.436  0.2403 -1.3010  1.5654
 3976SOL     OW23563   0.821   4.153   6.152  0.8016  0.0547 -0.2487
 3976SOL    HW123564   0.893   4.134   6.092  0.1965 -1.4484 -0.4832
 3976SOL    HW223565   0.761   4.080   6.142 -0.0755  0.8634 -0.8349
 3977SOL     OW23566   2.550   1.617   8.014 -0.0358  0.3116  0.4315
 3977SOL    HW123567   2.501   1.660   7.944  0.1413 -1.4390 -0.7776
 3977SOL    HW223568   2.589   1.541   7.971 -2.4052 -1.3094  1.1582
 3978SOL     OW23569   4.387   2.885   6.690  0.3155 -0.5198  0.1360
 3978SOL    HW123570   4.386   2.850   6.779 -1.3439 -0.6307  0.0676
 3978SOL    HW223571   4.337   2.813   6.653  1.9564 -1.4966 -0.2157
 3979SOL     OW23572   4.197   1.984   4.227 -0.1154 -1.0111  0.5032
 3979SOL    HW123573   4.184   1.966   4.320 -0.3175 -2.0982  0.2710
 3979SOL    HW223574   4.293   1.978   4.219 -0.4310 -2.1465 -2.4416
 3980SOL     OW23575   0.440   4.632   4.202  0.3584 -0.1414 -0.5866
 3980SOL    HW123576   0.474   4.642   4.291 -1.6580 -1.9766  0.3791
 3980SOL    HW223577   0.513   4.591   4.156  0.9750 -0.8897  1.0820
 3981SOL     OW23578   4.018   1.525   4.812 -0.4477 -0.5845 -0.1058
 3981SOL    HW123579   3.984   1.470   4.883 -0.6927  1.4729  1.3703
 3981SOL    HW223580   3.997   1.474   4.734  0.5861  1.4215 -1.7011
 3982SOL     OW23581   4.408   1.373   8.743  0.4742 -0.3015 -0.3631
 3982SOL    HW123582   4.334   1.413   8.697  0.2280  0.5751  0.8042
 3982SOL    HW223583   4.462   1.352   8.667  2.2789  1.5059  0.4244
 3983SOL     OW23584   0.632   4.680  17.399 -0.0191  0.5187  0.3532
 3983SOL    HW123585   0.709   4.686  17.341 -0.4223 -1.1985 -0.3600
 3983SOL    HW223586   0.597   0.032  17.410 -0.3524  0.3993  0.2265
 3984SOL     OW23587   0.953   3.538   7.343  0.0469 -0.3368 -0.1574
 3984SOL    HW123588   0.862   3.532   7.314 -0.0809  0.5657  0.0616
 3984SOL    HW223589   0.934   3.586   7.424 -1.2789 -3.6894  1.5300
 3985SOL     OW23590   2.926   1.979   5.911 -0.1268 -0.6416 -0.3811
 3985SOL    HW123591   2.839   1.993   5.948  0.4533 -0.2645  0.8487
 3985SOL    HW223592   2.936   2.038   5.837 -0.3410 -0.0428  0.0753
 3986SOL     OW23593   0.277   0.956   1.882 -0.6029  0.5589 -0.3020
 3986SOL    HW123594   0.232   0.996   1.808  0.0361 -0.1868 -1.0954
 3986SOL    HW223595   0.314   0.873   1.851 -1.4042 -0.1966  0.7856
 3987SOL     OW23596   0.570   1.592   5.949  0.3853 -0.2102  0.5019
 3987SOL    HW123597   0.622   1.671   5.937  1.7430 -1.2995 -0.8525
 3987SOL    HW223598   0.485   1.634   5.961 -0.1131 -1.3546  0.9786
 3988SOL     OW23599   4.294   3.599  14.832  0.1960  0.3618 -0.3340
 3988SOL    HW123600   4.333   3.648  14.904  2.1294 -1.3419 -0.2285
 3988SOL    HW223601   4.245   3.533  14.881 -0.7207  0.6777 -0.8107
 3989SOL     OW23602   0.468   2.820   7.086  0.2024  0.5316  0.1280
 3989SOL    HW123603   0.495   2.861   7.004 -2.0015 -0.2180 -0.9625
 3989SOL    HW223604   0.551   2.840   7.130 -0.6019  0.7023  1.5734
 3990SOL     OW23605   4.643   2.600  12.454 -0.0118 -0.3892  0.2752
 3990SOL    HW123606   4.695   2.630  12.379 -2.1803 -0.4154 -1.2396
 3990SOL    HW223607   4.704   2.531  12.480  0.9456  0.1015 -0.6642
 3991SOL     OW23608   0.382   4.107   1.601  0.6074 -0.1629 -0.7417
 3991SOL    HW123609   0.411   4.194   1.575  0.5130  0.6642  1.9568
 3991SOL    HW223610   0.329   4.076   1.527 -0.3799  0.2763 -0.2088
 3992SOL     OW23611   2.239   3.548   6.323  0.2698  0.5218 -0.5384
 3992SOL    HW123612   2.300   3.478   6.301 -0.2483 -0.7752  2.1823
 3992SOL    HW223613   2.178   3.509   6.386  1.3945 -2.1738 -1.0892
 3993SOL     OW23614   0.535   1.170   1.124 -0.5857 -0.5067 -0.3633
 3993SOL    HW123615   0.449   1.182   1.164  0.1240  0.2952  0.8992
 3993SOL    HW223616   0.573   1.257   1.134 -0.5591 -0.8709  2.5031
 3994SOL     OW23617   2.152   0.479   4.268  0.1082  0.5421  0.2674
 3994SOL    HW123618   2.152   0.411   4.336 -0.9941  0.8992  0.6127
 3994SOL    HW223619   2.241   0.467   4.234  0.3279  0.6686  0.8003
 3995SOL     OW23620   3.621   4.527   4.532  0.2583 -0.0106 -0.3082
 3995SOL    HW123621   3.670   4.473   4.594 -0.9682  1.1325  1.6927
 3995SOL    HW223622   3.622   4.616   4.566  2.5024 -0.7559  1.5904
 3996SOL     OW23623   1.818   2.073   4.368 -0.5841  0.4397 -0.3564
 3996SOL    HW123624   1.775   2.151   4.333  1.4100  1.0241 -1.5360
 3996SOL    HW223625   1.850   2.110   4.450  1.3741 -0.1469 -0.8576
 3997SOL     OW23626   4.219   1.708   2.882 -0.8454 -0.0209 -0.3266
 3997SOL    HW123627   4.249   1.719   2.792  3.4517 -1.5395  0.9251
 3997SOL    HW223628   4.263   1.784   2.919 -3.6896  1.1117  0.7104
 3998SOL     OW23629   3.567   3.805   8.521 -0.1417 -0.1914  0.1432
 3998SOL    HW123630   3.609   3.794   8.606  1.3999  2.8053 -0.2301
 3998SOL    HW223631   3.599   3.727   8.476 -0.6826 -1.1453  1.4054
 3999SOL     OW23632   1.010   1.572   5.442  0.5322 -0.6788 -0.1100
 3999SOL    HW123633   1.022   1.525   5.525 -5.4440 -1.0403  0.5693
 3999SOL    HW223634   1.099   1.565   5.408  0.2157  0.4078 -1.1622
 4000SOL     OW23635   3.212   2.917   5.199 -0.1194 -0.0445 -0.0330
 4000SOL    HW123636   3.144   2.920   5.132  1.5361 -1.8097 -1.8023
 4000SOL    HW223637   3.285   2.889   5.144 -0.3098  2.5707 -1.5921
 4001SOL     OW23638   0.317   4.468   4.945 -0.3784 -0.0223  0.3030
 4001SOL    HW123639   0.313   4.503   4.856  3.8041  2.3850  1.0462
 4001SOL    HW223640   0.239   4.515   4.976 -0.1232  0.0345  0.8537
 4002SOL     OW23641   4.179   3.848   2.961 -0.1939 -0.3528 -0.1989
 4002SOL    HW123642   4.137   3.829   2.877 -0.3411  2.3075 -0.7341
 4002SOL    HW223643   4.203   3.767   3.006 -0.5757 -0.0725  0.5276
 4003SOL     OW23644   3.187   4.246  15.323 -0.2633 -0.2761  0.0473
 4003SOL    HW123645   3.264   4.235  15.267  0.1001  1.2540  0.2542
 4003SOL    HW223646   3.188   4.154  15.351 -2.0534 -0.5439 -0.7745
 4004SOL     OW23647   0.551   3.753  14.996  0.1751 -0.3255  0.1942
 4004SOL    HW123648   0.531   3.843  14.970 -1.3150 -0.6391  0.2470
 4004SOL    HW223649   0.558   3.712  14.910  0.2645  0.4419 -0.1670
 4005SOL     OW23650   1.382   3.043   2.016  0.0667  0.5028  0.2092
 4005SOL    HW123651   1.417   3.079   1.934  1.8425 -0.6099  0.4752
 4005SOL    HW223652   1.456   2.991   2.048 -0.4422 -1.9688 -2.6998
 4006SOL     OW23653   0.799   4.192   7.253  0.0593  0.4016  0.0575
 4006SOL    HW123654   0.812   4.097   7.249  1.0139  0.5090  0.5652
 4006SOL    HW223655   0.879   4.220   7.209  0.4236  0.7718  0.9625
 4007SOL     OW23656   2.528   1.890  11.629  0.1011  0.0255 -0.4748
 4007SOL    HW123657   2.562   1.839  11.702  0.5084  0.2941 -0.4762
 4007SOL    HW223658   2.434   1.876  11.639  0.1720  1.1812  1.6429
 4008SOL     OW23659   2.913   0.262   7.486 -0.4468 -0.0677  0.9184
 4008SOL    HW123660   2.851   0.214   7.541 -0.4668 -1.1273 -0.0373
 4008SOL    HW223661   2.927   0.337   7.544 -2.8279 -1.1808  2.9053
 4009SOL     OW23662   4.513   3.631   5.068 -0.1999 -0.0891  0.8283
 4009SOL    HW123663   4.554   3.675   4.993 -2.5544  0.2446 -0.2708
 4009SOL    HW223664   4.423   3.663   5.063 -0.5519 -0.8600  2.3172
 4010SOL     OW23665   2.064   1.704   4.423  0.4095 -0.1059 -0.3133
 4010SOL    HW123666   2.022   1.684   4.507  1.5642 -1.1022  0.0237
 4010SOL    HW223667   2.157   1.682   4.421  0.4374 -0.0795  0.9879
 4011SOL     OW23668   1.018   0.655   6.599 -0.2477  0.3869 -0.0192
 4011SOL    HW123669   1.108   0.652   6.568  0.0479 -0.0870  0.8786
 4011SOL    HW223670   1.007   0.750   6.598  0.4989  0.4580 -0.9136
 4012SOL     OW23671   4.262   0.608   5.068  0.3598 -0.0991 -0.3340
 4012SOL    HW123672   4.315   0.678   5.029 -0.5185 -0.0777 -1.4660
 4012SOL    HW223673   4.311   0.535   5.031 -0.2843 -0.5781 -0.2390
 4013SOL     OW23674   1.807   3.295   9.251 -0.3626  0.4437 -0.2726
 4013SOL    HW123675   1.790   3.234   9.323  1.1651 -0.5728 -0.7544
 4013SOL    HW223676   1.818   3.241   9.172  0.0473 -0.8278  0.6509
 4014SOL     OW23677   1.812   0.004   5.947  0.0069 -0.4900  0.1684
 4014SOL    HW123678   1.799   4.647   5.930 -0.4628 -1.2285  4.5742
 4014SOL    HW223679   1.867   0.034   5.874  0.9817 -0.7240  0.8087
 4015SOL     OW23680   2.185   1.062   8.738 -0.2361 -0.1666 -0.4289
 4015SOL    HW123681   2.131   0.985   8.755  0.8402 -0.3398  2.1387
 4015SOL    HW223682   2.192   1.058   8.643  0.6459  1.3526 -0.4384
 4016SOL     OW23683   3.185   1.703   5.457  0.2245  0.2049  0.3620
 4016SOL    HW123684   3.165   1.661   5.540 -1.2734 -0.4952 -0.3338
 4016SOL    HW223685   3.096   1.715   5.423 -0.0062  2.0824  1.6028
 4017SOL     OW23686   3.361   1.776  14.471  0.3207  0.0568  0.1628
 4017SOL    HW123687   3.356   1.869  14.493 -0.3283  0.4608 -1.7317
 4017SOL    HW223688   3.440   1.776  14.418 -1.1507 -0.2566 -2.0070
 4018SOL     OW23689   0.672   2.632  16.244 -0.2407  0.0632  0.1168
 4018SOL    HW123690   0.659   2.538  16.240  0.6902 -0.1193  1.6545
 4018SOL    HW223691   0.702   2.642  16.153 -0.8128 -2.8592 -0.3659
 4019SOL     OW23692   3.877   0.006  10.007  0.5792  0.0712  0.3109
 4019SOL    HW123693   3.861   4.650   9.986 -0.7288  0.3982 -0.1553
 4019SOL    HW223694   3.790   0.047  10.006  0.0277 -1.0686  1.4014
 4020SOL     OW23695   2.917   2.821   2.243  0.3884 -0.3666  0.6019
 4020SOL    HW123696   2.896   2.910   2.217 -0.3646 -0.8559 -0.4935
 4020SOL    HW223697   2.828   2.794   2.265  0.9648 -0.7676  2.4307
 4021SOL     OW23698   4.642   3.423   5.223  0.4780  0.4372  0.2744
 4021SOL    HW123699   4.638   3.488   5.153  1.3081 -0.5072 -0.6403
 4021SOL    HW223700   4.723   3.377   5.203  0.4920  0.8732 -0.6771
 4022SOL     OW23701   1.568   2.864   5.123 -0.3090  0.5514 -0.6819
 4022SOL    HW123702   1.529   2.804   5.186 -0.8433  1.9471  0.3227
 4022SOL    HW223703   1.547   2.823   5.039 -0.1731  0.0524 -0.4685
 4023SOL     OW23704   4.607   0.178   5.168 -0.5011  0.9213  0.2436
 4023SOL    HW123705   4.653   0.183   5.084 -1.3415  1.4155 -0.1874
 4023SOL    HW223706   4.526   0.140   5.135  0.1362 -0.2023 -0.0341
 4024SOL     OW23707   1.177   1.804   4.047  0.4245 -0.1429  0.2718
 4024SOL    HW123708   1.190   1.740   3.977  0.6422  1.9430 -1.5854
 4024SOL    HW223709   1.231   1.876   4.015  1.5560 -0.5296  1.2689
 4025SOL     OW23710   2.173   3.896  15.692 -0.1114  0.3361  0.1971
 4025SOL    HW123711   2.139   3.813  15.724 -3.3194  0.7660 -2.0532
 4025SOL    HW223712   2.085   3.932  15.681  0.2166  0.8589 -0.7290
 4026SOL     OW23713   4.573   2.165   7.275  0.4752 -0.0410 -0.7098
 4026SOL    HW123714   4.600   2.089   7.225 -1.0967 -1.5642  0.7746
 4026SOL    HW223715   4.659   2.200   7.301  0.3050  0.2468 -0.5363
 4027SOL     OW23716   1.875   2.115   5.309 -0.3261 -0.3502  0.3743
 4027SOL    HW123717   1.898   2.173   5.236  1.2286  1.8960  2.6425
 4027SOL    HW223718   1.931   2.154   5.376 -0.5923 -0.3931  0.6247
 4028SOL     OW23719   1.298   4.584   7.013 -0.5067 -0.4309 -0.2963
 4028SOL    HW123720   1.247   4.663   7.033  1.1671  0.2966  1.1299
 4028SOL    HW223721   1.374   4.598   7.070  0.3587 -1.6382 -1.1487
 4029SOL     OW23722   2.487   4.473  17.170 -0.2053  0.1709  0.0582
 4029SOL    HW123723   2.472   4.379  17.171 -3.2008  0.5897 -3.7272
 4029SOL    HW223724   2.435   4.501  17.246  2.6980  0.8614  1.7882
 4030SOL     OW23725   1.100   4.378   2.490 -0.3695 -0.1665  0.1824
 4030SOL    HW123726   1.023   4.435   2.492  0.2772  0.7682 -1.9336
 4030SOL    HW223727   1.102   4.352   2.583 -1.0883  0.4228  0.3651
 4031SOL     OW23728   3.066   1.767  13.491  0.3252 -0.0072  0.0201
 4031SOL    HW123729   3.079   1.694  13.431  1.9085  1.4830 -1.4374
 4031SOL    HW223730   2.977   1.788  13.462  0.3468 -0.9450 -0.7217
 4032SOL     OW23731   2.744   3.771   2.911 -0.7438 -0.1161 -0.1019
 4032SOL    HW123732   2.744   3.743   2.820 -2.5082 -1.2404  0.2523
 4032SOL    HW223733   2.794   3.701   2.953  1.9766  0.4393 -2.3551
 4033SOL     OW23734   0.990   4.157  12.426 -0.5687  0.1787  0.1600
 4033SOL    HW123735   1.062   4.167  12.363  0.6738 -1.8393  1.2505
 4033SOL    HW223736   1.003   4.064  12.446 -0.2383  0.6914  2.3169
 4034SOL     OW23737   4.667   3.209   7.650 -0.0649  0.2861  0.2925
 4034SOL    HW123738   4.653   3.128   7.698  1.0714  1.7297  3.0935
 4034SOL    HW223739   4.582   3.251   7.664  0.4543  0.9547  1.4579
 4035SOL     OW23740   2.469   2.155  12.109 -0.0369 -0.6458 -0.2950
 4035SOL    HW123741   2.451   2.153  12.203  2.7280 -2.8413  0.1937
 4035SOL    HW223742   2.561   2.183  12.118 -0.0635 -0.5367 -0.3595
 4036SOL     OW23743   1.588   0.281  15.676 -0.0615  0.4021 -0.0166
 4036SOL    HW123744   1.501   0.275  15.716 -0.0979  0.4482 -0.0871
 4036SOL    HW223745   1.594   0.376  15.670 -1.7585  0.5783  1.0748
 4037SOL     OW23746   1.173   3.349   2.656  0.2696 -0.7788 -0.1338
 4037SOL    HW123747   1.081   3.330   2.672 -0.0615 -0.9512 -2.2372
 4037SOL    HW223748   1.149   3.439   2.634  0.1675 -1.1492 -1.5693
 4038SOL     OW23749   2.057   1.347   3.733 -0.5241  0.0077  0.9575
 4038SOL    HW123750   2.008   1.374   3.811 -1.3019  1.4021 -0.0038
 4038SOL    HW223751   2.085   1.262   3.766 -0.0688 -0.5590 -0.9162
 4039SOL     OW23752   1.386   0.057   2.809 -0.6631 -0.1578 -0.2888
 4039SOL    HW123753   1.366   0.102   2.727  1.2176  0.4903 -0.3907
 4039SOL    HW223754   1.404   4.702   2.786  1.3502 -0.0785  0.9385
 4040SOL     OW23755   2.131   3.810   2.384  0.2032  0.0765  0.5561
 4040SOL    HW123756   2.081   3.730   2.365 -0.7690  0.0779  3.1114
 4040SOL    HW223757   2.066   3.871   2.350 -0.8909 -0.9888  0.7013
 4041SOL     OW23758   2.691   0.642  16.941 -0.1617 -0.5168  0.2756
 4041SOL    HW123759   2.596   0.657  16.937 -0.2196 -1.0346 -0.2230
 4041SOL    HW223760   2.698   0.547  16.944 -1.2269 -0.7295 -3.6092
 4042SOL     OW23761   0.823   4.464  10.956  0.1522 -0.0614  0.6019
 4042SOL    HW123762   0.848   4.378  10.990 -0.4871 -0.1203  0.9235
 4042SOL    HW223763   0.886   4.486  10.888  0.7769  1.0103  1.5505
 4043SOL     OW23764   4.044   2.738  16.539  0.3782 -0.0737  0.2863
 4043SOL    HW123765   4.045   2.774  16.451 -1.4466 -2.0642 -0.5491
 4043SOL    HW223766   3.966   2.783  16.570 -1.9688 -2.8222 -1.6003
 4044SOL     OW23767   3.880   2.611  17.050  0.7402  0.4445 -0.9021
 4044SOL    HW123768   3.825   2.533  17.043  0.8084  0.5165 -2.1567
 4044SOL    HW223769   3.810   2.676  17.043  0.6037  0.2752 -1.1109
 4045SOL     OW23770   1.050   1.589   1.616  0.5276 -0.0822  0.3205
 4045SOL    HW123771   1.058   1.578   1.710  2.3635 -0.6131  0.0945
 4045SOL    HW223772   1.097   1.672   1.612  0.0955  0.1878  0.9415
 4046SOL     OW23773   2.464   3.154   2.058 -0.0109  0.7769 -0.8819
 4046SOL    HW123774   2.465   3.114   2.145  3.2214  0.4388 -1.0631
 4046SOL    HW223775   2.502   3.078   2.013 -0.9691 -0.0189 -0.3368
 4047SOL     OW23776   4.448   4.279   1.034 -0.0315 -0.4795 -0.1631
 4047SOL    HW123777   4.382   4.332   0.989 -0.3126 -0.8485 -0.1863
 4047SOL    HW223778   4.402   4.196   1.036  2.5755 -1.9216 -0.3981
 4048SOL     OW23779   3.242   2.356   5.930  0.0974 -0.6613 -0.4857
 4048SOL    HW123780   3.194   2.415   5.988 -0.2026 -1.1326 -0.2599
 4048SOL    HW223781   3.272   2.285   5.987  2.6402  0.0565 -0.9188
 4049SOL     OW23782   1.225   0.596  16.107 -0.0789 -0.5407  0.1072
 4049SOL    HW123783   1.235   0.504  16.131  0.8763 -0.7538 -1.0872
 4049SOL    HW223784   1.317   0.618  16.093 -0.7680  0.6339 -2.5769
 4050SOL     OW23785   2.298   0.162  12.509  0.0539 -0.0377 -0.6342
 4050SOL    HW123786   2.364   0.108  12.554  1.2757  1.3896 -0.7129
 4050SOL    HW223787   2.232   0.093  12.506  0.9581 -0.9968  1.0334
 4051SOL     OW23788   3.117   0.852   7.402 -0.3372  0.3347 -0.5347
 4051SOL    HW123789   3.125   0.944   7.424 -0.2538  0.1950  0.0096
 4051SOL    HW223790   3.023   0.835   7.395 -0.5264  2.3361 -2.8524
 4052SOL     OW23791   3.956   1.155  17.064 -0.1254  0.3067 -0.2762
 4052SOL    HW123792   4.015   1.155  17.140  0.0539  0.7858 -0.4205
 4052SOL    HW223793   4.014   1.201  17.004  0.5980  0.8598  0.8537
 4053SOL     OW23794   3.476   4.619  16.896  0.0631 -0.8000  0.2222
 4053SOL    HW123795   3.568   4.610  16.920 -0.0468 -1.6614  0.3263
 4053SOL    HW223796   3.425   4.548  16.936 -0.3759  0.0839  1.2191
 4054SOL     OW23797   3.801   1.643   8.368  0.0420  0.6435 -0.2782
 4054SOL    HW123798   3.762   1.710   8.424  0.9070  0.6137  0.3481
 4054SOL    HW223799   3.821   1.683   8.283 -2.4065 -0.5731 -1.4545
 4055SOL     OW23800   3.955   3.999   3.038 -0.2540  0.0756  0.0591
 4055SOL    HW123801   3.976   4.018   3.129 -0.1542  1.8192 -0.3230
 4055SOL    HW223802   4.041   4.016   2.999 -0.5288  0.1115 -0.5371
 4056SOL     OW23803   4.602   1.050   3.088 -0.0118 -0.4099 -0.1341
 4056SOL    HW123804   4.563   1.001   3.016  0.9962 -1.3212 -0.0626
 4056SOL    HW223805   4.604   1.139   3.054 -2.5124  0.5960  2.3294
 4057SOL     OW23806   2.786   3.034   8.641 -0.3951  0.1454 -1.1580
 4057SOL    HW123807   2.792   3.117   8.689 -1.3255 -1.4981  1.7845
 4057SOL    HW223808   2.881   3.026   8.648 -0.3958 -0.5428 -1.9638
 4058SOL     OW23809   1.601   0.272   4.340  0.0496 -0.1033 -0.1872
 4058SOL    HW123810   1.634   0.222   4.265  1.3590  0.9356 -0.3099
 4058SOL    HW223811   1.537   0.219   4.387  1.2863 -0.4495  1.1094
 4059SOL     OW23812   3.742   0.569   0.460 -0.0530  0.5716  0.0576
 4059SOL    HW123813   3.798   0.495   0.435  0.2927  0.1535  2.0825
 4059SOL    HW223814   3.740   0.623   0.381 -1.2986 -0.2683 -0.4802
 4060SOL     OW23815   0.312   1.309   5.572 -0.1398 -0.2964 -0.6688
 4060SOL    HW123816   0.295   1.328   5.480 -1.2084 -1.0607 -0.6279
 4060SOL    HW223817   0.283   1.394   5.606 -0.2071 -1.1606  1.4468
 4061SOL     OW23818   3.385   1.030   1.808  0.2432 -0.6574  0.0514
 4061SOL    HW123819   3.413   1.102   1.751  1.8627  1.4768  3.5700
 4061SOL    HW223820   3.426   1.060   1.888 -0.6828 -1.1027  0.6896
 4062SOL     OW23821   1.276   0.273   4.246  0.6131 -0.1690  0.1327
 4062SOL    HW123822   1.349   0.244   4.300 -0.5043 -3.0741  0.0453
 4062SOL    HW223823   1.213   0.283   4.317  1.9149 -2.7509  1.6277
 4063SOL     OW23824   3.433   1.157  12.523 -0.1096  0.2970 -0.4507
 4063SOL    HW123825   3.492   1.084  12.542  0.5907  1.1235  0.5478
 4063SOL    HW223826   3.480   1.234  12.556  0.6796 -0.0472 -0.7731
 4064SOL     OW23827   3.651   4.631   8.535  0.0920  0.2760  0.4090
 4064SOL    HW123828   3.562   4.629   8.501 -0.7937 -0.7966  2.7362
 4064SOL    HW223829   3.676   4.701   8.475 -1.1500  1.2809  1.0723
 4065SOL     OW23830   2.825   1.687  12.020  0.1287  0.0508  0.4571
 4065SOL    HW123831   2.879   1.609  12.026 -1.5325 -1.3165 -2.3480
 4065SOL    HW223832   2.882   1.764  12.024  1.8938 -1.1535 -1.9555
 4066SOL     OW23833   1.417   2.427   4.722  0.2795  0.3206 -0.3314
 4066SOL    HW123834   1.342   2.460   4.672  1.0492 -0.7234 -2.1875
 4066SOL    HW223835   1.411   2.463   4.810  1.4510  0.9253 -0.5055
 4067SOL     OW23836   1.836   4.338   7.480  0.1351 -0.0852  0.2144
 4067SOL    HW123837   1.749   4.307   7.456  0.1999 -1.5964  1.9605
 4067SOL    HW223838   1.820   4.428   7.449 -1.1361 -0.4905 -0.3259
 4068SOL     OW23839   0.454   2.318  13.728  0.2217 -0.6496 -0.3583
 4068SOL    HW123840   0.368   2.276  13.735 -0.5789  1.1355  0.4619
 4068SOL    HW223841   0.470   2.375  13.803  0.4699 -2.0523  0.6552
 4069SOL     OW23842   3.081   2.930   4.477  0.5130  0.1416  0.3873
 4069SOL    HW123843   3.173   2.951   4.464  0.1762 -0.6661 -3.3270
 4069SOL    HW223844   3.088   2.836   4.493  1.1924  0.4119  1.6424
 4070SOL     OW23845   4.301   0.866   5.971 -0.1741 -0.0456 -0.7199
 4070SOL    HW123846   4.383   0.913   5.989 -1.5933  1.5951  1.3402
 4070SOL    HW223847   4.283   0.895   5.881 -0.5535  0.6009 -0.4275
 4071SOL     OW23848   0.000   3.109   9.332 -0.3656 -0.3320  1.1338
 4071SOL    HW123849   0.038   3.071   9.253  1.6273  1.5976  1.1595
 4071SOL    HW223850   0.077   3.161   9.355  1.0674 -1.7892 -0.3772
 4072SOL     OW23851   0.073   2.694  13.853  0.2866  0.7882  0.1197
 4072SOL    HW123852   0.012   2.661  13.919  0.6482 -2.1082 -1.0202
 4072SOL    HW223853   0.087   2.614  13.803  2.4608  0.6294  0.9583
 4073SOL     OW23854   4.489   2.812   5.359 -0.0927  0.1137 -0.0497
 4073SOL    HW123855   4.449   2.897   5.343  0.5884 -0.2391 -3.6889
 4073SOL    HW223856   4.426   2.746   5.331 -1.2443  1.5101 -0.7029
 4074SOL     OW23857   1.839   1.942   6.024  0.2115 -0.0961  0.1952
 4074SOL    HW123858   1.874   1.998   5.955 -1.7762  1.7284  0.6666
 4074SOL    HW223859   1.779   1.989   6.082 -0.3312 -1.7814  0.9932
 4075SOL     OW23860   3.419   1.489   1.429  0.1036  0.1389  0.7898
 4075SOL    HW123861   3.403   1.497   1.335  0.9134  0.5020  0.6848
 4075SOL    HW223862   3.499   1.437   1.429 -0.4979 -0.8384 -4.0648
 4076SOL     OW23863   2.620   2.223  15.768  0.0044  0.0002  0.2723
 4076SOL    HW123864   2.689   2.163  15.796  1.8095  2.0981  0.2581
 4076SOL    HW223865   2.666   2.269  15.698  4.2045 -1.7780  1.8254
 4077SOL     OW23866   1.672   2.892  12.374 -0.0839 -0.2399  0.2764
 4077SOL    HW123867   1.706   2.893  12.285  0.6493 -3.1314  0.5243
 4077SOL    HW223868   1.752   2.903  12.425 -0.9623  2.3984  1.1352
 4078SOL     OW23869   1.945   2.225   9.639 -0.2958 -0.0378  0.0356
 4078SOL    HW123870   1.951   2.129   9.638  1.0842  0.0370  1.2222
 4078SOL    HW223871   1.880   2.238   9.570  1.4146  1.8235 -1.2558
 4079SOL     OW23872   3.018   0.114  17.500 -0.0208 -0.7910  0.6216
 4079SOL    HW123873   2.970   0.188  17.463 -0.7893 -1.3285  0.5343
 4079SOL    HW223874   2.946   0.055  17.522  1.1338 -2.2989  0.3933
 4080SOL     OW23875   4.593   2.393   8.375  0.2948  0.5835 -0.7893
 4080SOL    HW123876   4.546   2.365   8.297  1.3429  1.2369 -1.6401
 4080SOL    HW223877   4.637   2.313   8.406 -0.9803  0.6006  1.0822
 4081SOL     OW23878   3.118   3.823   2.580  0.0441 -0.3484  0.2110
 4081SOL    HW123879   3.109   3.728   2.573  0.4304 -0.2210 -2.0516
 4081SOL    HW223880   3.147   3.835   2.670  0.6978  1.9451 -0.3233
 4082SOL     OW23881   2.713   0.115   4.961 -0.2075  1.0512  0.1338
 4082SOL    HW123882   2.795   0.163   4.970  0.7890 -0.5810 -0.4042
 4082SOL    HW223883   2.742   0.071   4.881 -0.2205 -0.1770  0.8183
 4083SOL     OW23884   0.576   2.332   6.648  0.7269  0.9680 -0.1688
 4083SOL    HW123885   0.521   2.410   6.646  0.6192  0.9090  1.1000
 4083SOL    HW223886   0.621   2.362   6.727  1.5820 -1.5283  0.2849
 4084SOL     OW23887   0.682   0.438  10.590 -0.0321  0.1370 -0.0685
 4084SOL    HW123888   0.727   0.391  10.520 -0.8513  0.0406 -0.5410
 4084SOL    HW223889   0.756   0.476  10.636 -0.0772  1.6026 -1.2207
 4085SOL     OW23890   2.958   2.194  10.765 -0.0502 -0.4523  0.0323
 4085SOL    HW123891   3.026   2.203  10.699 -0.0137 -2.7208 -0.2324
 4085SOL    HW223892   2.884   2.243  10.729 -0.7730 -0.5322  1.3788
 4086SOL     OW23893   3.348   1.641   3.344 -0.0846 -0.4886 -0.8773
 4086SOL    HW123894   3.254   1.626   3.333 -0.1106  0.5836 -2.1076
 4086SOL    HW223895   3.355   1.701   3.270 -0.7661 -0.8277 -1.2269
 4087SOL     OW23896   4.189   2.895   8.304 -0.3704 -0.0372 -0.0225
 4087SOL    HW123897   4.265   2.908   8.361 -0.4601  0.8499 -0.1112
 4087SOL    HW223898   4.177   2.800   8.296 -1.5224 -0.1299  2.7714
 4088SOL     OW23899   1.501   1.963  16.190  0.1348  0.1292  0.0785
 4088SOL    HW123900   1.441   1.898  16.227 -0.2377  0.1578 -0.4754
 4088SOL    HW223901   1.546   1.985  16.272 -0.2513  2.2289 -0.2803
 4089SOL     OW23902   1.679   2.394   0.380 -0.2126  0.3624 -0.2739
 4089SOL    HW123903   1.759   2.446   0.368 -0.2140  0.2406 -0.7951
 4089SOL    HW223904   1.713   2.340   0.452  0.9921  2.8604  1.0137
 4090SOL     OW23905   0.142   3.749   5.928 -0.2133 -0.0480  0.3309
 4090SOL    HW123906   0.233   3.733   5.953 -0.7100 -2.2002  0.7757
 4090SOL    HW223907   0.099   3.664   5.941  0.2010 -0.3051  0.0223
 4091SOL     OW23908   4.145   2.109   3.661  0.0619  0.4313  0.4876
 4091SOL    HW123909   4.178   2.093   3.572  1.3974  0.7577  0.9165
 4091SOL    HW223910   4.139   2.019   3.692 -1.9798  0.3907 -0.0175
 4092SOL     OW23911   2.489   1.076   6.106  0.4672  0.0608 -0.0672
 4092SOL    HW123912   2.445   1.087   6.022 -0.0729  0.0816  0.2225
 4092SOL    HW223913   2.424   1.027   6.155 -2.0761  3.4730 -0.0165
 4093SOL     OW23914   3.182   3.130   1.892 -0.2712  0.4318  0.1178
 4093SOL    HW123915   3.264   3.120   1.941 -1.6830  0.2474  2.4423
 4093SOL    HW223916   3.206   3.191   1.822  1.0631 -0.4087 -0.1613
 4094SOL     OW23917   3.448   4.436   9.105  0.5514 -0.3034  0.3951
 4094SOL    HW123918   3.503   4.456   9.181 -1.8561  0.6350  1.8771
 4094SOL    HW223919   3.519   4.425   9.041  0.4665 -0.4899  0.3330
 4095SOL     OW23920   0.041   1.101   6.403  0.2633 -0.4683  0.1567
 4095SOL    HW123921   0.059   1.012   6.375  0.6814  0.6266 -3.0294
 4095SOL    HW223922   4.722   1.116   6.326 -0.1596  0.3222  0.6144
 4096SOL     OW23923   1.911   4.155  11.936 -0.4570  0.0823  0.2103
 4096SOL    HW123924   1.984   4.134  11.994 -0.3904  0.6117  0.3219
 4096SOL    HW223925   1.898   4.068  11.900 -2.6742 -0.0899  1.4267
 4097SOL     OW23926   4.487   4.530   3.524 -0.0304  0.4512 -0.3084
 4097SOL    HW123927   4.553   4.461   3.516 -1.6077 -1.3727  2.1429
 4097SOL    HW223928   4.540   4.607   3.507  2.0329 -1.3846 -2.2793
 4098SOL     OW23929   1.164   1.089   8.289  0.2826  0.8384  0.4220
 4098SOL    HW123930   1.190   1.009   8.335 -0.7429  0.0337 -0.3884
 4098SOL    HW223931   1.070   1.087   8.307  0.0157 -0.0312 -1.0002
 4099SOL     OW23932   4.225   2.932  12.874  0.3527 -0.4516  0.2997
 4099SOL    HW123933   4.170   3.009  12.856  1.3194 -0.7658 -4.0366
 4099SOL    HW223934   4.306   2.970  12.839 -0.1350  1.6988  1.4695
 4100SOL     OW23935   4.333   2.080   9.197 -0.3133  0.3092  0.6563
 4100SOL    HW123936   4.275   2.048   9.266 -1.2594  0.5386 -0.0337
 4100SOL    HW223937   4.411   2.026   9.210  0.0634  0.2405 -1.8661
 4101SOL     OW23938   3.334   0.833   1.214 -0.6417  0.5325 -0.2276
 4101SOL    HW123939   3.318   0.769   1.282 -1.7297 -0.1165 -1.0844
 4101SOL    HW223940   3.313   0.781   1.136  0.5235  1.0026 -0.8655
 4102SOL     OW23941   1.899   0.456   2.580  0.1071  0.1982 -0.1232
 4102SOL    HW123942   1.972   0.467   2.520 -0.2097  0.9043 -0.3810
 4102SOL    HW223943   1.888   0.551   2.592 -0.6245  0.2492 -1.1951
 4103SOL     OW23944   0.638   1.560  13.879 -0.6881 -0.3616 -0.0703
 4103SOL    HW123945   0.636   1.620  13.804 -1.4114 -0.2419  0.0448
 4103SOL    HW223946   0.556   1.513  13.873 -1.1087  0.6478 -2.2343
 4104SOL     OW23947   4.505   0.630   3.247  0.3843  0.2005  0.3889
 4104SOL    HW123948   4.563   0.704   3.267  0.2979  0.7374 -1.3514
 4104SOL    HW223949   4.574   0.564   3.248  1.1626  0.9784 -2.8184
 4105SOL     OW23950   1.839   2.491   7.306  0.5711 -0.4809  0.2108
 4105SOL    HW123951   1.830   2.474   7.400 -2.8627  0.2723  0.0245
 4105SOL    HW223952   1.927   2.528   7.301 -1.4221  4.4646  1.8889
 4106SOL     OW23953   3.898   2.663   4.759  0.2216  0.2201 -0.3247
 4106SOL    HW123954   3.958   2.641   4.831 -2.0298 -2.7689  0.6442
 4106SOL    HW223955   3.959   2.706   4.700 -0.9205  2.6942  0.3058
 4107SOL     OW23956   1.327   4.174   7.601 -0.1774 -0.2756  0.0950
 4107SOL    HW123957   1.253   4.146   7.547  0.1170 -2.3287  0.7322
 4107SOL    HW223958   1.295   4.221   7.679  0.7917  0.4162  0.0682
 4108SOL     OW23959   4.439   3.262   9.636  0.5337  0.0423 -0.3663
 4108SOL    HW123960   4.418   3.338   9.690 -1.0852 -0.0332 -0.8661
 4108SOL    HW223961   4.408   3.190   9.691  0.5348 -0.7182 -1.3719
 4109SOL     OW23962   3.864   0.007   8.129  0.2666  0.1583 -0.2246
 4109SOL    HW123963   3.769   0.014   8.129  0.1371 -1.7299 -0.2171
 4109SOL    HW223964   3.868   4.651   8.106 -0.3941  0.1397 -0.2626
 4110SOL     OW23965   0.156   2.721   7.147  0.4283  0.2286 -0.0174
 4110SOL    HW123966   0.217   2.691   7.080  0.8498 -0.1849  0.5548
 4110SOL    HW223967   0.123   2.796   7.097  0.3377  0.0066 -0.2963
 4111SOL     OW23968   2.928   4.701  11.156  0.2524  0.4581  0.0573
 4111SOL    HW123969   2.874   4.623  11.147  1.8653 -0.5812 -0.5659
 4111SOL    HW223970   2.939   4.728  11.064 -0.7363 -0.0070 -0.1960
 4112SOL     OW23971   2.705   2.274   4.091 -0.5171 -0.4130 -0.0375
 4112SOL    HW123972   2.644   2.339   4.057 -1.4698 -1.3307 -0.0829
 4112SOL    HW223973   2.688   2.280   4.185  2.1972  0.4783  0.4053
 4113SOL     OW23974   3.401   1.381   3.428  0.2563 -0.3658  0.4233
 4113SOL    HW123975   3.390   1.459   3.373 -2.4304  0.5983  2.3429
 4113SOL    HW223976   3.322   1.388   3.482  0.8576 -1.8271  1.4709
 4114SOL     OW23977   2.455   0.648   7.687 -0.9475 -0.8057  0.9785
 4114SOL    HW123978   2.459   0.707   7.762  0.1344  1.0874 -0.5442
 4114SOL    HW223979   2.369   0.607   7.695 -0.6346 -0.9083  3.6711
 4115SOL     OW23980   1.916   3.012   1.349 -0.3136 -0.6484 -0.5848
 4115SOL    HW123981   1.870   3.027   1.432  0.7219  0.6354 -0.2450
 4115SOL    HW223982   1.909   3.101   1.316 -0.0077 -1.2303 -2.2310
 4116SOL     OW23983   3.148   3.126   3.334 -0.4681 -0.3173 -0.2834
 4116SOL    HW123984   3.088   3.068   3.383  1.6942 -0.8320  1.7578
 4116SOL    HW223985   3.234   3.125   3.375 -0.5662  1.7968 -0.0351
 4117SOL     OW23986   1.780   4.176   6.350  0.1086  0.0714  0.1650
 4117SOL    HW123987   1.734   4.099   6.384  0.5899  0.3221  1.3852
 4117SOL    HW223988   1.858   4.195   6.403 -0.0749  2.9055 -0.5931
 4118SOL     OW23989   1.763   0.173   2.817 -0.4088 -0.0133  0.5022
 4118SOL    HW123990   1.729   0.261   2.796  0.8806  0.5060  0.5928
 4118SOL    HW223991   1.700   0.132   2.757  1.2609  0.3989 -1.5443
 4119SOL     OW23992   3.847   4.542   3.334  0.4833  0.5119 -0.2894
 4119SOL    HW123993   3.851   4.584   3.248 -1.4974  0.3172 -0.4718
 4119SOL    HW223994   3.776   4.591   3.376 -2.0436 -2.6423 -0.8945
 4120SOL     OW23995   1.528   1.058   8.123 -0.1909  0.2303  0.4337
 4120SOL    HW123996   1.445   1.070   8.077  1.8191 -0.0976 -3.2034
 4120SOL    HW223997   1.522   0.963   8.123 -0.2820  0.2390 -0.3846
 4121SOL     OW23998   2.228   2.512  13.183 -0.0063 -0.0771  0.4334
 4121SOL    HW123999   2.140   2.550  13.194 -0.2782 -0.2587 -1.1420
 4121SOL    HW224000   2.254   2.519  13.092 -0.3866  1.0225  0.4108
 4122SOL     OW24001   3.551   2.916  12.784 -0.2394 -0.2590 -0.2202
 4122SOL    HW124002   3.549   2.834  12.833 -2.0306  0.1545  0.3784
 4122SOL    HW224003   3.644   2.935  12.769 -0.1378 -1.7086 -1.3867
 4123SOL     OW24004   0.633   3.065   5.872 -0.3968  0.2964 -0.0200
 4123SOL    HW124005   0.710   3.011   5.885 -2.1305 -1.6806  1.8802
 4123SOL    HW224006   0.554   3.012   5.877 -0.7893  0.9899  1.1878
 4124SOL     OW24007   3.425   4.186   4.877 -0.3186  0.0516 -0.0600
 4124SOL    HW124008   3.347   4.184   4.932 -1.1025 -0.3444 -1.1848
 4124SOL    HW224009   3.398   4.136   4.800  1.2191 -3.7707  1.8763
 4125SOL     OW24010   1.631   2.005  16.418 -0.0449 -0.7680 -0.0564
 4125SOL    HW124011   1.721   2.027  16.441 -0.5634  1.9172 -0.5364
 4125SOL    HW224012   1.594   2.093  16.405  3.2139  0.8428  1.6656
 4126SOL     OW24013   1.781   3.737   3.652 -0.3186 -0.3580 -0.2612
 4126SOL    HW124014   1.868   3.728   3.690 -0.4514  0.6587  0.2762
 4126SOL    HW224015   1.735   3.790   3.717  0.1025 -0.2448 -0.0564
 4127SOL     OW24016   2.672   4.711  10.924 -0.4258 -0.1431 -0.2528
 4127SOL    HW124017   2.760   4.715  10.887 -0.8200 -1.6576 -1.3500
 4127SOL    HW224018   2.629   0.049  10.884 -1.2598  0.1038  1.1045
 4128SOL     OW24019   1.983   1.216  17.543  0.0130  0.7750  0.7439
 4128SOL    HW124020   2.048   1.248  17.605 -0.9468  1.9510  1.1602
 4128SOL    HW224021   2.037   1.148  17.503 -1.9726 -1.5957  2.1691
 4129SOL     OW24022   2.637   0.598   3.172 -0.0831 -0.5145 -0.2050
 4129SOL    HW124023   2.628   0.652   3.251 -0.8435  0.4057 -0.9315
 4129SOL    HW224024   2.647   0.512   3.213 -0.6683  0.2291  1.4919
 4130SOL     OW24025   4.473   2.959   8.879  0.0327 -0.3947 -0.2114
 4130SOL    HW124026   4.555   2.948   8.831  0.5543 -0.2343  0.6485
 4130SOL    HW224027   4.445   3.048   8.860 -0.3405 -0.7100 -1.1396
 4131SOL     OW24028   3.873   0.380   4.913  0.0214 -0.0804  0.2034
 4131SOL    HW124029   3.946   0.320   4.923 -2.0029 -2.6375 -0.4263
 4131SOL    HW224030   3.916   0.464   4.928  0.3514 -0.0024 -1.2136
 4132SOL     OW24031   0.124   1.170   7.047  0.0811 -0.5974 -0.3388
 4132SOL    HW124032   0.056   1.104   7.056  0.0439 -0.4312  0.5909
 4132SOL    HW224033   0.121   1.218   7.129 -2.6241  0.6142 -1.1404
 4133SOL     OW24034   4.124   3.612   6.729  0.2055  0.3037  0.6305
 4133SOL    HW124035   4.179   3.558   6.673  0.1847  0.8274  0.1104
 4133SOL    HW224036   4.109   3.699   6.694  0.3869 -0.4799 -1.3823
 4134SOL     OW24037   0.662   1.144   7.179  0.1239 -0.0140 -0.0160
 4134SOL    HW124038   0.583   1.188   7.146  1.6508  1.4444 -1.7932
 4134SOL    HW224039   0.621   1.061   7.203  3.1493 -1.4767  0.1308
 4135SOL     OW24040   1.503   4.167   7.838 -0.0890 -0.4660  0.3987
 4135SOL    HW124041   1.415   4.195   7.813 -0.7849 -2.8790  0.1386
 4135SOL    HW224042   1.526   4.235   7.902  1.8001 -2.1384  1.4909
 4136SOL     OW24043   2.714   0.433   3.945 -0.1485  0.1756 -0.2060
 4136SOL    HW124044   2.783   0.490   3.911 -0.0711  0.0323 -0.2896
 4136SOL    HW224045   2.717   0.358   3.886  1.5814  0.9742 -1.1246
 4137SOL     OW24046   2.451   0.108   3.347  0.2719 -0.4707 -0.1359
 4137SOL    HW124047   2.391   0.074   3.414 -1.0490  1.3089 -0.4196
 4137SOL    HW224048   2.424   0.070   3.263 -2.3334 -1.8761  1.3317
 4138SOL     OW24049   2.029   1.352   7.728  0.5468 -0.0710  0.4188
 4138SOL    HW124050   1.957   1.386   7.780 -1.1467 -3.3560  0.1804
 4138SOL    HW224051   2.025   1.264   7.764 -2.0002 -0.0461  0.2072
 4139SOL     OW24052   4.514   0.715  15.654  0.2956 -0.0617  0.4692
 4139SOL    HW124053   4.516   0.631  15.609 -0.0406 -0.0180  0.3748
 4139SOL    HW224054   4.520   0.778  15.583 -1.3968 -0.6541 -0.1998
 4140SOL     OW24055   0.638   3.218  12.576  0.4598 -0.4147  0.2077
 4140SOL    HW124056   0.614   3.291  12.632  2.0662  0.3951 -0.1666
 4140SOL    HW224057   0.663   3.267  12.497 -2.4357  1.4561  0.4574
 4141SOL     OW24058   3.905   4.219  15.053 -0.7370 -0.3543  0.1795
 4141SOL    HW124059   3.814   4.201  15.077 -0.5371 -0.4556  0.8731
 4141SOL    HW224060   3.905   4.213  14.958  0.6612  1.6088  0.0593
 4142SOL     OW24061   2.942   1.263   7.365 -0.1469 -0.4919 -0.7925
 4142SOL    HW124062   2.858   1.304   7.344 -0.5398 -0.6249  0.5001
 4142SOL    HW224063   2.995   1.342   7.355 -2.9389  1.4760 -0.0715
 4143SOL     OW24064   3.415   1.890  12.564  0.1533  0.2962  0.5525
 4143SOL    HW124065   3.381   1.919  12.479 -0.7272  0.6294  1.0273
 4143SOL    HW224066   3.335   1.897  12.616 -0.3716 -0.6456 -0.1218
 4144SOL     OW24067   1.616   1.796   6.759 -0.6678  0.2096  0.0556
 4144SOL    HW124068   1.663   1.753   6.830 -0.0157  2.1981  0.8317
 4144SOL    HW224069   1.575   1.872   6.801 -2.6901 -1.7057  1.5460
 4145SOL     OW24070   3.947   2.082   4.631  0.2164  0.1329 -0.1395
 4145SOL    HW124071   3.874   2.122   4.677  0.0822  0.0550 -0.2853
 4145SOL    HW224072   3.905   2.035   4.559  1.7611 -1.7053  0.1701
 4146SOL     OW24073   2.887   4.641   0.785  0.1343  0.8650  0.3300
 4146SOL    HW124074   2.809   4.619   0.837  0.5299 -0.4432  0.3730
 4146SOL    HW224075   2.952   4.596   0.839 -1.2438 -2.2720 -0.6255
 4147SOL     OW24076   0.152   0.825   7.939  0.2458  0.2603 -0.0880
 4147SOL    HW124077   0.137   0.759   7.872 -1.6682 -0.2293  0.8315
 4147SOL    HW224078   0.071   0.831   7.989 -1.5366  1.0145 -3.0349
 4148SOL     OW24079   3.206   1.431  15.516 -0.0617 -0.4342 -0.0159
 4148SOL    HW124080   3.264   1.355  15.528  0.6111 -0.1600 -1.6032
 4148SOL    HW224081   3.219   1.442  15.422 -0.4134 -1.6860 -0.2154
 4149SOL     OW24082   1.399   1.354   2.681 -0.2242  0.1279  0.4544
 4149SOL    HW124083   1.372   1.367   2.590 -1.8327 -0.1224  0.9050
 4149SOL    HW224084   1.321   1.374   2.731  0.4799  0.5347  1.3979
 4150SOL     OW24085   3.992   3.042   3.572  0.1769 -0.1409 -0.9650
 4150SOL    HW124086   3.983   3.127   3.529  0.1126 -0.5916 -1.8576
 4150SOL    HW224087   3.930   2.990   3.520  0.1758 -1.7682  0.6372
 4151SOL     OW24088   2.715   0.480   2.698 -0.1729  0.5142 -0.2980
 4151SOL    HW124089   2.740   0.558   2.748  0.6150  0.0819 -0.0184
 4151SOL    HW224090   2.726   0.427   2.777 -2.3389  0.6239  0.0709
 4152SOL     OW24091   2.327   2.848  12.966 -0.5725 -0.2928  0.6214
 4152SOL    HW124092   2.270   2.833  13.041 -1.6702 -0.2555 -0.2039
 4152SOL    HW224093   2.255   2.872  12.907  1.0336  2.0899 -0.4102
 4153SOL     OW24094   1.253   3.361  10.182 -0.6504  0.2092 -0.5057
 4153SOL    HW124095   1.226   3.406  10.102 -0.9956  1.4239  0.2913
 4153SOL    HW224096   1.223   3.271  10.169 -0.0301  0.0467 -0.8325
 4154SOL     OW24097   0.502   4.165   4.775  0.1093 -0.3703 -0.1402
 4154SOL    HW124098   0.449   4.241   4.797  0.4643 -0.4209  0.8754
 4154SOL    HW224099   0.572   4.217   4.734  0.6857 -0.2539  1.0038
 4155SOL     OW24100   3.338   3.627   7.108  0.8105 -0.0331 -0.0076
 4155SOL    HW124101   3.384   3.582   7.036  2.0120  0.0919  0.6905
 4155SOL    HW224102   3.251   3.586   7.118  1.0290 -1.2373 -2.8704
 4156SOL     OW24103   0.322   3.644   4.021 -0.2186 -0.0400 -0.0245
 4156SOL    HW124104   0.284   3.624   4.106 -0.6399  0.9634  0.0222
 4156SOL    HW224105   0.408   3.607   4.040  0.8304  0.9968 -2.7896
 4157SOL     OW24106   0.370   2.904   5.913  0.0106  0.4097 -0.6359
 4157SOL    HW124107   0.397   2.816   5.888 -0.8600 -0.2784  0.8265
 4157SOL    HW224108   0.276   2.884   5.917  0.5015 -2.0760 -1.2315
 4158SOL     OW24109   0.691   1.219   4.104 -0.1255  0.0639 -0.1652
 4158SOL    HW124110   0.697   1.276   4.027  0.5839 -0.2503 -0.3426
 4158SOL    HW224111   0.777   1.241   4.141 -0.2554 -0.1730  0.2678
 4159SOL     OW24112   0.758   3.794  15.456  0.4796 -0.4698  0.3742
 4159SOL    HW124113   0.810   3.714  15.452  1.6140  0.3426 -0.7575
 4159SOL    HW224114   0.688   3.783  15.392  0.5116 -3.3865  0.8217
 4160SOL     OW24115   3.998   3.348   5.441 -0.0938 -0.1348 -0.6228
 4160SOL    HW124116   4.090   3.372   5.456 -0.4445 -1.0296  2.8239
 4160SOL    HW224117   3.961   3.429   5.476  0.6208 -0.1993  0.2715
 4161SOL     OW24118   3.380   0.372  14.859 -0.6933  0.2417 -0.9706
 4161SOL    HW124119   3.432   0.419  14.924  0.6950 -1.9009 -0.5177
 4161SOL    HW224120   3.438   0.296  14.860 -1.4051 -0.3147 -1.8853
 4162SOL     OW24121   1.741   2.650   1.499 -0.4708  0.0790  0.6140
 4162SOL    HW124122   1.824   2.607   1.477  0.7332  1.3853  2.5818
 4162SOL    HW224123   1.676   2.580   1.506 -0.6834  0.0376 -1.6668
 4163SOL     OW24124   3.916   2.012   0.566  0.0865  0.3875 -0.1113
 4163SOL    HW124125   3.971   1.961   0.506 -2.2594 -0.3950 -1.5861
 4163SOL    HW224126   3.831   1.980   0.535 -0.1533 -0.6315  1.5862
 4164SOL     OW24127   0.519   1.259   8.626 -0.6365  0.1063 -0.0121
 4164SOL    HW124128   0.531   1.351   8.650 -1.8999 -0.3668  2.4609
 4164SOL    HW224129   0.598   1.211   8.650 -0.0325  0.7864 -0.6639
 4165SOL     OW24130   0.078   3.686  16.430 -0.1737 -0.2914  0.0936
 4165SOL    HW124131   0.146   3.751  16.412 -1.0210  0.7174  0.4733
 4165SOL    HW224132   4.732   3.736  16.430  1.0555  1.7597 -0.7606
 4166SOL     OW24133   3.258   4.362   3.403 -0.2080 -0.3661  0.1173
 4166SOL    HW124134   3.188   4.332   3.461 -1.1225  2.9155  0.7472
 4166SOL    HW224135   3.197   4.402   3.342  0.7340 -0.6914 -1.0317
 4167SOL     OW24136   0.930   4.585   0.960 -0.4099  0.2638  0.3065
 4167SOL    HW124137   1.001   4.638   0.924 -0.6885  0.0330 -0.5788
 4167SOL    HW224138   0.931   4.514   0.896  0.3178  0.8102 -0.2929
 4168SOL     OW24139   2.510   4.324   3.271  0.6663  0.4313 -0.0294
 4168SOL    HW124140   2.499   4.238   3.311 -1.8333  1.2941  1.1411
 4168SOL    HW224141   2.575   4.299   3.205 -0.5578  0.7644 -1.3588
 4169SOL     OW24142   1.877   2.176   9.909  0.0954 -0.1980  0.3605
 4169SOL    HW124143   1.818   2.242   9.945 -0.4308 -1.2040  1.3684
 4169SOL    HW224144   1.905   2.192   9.819  1.7923  1.1549  1.1444
 4170SOL     OW24145   2.510   4.630   0.275  0.1974  0.3332 -0.5638
 4170SOL    HW124146   2.560   4.550   0.257 -0.1477  0.3969 -1.8267
 4170SOL    HW224147   2.486   4.623   0.367  1.0642  0.9296 -0.2875
 4171SOL     OW24148   3.122   1.278   6.172  0.2206 -0.1006 -0.0894
 4171SOL    HW124149   3.033   1.313   6.161 -0.1060 -1.2803 -1.1329
 4171SOL    HW224150   3.162   1.357   6.209 -1.7982 -0.5343  2.9912
 4172SOL     OW24151   4.522   3.432   6.310 -0.1075  0.0398  0.0603
 4172SOL    HW124152   4.561   3.345   6.300  0.6597  0.3643  0.2071
 4172SOL    HW224153   4.447   3.434   6.250  1.0772 -0.4266 -1.4479
 4173SOL     OW24154   1.779   2.098   1.027  0.2264 -0.7211  0.1718
 4173SOL    HW124155   1.836   2.126   1.098 -0.8635 -1.1846  1.2315
 4173SOL    HW224156   1.720   2.036   1.070 -1.7289 -0.5153 -2.2253
 4174SOL     OW24157   1.251   3.335   8.054 -0.2871  0.3972 -0.3184
 4174SOL    HW124158   1.172   3.290   8.084  2.5914 -2.7117  2.6573
 4174SOL    HW224159   1.236   3.323   7.960  0.1143 -2.3439 -0.0478
 4175SOL     OW24160   0.962   3.472   1.162  0.1471  0.0685  0.2288
 4175SOL    HW124161   1.045   3.433   1.132  0.0445  0.4722 -0.5816
 4175SOL    HW224162   0.959   3.541   1.096 -0.5110 -0.7131 -0.5588
 4176SOL     OW24163   4.658   4.528   5.150  0.7359 -0.8448  0.0316
 4176SOL    HW124164   4.666   4.503   5.243 -0.2997 -0.1865  0.2958
 4176SOL    HW224165   4.618   4.445   5.123 -0.8768  0.0414 -0.2931
 4177SOL     OW24166   0.558   3.512   4.011 -0.8675 -0.2783 -0.2287
 4177SOL    HW124167   0.552   3.433   4.065  0.4161  1.1400  1.9556
 4177SOL    HW224168   0.590   3.471   3.930  1.5399  2.9558 -0.9069
 4178SOL     OW24169   2.438   3.237   4.618 -0.2852 -0.5309 -0.2599
 4178SOL    HW124170   2.351   3.267   4.646  1.1261  1.3350  2.1215
 4178SOL    HW224171   2.450   3.308   4.555 -1.0656 -0.3343 -0.1872
 4179SOL     OW24172   0.326   4.463   0.884  0.2974  0.8482 -0.2650
 4179SOL    HW124173   0.418   4.469   0.857 -0.2318  0.2770 -2.1819
 4179SOL    HW224174   0.314   4.368   0.878  0.6252  0.7572  0.5750
 4180SOL     OW24175   2.756   1.844   1.051  0.1461  0.0929 -0.2554
 4180SOL    HW124176   2.753   1.766   1.106 -1.0301  0.1466 -0.2430
 4180SOL    HW224177   2.678   1.885   1.087  0.1569 -0.9028  0.8927
 4181SOL     OW24178   1.673   0.814   6.577 -0.4030 -0.3565 -0.7607
 4181SOL    HW124179   1.735   0.741   6.576  0.7018  0.5756  0.8970
 4181SOL    HW224180   1.697   0.876   6.508 -3.0837  0.9356 -0.5284
 4182SOL     OW24181   2.754   4.386  10.877  0.0231 -0.0402  0.0633
 4182SOL    HW124182   2.740   4.478  10.902 -1.0213 -0.1828 -0.0245
 4182SOL    HW224183   2.668   4.345  10.870 -0.1221  0.5076 -1.3772
 4183SOL     OW24184   2.458   0.358  15.662 -0.7678  0.1519  0.1076
 4183SOL    HW124185   2.443   0.429  15.600  2.1553  0.8510  0.2330
 4183SOL    HW224186   2.375   0.317  15.638  1.0976 -1.2623 -3.9541
 4184SOL     OW24187   3.472   3.267  16.018  0.1593  0.1701  0.4473
 4184SOL    HW124188   3.380   3.255  16.044  0.3075 -0.6613  0.5852
 4184SOL    HW224189   3.472   3.220  15.935  2.4796  3.1514 -1.2131
 4185SOL     OW24190   0.039   0.151   4.332  0.3735  0.8755  0.0894
 4185SOL    HW124191   0.066   0.243   4.336  1.9423  0.3294  2.1845
 4185SOL    HW224192   0.121   0.108   4.355 -0.4973  0.4218  2.3425
 4186SOL     OW24193   2.104   4.556   7.541 -0.0299  0.5363  0.2923
 4186SOL    HW124194   2.084   4.517   7.626 -0.4774 -0.2481 -0.1734
 4186SOL    HW224195   2.021   4.551   7.493  0.1198 -0.4208  0.1443
 4187SOL     OW24196   0.099   4.542  13.764 -0.3140 -0.2108 -0.1674
 4187SOL    HW124197   0.143   4.627  13.764 -0.6700 -0.0297 -0.4212
 4187SOL    HW224198   0.129   4.507  13.680 -0.8274 -2.0246  0.4060
 4188SOL     OW24199   2.393   0.483   9.880  0.3180  0.3614  0.0949
 4188SOL    HW124200   2.339   0.449   9.952  0.8543 -0.0266  0.3102
 4188SOL    HW224201   2.344   0.439   9.810 -0.4354 -1.2983  1.6768
 4189SOL     OW24202   2.012   3.911  15.152  0.4288  0.0338 -0.0124
 4189SOL    HW124203   2.038   3.861  15.229  2.0096 -0.1350 -0.6536
 4189SOL    HW224204   2.027   3.844  15.085 -3.3769 -1.3495  0.5135
 4190SOL     OW24205   0.043   4.456   8.360 -0.0964 -0.1390  0.2196
 4190SOL    HW124206   0.134   4.428   8.363  0.1945  0.8718  0.5989
 4190SOL    HW224207   0.046   4.537   8.411 -0.2591 -0.0435  0.0772
 4191SOL     OW24208   1.841   3.497   5.665  0.2551  0.4025 -0.1663
 4191SOL    HW124209   1.767   3.501   5.725  0.0468  1.0440 -0.4653
 4191SOL    HW224210   1.911   3.473   5.725 -0.0209  0.5006  0.1938
 4192SOL     OW24211   3.857   3.502   7.898  0.1492 -0.4136  0.8814
 4192SOL    HW124212   3.825   3.550   7.974 -0.5230  0.6200 -0.0510
 4192SOL    HW224213   3.914   3.449   7.953  0.1329  0.3121  1.6018
 4193SOL     OW24214   1.288   0.029  12.044 -0.1970 -0.0280  0.4613
 4193SOL    HW124215   1.216   4.726  12.093  0.7585 -2.1642  0.1083
 4193SOL    HW224216   1.249   0.112  12.014 -0.4493 -0.9475 -1.7321
 4194SOL     OW24217   0.890   4.170  11.062  0.5538 -0.1300 -0.3455
 4194SOL    HW124218   0.840   4.219  11.127  1.7280  3.5208 -2.2053
 4194SOL    HW224219   0.820   4.157  10.999  0.6057 -1.6963 -0.1005
 4195SOL     OW24220   4.637   1.339   4.380 -0.0119 -0.0519 -0.2050
 4195SOL    HW124221   4.710   1.290   4.340  0.4517 -1.0754  1.8844
 4195SOL    HW224222   4.570   1.272   4.393  1.9711 -1.3089  3.7556
 4196SOL     OW24223   4.047   4.672   8.973 -0.7881 -0.1284  0.0312
 4196SOL    HW124224   4.045   4.612   8.898  1.0321  2.1633 -1.8571
 4196SOL    HW224225   3.957   4.653   9.000  0.3613 -0.3396  3.6333
 4197SOL     OW24226   4.240   3.234   8.862  0.0670  0.4777 -0.1813
 4197SOL    HW124227   4.327   3.224   8.901  0.7020 -1.0282 -1.9860
 4197SOL    HW224228   4.209   3.144   8.875  2.8639 -0.4353  0.2531
 4198SOL     OW24229   1.484   3.769   8.579 -0.4811 -0.0988 -0.0038
 4198SOL    HW124230   1.423   3.810   8.640  0.0532  1.1284 -0.2986
 4198SOL    HW224231   1.522   3.853   8.553 -2.0941  0.3236 -0.9687
 4199SOL     OW24232   0.778   4.272   7.982  0.4674 -0.2153 -0.2708
 4199SOL    HW124233   0.828   4.194   8.010 -1.0934 -0.5792  1.4709
 4199SOL    HW224234   0.723   4.226   7.919 -0.2825 -1.3011  1.1855
 4200SOL     OW24235   0.567   1.749  11.026 -0.0107  0.3734  0.3213
 4200SOL    HW124236   0.614   1.826  11.059 -1.2052  1.4227 -0.4471
 4200SOL    HW224237   0.595   1.747  10.934  0.8756  2.8153  0.5385
 4201SOL     OW24238   0.714   3.091   1.943  0.6748 -0.4486  0.2377
 4201SOL    HW124239   0.726   2.996   1.954  0.4138 -0.4749  0.3100
 4201SOL    HW224240   0.629   3.104   1.901 -0.4981 -0.6095  2.5301
 4202SOL     OW24241   0.479   1.798  16.109 -0.1298  0.3169 -0.8983
 4202SOL    HW124242   0.411   1.865  16.115 -0.5003 -0.0556 -0.8692
 4202SOL    HW224243   0.556   1.854  16.102 -0.1181  0.5456  0.9327
 4203SOL     OW24244   4.282   0.516   1.996  0.2743 -0.1469  0.1892
 4203SOL    HW124245   4.373   0.529   2.020  0.4483 -1.3659  0.1948
 4203SOL    HW224246   4.249   0.479   2.078  0.8843  0.8641  0.8902
 4204SOL     OW24247   4.215   3.767  17.405 -0.1688 -0.4783  0.2187
 4204SOL    HW124248   4.184   3.831  17.342 -0.4552 -1.2593 -0.4349
 4204SOL    HW224249   4.274   3.713  17.352  1.7879  1.9369 -0.0816
 4205SOL     OW24250   1.616   2.114  15.338 -0.8765  0.3890 -0.2766
 4205SOL    HW124251   1.708   2.094  15.326 -0.7417  1.0349 -0.3027
 4205SOL    HW224252   1.580   2.025  15.337  1.4237 -0.5345 -0.4245
 4206SOL     OW24253   0.159   2.614   3.619  0.4558 -0.7976 -0.0263
 4206SOL    HW124254   0.216   2.575   3.685  1.3329 -0.1268 -0.3998
 4206SOL    HW224255   0.165   2.705   3.647 -3.4594 -0.0747 -1.5267
 4207SOL     OW24256   0.470   1.611   3.787 -0.5127 -0.0247  0.6699
 4207SOL    HW124257   0.375   1.613   3.770 -0.3791 -0.8375 -0.1928
 4207SOL    HW224258   0.498   1.642   3.701  1.8145  0.2338  1.5178
 4208SOL     OW24259   2.693   4.627  17.067  0.1062 -0.5458  0.6925
 4208SOL    HW124260   2.608   4.590  17.088 -1.1783  2.3864  0.6991
 4208SOL    HW224261   2.689   4.706  17.122 -2.7177 -1.6016  2.0166
 4209SOL     OW24262   0.206   3.858   3.158 -0.3131 -0.7510  0.0269
 4209SOL    HW124263   0.158   3.859   3.241 -0.9143  3.0053 -0.3305
 4209SOL    HW224264   0.163   3.936   3.121 -2.2442 -2.6989 -1.7843
 4210SOL     OW24265   3.649   1.262  16.373  0.0648  0.2781 -0.5481
 4210SOL    HW124266   3.654   1.357  16.363  0.5495  0.1066 -1.8564
 4210SOL    HW224267   3.697   1.244  16.454 -1.9947  0.8673  0.8196
 4211SOL     OW24268   4.254   4.106   0.857 -0.0600  0.1121  0.1356
 4211SOL    HW124269   4.250   4.173   0.788 -0.4119  1.3788  1.4068
 4211SOL    HW224270   4.165   4.072   0.863 -0.0695 -0.2612 -1.8857
 4212SOL     OW24271   2.424   2.130  12.379 -0.1553 -0.4872  0.2571
 4212SOL    HW124272   2.334   2.100  12.369  0.1693 -1.8869  1.6364
 4212SOL    HW224273   2.426   2.159  12.471  0.2370  0.7992 -0.1537
 4213SOL     OW24274   1.320   0.247  15.758  0.6320 -0.3040 -0.6036
 4213SOL    HW124275   1.286   0.322  15.710 -0.5742 -0.9474 -0.7546
 4213SOL    HW224276   1.249   0.236  15.821  1.7848 -0.4296  0.6890
 4214SOL     OW24277   3.524   1.320  10.170 -0.1019  0.1030 -0.5057
 4214SOL    HW124278   3.491   1.283  10.088 -1.4925 -0.7695  0.4364
 4214SOL    HW224279   3.464   1.285  10.237 -0.5193 -1.3096 -1.6094
 4215SOL     OW24280   1.586   3.519   2.576  0.3054 -0.1212  0.0122
 4215SOL    HW124281   1.622   3.552   2.658 -2.1036  1.7416  0.3109
 4215SOL    HW224282   1.496   3.550   2.584 -0.2569 -1.6168 -0.5821
 4216SOL     OW24283   4.215   1.618   0.649  0.3822 -0.0479 -0.4782
 4216SOL    HW124284   4.245   1.702   0.683 -2.1320  0.1068  1.3778
 4216SOL    HW224285   4.269   1.552   0.693 -1.0106  0.1191  1.5125
 4217SOL     OW24286   0.930   2.973  10.326 -0.0920  0.6343 -0.1802
 4217SOL    HW124287   0.882   2.890  10.324 -0.4288  0.8174  0.5827
 4217SOL    HW224288   1.011   2.943  10.366  0.0102  1.0848 -0.0593
 4218SOL     OW24289   1.457   1.242   4.105 -0.1567 -0.1001 -0.3523
 4218SOL    HW124290   1.426   1.155   4.082 -0.8095  0.0526 -0.0484
 4218SOL    HW224291   1.456   1.241   4.201  1.0634  0.5258 -0.3276
 4219SOL     OW24292   0.601   4.597   4.987  0.3488  0.9233 -0.5633
 4219SOL    HW124293   0.693   4.620   5.003  0.1805  2.2002 -1.4389
 4219SOL    HW224294   0.598   4.509   5.025 -0.6344  0.5232 -1.5827
 4220SOL     OW24295   0.756   0.053  17.670  0.1959 -0.4134 -0.0944
 4220SOL    HW124296   0.713   4.706  17.649 -0.8066 -0.1566  0.9179
 4220SOL    HW224297   0.743   0.049   0.020 -0.0028 -0.7027 -0.1321
 4221SOL     OW24298   4.474   2.668  13.779 -0.4076 -0.2805  0.4013
 4221SOL    HW124299   4.391   2.622  13.789 -0.2343 -0.6927 -0.0549
 4221SOL    HW224300   4.527   2.650  13.856  0.7070  2.7086  0.3576
 4222SOL     OW24301   3.303   3.287   5.876  0.4567 -0.3704  0.4092
 4222SOL    HW124302   3.272   3.239   5.953  1.1631  1.1158  1.6442
 4222SOL    HW224303   3.362   3.348   5.922 -0.8255  0.6813  0.6668
 4223SOL     OW24304   4.444   4.404   1.751  0.1019  0.2554 -0.1695
 4223SOL    HW124305   4.530   4.440   1.728  1.6751 -3.7013 -0.4312
 4223SOL    HW224306   4.444   4.336   1.683 -1.7374  0.8033 -0.7197
 4224SOL     OW24307   2.568   0.708   6.260 -0.8272  0.2945 -0.5868
 4224SOL    HW124308   2.646   0.679   6.307 -1.1378 -0.2315 -0.3981
 4224SOL    HW224309   2.506   0.727   6.330  0.3376 -0.3473  0.5978
 4225SOL     OW24310   0.833   3.578  11.341  0.2005  0.2165  0.0833
 4225SOL    HW124311   0.742   3.582  11.314  0.2941  0.1731 -0.2316
 4225SOL    HW224312   0.851   3.486  11.324 -3.8903  0.0715 -3.2332
 4226SOL     OW24313   3.687   4.232   4.949 -0.1717 -0.4715 -1.0757
 4226SOL    HW124314   3.615   4.203   4.894 -0.7567 -0.5455 -0.2767
 4226SOL    HW224315   3.689   4.164   5.016  1.0338  1.0570  0.4543
 4227SOL     OW24316   3.636   2.604   8.152  0.3458  0.7006 -0.0927
 4227SOL    HW124317   3.613   2.598   8.245 -1.1682  0.2783 -0.4923
 4227SOL    HW224318   3.625   2.697   8.133  2.0949  0.7168 -1.0632
 4228SOL     OW24319   1.986   2.384   5.506 -0.1418  0.4067 -0.4026
 4228SOL    HW124320   1.943   2.444   5.445  0.4126 -0.0777 -1.2693
 4228SOL    HW224321   2.044   2.440   5.559 -1.1175  1.7011 -0.6954
 4229SOL     OW24322   4.150   2.617   8.304  0.2803  0.7237  0.0669
 4229SOL    HW124323   4.178   2.531   8.273  0.2978  0.9331 -0.4903
 4229SOL    HW224324   4.061   2.622   8.270  0.6311  2.0290 -0.6619
 4230SOL     OW24325   3.489   1.571  13.068 -0.1308  0.3627 -0.5203
 4230SOL    HW124326   3.472   1.593  12.977  2.7060  0.0941 -1.1147
 4230SOL    HW224327   3.485   1.657  13.111  0.6583  0.4260 -0.5726
 4231SOL     OW24328   0.932   0.588  11.728  0.1913 -0.0065 -0.2193
 4231SOL    HW124329   0.970   0.666  11.770  0.0783 -1.2215  2.1574
 4231SOL    HW224330   0.859   0.571  11.787  0.5650 -3.1977 -0.6600
 4232SOL     OW24331   2.424   4.041   8.062  0.1712 -0.3954  0.7005
 4232SOL    HW124332   2.497   4.101   8.044  0.3446 -1.0478 -0.7311
 4232SOL    HW224333   2.355   4.057   7.998  0.6578  3.7791  1.2187
 4233SOL     OW24334   1.601   2.431   8.607 -0.1167  0.5165 -0.2762
 4233SOL    HW124335   1.555   2.384   8.677  0.7209 -0.5459 -0.4567
 4233SOL    HW224336   1.604   2.521   8.642  0.3270  0.5892 -0.5099
 4234SOL     OW24337   2.883   3.418   4.323 -0.3471 -0.0588 -0.1313
 4234SOL    HW124338   2.929   3.340   4.354 -1.7198 -0.6302  0.4758
 4234SOL    HW224339   2.954   3.471   4.287  0.8872  0.6061  3.2984
 4235SOL     OW24340   3.916   4.128   4.125  0.2536  0.5078  0.1148
 4235SOL    HW124341   4.009   4.131   4.105  0.7475  1.0037  2.4692
 4235SOL    HW224342   3.892   4.050   4.075 -0.3447 -0.4372  1.8468
 4236SOL     OW24343   1.225   0.532   5.296 -0.2827  0.3853 -0.1361
 4236SOL    HW124344   1.233   0.611   5.350  2.1069 -0.5064  0.8035
 4236SOL    HW224345   1.272   0.465   5.346 -0.5499  1.6780  1.8431
 4237SOL     OW24346   1.195   1.198   5.505 -0.7898  0.0387 -0.1197
 4237SOL    HW124347   1.274   1.225   5.458 -0.2676 -1.9613 -0.3821
 4237SOL    HW224348   1.240   1.147   5.573  0.3879 -0.8656 -1.5841
 4238SOL     OW24349   1.465   1.739   2.673  0.1115  0.3531 -0.0617
 4238SOL    HW124350   1.497   1.729   2.584 -1.1119  1.0813 -0.5862
 4238SOL    HW224351   1.461   1.834   2.687  1.5037  0.3852  0.1024
 4239SOL     OW24352   3.896   2.607  13.603 -0.5770 -0.0936 -0.3425
 4239SOL    HW124353   3.912   2.548  13.676  1.0274  2.3299  1.2673
 4239SOL    HW224354   3.989   2.618  13.581 -0.8460  1.3565 -0.8044
 4240SOL     OW24355   2.471   0.168  12.106 -0.3501  0.0188 -0.7346
 4240SOL    HW124356   2.478   0.232  12.177 -2.2757  0.2856 -0.7859
 4240SOL    HW224357   2.409   0.108  12.147 -0.3093  0.0598 -0.6118
 4241SOL     OW24358   1.307   0.681   7.740 -0.0895  0.2394 -0.5343
 4241SOL    HW124359   1.282   0.772   7.757 -1.0102 -0.2005  0.4651
 4241SOL    HW224360   1.392   0.707   7.704  1.1382  0.5474  2.5500
 4242SOL     OW24361   2.799   4.526  13.352 -0.0276 -0.6272 -0.3590
 4242SOL    HW124362   2.766   4.487  13.433 -1.3412  0.7405 -0.2325
 4242SOL    HW224363   2.755   4.473  13.287 -0.7059  0.7606 -1.0320
 4243SOL     OW24364   1.151   2.500   9.787  0.2114 -0.5170 -0.0990
 4243SOL    HW124365   1.246   2.511   9.777  0.0716 -1.3840 -2.2515
 4243SOL    HW224366   1.144   2.474   9.880 -1.4892 -0.1633 -0.1313
 4244SOL     OW24367   1.471   0.411  10.711 -0.3813  0.5601  0.1100
 4244SOL    HW124368   1.490   0.317  10.719 -1.3433  0.7202  4.1651
 4244SOL    HW224369   1.558   0.435  10.742  0.5309 -0.9749 -1.2437
 4245SOL     OW24370   2.429   0.170   4.004 -0.2062 -0.3464  0.4947
 4245SOL    HW124371   2.428   0.176   3.909  4.5413 -0.1201  0.4857
 4245SOL    HW224372   2.346   0.124   4.016 -0.9070  0.5747 -0.9198
 4246SOL     OW24373   0.973   0.509  12.689 -0.3418 -0.3053  0.2946
 4246SOL    HW124374   1.064   0.539  12.687 -0.0697 -1.1521 -0.0834
 4246SOL    HW224375   0.923   0.588  12.667  0.3648 -0.0565 -0.3898
 4247SOL     OW24376   3.874   2.541   8.465 -0.3763  0.2129 -0.0054
 4247SOL    HW124377   3.967   2.531   8.482 -1.0803 -2.4689  2.3268
 4247SOL    HW224378   3.842   2.451   8.477  0.4099 -0.1637 -0.7433
 4248SOL     OW24379   2.376   2.897   3.668 -0.0135 -0.0607 -0.1999
 4248SOL    HW124380   2.289   2.878   3.633 -0.4690  0.8129  0.4566
 4248SOL    HW224381   2.420   2.909   3.583 -0.9418 -0.4123 -0.7264
 4249SOL     OW24382   1.255   0.994   3.211 -0.3765 -0.0706  0.5364
 4249SOL    HW124383   1.311   0.953   3.144  0.1918 -0.1326  1.0501
 4249SOL    HW224384   1.178   0.937   3.212 -0.4642  0.0683  1.4649
 4250SOL     OW24385   0.358   2.169   1.897  0.3202 -0.1710 -0.3932
 4250SOL    HW124386   0.403   2.188   1.815  1.4722 -1.3954 -0.0488
 4250SOL    HW224387   0.304   2.098   1.864  0.1498 -0.4050  0.3740
 4251SOL     OW24388   3.216   0.892  16.876  0.6162  0.6515 -0.1663
 4251SOL    HW124389   3.250   0.951  16.944  1.3263  0.7104 -0.5784
 4251SOL    HW224390   3.226   0.944  16.797  2.3478  1.7008  0.7325
 4252SOL     OW24391   0.067   2.015   3.906 -0.0762 -0.0701 -0.1044
 4252SOL    HW124392   4.726   1.988   3.955  0.5850  0.9862  1.5280
 4252SOL    HW224393   0.028   2.050   3.826 -0.7584 -0.4230  0.0721
 4253SOL     OW24394   0.028   2.741  12.889  0.6429  0.5611 -0.0433
 4253SOL    HW124395   0.109   2.725  12.840  1.4712  1.7270  0.9402
 4253SOL    HW224396   4.698   2.717  12.825  2.1096  1.2014 -1.8137
 4254SOL     OW24397   0.343   1.147   9.216  0.0011 -0.0241 -0.4546
 4254SOL    HW124398   0.360   1.165   9.308 -0.6838  0.1003 -0.3509
 4254SOL    HW224399   0.401   1.212   9.175  0.0716 -1.0548 -2.0118
 4255SOL     OW24400   3.813   2.428   9.709  0.2427 -0.5508  0.4633
 4255SOL    HW124401   3.804   2.435   9.804 -0.7330 -0.4536  0.3673
 4255SOL    HW224402   3.792   2.515   9.674  0.5002 -0.1017  1.4303
 4256SOL     OW24403   2.770   4.372   9.796 -0.2462  0.0110 -0.6667
 4256SOL    HW124404   2.727   4.357   9.880  0.5065  1.1159 -0.0801
 4256SOL    HW224405   2.751   4.292   9.747 -0.2976 -0.8186  0.7336
 4257SOL     OW24406   4.057   1.189   2.107  0.4243 -0.9225  0.1019
 4257SOL    HW124407   4.051   1.096   2.128 -1.3491 -0.6117  0.9342
 4257SOL    HW224408   4.052   1.235   2.190 -2.0634 -0.3769 -0.3310
 4258SOL     OW24409   0.275   0.860   3.855 -0.0242  0.1879  0.1049
 4258SOL    HW124410   0.214   0.866   3.781  2.0379 -1.1731 -1.6811
 4258SOL    HW224411   0.347   0.909   3.817  0.2678 -1.5336 -1.5597
 4259SOL     OW24412   1.449   4.243   4.996  0.1399 -0.8658  0.0511
 4259SOL    HW124413   1.443   4.338   4.986  1.2599 -0.9494 -1.4375
 4259SOL    HW224414   1.355   4.230   4.988  0.4760 -2.0840 -1.7624
 4260SOL     OW24415   0.908   4.558   2.493  0.2791  0.3471  0.3488
 4260SOL    HW124416   0.900   4.646   2.530  2.1453  0.4982  0.3767
 4260SOL    HW224417   0.828   4.554   2.440  1.3657 -1.5790 -1.1391
 4261SOL     OW24418   1.590   1.457   5.967  0.1471  0.2045  0.4912
 4261SOL    HW124419   1.599   1.435   5.875  2.5006 -0.3201  0.8548
 4261SOL    HW224420   1.498   1.484   5.977 -0.8235 -2.6396 -0.6079
 4262SOL     OW24421   0.108   3.964   8.407  0.1165 -0.1735 -0.3511
 4262SOL    HW124422   0.180   4.006   8.359  0.0497 -0.0469 -0.3426
 4262SOL    HW224423   0.147   3.878   8.418  0.9337 -0.0973 -2.5580
 4263SOL     OW24424   0.176   3.004   2.693  0.0491 -0.0952 -0.1348
 4263SOL    HW124425   0.222   3.029   2.772  0.4119  2.3025 -1.1118
 4263SOL    HW224426   0.242   2.983   2.626  1.1374 -0.7188  1.1399
 4264SOL     OW24427   4.459   2.518  17.415  0.8267  0.0463 -0.1296
 4264SOL    HW124428   4.424   2.574  17.484 -0.4829 -1.6350  0.5713
 4264SOL    HW224429   4.513   2.588  17.379 -0.7289  1.8388  0.9896
 4265SOL     OW24430   1.781   2.308   9.415  0.0998  0.1730  0.2714
 4265SOL    HW124431   1.853   2.338   9.359  0.3872  0.9051  1.0338
 4265SOL    HW224432   1.737   2.254   9.349  0.7509 -0.0754  0.0353
 4266SOL     OW24433   2.181   3.445   6.636  1.1110  0.3041  0.8115
 4266SOL    HW124434   2.116   3.444   6.565  0.0243 -1.4385  1.8396
 4266SOL    HW224435   2.150   3.365   6.679 -0.9751 -0.0038 -1.2845
 4267SOL     OW24436   3.308   3.895   7.075 -0.0251  0.0331  0.0721
 4267SOL    HW124437   3.338   3.886   6.985  0.0293 -2.6285  0.3636
 4267SOL    HW224438   3.296   3.803   7.099  0.5274  0.3114  1.4343
 4268SOL     OW24439   2.718   1.924   3.983 -0.0819  0.4363  0.5001
 4268SOL    HW124440   2.737   2.004   4.032 -0.5708  0.2060  1.0615
 4268SOL    HW224441   2.804   1.912   3.943 -1.0141 -2.8603 -0.5320
 4269SOL     OW24442   4.492   0.449   7.115 -0.0302  0.2694 -0.4634
 4269SOL    HW124443   4.580   0.414   7.106 -1.4096 -3.2633  0.0068
 4269SOL    HW224444   4.480   0.494   7.031 -1.9787 -0.3287 -0.5064
 4270SOL     OW24445   3.740   2.909   8.244 -0.4285  0.3548  0.3610
 4270SOL    HW124446   3.672   2.959   8.290 -0.0482  1.6792 -0.5091
 4270SOL    HW224447   3.742   2.947   8.156  2.5717  1.6120  0.9760
 4271SOL     OW24448   1.453   2.692   0.317 -0.0328  0.0744 -1.0383
 4271SOL    HW124449   1.425   2.601   0.321  0.7578 -0.1086  0.2062
 4271SOL    HW224450   1.541   2.682   0.280  0.6520 -1.3961  1.0003
 4272SOL     OW24451   0.915   3.264  11.331 -0.3302 -0.4580  0.6351
 4272SOL    HW124452   0.857   3.194  11.304  1.0710 -1.5916  0.5500
 4272SOL    HW224453   0.934   3.301  11.245 -0.1754  1.1882  1.3842
 4273SOL     OW24454   0.218   3.913   8.086  0.1520  0.2635 -0.1853
 4273SOL    HW124455   0.276   3.923   8.010  0.8360 -1.5546  0.0809
 4273SOL    HW224456   0.244   3.992   8.133  1.9225 -0.0432 -0.6183
 4274SOL     OW24457   1.221   0.095   8.030 -0.2343  0.0038  0.4508
 4274SOL    HW124458   1.199   0.183   7.999  0.1913  0.0823  0.3708
 4274SOL    HW224459   1.146   0.076   8.085 -0.0452 -1.0697  0.3427
 4275SOL     OW24460   1.893   1.883   9.210 -0.0589 -1.3191 -1.2250
 4275SOL    HW124461   1.961   1.894   9.277 -2.0591 -2.4820  0.9692
 4275SOL    HW224462   1.941   1.824   9.152 -0.0727 -2.8863  0.3625
 4276SOL     OW24463   2.498   3.621   2.169 -0.3179 -0.0425  0.0885
 4276SOL    HW124464   2.564   3.669   2.220  0.3297  1.0800 -1.8218
 4276SOL    HW224465   2.542   3.581   2.094  1.8384  0.0963  1.2618
 4277SOL     OW24466   2.405   1.261   3.158  0.2794  0.6127  0.0670
 4277SOL    HW124467   2.442   1.258   3.246  0.6341  2.0796 -0.0335
 4277SOL    HW224468   2.321   1.219   3.175  1.2115 -0.2987  2.3694
 4278SOL     OW24469   2.399   4.166   4.847  0.0214  0.5354  0.0578
 4278SOL    HW124470   2.430   4.150   4.757 -1.9593 -1.4054 -0.3017
 4278SOL    HW224471   2.305   4.181   4.843  0.2083  2.1598  1.8331
 4279SOL     OW24472   0.363   2.351   8.667  0.2834  0.1872 -0.5856
 4279SOL    HW124473   0.369   2.341   8.572 -2.1536  0.8885 -0.8149
 4279SOL    HW224474   0.353   2.446   8.678  3.8260  0.2911  1.8789
 4280SOL     OW24475   0.778   1.342   3.147  0.2184 -0.3446 -0.2118
 4280SOL    HW124476   0.824   1.395   3.082  0.7891 -0.8602 -0.2328
 4280SOL    HW224477   0.705   1.402   3.160  1.1321  0.3356  1.8386
 4281SOL     OW24478   3.790   2.144  14.523 -0.2429  0.4848  0.0950
 4281SOL    HW124479   3.737   2.221  14.546 -1.7100 -0.9054  1.3460
 4281SOL    HW224480   3.850   2.179  14.457  0.0548  1.6067  0.9591
 4282SOL     OW24481   2.415   1.782  12.160  0.0006 -0.0856 -0.0715
 4282SOL    HW124482   2.381   1.810  12.245  3.0213 -0.6803  1.3410
 4282SOL    HW224483   2.459   1.702  12.190 -1.6462 -0.9045  0.1595
 4283SOL     OW24484   0.179   1.002   6.155  0.1538  0.3478  0.3343
 4283SOL    HW124485   0.156   0.932   6.094 -0.5735  0.0424  0.9636
 4283SOL    HW224486   0.173   1.066   6.085  1.6416 -1.2282 -1.2261
 4284SOL     OW24487   4.186   1.545   4.531  0.4218  0.1622 -0.3932
 4284SOL    HW124488   4.227   1.563   4.616 -0.9231 -0.6884  0.4424
 4284SOL    HW224489   4.197   1.450   4.536  0.2339  0.0121 -3.2721
 4285SOL     OW24490   0.573   2.620   4.658  0.0507 -0.2785  0.1199
 4285SOL    HW124491   0.653   2.672   4.653  0.6423 -1.0887  1.1864
 4285SOL    HW224492   0.529   2.678   4.720 -0.7159 -0.4517 -0.2555
 4286SOL     OW24493   4.086   1.520   2.515  0.6094  0.2339  0.1876
 4286SOL    HW124494   4.115   1.479   2.597 -0.5819  1.4650  1.2245
 4286SOL    HW224495   4.173   1.555   2.494  1.5269 -1.5559  0.9949
 4287SOL     OW24496   1.356   2.868   6.907 -0.3630 -0.6824  0.0061
 4287SOL    HW124497   1.292   2.861   6.978  0.2611  1.7582  0.8199
 4287SOL    HW224498   1.295   2.875   6.834 -1.4859 -1.6351  0.8565
 4288SOL     OW24499   3.783   1.116   2.252 -0.3996 -0.2733  0.0772
 4288SOL    HW124500   3.754   1.045   2.195 -0.2526 -0.3789  0.1334
 4288SOL    HW224501   3.780   1.069   2.336  3.1734 -0.4365  0.0905
 4289SOL     OW24502   0.211   3.232  15.351  0.5833 -0.0741 -0.3362
 4289SOL    HW124503   0.148   3.161  15.362 -1.1173  1.4741 -0.2583
 4289SOL    HW224504   0.164   3.291  15.292 -0.7273 -1.2766 -0.4824
 4290SOL     OW24505   1.836   3.417   8.504  0.1966 -0.0379  0.1952
 4290SOL    HW124506   1.883   3.342   8.470  2.7128  2.0344 -0.9357
 4290SOL    HW224507   1.753   3.376   8.528  0.3177  0.0038  0.7030
 4291SOL     OW24508   3.886   3.623   8.951  0.2146  0.5360 -0.0393
 4291SOL    HW124509   3.956   3.688   8.945  1.7991 -1.0144  1.4814
 4291SOL    HW224510   3.933   3.565   9.010 -0.5975  0.1292  0.1996
 4292SOL     OW24511   3.976   3.290   9.761  0.2327  0.2829  0.0676
 4292SOL    HW124512   3.968   3.314   9.854 -1.3273  1.0480 -0.2663
 4292SOL    HW224513   3.930   3.206   9.768  0.3820  0.2164  0.2695
 4293SOL     OW24514   0.418   3.245   5.469  0.1915 -0.2948  0.0871
 4293SOL    HW124515   0.467   3.163   5.465  1.1675  0.4356 -3.1676
 4293SOL    HW224516   0.384   3.242   5.379  0.6898 -1.8307 -0.0578
 4294SOL     OW24517   0.687   0.646   2.605 -0.7186 -0.1141  0.0342
 4294SOL    HW124518   0.609   0.654   2.660  0.5049 -0.3809  1.8211
 4294SOL    HW224519   0.755   0.655   2.672 -1.2384 -0.2386  0.5736
 4295SOL     OW24520   3.398   4.585  12.076 -0.9624  0.2370  0.0838
 4295SOL    HW124521   3.334   4.656  12.089 -1.8930 -0.8432  1.4161
 4295SOL    HW224522   3.452   4.606  12.152 -1.9313  1.2769  0.4938
 4296SOL     OW24523   1.151   4.657   7.325 -0.7914 -0.5891 -0.2115
 4296SOL    HW124524   1.219   4.724   7.330  0.3314 -1.6549 -1.1889
 4296SOL    HW224525   1.200   4.576   7.338 -1.2919 -0.9584 -0.6386
 4297SOL     OW24526   1.788   1.894   6.586 -0.5162 -0.5182  1.0710
 4297SOL    HW124527   1.806   1.817   6.532  1.4410  1.4366 -1.0702
 4297SOL    HW224528   1.731   1.857   6.653 -0.8509 -0.0192  1.0563
 4298SOL     OW24529   3.560   0.185   5.133  0.8065  0.4365  0.0097
 4298SOL    HW124530   3.595   0.261   5.179  1.4997  1.5017 -2.3009
 4298SOL    HW224531   3.634   0.136   5.098 -1.3014 -0.8300 -2.6742
 4299SOL     OW24532   4.665   3.238  14.837 -0.0691 -0.0756 -0.1777
 4299SOL    HW124533   4.718   3.317  14.825  1.2041 -0.7490  1.0973
 4299SOL    HW224534   4.584   3.262  14.792  0.9931  0.9371 -1.5524
 4300SOL     OW24535   1.985   3.779   1.063 -0.1522  0.1232  0.0048
 4300SOL    HW124536   2.068   3.740   1.090 -0.9329  0.7341  3.3264
 4300SOL    HW224537   2.016   3.843   0.999  1.0058 -1.0066 -0.5606
 4301SOL     OW24538   0.447   4.398   8.988 -0.1353  0.2104  0.0369
 4301SOL    HW124539   0.378   4.463   8.998  0.1164  0.0039  2.8661
 4301SOL    HW224540   0.522   4.453   8.965  0.2624 -0.7580 -1.0029
 4302SOL     OW24541   0.996   1.133   7.508  0.5071 -0.3120 -0.1853
 4302SOL    HW124542   1.082   1.166   7.481 -0.4426  3.9303  1.9613
 4302SOL    HW224543   0.934   1.192   7.465  0.4309 -0.9345 -0.9252
 4303SOL     OW24544   3.618   3.205   2.746 -0.1605  0.1207  0.0180
 4303SOL    HW124545   3.690   3.161   2.701  0.4995 -0.3984  1.5892
 4303SOL    HW224546   3.548   3.183   2.685 -0.6496 -1.4708  1.1535
 4304SOL     OW24547   2.041   2.135   5.569  0.2900 -0.0826  0.2354
 4304SOL    HW124548   2.023   2.224   5.538  0.1790 -0.5657 -1.0576
 4304SOL    HW224549   2.135   2.124   5.552 -0.0303 -2.9345  0.2696
 4305SOL     OW24550   2.032   2.710   7.013  0.3687  0.5336 -0.0318
 4305SOL    HW124551   2.015   2.636   6.954  1.2307  0.5085 -0.2398
 4305SOL    HW224552   2.053   2.663   7.094  1.1792  0.9869  0.0122
 4306SOL     OW24553   2.625   0.578  15.308 -0.2932 -0.6156 -0.9675
 4306SOL    HW124554   2.538   0.593  15.344 -1.7376 -2.1580 -3.8668
 4306SOL    HW224555   2.641   0.493  15.349 -1.0103  0.4226  1.4732
 4307SOL     OW24556   4.250   0.099   3.964  0.2402 -0.5430  0.3796
 4307SOL    HW124557   4.190   0.026   3.950  0.8143 -0.9073 -0.1749
 4307SOL    HW224558   4.225   0.160   3.895  0.7446 -0.7803 -0.0197
 4308SOL     OW24559   3.023   4.032  11.183  0.2998  0.1019  0.5895
 4308SOL    HW124560   2.965   4.096  11.142  0.4401 -0.3399 -0.3063
 4308SOL    HW224561   3.014   4.073  11.268  1.3221  1.4744  0.0279
 4309SOL     OW24562   4.073   0.570  14.148  0.0562 -0.5664  0.1647
 4309SOL    HW124563   4.139   0.553  14.215  0.1888 -0.3394  0.0900
 4309SOL    HW224564   3.997   0.580  14.206  0.1190  0.7138  0.0266
 4310SOL     OW24565   0.621   3.250   7.129 -0.3439 -0.0769  0.5298
 4310SOL    HW124566   0.653   3.168   7.092 -1.9281  0.9444 -3.0641
 4310SOL    HW224567   0.572   3.232   7.209  0.9800 -2.2945  0.8275
 4311SOL     OW24568   3.937   1.331   4.174  0.0497 -0.0567 -0.3463
 4311SOL    HW124569   3.879   1.280   4.117 -1.9194  0.8138  0.9149
 4311SOL    HW224570   3.882   1.367   4.242 -0.6771 -0.1606 -0.8815
 4312SOL     OW24571   2.244   2.191   4.019  0.9159 -1.0862 -0.1919
 4312SOL    HW124572   2.290   2.261   4.064 -0.4195  1.2843 -2.5255
 4312SOL    HW224573   2.165   2.240   3.995 -0.7656 -3.9833 -0.5653
 4313SOL     OW24574   2.849   3.798   1.908  0.2559  0.4930  0.1322
 4313SOL    HW124575   2.802   3.763   1.833  0.0824 -1.4207  1.1363
 4313SOL    HW224576   2.930   3.833   1.872  0.3638  1.3533  1.2109
 4314SOL     OW24577   0.598   3.648  17.415 -0.3302 -0.0998  0.1642
 4314SOL    HW124578   0.649   3.713  17.366  0.9274 -1.2328 -0.0217
 4314SOL    HW224579   0.508   3.670  17.391  0.7245  1.8454 -2.0619
 4315SOL     OW24580   3.908   2.513   3.320  0.0421 -0.1965  0.2111
 4315SOL    HW124581   3.982   2.549   3.369 -0.2053 -0.3995  0.7348
 4315SOL    HW224582   3.943   2.460   3.248  0.6513 -1.4138  1.4072
 4316SOL     OW24583   0.128   0.089   6.026  0.4877  0.7221 -0.3252
 4316SOL    HW124584   0.042   0.128   6.013 -0.7931 -1.7035  0.8787
 4316SOL    HW224585   0.133   0.108   6.119  3.8815  0.0617 -0.3543
 4317SOL     OW24586   4.081   3.121   2.488 -0.5273  0.7013  0.1972
 4317SOL    HW124587   4.176   3.118   2.478 -0.5542 -2.9665  1.1080
 4317SOL    HW224588   4.073   3.031   2.457 -0.7638  1.5261 -2.1963
 4318SOL     OW24589   3.803   4.552  10.828  0.1437  0.4535  0.0171
 4318SOL    HW124590   3.732   4.614  10.814 -0.3771 -0.7720 -2.8495
 4318SOL    HW224591   3.852   4.590  10.901  1.1692 -0.3076 -0.2614
 4319SOL     OW24592   4.152   4.092   9.284  0.4702 -0.2806  0.4203
 4319SOL    HW124593   4.162   3.997   9.291  0.2362 -0.2513  1.1226
 4319SOL    HW224594   4.231   4.121   9.328  1.5557  1.5629 -2.8107
 4320SOL     OW24595   3.977   0.418   0.994 -0.1946 -0.2648 -0.2099
 4320SOL    HW124596   4.037   0.447   0.925 -1.0298  2.2697  0.1457
 4320SOL    HW224597   3.972   0.485   1.061  3.0483  1.6544 -1.8787
 4321SOL     OW24598   2.366   2.324   5.611 -0.1833 -0.8885 -0.2396
 4321SOL    HW124599   2.334   2.348   5.698  0.7387 -0.4182 -0.0242
 4321SOL    HW224600   2.392   2.407   5.573  0.6596 -1.6936 -1.4121
 4322SOL     OW24601   2.160   4.342   3.601 -0.1135  0.4043 -0.0695
 4322SOL    HW124602   2.240   4.393   3.585 -0.7552  1.4783  0.1781
 4322SOL    HW224603   2.117   4.399   3.665  0.6832 -0.1459  0.9798
 4323SOL     OW24604   2.245   3.753   8.199 -0.4481  0.3097  0.0296
 4323SOL    HW124605   2.157   3.719   8.181 -0.3709  0.6030 -0.9193
 4323SOL    HW224606   2.279   3.771   8.111 -0.0063  0.6003  0.2629
 4324SOL     OW24607   0.299   3.009   6.618 -0.2028  0.6615 -0.4188
 4324SOL    HW124608   0.375   2.998   6.562  1.9793 -0.0200  2.6928
 4324SOL    HW224609   0.251   3.058   6.551 -0.9800  0.6123  0.1045
 4325SOL     OW24610   0.602   0.995   4.339 -0.1060 -0.8005  0.2048
 4325SOL    HW124611   0.684   1.034   4.307 -0.8039  0.3606 -0.1699
 4325SOL    HW224612   0.537   1.044   4.289 -1.3960 -2.4061  0.3340
 4326SOL     OW24613   1.502   4.715  11.891  0.6171  0.7275 -0.4882
 4326SOL    HW124614   1.421   4.714  11.942  0.2050 -0.9467 -1.1614
 4326SOL    HW224615   1.490   0.048  11.827  3.1918  0.1292 -1.6167
 4327SOL     OW24616   1.177   2.894  11.528  0.4292 -0.1698 -0.2166
 4327SOL    HW124617   1.145   2.920  11.614 -0.3962 -0.4370 -0.4397
 4327SOL    HW224618   1.254   2.841  11.547  0.4317 -0.2199 -0.3596
 4328SOL     OW24619   0.807   2.592   3.886 -0.6568  0.2327  0.1648
 4328SOL    HW124620   0.896   2.576   3.855 -0.7746 -0.4854  0.1967
 4328SOL    HW224621   0.770   2.504   3.875  1.6634 -0.6856 -0.2132
 4329SOL     OW24622   0.390   0.861   8.080 -0.1891 -0.5823 -0.0526
 4329SOL    HW124623   0.424   0.949   8.063 -2.4066  0.2649 -0.2518
 4329SOL    HW224624   0.302   0.859   8.041  0.2938 -0.9846 -1.0921
 4330SOL     OW24625   0.083   0.064  17.092 -0.0137 -0.1156 -0.0973
 4330SOL    HW124626   0.123   4.715  17.075  1.4033  0.3840  0.8185
 4330SOL    HW224627   0.041   0.046  17.176 -1.8037 -2.3247 -1.4411
 4331SOL     OW24628   3.851   1.549   5.540 -0.8347 -0.0915  0.5548
 4331SOL    HW124629   3.874   1.505   5.622 -1.0021 -0.5844  0.3380
 4331SOL    HW224630   3.924   1.528   5.483 -2.4438  1.3210 -1.9973
 4332SOL     OW24631   3.112   0.319   2.307  0.0126  0.1047 -0.5067
 4332SOL    HW124632   3.109   0.390   2.243  1.1418  1.7001  1.2127
 4332SOL    HW224633   3.046   0.345   2.372  0.1669 -0.2277 -0.2170
 4333SOL     OW24634   0.885   0.296  17.294 -0.2197  0.2079  0.4004
 4333SOL    HW124635   0.828   0.259  17.227  0.7715 -1.0470  0.2355
 4333SOL    HW224636   0.874   0.390  17.286 -2.6673 -0.3221 -2.0972
 4334SOL     OW24637   2.808   0.732  16.192  0.2682 -0.1338  0.0970
 4334SOL    HW124638   2.745   0.684  16.139  0.7749 -0.3330 -0.3323
 4334SOL    HW224639   2.766   0.817  16.183  2.4447  1.0230  0.8207
 4335SOL     OW24640   2.064   1.459   1.495 -0.1105  0.2675  0.1138
 4335SOL    HW124641   2.010   1.509   1.556  0.6955  0.5549  0.5917
 4335SOL    HW224642   2.002   1.396   1.459 -0.9418 -0.3334  2.5442
 4336SOL     OW24643   1.922   0.521   3.078  0.5794 -0.2629 -0.3833
 4336SOL    HW124644   1.946   0.572   3.156  1.3098  0.4113 -1.0617
 4336SOL    HW224645   1.842   0.561   3.044 -1.0741 -0.5158  3.1385
 4337SOL     OW24646   0.468   3.590  17.715  0.6192 -0.2071 -0.5566
 4337SOL    HW124647   0.437   3.552  17.633 -0.7581  2.7503 -1.3957
 4337SOL    HW224648   0.458   3.682  17.690 -0.4573 -0.3118 -0.5447
 4338SOL     OW24649   3.925   1.082  14.445 -0.3732 -0.4272  0.3059
 4338SOL    HW124650   4.001   1.047  14.492  1.1409  2.3686 -0.0914
 4338SOL    HW224651   3.852   1.020  14.441 -0.7763  0.1626 -1.1704
 4339SOL     OW24652   0.689   1.048   6.129 -0.3603  0.5236  0.4084
 4339SOL    HW124653   0.604   1.036   6.170 -0.7805 -0.0713 -0.6207
 4339SOL    HW224654   0.667   1.131   6.088 -1.3343  0.1904  0.2466
 4340SOL     OW24655   2.206   3.906   0.545  0.6441 -0.0406  0.0533
 4340SOL    HW124656   2.259   3.848   0.489  1.2722  0.8801 -0.3041
 4340SOL    HW224657   2.139   3.841   0.567 -1.0963  1.4839 -0.8134
 4341SOL     OW24658   0.707   3.164   5.624  0.5187  0.4105 -0.3634
 4341SOL    HW124659   0.679   3.123   5.542  2.2929  0.5260 -1.0162
 4341SOL    HW224660   0.646   3.125   5.686 -0.2854 -0.0126 -1.4176
 4342SOL     OW24661   4.043   2.586  14.488 -0.3508  0.1839  0.3339
 4342SOL    HW124662   3.998   2.634  14.419  1.5182 -2.1966 -2.4916
 4342SOL    HW224663   4.070   2.661  14.540 -0.4202  0.1270  0.4528
 4343SOL     OW24664   1.954   2.350   2.391 -0.0157  0.3993 -0.1586
 4343SOL    HW124665   1.908   2.431   2.412  0.6697  0.9054 -0.6525
 4343SOL    HW224666   1.896   2.281   2.422 -0.7996  0.7388 -0.8854
 4344SOL     OW24667   2.945   3.788  14.250  0.0857 -0.1485 -0.1651
 4344SOL    HW124668   2.882   3.826  14.188  1.2861 -1.1626 -2.0131
 4344SOL    HW224669   2.937   3.853  14.319  2.5680 -0.1127  0.0757
 4345SOL     OW24670   3.319   2.825   6.071 -0.1257 -0.5535  0.4347
 4345SOL    HW124671   3.249   2.891   6.071  0.3524 -0.0731  2.9193
 4345SOL    HW224672   3.361   2.840   5.986 -1.5743  0.4554 -0.1162
 4346SOL     OW24673   4.502   0.467  12.524  0.0556  0.4023 -0.1545
 4346SOL    HW124674   4.455   0.383  12.529  1.4846 -0.4139 -0.6971
 4346SOL    HW224675   4.567   0.450  12.457 -0.3108  0.0133 -0.4106
 4347SOL     OW24676   0.522   1.406   2.040 -0.3838  0.5804  0.6805
 4347SOL    HW124677   0.508   1.481   2.098 -0.4899 -0.4716  1.9807
 4347SOL    HW224678   0.580   1.347   2.087  0.9150 -0.3179 -2.0433
 4348SOL     OW24679   3.850   1.197   2.575 -0.2485  0.2417 -0.0853
 4348SOL    HW124680   3.825   1.182   2.666  1.0489  0.0028  0.2366
 4348SOL    HW224681   3.806   1.280   2.555 -1.4179 -0.4418 -0.3621
 4349SOL     OW24682   2.312   1.401   1.883 -0.0859 -1.0414  0.1145
 4349SOL    HW124683   2.356   1.417   1.966  0.0457 -0.9084  0.0200
 4349SOL    HW224684   2.290   1.487   1.847  0.2023 -0.8088  0.4974
 4350SOL     OW24685   1.737   2.971   2.688  0.0674  0.0693  0.4687
 4350SOL    HW124686   1.736   3.004   2.599  1.0981  0.6404  0.6711
 4350SOL    HW224687   1.831   2.969   2.704  0.1964 -0.7346 -0.3859
 4351SOL     OW24688   1.591   0.210   8.271  0.6728 -0.2022 -0.1893
 4351SOL    HW124689   1.520   0.171   8.322  1.4682 -1.2796  0.0948
 4351SOL    HW224690   1.572   0.183   8.181  0.5131  0.4396 -0.3465
 4352SOL     OW24691   2.810   0.603   7.191  0.4860 -0.3288  0.1617
 4352SOL    HW124692   2.750   0.676   7.173 -1.0754 -1.3847  1.1396
 4352SOL    HW224693   2.774   0.559   7.268  1.9663 -0.5740  0.7052
 4353SOL     OW24694   3.166   0.532  17.115  0.1994  0.4883 -0.3735
 4353SOL    HW124695   3.261   0.528  17.126 -0.2187 -3.3719  1.8008
 4353SOL    HW224696   3.148   0.463  17.051 -2.3877 -2.5428  3.6548
 4354SOL     OW24697   3.502   1.600   7.040 -0.2716  0.2673  0.0045
 4354SOL    HW124698   3.432   1.534   7.040 -0.0301  0.0134 -0.0082
 4354SOL    HW224699   3.568   1.545   6.998 -0.2519 -0.7273  1.3627
 4355SOL     OW24700   1.456   3.863   2.475 -0.5429  1.3845 -0.1526
 4355SOL    HW124701   1.404   3.797   2.521 -0.8708 -0.0217 -2.5710
 4355SOL    HW224702   1.537   3.812   2.472 -0.0511  2.3851 -3.3970
 4356SOL     OW24703   3.507   2.617   2.665  0.0861  0.3800  0.0377
 4356SOL    HW124704   3.484   2.617   2.572 -2.4716  2.1882  0.6573
 4356SOL    HW224705   3.450   2.549   2.700  2.6168 -1.2363  1.0187
 4357SOL     OW24706   0.920   2.618   3.368 -0.0984  0.1484  0.1770
 4357SOL    HW124707   0.831   2.588   3.348  0.6879 -1.2018 -1.3037
 4357SOL    HW224708   0.947   2.561   3.439 -1.7388 -1.2657 -0.3120
 4358SOL     OW24709   2.378   1.096   6.922  0.0489 -0.2093 -0.1656
 4358SOL    HW124710   2.376   1.100   6.826  2.0047  1.5431 -0.1246
 4358SOL    HW224711   2.457   1.045   6.940 -0.5625 -0.8036  0.8585
 4359SOL     OW24712   1.666   3.900   0.813  0.5997 -0.1053  0.4453
 4359SOL    HW124713   1.661   3.977   0.870  1.4866  2.7933 -3.3876
 4359SOL    HW224714   1.729   3.931   0.748 -0.2389 -1.7741 -1.1651
 4360SOL     OW24715   3.852   3.397   3.758  0.0229  0.2220 -0.5698
 4360SOL    HW124716   3.930   3.365   3.803  0.6697  2.1381 -0.3226
 4360SOL    HW224717   3.815   3.311   3.736  1.2993 -0.1370 -1.3243
 4361SOL     OW24718   0.728   1.791  12.733  0.0327  0.1314  0.2797
 4361SOL    HW124719   0.726   1.747  12.818 -2.2417  0.0436  0.1885
 4361SOL    HW224720   0.657   1.856  12.736  0.1814  0.2838  0.4699
 4362SOL     OW24721   0.618   0.202   3.600 -0.7559  0.0417 -0.1993
 4362SOL    HW124722   0.713   0.211   3.607 -0.5034 -1.5317 -1.6299
 4362SOL    HW224723   0.615   0.198   3.504  1.7278 -0.5649 -0.2679
 4363SOL     OW24724   0.394   2.364   8.407  0.2948  0.1329  0.8308
 4363SOL    HW124725   0.408   2.282   8.360  0.2159 -0.1761  1.3409
 4363SOL    HW224726   0.363   2.416   8.333 -0.4183  0.0405  1.0651
 4364SOL     OW24727   1.791   2.898   7.320  0.2250  0.1367 -0.6646
 4364SOL    HW124728   1.811   2.874   7.230  1.6098  2.3099 -0.9394
 4364SOL    HW224729   1.705   2.940   7.311  0.6044  0.9041 -0.7682
 4365SOL     OW24730   3.394   0.182  17.108 -0.7012 -0.6955  0.2778
 4365SOL    HW124731   3.354   0.192  17.194 -4.8719  0.7235 -1.8013
 4365SOL    HW224732   3.472   0.130  17.127  0.7808  1.5191  0.2823
 4366SOL     OW24733   0.212   0.459   5.149 -0.1589  0.3173 -0.2573
 4366SOL    HW124734   0.277   0.391   5.167  1.3089  1.3300 -1.7344
 4366SOL    HW224735   0.263   0.503   5.082  1.1121  1.8715  1.7553
 4367SOL     OW24736   3.143   4.036  14.151 -0.8245 -0.4261 -0.3165
 4367SOL    HW124737   3.101   3.984  14.083 -0.4521  0.9213 -1.5786
 4367SOL    HW224738   3.084   4.106  14.178  1.4855  0.7237  1.7845
 4368SOL     OW24739   0.996   1.059   5.344  0.8268 -0.3037 -0.3572
 4368SOL    HW124740   1.068   1.099   5.392  1.1491  0.3988 -1.4272
 4368SOL    HW224741   0.926   1.122   5.357  2.3994  1.7023 -1.6847
 4369SOL     OW24742   2.216   4.130  15.144 -0.2491 -0.1295  0.0588
 4369SOL    HW124743   2.129   4.095  15.128  0.3200 -0.4275 -2.3931
 4369SOL    HW224744   2.252   4.078  15.215  0.7459  0.4573 -0.0120
 4370SOL     OW24745   4.654   2.919   3.356  0.1741  0.1306 -0.7685
 4370SOL    HW124746   4.735   2.964   3.331  0.7319 -0.6231 -0.3178
 4370SOL    HW224747   4.630   2.972   3.432  3.8946  2.1268 -0.9700
 4371SOL     OW24748   4.462   0.024   8.920 -0.0639  0.5106  0.3187
 4371SOL    HW124749   4.463   0.087   8.993 -1.2188 -0.9258  1.5501
 4371SOL    HW224750   4.427   0.089   8.858 -1.8814  0.4001  1.2564
 4372SOL     OW24751   1.888   3.904   9.622 -0.5226 -0.6507  0.2773
 4372SOL    HW124752   1.969   3.950   9.647 -1.3774  1.3016 -0.5653
 4372SOL    HW224753   1.917   3.848   9.550  1.0967 -0.8381  1.0614
 4373SOL     OW24754   4.050   2.137   5.253 -0.1044  0.1184  0.1934
 4373SOL    HW124755   3.987   2.180   5.310  2.0047 -0.0802  2.6982
 4373SOL    HW224756   3.997   2.104   5.181  0.1358 -0.9635  0.5066
 4374SOL     OW24757   0.335   0.755  11.591  0.1228  0.7357 -0.0878
 4374SOL    HW124758   0.265   0.725  11.649  1.1046  0.9306  1.1911
 4374SOL    HW224759   0.330   0.850  11.601 -0.6179  0.8246 -1.3222
 4375SOL     OW24760   1.298   2.630   8.215 -0.5333  0.0479  0.2635
 4375SOL    HW124761   1.376   2.649   8.266  0.9551 -1.5433 -1.4059
 4375SOL    HW224762   1.229   2.654   8.276 -1.6987 -1.4828 -0.4375
 4376SOL     OW24763   3.797   0.643  16.882  0.3655 -0.0605 -0.1774
 4376SOL    HW124764   3.810   0.737  16.866  1.2182 -0.0662  0.4371
 4376SOL    HW224765   3.891   0.628  16.867  0.4105  0.4292 -0.3884
 4377SOL     OW24766   2.247   4.718   3.511  0.2443 -0.0852 -0.2336
 4377SOL    HW124767   2.160   4.736   3.547 -0.2838 -0.8877 -1.1034
 4377SOL    HW224768   2.254   4.623   3.506  1.1992  0.1064 -2.4897
 4378SOL     OW24769   4.537   4.470  11.980 -0.4460 -0.2949 -0.3519
 4378SOL    HW124770   4.511   4.507  12.065  0.1262 -0.5319 -0.0775
 4378SOL    HW224771   4.601   4.404  12.007 -1.3515 -0.5428  1.2055
 4379SOL     OW24772   1.945   0.560   4.518 -0.2676 -0.5027  0.5801
 4379SOL    HW124773   2.016   0.500   4.494 -0.3258 -0.6380  0.7499
 4379SOL    HW224774   1.904   0.578   4.433  2.2861 -0.6512 -0.6798
 4380SOL     OW24775   2.602   1.678   9.092 -0.0505  0.3439 -0.0289
 4380SOL    HW124776   2.561   1.717   9.169  1.6746  0.3510  0.9034
 4380SOL    HW224777   2.530   1.621   9.066  0.1029 -0.5840  1.5706
 4381SOL     OW24778   0.472   0.035   9.585  0.2074  0.1613  1.1528
 4381SOL    HW124779   0.548   4.713   9.585  0.3528  0.3476  0.3163
 4381SOL    HW224780   0.468   0.057   9.492  1.4597  0.6245  1.2199
 4382SOL     OW24781   4.273   3.872  12.733 -0.5585 -0.0503  0.4423
 4382SOL    HW124782   4.337   3.838  12.796  0.3867  0.9891  0.0496
 4382SOL    HW224783   4.196   3.865  12.790 -1.8639 -3.4203 -1.7218
 4383SOL     OW24784   1.095   1.604  14.238 -0.0855 -0.3548  0.0375
 4383SOL    HW124785   1.091   1.670  14.307  1.5486 -0.1522 -0.0609
 4383SOL    HW224786   1.063   1.525  14.282 -2.7880  0.8964  0.2887
 4384SOL     OW24787   0.559   1.213   2.247  0.2945  0.5124  0.1035
 4384SOL    HW124788   0.510   1.233   2.327 -1.6961 -1.5475 -0.6125
 4384SOL    HW224789   0.503   1.155   2.196 -1.3874  1.9962  0.2530
 4385SOL     OW24790   2.809   2.930   4.534  0.3482  0.5570 -0.1557
 4385SOL    HW124791   2.891   2.981   4.532 -0.3151  1.6463  0.4987
 4385SOL    HW224792   2.757   2.991   4.482 -0.3736 -0.2323 -0.3399
 4386SOL     OW24793   2.525   0.921   6.678  0.2524  0.7025  0.3746
 4386SOL    HW124794   2.503   0.853   6.614  0.1163  1.1993 -0.1104
 4386SOL    HW224795   2.570   0.871   6.747 -0.2258 -0.2332  0.0118
 4387SOL     OW24796   0.857   4.170   7.532 -0.2454  0.5659 -0.4283
 4387SOL    HW124797   0.845   4.162   7.437  1.0080  1.3072 -0.6571
 4387SOL    HW224798   0.941   4.215   7.520  0.1490  0.6740  2.8880
 4388SOL     OW24799   2.765   2.505   8.655 -0.1607 -0.1174  0.4411
 4388SOL    HW124800   2.826   2.572   8.623 -0.6858 -0.2957 -0.9110
 4388SOL    HW224801   2.755   2.442   8.584  0.1896  0.0004  0.2851
 4389SOL     OW24802   1.499   3.222   5.823  0.3478 -0.0130 -0.3422
 4389SOL    HW124803   1.452   3.149   5.864  0.5915  0.7134  1.2298
 4389SOL    HW224804   1.438   3.247   5.754 -0.5060  0.8015  0.6949
 4390SOL     OW24805   3.189   1.661  10.920  0.4054  0.2268  0.0659
 4390SOL    HW124806   3.109   1.708  10.944 -0.0139 -1.3311  1.7281
 4390SOL    HW224807   3.201   1.605  10.997  1.9015  0.1891 -0.1949
 4391SOL     OW24808   0.677   4.352  15.631 -0.0671  0.5672 -0.3295
 4391SOL    HW124809   0.721   4.434  15.654  0.1214  0.4776 -0.3677
 4391SOL    HW224810   0.600   4.344  15.686  0.1903 -0.3465 -0.0960
 4392SOL     OW24811   0.459   2.327   5.755  0.0651 -0.0955 -0.2905
 4392SOL    HW124812   0.521   2.335   5.828 -0.7293  0.6474  0.3004
 4392SOL    HW224813   0.406   2.255   5.789  1.0161 -0.0734  1.2335
 4393SOL     OW24814   2.400   0.374   4.170 -0.4335 -0.1253  0.0386
 4393SOL    HW124815   2.416   0.300   4.111  1.0882  0.3418 -0.1280
 4393SOL    HW224816   2.450   0.441   4.124  2.4249 -1.3243  1.3921
 4394SOL     OW24817   0.656   1.863   7.384 -0.2932 -0.4053 -0.2875
 4394SOL    HW124818   0.651   1.922   7.309 -3.1428 -0.6659 -0.3205
 4394SOL    HW224819   0.569   1.877   7.423 -0.2348 -1.0273  0.0664
 4395SOL     OW24820   3.832   3.517  17.487  0.0338 -0.6314  0.1284
 4395SOL    HW124821   3.748   3.513  17.440 -0.4847 -1.4420  1.1297
 4395SOL    HW224822   3.834   3.445  17.550  0.0217  0.0604  0.9081
 4396SOL     OW24823   1.894   3.929   4.414 -0.1307  0.2434  0.6347
 4396SOL    HW124824   1.873   3.836   4.418  0.5587 -0.0426 -2.3984
 4396SOL    HW224825   1.895   3.954   4.506  1.1835 -0.4350  0.8042
 4397SOL     OW24826   1.515   2.645  17.450  0.1141 -0.1243  0.1833
 4397SOL    HW124827   1.433   2.627  17.496 -0.2915 -1.4002 -1.0347
 4397SOL    HW224828   1.482   2.611  17.367  0.2807  0.2766 -0.0482
 4398SOL     OW24829   4.470   3.929   0.261  0.2259 -0.1556  0.0021
 4398SOL    HW124830   4.461   3.854   0.319 -0.3880  0.2258  0.4037
 4398SOL    HW224831   4.430   3.895   0.181 -0.6523 -2.2674  1.3710
 4399SOL     OW24832   0.797   3.705   2.603  0.6688  0.2640 -0.2446
 4399SOL    HW124833   0.792   3.693   2.698  1.6742  1.2459 -0.0634
 4399SOL    HW224834   0.771   3.796   2.594  1.1803  0.2978 -1.3890
 4400SOL     OW24835   1.248   3.142  13.062 -0.3567  0.1176  0.2064
 4400SOL    HW124836   1.193   3.214  13.091 -2.0508 -0.5719 -1.2734
 4400SOL    HW224837   1.264   3.094  13.143 -0.0474  0.6263  0.4451
 4401SOL     OW24838   2.890   2.976   7.570 -0.2217  0.2161 -0.2256
 4401SOL    HW124839   2.947   3.048   7.598 -1.9707  0.6032  2.2828
 4401SOL    HW224840   2.824   3.005   7.508 -0.3585 -1.4592 -0.8706
 4402SOL     OW24841   4.031   2.902   3.227  0.4404 -0.3991  0.1043
 4402SOL    HW124842   3.963   2.917   3.293 -1.1272 -0.6981 -1.4503
 4402SOL    HW224843   4.099   2.958   3.264 -0.7640  0.1784  1.4735
 4403SOL     OW24844   0.890   0.823   5.983 -0.4589  0.2406  0.1096
 4403SOL    HW124845   0.848   0.740   5.962  2.3216 -1.5511  1.6805
 4403SOL    HW224846   0.984   0.807   5.980 -0.4322 -0.1489  3.0157
 4404SOL     OW24847   1.569   3.759   4.413 -0.3133 -0.3624 -0.4689
 4404SOL    HW124848   1.604   3.831   4.360 -2.8016  0.4035 -1.1121
 4404SOL    HW224849   1.649   3.717   4.444 -1.0990 -0.7145  1.0509
 4405SOL     OW24850   3.744   4.551  12.845  0.1646  0.2503 -0.3449
 4405SOL    HW124851   3.710   4.618  12.785 -0.2190 -1.5128 -2.1208
 4405SOL    HW224852   3.821   4.591  12.885  0.0349 -1.0624  1.2074
 4406SOL     OW24853   0.748   4.216  16.084  0.2943  0.1160  0.6052
 4406SOL    HW124854   0.809   4.216  16.011  0.3701 -1.6386  0.6766
 4406SOL    HW224855   0.748   4.304  16.124  3.1399  0.0926  0.6755
 4407SOL     OW24856   3.332   4.276  10.158  0.8102  0.7342 -0.2692
 4407SOL    HW124857   3.363   4.367  10.150  0.0502  1.0645  0.5613
 4407SOL    HW224858   3.390   4.243  10.226  0.1114  0.0860  0.0040
 4408SOL     OW24859   0.387   3.027   4.999 -0.1035 -0.2974  0.1781
 4408SOL    HW124860   0.324   3.042   4.928 -0.4566 -0.1947  0.5089
 4408SOL    HW224861   0.397   3.121   5.013  0.7662 -0.2768 -0.6459
 4409SOL     OW24862   0.919   2.367   5.125 -0.6167  0.2153  0.1091
 4409SOL    HW124863   0.848   2.420   5.087  0.6400  2.3426  0.7094
 4409SOL    HW224864   0.906   2.374   5.219 -1.9269  2.4832 -0.2358
 4410SOL     OW24865   1.189   3.283  17.435  0.6293 -0.2037 -0.1698
 4410SOL    HW124866   1.199   3.188  17.443 -0.7937 -0.2723  0.8558
 4410SOL    HW224867   1.124   3.295  17.366  1.6544  0.5518 -1.0004
 4411SOL     OW24868   4.718   3.799   5.303  0.3252 -0.4563  0.2920
 4411SOL    HW124869   4.655   3.869   5.284  1.0764 -0.0080 -0.5174
 4411SOL    HW224870   0.053   3.851   5.338 -0.2425 -0.8854  2.0674
 4412SOL     OW24871   3.991   3.427   4.924 -0.0790  0.0534  0.1537
 4412SOL    HW124872   3.907   3.468   4.902 -2.1838 -3.0261  2.6064
 4412SOL    HW224873   4.000   3.367   4.850  2.1903 -0.8805  1.1955
 4413SOL     OW24874   1.480   3.844  14.194 -0.2543 -0.3494 -0.8550
 4413SOL    HW124875   1.480   3.782  14.268  0.4598  2.3502  1.4221
 4413SOL    HW224876   1.448   3.797  14.118  0.3295 -1.9418 -0.1128
 4414SOL     OW24877   1.296   0.252   3.962 -0.2991  0.3547 -0.3753
 4414SOL    HW124878   1.244   0.178   3.929 -2.1713  1.9448 -1.0182
 4414SOL    HW224879   1.285   0.234   4.056 -0.6070  4.0577  0.2740
 4415SOL     OW24880   1.307   0.273   8.527  0.1136 -0.5898 -0.6249
 4415SOL    HW124881   1.291   0.197   8.471 -0.8840 -1.4409  0.8075
 4415SOL    HW224882   1.219   0.306   8.548  1.9326  3.7767  0.0000
 4416SOL     OW24883   1.787   0.673   8.586 -0.0634 -0.4468 -0.5941
 4416SOL    HW124884   1.707   0.671   8.533 -0.3670 -2.5810 -0.0532
 4416SOL    HW224885   1.750   0.672   8.674  1.8449  1.9089  0.2531
 4417SOL     OW24886   2.605   2.005   6.838 -0.0291 -0.3623  0.0878
 4417SOL    HW124887   2.671   2.074   6.828  1.0684 -1.3445  0.5766
 4417SOL    HW224888   2.637   1.939   6.776  1.3443  0.8637 -0.5178
 4418SOL     OW24889   3.590   4.441  10.036 -0.6573 -0.1181 -0.5880
 4418SOL    HW124890   3.539   4.370   9.996 -1.4015  0.1545 -0.1266
 4418SOL    HW224891   3.632   4.478   9.958  0.6656  0.9130  0.6115
 4419SOL     OW24892   3.888   0.346  12.326 -0.0362 -0.2510  0.2020
 4419SOL    HW124893   3.855   0.384  12.408  0.1270  0.5232 -0.0916
 4419SOL    HW224894   3.894   0.254  12.353 -2.9330 -0.4254  0.1630
 4420SOL     OW24895   0.295   2.255   4.679 -0.0360 -0.4116  0.0263
 4420SOL    HW124896   0.345   2.195   4.733 -0.5926 -0.5350  0.4078
 4420SOL    HW224897   0.231   2.197   4.638 -2.5211  3.0607 -0.9957
 4421SOL     OW24898   4.296   2.665   3.079 -0.4393  0.1079  0.3354
 4421SOL    HW124899   4.259   2.604   3.142 -1.0685  0.6521  0.4847
 4421SOL    HW224900   4.374   2.705   3.118 -1.5276  1.8051  0.7630
 4422SOL     OW24901   2.633   1.975   7.101 -0.5468  0.0021  0.2499
 4422SOL    HW124902   2.550   1.933   7.123 -0.6630  0.8918  1.4773
 4422SOL    HW224903   2.617   1.988   7.007 -1.2019 -1.0310  0.2229
 4423SOL     OW24904   0.490   0.540  10.316 -0.1391 -0.3952 -0.6429
 4423SOL    HW124905   0.507   0.615  10.258  0.5737  0.3397  0.5417
 4423SOL    HW224906   0.481   0.468  10.253  0.8273  0.1175 -1.3744
 4424SOL     OW24907   1.600   2.590   1.875  0.4370  0.0093 -0.0012
 4424SOL    HW124908   1.680   2.541   1.893  0.6015 -0.2747 -1.5620
 4424SOL    HW224909   1.536   2.520   1.866 -0.2323  1.0789 -3.5081
 4425SOL     OW24910   2.555   4.177   6.405 -0.0355 -0.0532  0.1832
 4425SOL    HW124911   2.571   4.264   6.370  0.7799 -0.7786 -1.2538
 4425SOL    HW224912   2.551   4.188   6.500 -0.6414  0.5345  0.0860
 4426SOL     OW24913   2.488   4.277   5.581 -0.2981  0.2665  0.2262
 4426SOL    HW124914   2.498   4.278   5.676 -2.4488 -0.3236  0.4630
 4426SOL    HW224915   2.577   4.263   5.549 -0.6931  1.2081 -1.2851
 4427SOL     OW24916   2.524   2.938   1.894  0.0386 -0.3641  0.0937
 4427SOL    HW124917   2.493   2.961   1.806  0.7400  0.0735 -0.0403
 4427SOL    HW224918   2.606   2.904   1.858 -0.6372  0.9884 -2.7157
 4428SOL     OW24919   2.810   3.877   6.817  0.4567 -0.1412  0.4572
 4428SOL    HW124920   2.729   3.901   6.863 -1.5412 -1.2380 -2.5347
 4428SOL    HW224921   2.860   3.951   6.852 -1.9652  1.0992  1.3282
 4429SOL     OW24922   1.419   2.053   7.663  0.0770 -0.3719  0.8203
 4429SOL    HW124923   1.437   2.030   7.754  0.0901  0.6243  1.0740
 4429SOL    HW224924   1.467   2.135   7.673 -2.7225  1.3273  0.1627
 4430SOL     OW24925   1.391   3.774  12.964  0.3529  0.1801 -0.2162
 4430SOL    HW124926   1.454   3.837  12.930 -0.3656  1.7375  1.3814
 4430SOL    HW224927   1.356   3.739  12.882  1.5226 -0.4231 -0.4565
 4431SOL     OW24928   4.405   1.232   7.336  0.1592  0.3708 -0.0909
 4431SOL    HW124929   4.386   1.267   7.249 -2.2196 -0.1504  0.2233
 4431SOL    HW224930   4.337   1.169   7.357  0.6382  0.4536  1.6712
 4432SOL     OW24931   1.073   1.728  10.439  0.2057  0.1893 -0.0333
 4432SOL    HW124932   1.053   1.640  10.471  0.0662 -0.3613 -1.6833
 4432SOL    HW224933   1.055   1.716  10.346 -1.0620  1.0557  0.1088
 4433SOL     OW24934   4.570   2.632  16.779 -0.2289 -0.1485  0.3706
 4433SOL    HW124935   4.598   2.710  16.827  1.9971 -2.0363  2.1407
 4433SOL    HW224936   4.485   2.657  16.742  0.1709 -1.0280 -1.1435
 4434SOL     OW24937   1.777   3.884  17.534 -0.7622  0.2614  0.1502
 4434SOL    HW124938   1.777   3.793  17.507 -1.3269  0.7396 -1.4951
 4434SOL    HW224939   1.684   3.902  17.549 -0.9289 -0.1868 -0.3490
 4435SOL     OW24940   1.186   4.413  10.668 -0.1727  0.0977 -0.0944
 4435SOL    HW124941   1.154   4.493  10.627  1.3200 -0.2812 -2.0410
 4435SOL    HW224942   1.278   4.428  10.649 -0.1633 -0.1482 -0.2500
 4436SOL     OW24943   1.858   0.184  12.706  0.0433  0.5845  0.4710
 4436SOL    HW124944   1.780   0.165  12.757 -1.0387 -2.2176 -2.2168
 4436SOL    HW224945   1.830   0.257  12.651 -0.1213 -0.2131 -0.5079
 4437SOL     OW24946   3.757   4.193   9.762 -0.1153  0.1604  0.1684
 4437SOL    HW124947   3.687   4.139   9.797  1.7512 -3.6986 -1.9995
 4437SOL    HW224948   3.709   4.260   9.714 -0.3457  0.2329  0.5008
 4438SOL     OW24949   2.518   0.709   4.617  0.7808 -0.8208  0.4553
 4438SOL    HW124950   2.513   0.679   4.526 -2.0117  0.1435  0.3057
 4438SOL    HW224951   2.598   0.669   4.652  0.3896 -3.2719 -1.4499
 4439SOL     OW24952   0.635   1.206   1.535 -0.2496 -0.5071 -0.0399
 4439SOL    HW124953   0.722   1.200   1.495 -0.2822  2.0423 -0.4613
 4439SOL    HW224954   0.646   1.158   1.617 -1.9407  0.6254  0.8538
 4440SOL     OW24955   2.303   4.293  10.790  0.2702 -0.1889 -0.3929
 4440SOL    HW124956   2.211   4.312  10.774 -0.0428 -0.9260  0.5215
 4440SOL    HW224957   2.316   4.221  10.729  1.2862 -1.8614  1.7670
 4441SOL     OW24958   2.114   2.143  16.331 -0.4092  0.2457  0.6301
 4441SOL    HW124959   2.134   2.152  16.424  0.7994  0.6736  0.3278
 4441SOL    HW224960   2.175   2.203  16.287 -1.1027  0.5238  0.0547
 4442SOL     OW24961   1.557   3.107   7.302  0.0426 -0.3075  0.2374
 4442SOL    HW124962   1.513   3.176   7.352  1.8803 -0.1246  1.6046
 4442SOL    HW224963   1.578   3.149   7.219 -1.4332  3.4704  1.7553
 4443SOL     OW24964   0.865   1.952   4.043 -0.3280 -0.2772 -0.0255
 4443SOL    HW124965   0.891   1.932   4.134 -0.3053 -0.6175 -0.1062
 4443SOL    HW224966   0.787   1.898   4.035 -0.8245  0.2564  1.1917
 4444SOL     OW24967   4.656   4.392   1.223 -0.1782  0.2109  0.2036
 4444SOL    HW124968   4.583   4.349   1.179 -1.4510  2.6853 -0.1164
 4444SOL    HW224969   4.720   4.408   1.155 -0.2741 -0.2281  0.0082
 4445SOL     OW24970   2.401   0.461   4.792  0.7150 -0.5803  0.5773
 4445SOL    HW124971   2.436   0.549   4.777 -1.9179  0.4342  0.4667
 4445SOL    HW224972   2.476   0.404   4.775  0.6950 -0.8335  1.3288
 4446SOL     OW24973   0.553   0.909   9.684  0.2728 -0.3212  0.1629
 4446SOL    HW124974   0.496   0.986   9.687  1.3303  0.4252  1.3246
 4446SOL    HW224975   0.609   0.917   9.761 -1.3502  2.6955  1.0366
 4447SOL     OW24976   3.307   0.187   8.501 -0.0927 -0.4973  0.6257
 4447SOL    HW124977   3.235   0.174   8.563 -0.3186 -1.5526  0.1391
 4447SOL    HW224978   3.326   0.278   8.521 -1.1981 -0.5378  1.8260
 4448SOL     OW24979   2.456   4.173   4.498 -0.6860 -0.3744 -0.0097
 4448SOL    HW124980   2.446   4.078   4.505 -0.4329 -0.3242  1.0309
 4448SOL    HW224981   2.375   4.208   4.535 -1.2256 -2.3836  0.7036
 4449SOL     OW24982   4.720   2.710   5.047  0.2843 -0.0087 -0.4906
 4449SOL    HW124983   0.019   2.736   4.962 -2.0622 -0.4376 -1.5923
 4449SOL    HW224984   4.669   2.785   5.079 -0.2293 -0.3818 -0.4259
 4450SOL     OW24985   2.471   1.645   1.029 -0.5175  0.2878 -0.1608
 4450SOL    HW124986   2.500   1.554   1.021  0.0618  0.3361  1.3649
 4450SOL    HW224987   2.536   1.687   1.085  0.4657  0.6647 -1.5746
 4451SOL     OW24988   2.554   4.027   1.053 -0.0409  0.3300  0.0619
 4451SOL    HW124989   2.516   4.022   0.965  0.4841 -1.0675 -0.0787
 4451SOL    HW224990   2.475   4.051   1.101 -0.5950  0.0184 -0.6936
 4452SOL     OW24991   1.629   0.518  15.508 -0.7580  0.0247  0.0024
 4452SOL    HW124992   1.655   0.509  15.416 -0.6966 -1.3980  0.1498
 4452SOL    HW224993   1.555   0.579  15.514 -0.3133  0.5227  0.3196
 4453SOL     OW24994   4.186   1.755   8.011 -0.0951  0.0913  0.1621
 4453SOL    HW124995   4.120   1.715   7.955  1.4112 -1.1376 -0.7217
 4453SOL    HW224996   4.185   1.848   7.989 -1.0827  0.7179  2.8153
 4454SOL     OW24997   0.126   0.593  11.326  0.4367  0.3352  0.1816
 4454SOL    HW124998   0.194   0.528  11.342 -0.3696 -0.6209 -0.3122
 4454SOL    HW224999   0.183   0.664  11.296 -0.5984  0.9362 -0.3529
 4455SOL     OW25000   4.461   3.747   0.703 -0.1741  0.9343  0.0189
 4455SOL    HW125001   4.486   3.753   0.611  1.5310 -1.7188  0.2985
 4455SOL    HW225002   4.501   3.665   0.731  1.0437  0.9041 -1.8531
 4456SOL     OW25003   3.886   3.536   9.643 -0.9100  0.4167 -0.2740
 4456SOL    HW125004   3.881   3.574   9.731  3.5397  0.2490  0.0571
 4456SOL    HW225005   3.926   3.451   9.659 -0.7830  0.3717 -0.8350
 4457SOL     OW25006   2.749   3.742   1.645 -0.4456  0.2698  0.0779
 4457SOL    HW125007   2.659   3.775   1.637 -0.3341  0.4775 -0.2932
 4457SOL    HW225008   2.804   3.817   1.624  0.0726 -0.2020 -0.2513
 4458SOL     OW25009   4.714   3.436  16.484  0.2207  0.7355 -0.1724
 4458SOL    HW125010   4.658   3.465  16.556 -0.3184 -0.7256 -0.0032
 4458SOL    HW225011   0.021   3.518  16.461  1.6587  0.1463  0.4817
 4459SOL     OW25012   0.731   4.180   9.716  0.5800  0.5692 -0.2706
 4459SOL    HW125013   0.732   4.084   9.714  1.6133  0.5773 -0.4029
 4459SOL    HW225014   0.809   4.196   9.662 -0.7441 -0.3620 -2.4777
 4460SOL     OW25015   3.563   3.318   8.923  0.4491  0.0999  0.3682
 4460SOL    HW125016   3.646   3.282   8.954  0.0612  0.0427  1.3521
 4460SOL    HW225017   3.515   3.244   8.885  0.1547  0.1698  0.6011
 4461SOL     OW25018   3.237   1.185   6.779 -0.2605  0.3487  0.3595
 4461SOL    HW125019   3.277   1.237   6.709 -0.7894 -1.5112 -1.3158
 4461SOL    HW225020   3.143   1.190   6.759 -0.1478 -2.3819 -0.8250
 4462SOL     OW25021   3.611   4.190   7.870 -0.5471 -0.2674 -0.0979
 4462SOL    HW125022   3.551   4.127   7.910 -1.5518 -0.2281 -1.5186
 4462SOL    HW225023   3.685   4.167   7.925 -0.4641  2.4142  0.8899
 4463SOL     OW25024   2.669   3.296   6.447 -0.4081  0.3205 -0.0234
 4463SOL    HW125025   2.642   3.277   6.357 -0.0112 -2.8990  0.5458
 4463SOL    HW225026   2.589   3.266   6.489  0.7913 -0.7150  1.5179
 4464SOL     OW25027   2.265   4.589   8.614 -0.3018  0.3723  1.3625
 4464SOL    HW125028   2.224   4.554   8.535 -0.5181  1.5310  0.9634
 4464SOL    HW225029   2.353   4.553   8.627 -0.8038 -1.5279 -0.5256
 4465SOL     OW25030   3.930   3.776  11.304 -0.2432  0.6662  0.7721
 4465SOL    HW125031   3.973   3.752  11.222 -0.1890 -0.0030  0.9886
 4465SOL    HW225032   3.851   3.825  11.282 -0.5219  1.2338  3.0676
 4466SOL     OW25033   0.241   2.039  12.931 -0.2700  0.3192 -0.1988
 4466SOL    HW125034   0.190   1.976  12.880 -1.1559 -1.3673  2.7459
 4466SOL    HW225035   0.186   2.116  12.917 -0.5436  0.1387 -0.1155
 4467SOL     OW25036   4.655   1.492   9.439  0.5122  0.0025  0.4883
 4467SOL    HW125037   4.568   1.477   9.475  0.4740 -3.1552 -0.9131
 4467SOL    HW225038   4.659   1.415   9.382 -0.8646  0.3569 -0.0724
 4468SOL     OW25039   1.688   2.631  16.865 -0.8431  0.3678 -0.1679
 4468SOL    HW125040   1.622   2.701  16.872 -1.1588  0.2413 -2.0178
 4468SOL    HW225041   1.749   2.656  16.935  0.7998  1.0216 -1.8446
 4469SOL     OW25042   4.548   2.919  15.680  0.5083  0.3262  0.3772
 4469SOL    HW125043   4.573   2.860  15.609 -0.1784 -0.2338  0.6039
 4469SOL    HW225044   4.567   3.007  15.646  2.7921 -1.3011 -2.4757
 4470SOL     OW25045   0.720   0.861   8.771  0.3811 -0.4404  0.6146
 4470SOL    HW125046   0.719   0.935   8.710 -1.6729 -0.8912  0.1133
 4470SOL    HW225047   0.696   0.913   8.848 -2.3037  2.5391 -2.2053
 4471SOL     OW25048   0.294   4.252   8.789  0.3796 -0.1232  0.6655
 4471SOL    HW125049   0.327   4.168   8.756  0.9135  0.7967 -1.1141
 4471SOL    HW225050   0.368   4.289   8.837  1.3287  0.7965 -1.5034
 4472SOL     OW25051   4.554   0.771  11.031  0.3565  0.2609 -0.1309
 4472SOL    HW125052   4.478   0.742  11.080  0.2448 -0.6225 -0.8333
 4472SOL    HW225053   4.614   0.696  11.030 -1.8146 -1.4488 -2.2344
 4473SOL     OW25054   1.534   2.819   2.048  0.1782  0.2399  0.5927
 4473SOL    HW125055   1.588   2.790   1.975 -2.0783 -1.7684 -0.2932
 4473SOL    HW225056   1.559   2.755   2.115 -0.1766  0.6595  1.1262
 4474SOL     OW25057   2.566   3.620   8.499  0.2872 -0.1035  0.3034
 4474SOL    HW125058   2.574   3.534   8.541  2.5628 -0.1105 -0.1039
 4474SOL    HW225059   2.494   3.605   8.438 -1.3939  0.7486  2.0899
 4475SOL     OW25060   2.670   4.137   9.679  0.3580  0.0366 -0.2454
 4475SOL    HW125061   2.741   4.079   9.706  0.7803  0.2157 -0.9592
 4475SOL    HW225062   2.597   4.075   9.679  2.0603 -1.9693 -0.4968
 4476SOL     OW25063   3.303   2.329   8.808 -0.2433 -0.1237  0.8937
 4476SOL    HW125064   3.258   2.398   8.758  2.2792  1.2584  0.5424
 4476SOL    HW225065   3.335   2.381   8.882  0.1591  1.0864 -0.1214
 4477SOL     OW25066   0.943   4.273   3.576  0.0390  0.0800  0.3533
 4477SOL    HW125067   0.852   4.294   3.554  0.3910  1.5929  0.2920
 4477SOL    HW225068   0.927   4.182   3.599 -1.6236  0.1181 -0.6436
 4478SOL     OW25069   0.605   3.701  11.578  0.1431  0.3451 -0.3020
 4478SOL    HW125070   0.562   3.645  11.514  1.1709  0.1377 -0.8247
 4478SOL    HW225071   0.651   3.757  11.517  1.3482  1.0197  1.2135
 4479SOL     OW25072   4.380   2.632   2.028 -0.2202 -0.0752  0.0673
 4479SOL    HW125073   4.372   2.563   2.093  2.5904 -1.7208 -1.3200
 4479SOL    HW225074   4.426   2.703   2.074  2.0523 -1.8169  0.4940
 4480SOL     OW25075   2.976   0.339   2.901  0.2485 -0.7330  0.1950
 4480SOL    HW125076   3.027   0.311   2.977  0.7004  1.4897  0.7212
 4480SOL    HW225077   2.952   0.422   2.943 -1.5306 -0.9082 -0.4531
 4481SOL     OW25078   1.171   0.815   8.142  0.5797 -0.8422  0.1977
 4481SOL    HW125079   1.221   0.734   8.151  0.7058 -0.9881 -1.9123
 4481SOL    HW225080   1.172   0.849   8.232 -0.4865  0.8558 -0.4319
 4482SOL     OW25081   4.438   2.379   4.815 -0.0539 -0.4683  0.1160
 4482SOL    HW125082   4.437   2.413   4.904  0.8006 -2.8603  1.0341
 4482SOL    HW225083   4.362   2.421   4.773  1.0190 -1.8643 -3.2388
 4483SOL     OW25084   3.651   2.699   6.211 -0.3224 -0.3570  0.5789
 4483SOL    HW125085   3.731   2.702   6.159  0.1015  0.2952  1.2626
 4483SOL    HW225086   3.622   2.790   6.196  0.0079 -0.1710  1.0863
 4484SOL     OW25087   1.127   2.752   8.360  0.3509 -0.0912  0.3161
 4484SOL    HW125088   1.088   2.833   8.324  0.9366  1.0022  2.1731
 4484SOL    HW225089   1.197   2.786   8.415  0.8317  0.6574 -0.7482
 4485SOL     OW25090   1.347   2.518   1.503 -0.4512  0.1679 -0.2552
 4485SOL    HW125091   1.373   2.603   1.467 -2.8096  0.5052 -1.1607
 4485SOL    HW225092   1.274   2.539   1.561 -1.0502  1.4851 -1.4769
 4486SOL     OW25093   2.380   4.579  13.698  0.1751 -0.9343  0.1907
 4486SOL    HW125094   2.355   4.630  13.775 -1.5554  0.6585 -1.4184
 4486SOL    HW225095   2.386   4.489  13.731 -0.7938 -1.3835 -0.8755
 4487SOL     OW25096   4.662   0.892   9.139  0.4696 -0.5599  0.4170
 4487SOL    HW125097   0.004   0.943   9.120 -0.2365  0.5867  0.5957
 4487SOL    HW225098   4.617   0.954   9.196 -1.7380 -0.3325 -1.6278
 4488SOL     OW25099   2.607   1.248   6.687  0.1399  0.0198  0.1791
 4488SOL    HW125100   2.606   1.197   6.768  1.4480 -0.7671 -0.2933
 4488SOL    HW225101   2.542   1.316   6.702 -1.0423 -1.2547  0.8039
 4489SOL     OW25102   2.573   1.100   8.631  0.3167 -0.1553 -0.0013
 4489SOL    HW125103   2.594   1.007   8.641 -0.7962 -0.4093 -0.0564
 4489SOL    HW225104   2.634   1.142   8.692  0.9135 -1.5742  0.3837
 4490SOL     OW25105   2.028   4.340   6.129  0.5460  0.2333 -0.2469
 4490SOL    HW125106   2.100   4.402   6.137  1.0370 -0.4067  0.3204
 4490SOL    HW225107   2.072   4.256   6.141 -0.0611  0.1810  1.6236
 4491SOL     OW25108   4.133   0.421   1.704 -0.2638 -0.7125 -0.5231
 4491SOL    HW125109   4.042   0.449   1.697 -1.3955 -4.4683 -0.8200
 4491SOL    HW225110   4.125   0.377   1.789 -0.9477 -0.1262 -0.2875
 4492SOL     OW25111   0.114   3.965   1.026  0.2470  0.1896  0.0735
 4492SOL    HW125112   0.196   4.003   0.997  0.2423  0.7389  0.7834
 4492SOL    HW225113   0.048   4.030   1.004  0.5724  0.9145  1.2533
 4493SOL     OW25114   3.458   2.959   0.341 -0.1639 -0.2872  0.6611
 4493SOL    HW125115   3.437   3.046   0.307  0.4792 -0.8648 -1.1802
 4493SOL    HW225116   3.542   2.981   0.381 -1.3703  1.1421  2.4546
 4494SOL     OW25117   0.455   1.174   9.500  0.2660  0.6291 -0.0090
 4494SOL    HW125118   0.550   1.172   9.494  0.2590 -2.8436  1.0034
 4494SOL    HW225119   0.444   1.255   9.550  1.1872  0.1154  1.0259
 4495SOL     OW25120   0.432   4.202  17.735 -0.2971 -0.2706 -0.0918
 4495SOL    HW125121   0.419   4.286   0.035 -0.0119 -1.3486  2.0212
 4495SOL    HW225122   0.431   4.148   0.070  1.9243 -2.1963 -1.3830
 4496SOL     OW25123   4.071   3.329   9.294 -0.5364  0.5561 -0.1227
 4496SOL    HW125124   4.160   3.341   9.326 -0.4964  0.0010 -0.0286
 4496SOL    HW225125   4.069   3.381   9.214  3.8573  0.1431 -0.5219
 4497SOL     OW25126   4.562   4.112   3.364  0.0461  0.0581 -0.0424
 4497SOL    HW125127   4.607   4.190   3.333 -0.1329 -0.5644 -1.9060
 4497SOL    HW225128   4.470   4.137   3.352 -0.9606 -2.6633  2.1427
 4498SOL     OW25129   0.865   0.521  10.780 -0.1251 -0.3451  0.3384
 4498SOL    HW125130   0.847   0.512  10.873  1.6214 -3.1749  0.3880
 4498SOL    HW225131   0.941   0.580  10.776  0.6025 -1.3246 -0.4034
 4499SOL     OW25132   2.931   2.920   0.608 -0.1792 -0.0669 -0.2012
 4499SOL    HW125133   3.002   2.898   0.668 -0.4083 -2.6277 -0.8625
 4499SOL    HW225134   2.975   2.978   0.545 -0.4353  1.5665  1.1324
 4500SOL     OW25135   0.486   2.791   4.864 -1.0413  0.4548 -0.2733
 4500SOL    HW125136   0.487   2.738   4.944  0.8697 -1.5987 -1.6654
 4500SOL    HW225137   0.506   2.882   4.888 -0.1812 -0.1870  1.4790
 4501SOL     OW25138   1.600   4.351   7.180 -0.3597 -0.3332  0.0280
 4501SOL    HW125139   1.549   4.283   7.137 -1.7304  0.1600  0.8735
 4501SOL    HW225140   1.685   4.306   7.182 -1.5142 -2.4898 -0.3505
 4502SOL     OW25141   2.363   0.652  12.870 -0.4345  0.1326 -0.1800
 4502SOL    HW125142   2.347   0.557  12.873 -0.4491  0.1002 -1.0831
 4502SOL    HW225143   2.450   0.664  12.908 -0.5125  2.7849 -0.8626
 4503SOL     OW25144   0.556   4.040  12.376  0.7603  0.2382 -0.2339
 4503SOL    HW125145   0.554   4.091  12.295  0.8795 -0.6582 -0.7965
 4503SOL    HW225146   0.645   4.004  12.371  0.3251 -0.5136 -2.3684
 4504SOL     OW25147   3.973   4.148   4.814  0.3518 -0.1917 -0.7558
 4504SOL    HW125148   3.933   4.180   4.733 -3.9929 -2.5554  0.4553
 4504SOL    HW225149   3.929   4.198   4.883 -1.7139  0.2273 -2.3578
 4505SOL     OW25150   1.900   3.891  15.707 -0.5770  0.0842  0.0469
 4505SOL    HW125151   1.840   3.838  15.759 -1.0266  1.2352  0.7165
 4505SOL    HW225152   1.835   3.957  15.682  0.6494  1.8407  1.5515
 4506SOL     OW25153   2.004   4.457   4.944 -0.4524  0.6855  0.1721
 4506SOL    HW125154   1.943   4.520   4.904 -1.3567 -0.7041 -0.6364
 4506SOL    HW225155   1.951   4.446   5.023 -0.1470  0.0594  0.2849
 4507SOL     OW25156   0.807   0.072  11.634  0.4152  0.1176 -0.6180
 4507SOL    HW125157   0.751   4.734  11.657  0.2370  0.4175 -0.0587
 4507SOL    HW225158   0.893   0.033  11.651 -0.1911 -0.7652  0.4932
 4508SOL     OW25159   0.019   3.721   0.894  0.0639  0.2333  0.3034
 4508SOL    HW125160   4.666   3.746   0.916  0.3595  1.3860  0.1547
 4508SOL    HW225161   0.069   3.780   0.950  1.1899  0.3904 -0.8571
 4509SOL     OW25162   3.957   2.187   7.837 -0.0977  0.2341 -0.2910
 4509SOL    HW125163   3.913   2.248   7.896  0.5212 -0.3948  0.8231
 4509SOL    HW225164   3.881   2.162   7.785 -1.5849  0.2428  1.8731
 4510SOL     OW25165   0.405   4.662   2.254  0.5668  0.2225 -0.7608
 4510SOL    HW125166   0.402   4.567   2.245  1.4092  0.1391 -0.2299
 4510SOL    HW225167   0.372   4.688   2.168  0.9452  1.8051 -0.4306
 4511SOL     OW25168   4.496   3.942   1.635 -0.1895  0.1319 -0.1447
 4511SOL    HW125169   4.588   3.956   1.657  0.0233 -1.1237 -0.2537
 4511SOL    HW225170   4.466   3.862   1.679  1.6863 -1.1252 -1.1575
 4512SOL     OW25171   0.113   0.902   7.348 -0.3007 -0.2756 -0.7855
 4512SOL    HW125172   0.141   0.988   7.379 -0.4026 -0.2628 -0.7270
 4512SOL    HW225173   0.029   0.930   7.311 -1.1474 -0.6417  0.8682
 4513SOL     OW25174   4.417   1.239   3.446 -0.2377 -0.0439  0.8782
 4513SOL    HW125175   4.339   1.189   3.471 -0.4887  1.2849  2.7457
 4513SOL    HW225176   4.394   1.250   3.353  0.1181  0.6157  0.8723
 4514SOL     OW25177   4.266   0.400   9.601 -0.3354  0.1421  0.4749
 4514SOL    HW125178   4.325   0.328   9.578 -1.7418 -0.5748 -0.8674
 4514SOL    HW225179   4.181   0.359   9.590 -0.4895  0.5907  0.0309
 4515SOL     OW25180   3.844   3.980   9.944 -0.3926 -0.7664  0.1501
 4515SOL    HW125181   3.767   3.923   9.941 -2.0891  1.4611  1.9635
 4515SOL    HW225182   3.824   4.044   9.876  1.7184 -3.2295 -2.8141
 4516SOL     OW25183   2.651   1.473   6.341 -0.2251 -0.0519  0.2689
 4516SOL    HW125184   2.602   1.409   6.289  1.1251 -0.9313  0.0776
 4516SOL    HW225185   2.612   1.559   6.326  0.1636 -0.0159 -0.5467
 4517SOL     OW25186   0.843   0.567   5.925  0.1636 -0.1754  0.3138
 4517SOL    HW125187   0.755   0.534   5.940  0.4381 -1.2632 -0.4464
 4517SOL    HW225188   0.870   0.515   5.849  0.3012  0.2024  0.1035
 4518SOL     OW25189   1.004   0.759   5.261 -0.0704 -0.1955  0.2818
 4518SOL    HW125190   1.053   0.820   5.316  2.0461  0.0730 -1.8674
 4518SOL    HW225191   1.030   0.790   5.174 -0.7228 -0.7804 -0.1216
 4519SOL     OW25192   2.090   0.479   5.358  0.2275 -0.2076 -0.7038
 4519SOL    HW125193   2.027   0.539   5.320 -0.7981 -1.1673 -0.5116
 4519SOL    HW225194   2.159   0.542   5.383 -1.7157  1.4306  0.4830
 4520SOL     OW25195   3.736   3.325   7.725 -0.1719 -0.2065  0.0986
 4520SOL    HW125196   3.651   3.353   7.757  0.7684  1.3594  1.1934
 4520SOL    HW225197   3.795   3.377   7.779  1.5508 -1.3219 -0.7082
 4521SOL     OW25198   0.674   1.685   1.741 -0.4853  0.2318 -0.9670
 4521SOL    HW125199   0.580   1.697   1.731 -0.5140  1.2586  0.4768
 4521SOL    HW225200   0.699   1.601   1.702  0.1303 -0.3208  0.5951
 4522SOL     OW25201   4.692   1.378   7.780  0.2534 -0.2764 -0.2483
 4522SOL    HW125202   4.619   1.433   7.809 -0.4915 -1.4104  0.0192
 4522SOL    HW225203   4.661   1.345   7.695  1.1298  0.1711 -0.7449
 4523SOL     OW25204   2.767   4.483   3.061 -0.5867 -0.1934  0.0347
 4523SOL    HW125205   2.725   4.408   3.105 -0.6823  0.2033  0.6262
 4523SOL    HW225206   2.858   4.453   3.068 -0.9122 -0.5377  2.9105
 4524SOL     OW25207   2.853   1.552   1.805 -0.6004 -0.2292  0.0416
 4524SOL    HW125208   2.810   1.559   1.891 -0.8543  0.8216 -0.1738
 4524SOL    HW225209   2.904   1.474   1.826 -0.7907 -0.4157 -0.1889
 4525SOL     OW25210   3.493   1.178  15.866 -0.1740  0.3336 -0.5683
 4525SOL    HW125211   3.443   1.182  15.948 -0.5799  0.2763 -0.8123
 4525SOL    HW225212   3.533   1.092  15.882 -1.6760 -0.0779  0.9931
 4526SOL     OW25213   3.108   4.653   8.058  0.3630 -0.4341 -0.4722
 4526SOL    HW125214   3.127   4.732   8.008  0.3211 -1.5798 -2.2961
 4526SOL    HW225215   3.195   4.622   8.083  0.1711  0.1608  0.9433
 4527SOL     OW25216   3.741   4.143   5.477 -0.4267  0.0565  0.1980
 4527SOL    HW125217   3.682   4.194   5.532 -1.1798 -1.4470  0.7755
 4527SOL    HW225218   3.814   4.121   5.536 -0.0187  2.1498  0.5071
 4528SOL     OW25219   2.606   4.558   5.604  0.2052  0.3778  0.2240
 4528SOL    HW125220   2.613   4.463   5.621 -2.8302 -0.5610 -3.9274
 4528SOL    HW225221   2.701   4.566   5.601  0.7838 -5.5831  0.8233
 4529SOL     OW25222   4.468   3.532   6.773  0.3169  0.2291 -0.5474
 4529SOL    HW125223   4.528   3.499   6.840  0.0998  0.8167 -0.0581
 4529SOL    HW225224   4.507   3.489   6.697 -0.2689 -0.2991 -0.5492
 4530SOL     OW25225   3.746   0.759   7.516 -0.1266 -0.2878 -0.6862
 4530SOL    HW125226   3.754   0.819   7.442 -1.8660 -0.3282 -0.9022
 4530SOL    HW225227   3.765   0.674   7.476  0.1499 -1.2112  1.4328
 4531SOL     OW25228   0.720   2.869   7.191 -0.6266  0.7468  0.8545
 4531SOL    HW125229   0.754   2.797   7.138 -0.6147  0.9747  0.5547
 4531SOL    HW225230   0.729   2.936   7.123 -1.1490  1.0832  1.1117
 4532SOL     OW25231   0.185   2.788   8.446 -0.5519  0.3224 -0.1769
 4532SOL    HW125232   0.188   2.732   8.524 -0.3193 -1.2664 -1.3245
 4532SOL    HW225233   0.265   2.751   8.409 -1.3383 -0.5341 -1.0345
 4533SOL     OW25234   3.261   2.132   8.266  0.2855 -0.1892 -0.3031
 4533SOL    HW125235   3.275   2.118   8.360 -0.4797 -1.9999 -0.4634
 4533SOL    HW225236   3.225   2.221   8.267 -1.2635 -0.8489  1.8628
 4534SOL     OW25237   3.856   3.647   8.123 -0.6612 -0.0351  0.0310
 4534SOL    HW125238   3.893   3.581   8.182 -0.9718 -1.1200 -0.9791
 4534SOL    HW225239   3.931   3.706   8.118  1.2105 -2.4587 -0.5030
 4535SOL     OW25240   1.807   4.045   3.453  0.1206 -0.4522  0.2627
 4535SOL    HW125241   1.826   4.008   3.539  0.2725  0.9574  0.8319
 4535SOL    HW225242   1.894   4.041   3.413 -1.1534 -0.7342 -2.5191
 4536SOL     OW25243   0.530   3.932   7.143  0.1790 -0.2855 -0.1117
 4536SOL    HW125244   0.455   3.990   7.128  1.0310  1.4577  2.3402
 4536SOL    HW225245   0.593   3.998   7.115  0.2804 -0.4353 -0.2374
 4537SOL     OW25246   0.082   3.800  17.361  0.3102 -0.3286  0.3805
 4537SOL    HW125247   0.112   3.843  17.441 -0.0434  2.6429 -1.0997
 4537SOL    HW225248   0.003   3.847  17.333  0.5855  0.1069  0.3353
 4538SOL     OW25249   0.431   1.123   8.139  0.0002  0.0159 -0.1470
 4538SOL    HW125250   0.338   1.100   8.139 -0.2071  0.8497  1.1562
 4538SOL    HW225251   0.421   1.185   8.211  4.3579 -0.8900  1.2636
 4539SOL     OW25252   1.469   4.671   2.155 -0.4717  0.5784  0.8932
 4539SOL    HW125253   1.562   4.656   2.142 -0.2717  2.4063  0.2264
 4539SOL    HW225254   1.436   4.702   2.071  0.3680  0.2190  0.4309
 4540SOL     OW25255   2.735   3.464  11.503 -0.4091  0.0663  0.5910
 4540SOL    HW125256   2.788   3.520  11.446  0.1370 -0.4890  0.5530
 4540SOL    HW225257   2.700   3.401  11.440 -0.0419 -1.3986  1.8673
 4541SOL     OW25258   1.798   3.705   6.370 -0.9260  0.0027 -1.0964
 4541SOL    HW125259   1.870   3.740   6.318 -0.8897  0.8177 -0.5009
 4541SOL    HW225260   1.765   3.791   6.397 -1.1531 -0.5837  0.5281
 4542SOL     OW25261   3.294   3.384   0.326  0.0942 -0.1009  0.0965
 4542SOL    HW125262   3.232   3.351   0.391 -0.4489 -0.4818 -0.6113
 4542SOL    HW225263   3.253   3.382   0.239 -1.3115 -2.9577  0.8246
 4543SOL     OW25264   0.184   2.605   8.727 -0.3863 -0.4648  0.1355
 4543SOL    HW125265   0.111   2.652   8.768 -1.4302 -1.1853 -0.9035
 4543SOL    HW225266   0.149   2.516   8.729  2.3355 -1.5306 -0.6258
 4544SOL     OW25267   3.053   4.181   6.454  0.0412  0.6123 -0.1463
 4544SOL    HW125268   3.063   4.090   6.480 -2.3775  1.7788  4.9493
 4544SOL    HW225269   3.057   4.163   6.361  1.4367 -1.4528  0.3326
 4545SOL     OW25270   2.955   4.418  15.849 -0.2435 -0.0732  0.0751
 4545SOL    HW125271   2.897   4.430  15.925 -0.0140 -0.6491  0.3388
 4545SOL    HW225272   2.934   4.491  15.790  2.0163 -0.1211 -0.7675
 4546SOL     OW25273   4.115   3.566  15.236  0.2091  0.0563 -0.2457
 4546SOL    HW125274   4.091   3.502  15.169  2.2263  0.4981 -1.3806
 4546SOL    HW225275   4.038   3.559  15.293 -0.3894 -0.6818 -1.1410
 4547SOL     OW25276   3.123   1.241  14.579 -0.0630 -0.5098  0.0157
 4547SOL    HW125277   3.110   1.266  14.670 -0.0535 -2.6584  0.6208
 4547SOL    HW225278   3.043   1.287  14.554  1.5182  1.7057 -0.9693
 4548SOL     OW25279   1.275   1.423   6.108 -1.1298 -0.2472  0.1579
 4548SOL    HW125280   1.235   1.509   6.120  0.0956  0.2430  0.8103
 4548SOL    HW225281   1.301   1.402   6.198 -0.9188  0.4772  0.2700
 4549SOL     OW25282   4.296   3.670   4.503 -0.4099  0.1990 -0.1638
 4549SOL    HW125283   4.229   3.717   4.453  0.3668  1.0601 -0.4074
 4549SOL    HW225284   4.250   3.651   4.585 -0.7870 -2.7404 -1.0670
 4550SOL     OW25285   2.706   0.454   3.484  0.3079 -0.8982  0.1511
 4550SOL    HW125286   2.692   0.429   3.393  1.4631 -1.1441  0.0367
 4550SOL    HW225287   2.764   0.384   3.515  2.5987 -0.8360 -3.9571
 4551SOL     OW25288   3.255   2.663   3.315  0.2813 -0.4622  0.9460
 4551SOL    HW125289   3.249   2.572   3.344 -1.9521 -0.3945  0.6983
 4551SOL    HW225290   3.326   2.666   3.251 -0.7573 -0.1656 -0.1839
 4552SOL     OW25291   1.223   2.921  10.664  0.4864  0.5811  0.1534
 4552SOL    HW125292   1.302   2.959  10.624 -0.1990  1.0632 -0.7509
 4552SOL    HW225293   1.165   2.996  10.674  0.1017  0.3822 -0.5981
 4553SOL     OW25294   2.472   0.576   3.507  0.0916  0.3815 -0.2335
 4553SOL    HW125295   2.420   0.503   3.472  0.1772  1.9558 -3.6473
 4553SOL    HW225296   2.557   0.532   3.513  0.8711  1.9805  0.4365
 4554SOL     OW25297   2.600   4.291   3.589  0.2059  0.0305 -0.1442
 4554SOL    HW125298   2.646   4.256   3.665  0.7127  1.8714  0.4076
 4554SOL    HW225299   2.666   4.285   3.519 -0.8719 -0.2559 -1.1331
 4555SOL     OW25300   2.110   3.484   5.744 -0.0511 -0.0148 -0.4956
 4555SOL    HW125301   2.094   3.576   5.723  2.1712  0.0616 -1.8484
 4555SOL    HW225302   2.172   3.456   5.677  1.2758  1.5837  0.0621
 4556SOL     OW25303   0.109   3.603   3.078  0.2742 -0.4190 -0.4073
 4556SOL    HW125304   0.169   3.672   3.107 -0.9862  0.0632  1.0474
 4556SOL    HW225305   0.167   3.526   3.070  1.8547  0.5993  1.2435
 4557SOL     OW25306   3.876   0.500   4.478  0.1250 -0.4656  0.3872
 4557SOL    HW125307   3.859   0.576   4.423  0.6532  0.6740  1.7897
 4557SOL    HW225308   3.830   0.524   4.559 -2.1181  1.0269 -1.3312
 4558SOL     OW25309   4.162   2.674  13.518  0.2519  0.3722 -0.1528
 4558SOL    HW125310   4.161   2.588  13.475 -0.3070 -0.5171  1.6442
 4558SOL    HW225311   4.256   2.690  13.516  0.7044 -2.4176 -1.6910
 4559SOL     OW25312   0.915   2.327   9.371  0.2156 -0.4554  0.4907
 4559SOL    HW125313   0.951   2.396   9.427 -2.9003  1.6970 -0.1219
 4559SOL    HW225314   0.996   2.284   9.345 -0.8229 -0.7099 -2.2846
 4560SOL     OW25315   1.744   1.181   5.716  0.1986  0.6694  0.0073
 4560SOL    HW125316   1.775   1.255   5.768 -1.7717  1.2339  0.3930
 4560SOL    HW225317   1.771   1.202   5.626  0.6179  2.3928  0.5308
 4561SOL     OW25318   4.039   1.736   5.147  0.0614  0.4978  0.2598
 4561SOL    HW125319   4.055   1.646   5.177 -1.9921 -0.0957 -0.4626
 4561SOL    HW225320   4.026   1.777   5.233 -1.2534  1.7954 -0.5654
 4562SOL     OW25321   1.068   4.137   3.116  0.1895 -0.1049 -0.3055
 4562SOL    HW125322   1.016   4.097   3.047 -1.1580  2.5620 -0.8399
 4562SOL    HW225323   1.081   4.060   3.171  2.0189  2.4810  2.8658
 4563SOL     OW25324   1.062   2.491   3.160  0.0647  0.4933 -0.6618
 4563SOL    HW125325   1.056   2.396   3.170  2.8473  0.5077  1.2477
 4563SOL    HW225326   0.999   2.524   3.224 -1.7992 -3.0899 -0.6881
 4564SOL     OW25327   2.165   3.905   4.693 -0.4087  0.0255  0.1005
 4564SOL    HW125328   2.163   3.968   4.764  0.7048  1.6031 -1.2716
 4564SOL    HW225329   2.079   3.918   4.653  0.4547  1.1998 -1.3959
 4565SOL     OW25330   1.984   3.845   2.707 -0.5332  0.2435 -0.0252
 4565SOL    HW125331   2.038   3.765   2.708 -0.7782  0.0837  0.6212
 4565SOL    HW225332   2.046   3.916   2.688 -1.8607  1.4718  0.2738
 4566SOL     OW25333   2.734   0.962   0.646  0.5770 -0.5195 -0.1475
 4566SOL    HW125334   2.684   1.031   0.690 -0.8107 -0.0757 -2.4021
 4566SOL    HW225335   2.699   0.880   0.680 -1.1293 -0.1435 -0.9400
 4567SOL     OW25336   2.662   0.024   6.652  0.0550  0.2195  0.3707
 4567SOL    HW125337   2.649   0.067   6.736 -1.1852 -0.8282  0.7137
 4567SOL    HW225338   2.629   4.671   6.661 -0.3014  0.1834 -1.1966
 4568SOL     OW25339   1.305   2.732  12.852  0.3455  0.5567 -0.1344
 4568SOL    HW125340   1.232   2.753  12.910  0.4941 -1.9977  1.0019
 4568SOL    HW225341   1.258   2.676  12.790 -0.4440  2.3289 -1.1233
 4569SOL     OW25342   2.647   0.884  11.051 -0.1252  0.0391 -0.3456
 4569SOL    HW125343   2.740   0.882  11.028 -0.4060 -3.7423 -1.2610
 4569SOL    HW225344   2.637   0.957  11.112 -1.2415 -0.7887  0.4650
 4570SOL     OW25345   2.830   3.095   4.868 -0.0258  0.2693 -0.6151
 4570SOL    HW125346   2.742   3.067   4.843  0.0921 -1.0590  0.4836
 4570SOL    HW225347   2.819   3.188   4.846 -0.9959 -0.1955 -2.0988
 4571SOL     OW25348   0.825   1.864   2.921 -0.0529 -0.0270  0.5005
 4571SOL    HW125349   0.827   1.944   2.975  0.2975 -0.2889  0.8795
 4571SOL    HW225350   0.917   1.841   2.921 -0.3771 -1.3330 -0.6183
 4572SOL     OW25351   2.858   3.128  11.435  0.0082  0.1606 -0.1287
 4572SOL    HW125352   2.766   3.151  11.422 -0.8810 -1.2554  3.7076
 4572SOL    HW225353   2.889   3.194  11.374  3.0416 -1.9117 -0.8338
 4573SOL     OW25354   2.709   0.034   3.449  0.0895 -0.1036 -0.9140
 4573SOL    HW125355   2.694   4.695   3.505 -0.2367 -0.9568 -2.1302
 4573SOL    HW225356   2.621   0.054   3.416  0.8901 -0.6532 -3.4437
 4574SOL     OW25357   2.677   0.404   2.292 -0.2627 -0.1393 -0.0434
 4574SOL    HW125358   2.758   0.403   2.344 -0.3637  2.9234  0.1898
 4574SOL    HW225359   2.618   0.469   2.330  0.5189  0.7431 -0.3189
 4575SOL     OW25360   2.072   1.705   4.715 -0.2990 -0.6195  0.0970
 4575SOL    HW125361   2.142   1.760   4.679  0.5460 -0.5478  1.8510
 4575SOL    HW225362   2.123   1.653   4.777  0.6952  0.5368  0.2337
 4576SOL     OW25363   0.262   1.303   6.866 -0.3334  0.2782  0.3503
 4576SOL    HW125364   0.245   1.279   6.775 -2.5001 -0.4034  0.9371
 4576SOL    HW225365   0.202   1.244   6.913  0.6074 -0.6811  0.3391
 4577SOL     OW25366   1.075   1.529   7.007 -0.4429  0.2021  0.4679
 4577SOL    HW125367   1.102   1.446   7.045 -0.1842  0.0872  0.0252
 4577SOL    HW225368   1.125   1.594   7.058  0.4281 -0.1500  0.0540
 4578SOL     OW25369   0.690   1.364   4.488 -0.2551 -0.5034 -0.1136
 4578SOL    HW125370   0.691   1.344   4.582  2.0398 -2.4946 -0.5579
 4578SOL    HW225371   0.684   1.459   4.487 -0.6932 -0.5288  0.1441
 4579SOL     OW25372   4.242   4.283  13.262  0.3041 -0.1524 -0.4722
 4579SOL    HW125373   4.161   4.279  13.313  0.8920 -0.7567  0.4034
 4579SOL    HW225374   4.217   4.227  13.189 -1.8222 -0.8349  0.7955
 4580SOL     OW25375   4.539   1.018   5.968 -0.8108 -0.2212  0.1910
 4580SOL    HW125376   4.623   1.003   5.924  0.3270  1.6050  1.7251
 4580SOL    HW225377   4.499   1.089   5.918 -1.7404 -2.4047 -2.1572
 4581SOL     OW25378   1.981   1.528   2.636 -0.0970 -0.0926  0.3890
 4581SOL    HW125379   1.911   1.583   2.601 -2.0490 -2.8485 -0.0616
 4581SOL    HW225380   1.962   1.524   2.730 -0.2710 -2.4132  0.2601
 4582SOL     OW25381   4.537   0.262   3.337 -0.5074 -0.6463 -0.6045
 4582SOL    HW125382   4.619   0.211   3.332 -0.7786 -1.0151 -1.3197
 4582SOL    HW225383   4.540   0.313   3.256 -2.9090  1.2602  0.5539
 4583SOL     OW25384   4.340   0.308   1.839 -0.2979 -0.0173  0.5875
 4583SOL    HW125385   4.329   0.384   1.896 -0.9198 -1.1916  2.0274
 4583SOL    HW225386   4.286   0.333   1.764 -1.2763  1.9622  1.9359
 4584SOL     OW25387   2.274   1.439  11.130 -0.1579  0.1460  0.8013
 4584SOL    HW125388   2.341   1.472  11.070  0.1785 -1.4282  0.3243
 4584SOL    HW225389   2.271   1.511  11.193  0.5627 -0.5166  1.5975
 4585SOL     OW25390   2.553   0.632   1.245 -0.4135 -0.5254 -0.0210
 4585SOL    HW125391   2.615   0.614   1.316 -0.6631 -0.9849  0.0825
 4585SOL    HW225392   2.558   0.727   1.236 -3.5302 -0.6982 -3.7990
 4586SOL     OW25393   0.417   2.117   8.270 -0.3739  0.0566 -0.3965
 4586SOL    HW125394   0.462   2.137   8.188  1.1185 -0.7524  0.2314
 4586SOL    HW225395   0.386   2.028   8.253  1.5696 -0.9490  1.4475
 4587SOL     OW25396   1.219   2.749   6.475  0.2577  0.0326  0.3414
 4587SOL    HW125397   1.292   2.690   6.494 -1.2409 -0.9059  3.1521
 4587SOL    HW225398   1.247   2.839   6.459  1.9129 -0.5571 -0.0291
 4588SOL     OW25399   2.024   1.161   7.346 -0.0041 -0.0578 -0.3615
 4588SOL    HW125400   2.028   1.253   7.321 -0.8574 -0.0475 -0.4544
 4588SOL    HW225401   1.936   1.141   7.314  0.3804 -0.4329 -1.1812
 4589SOL     OW25402   1.316   4.638  11.607  0.3493  0.0163  0.3454
 4589SOL    HW125403   1.303   4.600  11.694 -0.2055  1.7309  0.9986
 4589SOL    HW225404   1.312   4.556  11.556 -0.6855  1.7118 -2.3076
 4590SOL     OW25405   2.357   3.169   3.648 -0.5894 -0.1070  0.0784
 4590SOL    HW125406   2.452   3.181   3.649 -0.4642 -1.2681  1.5204
 4590SOL    HW225407   2.347   3.079   3.680 -0.3372 -0.3533 -0.5344
 4591SOL     OW25408   1.929   0.945  16.263 -0.0020 -0.0673  0.4917
 4591SOL    HW125409   1.943   0.918  16.172 -2.8758 -0.5908  0.2098
 4591SOL    HW225410   1.842   0.983  16.263 -0.0881 -0.2652  0.6571
 4592SOL     OW25411   0.574   3.415  12.756 -0.1134 -0.5471  1.1260
 4592SOL    HW125412   0.509   3.477  12.790 -0.8256  0.6221 -2.3374
 4592SOL    HW225413   0.651   3.448  12.803 -0.1156  2.6729 -1.0893
 4593SOL     OW25414   4.160   3.808   0.115 -0.8283 -0.1247  0.1292
 4593SOL    HW125415   4.123   3.721   0.104 -2.0715  0.0805  2.7351
 4593SOL    HW225416   4.254   3.794   0.100 -0.7275  1.7922 -1.0548
 4594SOL     OW25417   4.184   4.219   7.787 -0.7421 -0.4891 -0.1290
 4594SOL    HW125418   4.208   4.312   7.788 -0.5639 -0.5499  2.7222
 4594SOL    HW225419   4.222   4.188   7.705 -1.5144  0.4660 -0.8498
 4595SOL     OW25420   0.908   0.399   3.264 -0.4392  0.4186 -0.0970
 4595SOL    HW125421   0.864   0.374   3.345  0.6854 -1.6340 -0.1210
 4595SOL    HW225422   0.934   0.311   3.239 -0.5420 -0.2681  2.2238
 4596SOL     OW25423   1.744   1.623   7.598  0.2282  1.1128  0.2182
 4596SOL    HW125424   1.807   1.583   7.658  1.9616  1.3343 -1.4441
 4596SOL    HW225425   1.664   1.642   7.648 -0.4329 -1.8711  0.2770
 4597SOL     OW25426   2.394   1.072  11.503 -0.1597 -0.1507 -0.3852
 4597SOL    HW125427   2.319   1.124  11.475  0.9872  0.8488 -1.6593
 4597SOL    HW225428   2.463   1.139  11.502  0.8653 -1.1884  0.6899
 4598SOL     OW25429   2.064   3.733   6.211 -0.4351 -0.1770 -0.0756
 4598SOL    HW125430   2.128   3.665   6.231 -1.1925 -1.2994 -1.4820
 4598SOL    HW225431   2.090   3.766   6.125  0.9054 -0.7726  0.1047
 4599SOL     OW25432   3.356   1.086   6.407 -0.4700  0.1180 -0.0669
 4599SOL    HW125433   3.421   1.016   6.411 -0.1015  0.5521  1.5810
 4599SOL    HW225434   3.401   1.156   6.455  0.8421 -0.7624 -0.0002
 4600SOL     OW25435   0.405   4.633   3.389 -0.2197 -0.2516 -0.3842
 4600SOL    HW125436   0.387   4.566   3.455  0.9330 -0.3887 -0.2161
 4600SOL    HW225437   0.333   4.617   3.328 -0.8933  0.2618  0.2827
 4601SOL     OW25438   4.251   1.223   5.013  0.1017 -0.2583  0.3988
 4601SOL    HW125439   4.341   1.254   5.025  0.2728 -1.2383  1.6318
 4601SOL    HW225440   4.269   1.140   4.969 -0.9545  0.6305 -1.6960
 4602SOL     OW25441   2.500   3.790   3.056 -0.1410 -0.0340  0.2620
 4602SOL    HW125442   2.587   3.771   3.023 -0.4985 -2.9460  0.9924
 4602SOL    HW225443   2.452   3.720   3.013  0.6550  0.8362 -2.0069
 4603SOL     OW25444   2.299   3.821   9.855  0.0935 -0.1387  0.0449
 4603SOL    HW125445   2.225   3.829   9.915  1.4310 -0.1953  1.7370
 4603SOL    HW225446   2.332   3.739   9.894 -1.2015 -0.6213  0.1056
 4604SOL     OW25447   0.177   1.358   7.226  0.0226 -0.0185 -0.0358
 4604SOL    HW125448   0.240   1.371   7.297  2.4620 -1.4664 -1.9767
 4604SOL    HW225449   0.141   1.447   7.220 -1.0845 -0.4801 -0.3215
 4605SOL     OW25450   3.561   0.456   8.623  0.0322 -0.0711  0.0292
 4605SOL    HW125451   3.569   0.421   8.712 -0.0841 -1.4318 -0.4961
 4605SOL    HW225452   3.652   0.443   8.597 -0.7735 -2.1737 -1.7468
 4606SOL     OW25453   1.178   0.446   2.750  0.1158 -0.1432  0.4483
 4606SOL    HW125454   1.140   0.369   2.710  0.0333 -0.1687  0.5761
 4606SOL    HW225455   1.248   0.409   2.803  1.6982  1.4457 -0.5135
 4607SOL     OW25456   3.659   3.490   9.173  0.0670 -0.7430 -0.6595
 4607SOL    HW125457   3.691   3.414   9.124 -2.0968 -1.2125 -1.3660
 4607SOL    HW225458   3.719   3.491   9.248 -0.2792 -2.7267 -0.3334
 4608SOL     OW25459   0.280   1.293   9.902  0.3770 -0.0473 -0.1359
 4608SOL    HW125460   0.318   1.379   9.887 -1.7706  0.8257 -0.5925
 4608SOL    HW225461   0.254   1.296   9.994 -0.1081 -0.0742 -0.2728
 4609SOL     OW25462   4.328   0.989   0.305 -0.8532  0.0941  0.0200
 4609SOL    HW125463   4.347   1.027   0.391  1.2706 -0.3218 -0.2584
 4609SOL    HW225464   4.282   1.063   0.264 -1.1457 -0.5012 -0.7244
 4610SOL     OW25465   3.639   3.739   6.100  0.2258  0.5545 -0.1757
 4610SOL    HW125466   3.687   3.795   6.162 -0.7165 -0.0318  1.1000
 4610SOL    HW225467   3.707   3.752   6.035  0.7622 -1.5903 -0.0382
 4611SOL     OW25468   1.888   1.261   6.140  0.1039 -0.1690  0.0908
 4611SOL    HW125469   1.870   1.335   6.083  1.0303  2.1552  2.8291
 4611SOL    HW225470   1.805   1.214   6.131 -0.8737  1.1786  2.3845
 4612SOL     OW25471   4.292   1.511   3.055 -0.0827  0.1142  0.2274
 4612SOL    HW125472   4.198   1.495   3.068 -0.6949  0.8058 -3.3166
 4612SOL    HW225473   4.288   1.577   2.986  0.0321 -0.4946 -0.3544
 4613SOL     OW25474   2.223   1.353   7.003  0.6608  0.4187 -0.2643
 4613SOL    HW125475   2.258   1.265   6.985  0.7485  0.4025 -0.0118
 4613SOL    HW225476   2.226   1.344   7.098  1.5896  1.1329 -0.2208
 4614SOL     OW25477   1.767   4.567   3.772  0.2040 -0.1672  0.3614
 4614SOL    HW125478   1.718   4.502   3.721  1.4860 -0.9427  0.0969
 4614SOL    HW225479   1.700   4.609   3.825  0.7348 -0.1596  1.0167
 4615SOL     OW25480   0.260   0.864   2.777  0.4812  0.2215 -0.5682
 4615SOL    HW125481   0.309   0.898   2.703  1.3506 -0.9976 -0.5455
 4615SOL    HW225482   0.170   0.848   2.748 -0.3113  0.4153  1.7963
 4616SOL     OW25483   0.207   0.549  16.304  0.0025 -0.0767  0.0262
 4616SOL    HW125484   0.184   0.530  16.213 -0.3068 -0.2642  0.1425
 4616SOL    HW225485   0.239   0.639  16.296 -0.1237 -0.1693 -1.3729
 4617SOL     OW25486   1.335   3.778  13.217 -0.3609  0.1949  0.0030
 4617SOL    HW125487   1.336   3.790  13.122 -1.0760 -0.7694 -0.1346
 4617SOL    HW225488   1.416   3.824  13.238  0.4341 -1.1297 -0.1801
 4618SOL     OW25489   4.249   0.956   7.196  0.1311  0.2871 -0.2092
 4618SOL    HW125490   4.182   1.022   7.180 -1.3545 -0.9216  1.0652
 4618SOL    HW225491   4.208   0.879   7.157  0.4338  0.5399 -1.0135
 4619SOL     OW25492   0.830   0.013  12.393  0.5002 -0.2672 -0.2057
 4619SOL    HW125493   0.798   0.076  12.328  0.0010  1.0894  1.3619
 4619SOL    HW225494   0.886   0.069  12.447  0.3244 -0.5154  0.2368
 4620SOL     OW25495   2.317   4.071   1.494 -0.4257  0.1284  0.0500
 4620SOL    HW125496   2.387   4.136   1.483  1.2870 -1.4440  1.5469
 4620SOL    HW225497   2.311   4.071   1.590  0.0456  0.9156  0.0800
 4621SOL     OW25498   4.203   4.030   4.646  0.3260 -0.4503  0.0743
 4621SOL    HW125499   4.263   3.982   4.704  2.8396 -0.2618 -2.3803
 4621SOL    HW225500   4.124   3.980   4.665  0.8256 -0.8573  1.1055
 4622SOL     OW25501   3.772   1.542  13.069  0.0492  0.8259 -0.0419
 4622SOL    HW125502   3.807   1.610  13.127 -1.3759  2.1438 -0.6993
 4622SOL    HW225503   3.678   1.561  13.077 -0.0103  0.4342  0.1753
 4623SOL     OW25504   0.134   1.255   8.510 -0.3240  0.3147  0.2763
 4623SOL    HW125505   0.185   1.187   8.554  1.2374  2.2388  1.3960
 4623SOL    HW225506   0.068   1.198   8.468 -1.4279  1.3569  0.5957
 4624SOL     OW25507   4.310   3.672   6.972 -0.2088  0.1694  0.3862
 4624SOL    HW125508   4.218   3.690   6.950 -0.0718 -1.2446 -1.4380
 4624SOL    HW225509   4.344   3.638   6.889 -0.1530  1.1579  0.0048
 4625SOL     OW25510   0.056   0.358   7.015  0.1846  0.1247 -0.0785
 4625SOL    HW125511   0.067   0.372   6.921 -0.6642 -1.5630 -0.4397
 4625SOL    HW225512   0.099   0.273   7.025  3.2203  1.8324  1.4717
 4626SOL     OW25513   3.523   2.170   2.913  0.4110 -0.6075 -0.2128
 4626SOL    HW125514   3.556   2.232   2.978 -0.5929 -1.2117  0.8709
 4626SOL    HW225515   3.540   2.217   2.832  0.2652 -0.4465 -0.1488
 4627SOL     OW25516   2.588   3.580  11.898  0.1149 -0.0610  0.3878
 4627SOL    HW125517   2.520   3.604  11.961 -0.1244 -2.4999  1.0412
 4627SOL    HW225518   2.639   3.524  11.957  0.1478 -2.2685 -1.7444
 4628SOL     OW25519   2.561   1.308   4.318  0.1569  0.2603  0.2486
 4628SOL    HW125520   2.469   1.316   4.341  0.5797  3.2176  0.9858
 4628SOL    HW225521   2.595   1.397   4.308 -1.5297  0.7556 -1.1871
 4629SOL     OW25522   3.257   3.957   1.334 -0.5409 -0.2423 -0.1375
 4629SOL    HW125523   3.258   3.983   1.426 -1.3383 -0.1721 -0.1459
 4629SOL    HW225524   3.260   4.043   1.291  2.4917 -0.4358 -0.3190
 4630SOL     OW25525   1.121   0.621   7.323  0.3855 -0.3378  0.3373
 4630SOL    HW125526   1.103   0.552   7.387  0.2532  0.6531  1.3625
 4630SOL    HW225527   1.072   0.692   7.363 -0.0833 -0.3917 -0.1382
 4631SOL     OW25528   0.691   4.400   8.221 -0.0351  0.6644 -0.2006
 4631SOL    HW125529   0.708   4.346   8.144 -0.8671  0.5764 -0.3248
 4631SOL    HW225530   0.693   4.486   8.179 -1.7961 -0.4949 -2.6672
 4632SOL     OW25531   4.355   2.791   5.731 -0.1362 -0.0551  0.1747
 4632SOL    HW125532   4.376   2.706   5.770  1.2239 -0.7631 -2.0636
 4632SOL    HW225533   4.280   2.767   5.677 -0.3489  0.5794  0.1912
 4633SOL     OW25534   3.676   2.388   2.252  0.0565  0.0734  0.1615
 4633SOL    HW125535   3.718   2.374   2.337 -1.8417  0.5277  1.1661
 4633SOL    HW225536   3.738   2.343   2.194  0.3678 -0.1653  0.6777
 4634SOL     OW25537   3.957   4.624   4.896 -0.4350 -0.5252 -0.2843
 4634SOL    HW125538   3.886   4.590   4.842  0.1656  1.2075 -2.1851
 4634SOL    HW225539   4.031   4.594   4.844  0.7759 -2.4095  2.5531
 4635SOL     OW25540   3.652   0.329   3.091 -0.0295  0.1275 -0.1173
 4635SOL    HW125541   3.699   0.308   3.010  2.5602 -3.6316  2.3542
 4635SOL    HW225542   3.716   0.294   3.154 -0.6423 -1.8723 -0.6333
 4636SOL     OW25543   0.501   3.662   7.489 -0.2955  0.7885 -0.3797
 4636SOL    HW125544   0.500   3.567   7.490  0.1893  0.8069  1.5360
 4636SOL    HW225545   0.412   3.674   7.454 -0.6552 -0.9085 -0.0248
 4637SOL     OW25546   2.132   4.403   0.538 -0.6968  0.0252 -0.4252
 4637SOL    HW125547   2.187   4.330   0.567 -1.9805 -1.1112 -0.8780
 4637SOL    HW225548   2.142   4.462   0.613 -0.8522 -2.5257  1.6021
 4638SOL     OW25549   3.519   1.860  13.538 -0.0010  0.3575 -0.1455
 4638SOL    HW125550   3.474   1.936  13.502  2.5542  1.4605 -1.0105
 4638SOL    HW225551   3.466   1.843  13.616 -0.4054 -2.1177 -0.9651
 4639SOL     OW25552   3.604   4.361  13.864  0.1878 -0.1722 -0.0122
 4639SOL    HW125553   3.669   4.431  13.854  0.0801  0.2366  2.0668
 4639SOL    HW225554   3.582   4.344  13.773 -0.4529  1.4711 -0.1578
 4640SOL     OW25555   0.650   1.935   5.817 -0.1077 -0.0167  0.0084
 4640SOL    HW125556   0.607   1.883   5.748  0.4834  0.5140 -0.7478
 4640SOL    HW225557   0.589   2.008   5.826  0.2068  0.4452 -1.6163
 4641SOL     OW25558   4.220   2.459   4.681 -0.7478 -0.2072 -0.6723
 4641SOL    HW125559   4.142   2.410   4.656 -1.6831  1.7790 -1.6426
 4641SOL    HW225560   4.185   2.523   4.742  0.9568  1.3358 -1.2883
 4642SOL     OW25561   1.546   3.330  15.063 -0.1683  0.3716  0.0750
 4642SOL    HW125562   1.475   3.275  15.096 -0.9165  2.0633  1.2752
 4642SOL    HW225563   1.567   3.385  15.139 -0.0090 -3.3719  2.7249
 4643SOL     OW25564   4.594   3.947   7.479 -0.4971 -0.4225  0.4735
 4643SOL    HW125565   4.560   4.018   7.425 -0.2735  0.1611  1.0979
 4643SOL    HW225566   4.567   3.987   7.561  1.2067  1.7777 -0.0236
 4644SOL     OW25567   1.357   2.902   9.657 -0.3624 -0.0608 -0.1870
 4644SOL    HW125568   1.357   2.807   9.651  2.8822 -0.0035 -0.9415
 4644SOL    HW225569   1.273   2.926   9.617  0.4446  2.2204 -0.5310
 4645SOL     OW25570   3.652   4.098   4.296 -0.4963  0.3290 -0.0531
 4645SOL    HW125571   3.713   4.103   4.222 -0.8148  2.9329 -0.1271
 4645SOL    HW225572   3.624   4.189   4.302  0.8171  0.5531  2.4969
 4646SOL     OW25573   4.171   0.263  13.256  1.1871 -0.9114 -0.3241
 4646SOL    HW125574   4.239   0.235  13.317  0.2799 -3.2380 -0.3574
 4646SOL    HW225575   4.138   0.340  13.301 -1.5354 -1.0823 -2.0113
 4647SOL     OW25576   2.109   1.868  15.462 -0.3571  0.5321 -0.9788
 4647SOL    HW125577   2.064   1.792  15.425  0.8846 -0.2479 -0.8711
 4647SOL    HW225578   2.202   1.855  15.443 -0.1649 -1.8086  1.5501
 4648SOL     OW25579   3.060   1.253   6.570  0.1827  0.3801  0.0194
 4648SOL    HW125580   2.967   1.275   6.580 -0.6260 -2.3406 -1.5704
 4648SOL    HW225581   3.055   1.160   6.549 -1.6185  0.2625  0.9350
 4649SOL     OW25582   3.926   4.287   4.364 -0.3131  0.4760 -0.4572
 4649SOL    HW125583   3.853   4.333   4.321 -2.4249 -0.2920  2.3285
 4649SOL    HW225584   3.932   4.212   4.305 -0.5240  0.7783 -0.8646
 4650SOL     OW25585   1.794   3.758   1.913 -0.1462 -0.0276 -0.9429
 4650SOL    HW125586   1.775   3.796   1.999  0.9067 -0.9574 -0.2973
 4650SOL    HW225587   1.881   3.799   1.916 -1.2658  2.3560 -0.8612
 4651SOL     OW25588   1.187   2.105   2.985  0.2561 -0.2672  0.4644
 4651SOL    HW125589   1.265   2.148   3.020  0.8410  0.2649 -1.4927
 4651SOL    HW225590   1.200   2.014   3.012  0.1140 -0.4377 -0.0426
 4652SOL     OW25591   1.650   3.323   4.087 -0.1721 -0.0580 -0.1014
 4652SOL    HW125592   1.712   3.367   4.028  0.9458 -2.3874 -0.6584
 4652SOL    HW225593   1.586   3.293   4.022 -1.3292  1.2530  0.4379
 4653SOL     OW25594   1.186   0.337   7.882  0.5786  0.0177  0.0886
 4653SOL    HW125595   1.106   0.297   7.849  0.7839 -0.1678 -0.1863
 4653SOL    HW225596   1.159   0.429   7.888  1.4540  0.3127 -0.4086
 4654SOL     OW25597   2.493   1.620  16.351 -0.4430 -0.0493 -0.1823
 4654SOL    HW125598   2.539   1.550  16.398  3.5206  0.2124 -3.7790
 4654SOL    HW225599   2.543   1.607  16.271  0.6111  1.8101  0.1639
 4655SOL     OW25600   4.360   1.818   9.858 -0.3334  0.8215 -0.4973
 4655SOL    HW125601   4.309   1.775   9.926  2.1794  1.8425  2.0139
 4655SOL    HW225602   4.417   1.745   9.833 -0.4488  1.1105 -1.6302
 4656SOL     OW25603   2.741   3.632   0.147  0.3516  0.3254 -0.2898
 4656SOL    HW125604   2.718   3.720   0.115 -1.2519 -0.2354 -0.6756
 4656SOL    HW225605   2.662   3.579   0.157 -0.9639  2.5015  1.0118
 4657SOL     OW25606   0.502   2.825   3.879 -0.2342 -0.5342 -0.1221
 4657SOL    HW125607   0.435   2.759   3.864  0.1549 -0.8431 -0.4848
 4657SOL    HW225608   0.556   2.823   3.800 -0.9117 -0.9125 -0.5795
 4658SOL     OW25609   2.418   0.991   8.214 -0.0769  0.2888  0.0655
 4658SOL    HW125610   2.428   1.064   8.275  0.3324  0.8432 -0.6560
 4658SOL    HW225611   2.438   0.916   8.270  0.8641 -0.4454 -1.2322
 4659SOL     OW25612   1.402   4.356   3.337 -0.1659 -0.0377  0.3067
 4659SOL    HW125613   1.326   4.399   3.298  0.1766 -0.0803 -0.4137
 4659SOL    HW225614   1.397   4.283   3.275 -0.1950  0.6754 -0.5279
 4660SOL     OW25615   3.249   3.955  14.949  0.4067 -0.4149  0.2460
 4660SOL    HW125616   3.222   4.024  14.888  0.8154 -2.3766 -2.1645
 4660SOL    HW225617   3.324   3.915  14.905 -0.5682 -1.7050 -0.2664
 4661SOL     OW25618   3.819   1.808  11.847  0.2450  0.2801 -0.8041
 4661SOL    HW125619   3.816   1.840  11.937  0.7721  0.7957 -0.9667
 4661SOL    HW225620   3.896   1.751  11.855 -0.2143 -0.1477  0.4671
 4662SOL     OW25621   0.001   1.901   0.383  0.0451  0.4345 -0.1305
 4662SOL    HW125622   0.058   1.859   0.319 -1.1402 -0.4791 -0.5863
 4662SOL    HW225623   0.029   1.992   0.377  1.4379  0.1455  1.9773
 4663SOL     OW25624   3.394   2.634   7.581  0.0699  0.3601  0.3154
 4663SOL    HW125625   3.408   2.728   7.597 -1.0550  0.6367 -0.3054
 4663SOL    HW225626   3.423   2.608   7.668 -0.2424  0.4007  0.4318
 4664SOL     OW25627   0.510   1.696   3.520  0.2211 -0.2816  0.0199
 4664SOL    HW125628   0.452   1.752   3.468  0.3537  1.0519  1.3034
 4664SOL    HW225629   0.542   1.633   3.456  0.6842  0.6082 -0.6279
 4665SOL     OW25630   1.708   4.029   3.092 -0.2250  0.0408 -0.1874
 4665SOL    HW125631   1.697   3.987   3.007  0.9866 -1.3193  0.3314
 4665SOL    HW225632   1.692   4.120   3.070 -2.3140 -0.2686  0.0341
 4666SOL     OW25633   1.420   2.350   3.998  0.5204  0.0533  0.3683
 4666SOL    HW125634   1.460   2.436   3.989  0.1976 -0.0531 -1.9476
 4666SOL    HW225635   1.330   2.373   4.022  0.9639  0.9341  1.2121
 4667SOL     OW25636   4.548   0.020   7.084  0.0353 -0.6738 -0.9057
 4667SOL    HW125637   4.505   4.672   7.097 -0.6617  0.2918  3.0550
 4667SOL    HW225638   4.477   0.071   7.046 -0.2937 -2.2564 -2.4114
 4668SOL     OW25639   3.720   4.058  14.737  0.5795 -0.0492 -0.0291
 4668SOL    HW125640   3.663   4.094  14.670  2.7834 -0.6477 -2.1955
 4668SOL    HW225641   3.786   4.127  14.734  2.8676 -2.1035  2.3251
 4669SOL     OW25642   4.219   2.745   6.340  0.0333 -0.2402  0.2538
 4669SOL    HW125643   4.173   2.729   6.258  2.5237  0.2948 -1.2442
 4669SOL    HW225644   4.187   2.833   6.359 -1.3495 -0.5863 -0.4305
 4670SOL     OW25645   4.536   0.360   6.523  0.3448  0.0023 -0.1369
 4670SOL    HW125646   4.587   0.437   6.499 -1.0284  1.1474  0.5876
 4670SOL    HW225647   4.448   0.399   6.516  0.4691 -0.1683 -2.4921
 4671SOL     OW25648   2.733   0.321   6.151  0.4010 -0.2694 -0.3542
 4671SOL    HW125649   2.748   0.259   6.080 -0.7031 -1.7414  0.7112
 4671SOL    HW225650   2.671   0.380   6.107  1.0562  0.9313  0.3331
 4672SOL     OW25651   2.170   2.119  16.058 -0.1119  0.1694  0.2580
 4672SOL    HW125652   2.127   2.110  16.143  0.5770  0.1780  0.6075
 4672SOL    HW225653   2.259   2.145  16.079  0.1794  0.3242 -1.1575
 4673SOL     OW25654   0.796   0.876   1.309  0.5579  0.6594  0.3867
 4673SOL    HW125655   0.781   0.803   1.248 -1.1289  0.2116  1.3404
 4673SOL    HW225656   0.714   0.879   1.357 -0.3572 -0.9794 -1.0726
 4674SOL     OW25657   2.873   2.941   7.089  0.4697 -0.1617 -0.4066
 4674SOL    HW125658   2.863   2.846   7.096  1.8650 -0.0971  2.3880
 4674SOL    HW225659   2.923   2.951   7.008  1.4512 -0.8916  0.1275
 4675SOL     OW25660   2.602   3.433   7.348  0.0615 -0.0295  0.4007
 4675SOL    HW125661   2.609   3.527   7.365 -0.3569 -0.3483  2.3704
 4675SOL    HW225662   2.655   3.404   7.422 -0.9778 -1.5118  0.5624
 4676SOL     OW25663   0.047   4.629   5.650  0.2476  0.3486  0.1792
 4676SOL    HW125664   0.042   4.722   5.629  1.7290  0.1221 -1.2432
 4676SOL    HW225665   0.044   4.620   5.745 -0.8234 -0.4307  0.0652
 4677SOL     OW25666   3.301   1.365  16.008  0.3202 -0.7406 -0.1929
 4677SOL    HW125667   3.311   1.351  16.102  0.5774 -0.5453 -0.1909
 4677SOL    HW225668   3.380   1.418  15.996  0.2067 -0.7842 -1.1797
 4678SOL     OW25669   4.084   4.636  17.700  0.4785  0.5405  0.1773
 4678SOL    HW125670   4.025   4.688   0.011  1.5305 -0.0199  1.8427
 4678SOL    HW225671   4.029   4.560  17.681  1.6435 -0.1242 -0.4808
 4679SOL     OW25672   0.603   2.051  11.891 -0.6085  0.5187 -0.1591
 4679SOL    HW125673   0.585   2.029  11.800 -2.2468  2.5535 -0.3522
 4679SOL    HW225674   0.642   2.138  11.878  2.3906 -0.5439  1.8158
 4680SOL     OW25675   0.550   3.917   7.636 -0.0528 -0.5056  0.5511
 4680SOL    HW125676   0.552   3.822   7.620  2.0422 -0.3919  0.1221
 4680SOL    HW225677   0.480   3.936   7.575  0.4391 -0.5704 -0.0371
 4681SOL     OW25678   0.663   4.168   1.462  0.8492  0.3263 -0.1262
 4681SOL    HW125679   0.615   4.196   1.384 -0.9753 -0.2286  0.7944
 4681SOL    HW225680   0.754   4.155   1.436  0.5207  0.7571 -1.4623
 4682SOL     OW25681   2.204   4.678   3.190 -0.0182 -0.0962 -0.0848
 4682SOL    HW125682   2.146   4.665   3.265 -2.7181  0.5967 -2.0447
 4682SOL    HW225683   2.247   0.026   3.199 -0.6959  0.3115 -0.6976
 4683SOL     OW25684   1.799   1.320  15.681 -0.5423  0.2157  0.5644
 4683SOL    HW125685   1.807   1.309  15.776  0.3103 -0.7652  0.3864
 4683SOL    HW225686   1.759   1.237  15.653  0.7043 -0.1645 -0.1039
 4684SOL     OW25687   0.992   1.016  15.599  0.2496 -0.5505  0.4676
 4684SOL    HW125688   1.064   0.960  15.629 -1.2726 -1.0152  3.2456
 4684SOL    HW225689   0.994   1.003  15.504 -2.3567  2.3431  0.0072
 4685SOL     OW25690   4.446   1.703   4.807 -0.3212  0.3840  0.3305
 4685SOL    HW125691   4.482   1.619   4.835  0.9442  1.7167  2.7003
 4685SOL    HW225692   4.367   1.706   4.860  0.1102 -1.5517  1.0704
 4686SOL     OW25693   2.695   0.602   9.110  0.2798 -0.8567 -0.0696
 4686SOL    HW125694   2.706   0.574   9.018 -0.8676  0.5813 -0.6312
 4686SOL    HW225695   2.665   0.691   9.095 -0.9448 -0.9724  1.7843
 4687SOL     OW25696   4.009   4.371   6.872  0.5367  0.0943 -0.3119
 4687SOL    HW125697   4.070   4.338   6.805  1.1381  0.2229  0.1708
 4687SOL    HW225698   3.942   4.426   6.832 -2.0173 -3.6681 -1.2231
 4688SOL     OW25699   0.075   1.089   7.804 -0.0107  0.5808  0.0031
 4688SOL    HW125700   0.113   1.129   7.883  0.4601  1.9074 -0.9010
 4688SOL    HW225701   4.718   1.104   7.814  0.0093  1.0743 -0.5830
 4689SOL     OW25702   3.883   0.877  16.790  0.1658  0.5787 -0.0682
 4689SOL    HW125703   3.861   0.960  16.833 -2.8291  0.8260 -2.0648
 4689SOL    HW225704   3.951   0.916  16.735 -0.2409  1.6540  0.1814
 4690SOL     OW25705   3.151   3.364   8.202  0.0261  0.1880 -0.2677
 4690SOL    HW125706   3.220   3.421   8.237  0.3612 -0.3184 -0.0984
 4690SOL    HW225707   3.086   3.434   8.192 -0.1642  0.0068 -0.2846
 4691SOL     OW25708   4.610   4.046   5.328  0.0096  0.1678 -0.2771
 4691SOL    HW125709   4.645   4.132   5.353  1.1456 -0.4543  0.2966
 4691SOL    HW225710   4.519   4.071   5.338  0.2461  1.1997 -0.6921
 4692SOL     OW25711   1.927   2.444   3.591 -0.0749 -0.1476  0.4961
 4692SOL    HW125712   1.941   2.519   3.532 -2.2046 -0.2752 -0.1778
 4692SOL    HW225713   2.014   2.439   3.630  0.0240  1.2372  0.4687
 4693SOL     OW25714   1.594   4.472   3.519  0.6558 -0.2504  0.4473
 4693SOL    HW125715   1.637   4.389   3.541 -2.1400 -1.7343  0.3003
 4693SOL    HW225716   1.526   4.443   3.459 -0.6775  1.7260  1.0164
 4694SOL     OW25717   4.456   0.128   8.031 -0.7803 -0.2232  0.6543
 4694SOL    HW125718   4.552   0.120   8.030 -0.9923 -2.3852 -2.7820
 4694SOL    HW225719   4.424   0.158   7.946  1.0734 -0.2268 -0.0525
 4695SOL     OW25720   2.961   0.039   2.679 -0.0851  0.5736 -0.3311
 4695SOL    HW125721   3.053   0.015   2.693 -0.4826 -0.3201  0.8186
 4695SOL    HW225722   2.919   4.699   2.717 -0.2099  0.7767 -0.0578
 4696SOL     OW25723   1.229   2.914   3.656 -0.4724  0.1023 -0.1644
 4696SOL    HW125724   1.162   2.975   3.625 -0.4852  1.0745  1.8489
 4696SOL    HW225725   1.312   2.954   3.629 -0.6603  0.9589  0.5427
 4697SOL     OW25726   3.382   2.648   5.700  0.0953 -0.3241 -0.4327
 4697SOL    HW125727   3.452   2.681   5.644 -0.4602 -1.5407 -1.8202
 4697SOL    HW225728   3.430   2.571   5.730  0.2871  0.1643  0.5065
 4698SOL     OW25729   2.243   1.892   4.625 -0.2021 -0.6301  0.0627
 4698SOL    HW125730   2.323   1.889   4.573  0.1231  1.5075  0.4551
 4698SOL    HW225731   2.238   1.982   4.657  0.1289 -0.5535 -0.1028
 4699SOL     OW25732   3.415   0.792   1.644  0.6027  0.1335 -0.4298
 4699SOL    HW125733   3.401   0.862   1.709 -0.0187 -1.0633  0.7436
 4699SOL    HW225734   3.476   0.832   1.582  2.5211  0.4538  1.6704
 4700SOL     OW25735   3.255   1.522   0.433  0.4303 -0.0252  0.0538
 4700SOL    HW125736   3.177   1.574   0.453  0.3727 -1.1917  2.8857
 4700SOL    HW225737   3.224   1.489   0.349  1.3384 -2.1506  0.5737
 4701SOL     OW25738   2.695   1.828   2.589  0.1446  0.6904  0.2649
 4701SOL    HW125739   2.675   1.919   2.612 -2.1917 -0.6322  3.5061
 4701SOL    HW225740   2.764   1.800   2.649  0.7882  0.5339 -0.5455
 4702SOL     OW25741   3.670   1.112   3.089  0.2923 -0.2465  0.0481
 4702SOL    HW125742   3.601   1.140   3.149 -0.8737  0.0419 -1.4282
 4702SOL    HW225743   3.653   1.019   3.098 -0.6836 -0.0403  0.3529
 4703SOL     OW25744   2.886   2.019  12.326  0.3132  0.3963 -0.2885
 4703SOL    HW125745   2.980   2.034  12.333  0.4975 -0.1017 -1.6248
 4703SOL    HW225746   2.884   1.924  12.318  1.2880  0.4310 -0.8871
 4704SOL     OW25747   4.138   2.193  15.206  0.1858  0.5996 -0.1025
 4704SOL    HW125748   4.068   2.137  15.173  0.3425 -0.4533  1.3326
 4704SOL    HW225749   4.196   2.206  15.131  0.5394 -1.2016 -0.1579
 4705SOL     OW25750   1.558   0.661   5.923  0.2463  0.2331 -0.2258
 4705SOL    HW125751   1.639   0.711   5.934  0.6258 -0.3905 -0.1341
 4705SOL    HW225752   1.588   0.601   5.855 -0.1574  0.7689 -0.8744
 4706SOL     OW25753   0.813   1.420   8.351 -0.1007 -0.0229  0.2520
 4706SOL    HW125754   0.801   1.326   8.339 -1.0635  0.0259  0.8296
 4706SOL    HW225755   0.787   1.451   8.264  0.5845  1.6265  0.6374
 4707SOL     OW25756   0.955   1.692   9.391  0.1795  0.1076 -0.7185
 4707SOL    HW125757   0.931   1.749   9.464 -1.3426 -2.3815  0.7088
 4707SOL    HW225758   1.025   1.642   9.433 -0.2658  1.4253  1.5474
 4708SOL     OW25759   4.388   4.326   2.020  0.6024  0.1738  0.4288
 4708SOL    HW125760   4.331   4.402   2.012  1.0480  0.5461  0.7660
 4708SOL    HW225761   4.415   4.331   1.928  2.1903  0.8852  0.9300
 4709SOL     OW25762   2.571   2.631   7.018  0.4102 -0.9701  0.0593
 4709SOL    HW125763   2.654   2.599   7.054  1.3450  0.7715 -0.5345
 4709SOL    HW225764   2.567   2.603   6.926  1.8678  2.2290 -0.9593
 4710SOL     OW25765   1.967   2.884   4.936  0.5454 -0.1299 -0.1719
 4710SOL    HW125766   2.000   2.961   4.888  0.2168  0.7628  1.0531
 4710SOL    HW225767   1.924   2.925   5.010  0.5615 -0.2024 -0.1223
 4711SOL     OW25768   0.830   4.188   6.663  0.2049  0.1044  0.0831
 4711SOL    HW125769   0.738   4.214   6.673  0.4480  0.9964 -0.0410
 4711SOL    HW225770   0.845   4.221   6.575 -1.6705  0.3646 -0.1507
 4712SOL     OW25771   4.692   0.551  11.097 -0.6286 -0.5963  0.3383
 4712SOL    HW125772   0.011   0.573  11.172 -1.9472 -0.3171  1.2352
 4712SOL    HW225773   0.023   0.515  11.040 -0.7192 -1.4021  0.7311
 4713SOL     OW25774   4.000   2.015  16.822 -0.2612 -0.0295 -0.2402
 4713SOL    HW125775   4.031   2.100  16.790 -3.6924  1.2612 -0.1684
 4713SOL    HW225776   3.940   1.982  16.755 -1.3764  0.1974  0.6391
 4714SOL     OW25777   1.429   4.174   7.048  0.1662 -0.9025  0.0082
 4714SOL    HW125778   1.397   4.090   7.080 -0.5567 -1.1392 -1.3269
 4714SOL    HW225779   1.347   4.209   7.012  0.5549  0.7999  0.7905
 4715SOL     OW25780   3.713   1.031   4.536  0.4474 -0.2481  0.4291
 4715SOL    HW125781   3.728   0.962   4.601  0.1176 -0.8494 -0.1382
 4715SOL    HW225782   3.717   0.980   4.455  0.3996  0.0704  0.2278
 4716SOL     OW25783   0.317   0.098   8.256 -0.4049 -1.1098 -0.5741
 4716SOL    HW125784   0.235   0.146   8.246 -0.4565 -0.9901  0.4330
 4716SOL    HW225785   0.351   0.103   8.167  1.5235  1.5113  0.3056
 4717SOL     OW25786   1.582   1.419   3.922  0.0086 -0.8097  1.0750
 4717SOL    HW125787   1.555   1.337   3.964 -0.4010 -1.2355 -0.0484
 4717SOL    HW225788   1.586   1.463   4.007  1.3621 -0.2075  0.7053
 4718SOL     OW25789   1.974   3.588   2.328 -0.0590 -0.3471  1.2922
 4718SOL    HW125790   1.938   3.550   2.249  0.5655  2.0303 -0.1373
 4718SOL    HW225791   1.940   3.534   2.400 -0.4760  1.3523  2.3694
 4719SOL     OW25792   4.465   2.441  16.005 -0.3726  0.3039 -0.0370
 4719SOL    HW125793   4.517   2.402  15.934 -2.0784 -0.8715 -0.6298
 4719SOL    HW225794   4.527   2.445  16.078  0.2711 -1.8901 -0.4397
 4720SOL     OW25795   2.009   0.152   3.600 -0.6531  0.3008 -0.2034
 4720SOL    HW125796   2.022   0.076   3.657  0.9264 -0.3953 -1.4970
 4720SOL    HW225797   1.934   0.126   3.545 -1.1976  0.5186  0.4360
 4721SOL     OW25798   4.063   2.870  10.927  1.2613  0.3630  0.0295
 4721SOL    HW125799   4.141   2.875  10.873  0.0812  1.7591 -1.5264
 4721SOL    HW225800   4.101   2.847  11.012  0.6234  1.2560  0.5577
 4722SOL     OW25801   2.905   1.757   6.311  0.6361 -0.6575  0.9453
 4722SOL    HW125802   2.927   1.685   6.371 -1.5965 -1.4772  0.7485
 4722SOL    HW225803   2.939   1.728   6.227 -2.0358  0.8961 -0.6691
 4723SOL     OW25804   0.603   1.634  13.273  0.4813 -0.4470  0.4372
 4723SOL    HW125805   0.593   1.547  13.312 -0.7079 -0.3547  0.3543
 4723SOL    HW225806   0.519   1.648  13.229 -1.6104 -0.4191  4.3716
 4724SOL     OW25807   0.471   0.607  10.581  0.1393  0.1800 -0.1341
 4724SOL    HW125808   0.479   0.584  10.489 -2.6069 -0.4822 -0.1896
 4724SOL    HW225809   0.542   0.549  10.611  0.3822  0.5326 -0.0178
 4725SOL     OW25810   0.526   1.395   2.915 -0.2260 -0.3722 -0.1771
 4725SOL    HW125811   0.523   1.412   3.009  0.2471 -1.3335  0.0156
 4725SOL    HW225812   0.596   1.456   2.891  2.1731 -3.0513 -0.0387
 4726SOL     OW25813   3.508   3.194   4.918 -0.2327  0.2979  0.2410
 4726SOL    HW125814   3.435   3.135   4.901  2.0434 -2.4907  0.1370
 4726SOL    HW225815   3.572   3.177   4.849  0.4259  0.3923  0.8275
 4727SOL     OW25816   4.351   2.848   4.339  0.1240 -0.2515  0.2287
 4727SOL    HW125817   4.373   2.815   4.426  2.3724 -0.6400 -0.4861
 4727SOL    HW225818   4.308   2.931   4.362 -3.9410 -2.5086  0.7332
 4728SOL     OW25819   2.749   0.209   3.772 -0.3617 -0.0431 -0.6456
 4728SOL    HW125820   2.801   0.222   3.693  0.9716 -1.4210  0.0131
 4728SOL    HW225821   2.668   0.174   3.733 -2.1198  2.0845  1.0727
 4729SOL     OW25822   1.068   3.843   4.479 -0.0712 -0.5386  0.1673
 4729SOL    HW125823   1.155   3.803   4.478  0.3416  0.3365  0.6777
 4729SOL    HW225824   1.007   3.776   4.450 -2.8787  1.2540  1.9115
 4730SOL     OW25825   4.040   2.573   7.693  0.5568 -0.2332  0.0526
 4730SOL    HW125826   4.018   2.615   7.610  1.0510 -1.4345 -0.6887
 4730SOL    HW225827   4.034   2.646   7.754 -0.6343 -0.6850  0.4790
 4731SOL     OW25828   0.975   1.333   1.770 -0.1468 -0.3820  0.2781
 4731SOL    HW125829   0.907   1.266   1.767 -0.6793  0.2811 -1.9817
 4731SOL    HW225830   0.987   1.358   1.679 -1.0912  0.8686  0.4997
 4732SOL     OW25831   1.186   2.508   4.580  0.0897 -0.0784 -0.0357
 4732SOL    HW125832   1.123   2.480   4.646  0.6013 -1.1861 -0.0176
 4732SOL    HW225833   1.160   2.461   4.501 -2.3485  0.1168  0.6455
 4733SOL     OW25834   2.668   3.995   7.242 -0.0272  0.5128 -0.2268
 4733SOL    HW125835   2.722   3.946   7.304  1.5394  1.5806 -0.7353
 4733SOL    HW225836   2.584   3.986   7.286  0.6941 -1.4434  0.7593
 4734SOL     OW25837   0.510   2.912   0.753 -0.4554 -0.6329 -1.0101
 4734SOL    HW125838   0.425   2.913   0.708 -0.3579 -3.8611 -1.2607
 4734SOL    HW225839   0.474   2.891   0.840  1.5325 -0.9562 -0.2811
 4735SOL     OW25840   1.513   0.708   9.623  0.3981 -0.8853 -0.3896
 4735SOL    HW125841   1.597   0.751   9.613  0.4970 -1.2606 -1.1444
 4735SOL    HW225842   1.542   0.644   9.687  0.1945  0.1534  0.7392
 4736SOL     OW25843   0.733   1.582  14.881 -0.1076 -0.1534 -0.5044
 4736SOL    HW125844   0.782   1.500  14.881  2.7457  1.5352 -0.2276
 4736SOL    HW225845   0.775   1.648  14.936  0.7006 -2.5519  1.7576
 4737SOL     OW25846   2.872   0.980   5.676 -0.3841  0.2911 -0.0403
 4737SOL    HW125847   2.880   0.979   5.581  3.1141 -0.4424  0.2477
 4737SOL    HW225848   2.783   0.947   5.680 -0.6076  1.1641  2.2122
 4738SOL     OW25849   0.264   4.661   9.354  0.1359 -0.0502 -0.0257
 4738SOL    HW125850   0.351   4.699   9.349 -0.1122  0.6671  1.2047
 4738SOL    HW225851   0.229   4.693   9.271  0.9068  0.9234  0.0308
 4739SOL     OW25852   1.217   0.324   8.817  0.3542 -0.2953  0.0139
 4739SOL    HW125853   1.128   0.342   8.786  0.9463  0.2237 -1.3672
 4739SOL    HW225854   1.235   0.232   8.797 -1.2334 -0.6074 -0.0333
 4740SOL     OW25855   1.810   1.210  10.130  0.1228  0.0518 -0.2186
 4740SOL    HW125856   1.809   1.279  10.197 -0.4424 -1.4522  1.3214
 4740SOL    HW225857   1.754   1.140  10.163 -1.5450  1.4483 -0.0341
 4741SOL     OW25858   1.593   4.168  10.812 -0.1190  0.9716 -0.1913
 4741SOL    HW125859   1.519   4.215  10.774 -0.7617 -0.6386 -0.9331
 4741SOL    HW225860   1.552   4.143  10.895  1.1490 -0.0453  0.1200
 4742SOL     OW25861   0.031   3.869  14.098 -0.3025  0.0119 -0.0150
 4742SOL    HW125862   4.688   3.815  14.093  0.5698 -1.4391  1.7468
 4742SOL    HW225863   0.018   3.937  14.164  1.1811 -0.2360  0.5282
 4743SOL     OW25864   3.748   0.906   2.069 -0.3394 -0.1156  0.3655
 4743SOL    HW125865   3.774   0.817   2.097  0.2841 -0.4026 -1.1335
 4743SOL    HW225866   3.714   0.889   1.981  0.7617 -0.0359 -0.0809
 4744SOL     OW25867   0.816   2.436   7.932  0.4356 -0.4259 -0.4533
 4744SOL    HW125868   0.866   2.446   8.013 -0.7366 -0.8558  0.3246
 4744SOL    HW225869   0.790   2.344   7.928 -1.0711  0.0020 -0.5527
 4745SOL     OW25870   4.186   1.201   6.929  0.2148 -0.4140 -0.1626
 4745SOL    HW125871   4.208   1.109   6.921 -0.0618 -0.4696 -0.2725
 4745SOL    HW225872   4.090   1.196   6.933  0.5509 -5.2819  1.9386
 4746SOL     OW25873   0.020   0.187  14.570 -0.4792 -0.6748 -0.3104
 4746SOL    HW125874   0.058   0.266  14.608 -2.5221 -0.6010  1.5888
 4746SOL    HW225875   0.023   0.208  14.477 -0.2027  2.5959  0.4277
 4747SOL     OW25876   1.730   1.616   2.528 -0.2661 -0.6044 -0.1060
 4747SOL    HW125877   1.640   1.585   2.539 -0.3608 -0.7987 -1.4210
 4747SOL    HW225878   1.759   1.555   2.460 -2.5107 -1.2064 -0.5163
 4748SOL     OW25879   2.736   3.707   4.862 -0.0180  0.0721 -0.0669
 4748SOL    HW125880   2.651   3.751   4.860  0.0692  0.1830 -1.4767
 4748SOL    HW225881   2.744   3.658   4.944  1.2409 -3.1284 -2.0775
 4749SOL     OW25882   2.012   1.380   5.600  0.1381 -0.3416 -0.0987
 4749SOL    HW125883   1.985   1.410   5.687 -1.3017 -0.8544 -0.3744
 4749SOL    HW225884   2.091   1.432   5.586 -0.4517  0.0874 -1.7934
 4750SOL     OW25885   4.015   0.572   6.096 -0.2775 -0.3170 -0.1669
 4750SOL    HW125886   4.086   0.583   6.032 -0.9179  1.1960 -0.6083
 4750SOL    HW225887   3.953   0.518   6.048 -1.3385 -0.2482  1.1494
 4751SOL     OW25888   0.712   0.557   3.475 -0.0979  0.2058  0.2674
 4751SOL    HW125889   0.779   0.548   3.407 -0.5184 -0.3435 -0.0787
 4751SOL    HW225890   0.765   0.558   3.555  0.3955 -4.4996  0.0172
 4752SOL     OW25891   0.435   0.493  11.041  0.1340 -0.1861  1.0683
 4752SOL    HW125892   0.429   0.540  11.124  0.9795  0.0200  1.0087
 4752SOL    HW225893   0.459   0.565  10.982 -1.4975 -1.5753 -1.3382
 4753SOL     OW25894   0.860   2.648   4.848 -0.0288  0.6756  0.6183
 4753SOL    HW125895   0.851   2.673   4.756  1.4423  0.4261  0.4081
 4753SOL    HW225896   0.952   2.667   4.864 -0.0088  1.3161 -0.2640
 4754SOL     OW25897   1.417   2.901  12.355 -0.3008  0.4959  0.1379
 4754SOL    HW125898   1.404   2.888  12.449 -3.3819  0.0882 -0.3310
 4754SOL    HW225899   1.512   2.894  12.360 -0.3132 -0.7052 -1.1192
 4755SOL     OW25900   3.600   3.129   8.320  0.2170  0.3133  0.1252
 4755SOL    HW125901   3.599   3.199   8.386 -0.3147 -0.8379  1.3423
 4755SOL    HW225902   3.632   3.184   8.248 -1.9736  1.4293 -0.0231
 4756SOL     OW25903   4.415   2.230  12.368  0.4113 -0.1087 -0.7315
 4756SOL    HW125904   4.409   2.309  12.422  2.3184 -1.1288  0.9832
 4756SOL    HW225905   4.402   2.157  12.429 -1.0879  0.3300 -0.5245
 4757SOL     OW25906   3.479   0.569   2.787 -0.5707 -0.0285  0.4591
 4757SOL    HW125907   3.479   0.520   2.705 -0.9132  0.9732 -0.1408
 4757SOL    HW225908   3.514   0.507   2.850  0.7603 -0.3494 -0.5933
 4758SOL     OW25909   2.237   0.881  14.561  0.3775 -0.2071 -0.2577
 4758SOL    HW125910   2.160   0.932  14.587  1.3055 -0.0127  2.0758
 4758SOL    HW225911   2.308   0.942  14.579  0.3758 -0.7669  1.6218
 4759SOL     OW25912   2.756   1.834  17.049 -0.1966  0.2354 -0.2259
 4759SOL    HW125913   2.740   1.749  17.091 -1.0862  1.4161  1.7787
 4759SOL    HW225914   2.666   1.860  17.034  0.1562  0.4879 -1.8951
 4760SOL     OW25915   3.603   3.907   3.632 -1.2341  0.3518  0.4402
 4760SOL    HW125916   3.532   3.943   3.581 -1.6824 -1.8424 -0.4849
 4760SOL    HW225917   3.623   3.990   3.675 -0.9136 -0.7356  2.4272
 4761SOL     OW25918   3.045   4.544  17.567  0.2428  0.0712 -0.3687
 4761SOL    HW125919   3.005   4.585  17.490 -2.7724 -2.4545 -0.1494
 4761SOL    HW225920   2.976   4.552  17.633  0.0444 -0.4153 -0.5192
 4762SOL     OW25921   0.350   0.770   4.478 -0.4760  0.0077 -0.3091
 4762SOL    HW125922   0.263   0.775   4.438  0.8197 -0.8262 -3.2358
 4762SOL    HW225923   0.403   0.792   4.401  1.7766  1.2496  1.5828
 4763SOL     OW25924   4.358   1.009  15.573 -0.0698 -0.2745 -0.3685
 4763SOL    HW125925   4.342   1.101  15.553 -4.0770 -0.5818  1.3964
 4763SOL    HW225926   4.412   1.013  15.652  0.7036 -0.2143 -0.8977
 4764SOL     OW25927   2.815   4.404   3.838  0.1168 -0.0125 -0.1202
 4764SOL    HW125928   2.782   4.318   3.866 -2.8831  1.0115 -0.4493
 4764SOL    HW225929   2.743   4.434   3.782  1.2963  0.5609 -1.3208
 4765SOL     OW25930   3.747   4.441   6.755 -0.3512  0.1568  0.1465
 4765SOL    HW125931   3.700   4.501   6.696  3.6322  0.7430 -2.4472
 4765SOL    HW225932   3.683   4.447   6.825 -0.7111 -0.7640 -0.1072
 4766SOL     OW25933   2.130   3.601  15.783  0.0492 -0.0061 -0.5269
 4766SOL    HW125934   2.057   3.542  15.802 -0.9880  1.4186 -0.1030
 4766SOL    HW225935   2.144   3.638  15.870  1.3603  2.0579 -1.6322
 4767SOL     OW25936   4.292   1.906   8.931  0.2935  0.1489 -0.2117
 4767SOL    HW125937   4.378   1.867   8.942  0.0138 -0.2831  0.4826
 4767SOL    HW225938   4.270   1.939   9.018  1.4938  1.9063 -0.5776
 4768SOL     OW25939   4.393   0.044   1.872  0.4734 -0.2452 -0.5390
 4768SOL    HW125940   4.483   0.045   1.906 -0.8608 -2.1248  3.0336
 4768SOL    HW225941   4.364   0.134   1.863  1.1912  0.1017  0.7557
 4769SOL     OW25942   2.157   0.945   2.030 -0.1352 -0.1176  0.2616
 4769SOL    HW125943   2.188   1.030   1.999 -0.3094 -0.4034 -0.7008
 4769SOL    HW225944   2.239   0.904   2.056  0.2943  1.2335  1.0408
 4770SOL     OW25945   1.179   4.241   8.482 -0.4879  0.4576 -0.0701
 4770SOL    HW125946   1.179   4.148   8.505  2.4860  0.5625  0.2966
 4770SOL    HW225947   1.088   4.270   8.490 -0.9571 -0.0962 -3.3757
 4771SOL     OW25948   2.414   4.276   0.847 -0.4032  0.2825  0.4371
 4771SOL    HW125949   2.505   4.272   0.818 -1.0616 -0.7216 -1.4941
 4771SOL    HW225950   2.387   4.186   0.829  1.6202 -0.6115  1.9002
 4772SOL     OW25951   2.138   0.424  10.343  0.0404  0.7307 -0.0002
 4772SOL    HW125952   2.188   0.375  10.408 -0.3851  1.8740  1.2047
 4772SOL    HW225953   2.058   0.448  10.390 -0.8411  0.6365 -1.4635
 4773SOL     OW25954   1.886   1.815   9.638  0.0983 -0.1297 -0.4658
 4773SOL    HW125955   1.881   1.724   9.667  0.4496  0.1578  0.5140
 4773SOL    HW225956   1.804   1.820   9.589  1.0542  1.2162 -1.9299
 4774SOL     OW25957   1.108   4.321  10.907 -0.2021 -0.2703 -0.1204
 4774SOL    HW125958   1.146   4.355  10.826  0.7816 -3.1434 -0.8674
 4774SOL    HW225959   1.043   4.266  10.865 -0.8719  0.9624 -0.7007
 4775SOL     OW25960   1.770   4.702   4.278 -0.0819  0.0167  0.5801
 4775SOL    HW125961   1.678   4.676   4.271 -0.4493  1.2872  0.7335
 4775SOL    HW225962   1.785   4.694   4.372 -0.7007  1.0700  0.7714
 4776SOL     OW25963   0.313   2.507   8.192  0.1180 -0.3891 -0.5039
 4776SOL    HW125964   0.234   2.499   8.138 -0.4993  1.4879  0.1203
 4776SOL    HW225965   0.372   2.451   8.143 -1.5820 -2.0328 -0.6946
 4777SOL     OW25966   1.658   3.202   4.523 -0.2566  0.0233  0.0002
 4777SOL    HW125967   1.734   3.251   4.491 -0.1943  0.4885  0.8523
 4777SOL    HW225968   1.585   3.264   4.516  0.0683  0.0995 -3.0638
 4778SOL     OW25969   4.021   2.220   4.203  0.4682 -0.1133  0.5958
 4778SOL    HW125970   3.950   2.158   4.214 -0.2612  0.8767  1.4983
 4778SOL    HW225971   4.082   2.156   4.165  0.5677  0.2992  0.0632
 4779SOL     OW25972   3.370   3.990   8.507 -0.1875 -0.2133 -0.0107
 4779SOL    HW125973   3.345   3.949   8.590  0.4599 -1.0956 -0.2527
 4779SOL    HW225974   3.449   3.940   8.487  1.2767  2.8973 -1.9368
 4780SOL     OW25975   4.500   2.030   3.760 -0.3687  0.2533  0.5620
 4780SOL    HW125976   4.457   1.949   3.786 -2.5801  0.5260 -2.3036
 4780SOL    HW225977   4.510   2.010   3.667 -0.4110 -0.3108  0.6823
 4781SOL     OW25978   3.461   3.903  17.630  0.4786  0.6408 -0.8592
 4781SOL    HW125979   3.530   3.891  17.696 -0.0238  0.2561 -0.3997
 4781SOL    HW225980   3.517   3.873  17.558 -1.5707  0.5429 -2.3999
 4782SOL     OW25981   3.434   0.608   4.780  0.1140  0.0628 -0.0240
 4782SOL    HW125982   3.467   0.633   4.694  0.0075 -1.3888 -0.4993
 4782SOL    HW225983   3.437   0.689   4.830  0.9118 -0.3490  0.5790
 4783SOL     OW25984   3.297   2.729   8.643 -0.0950  0.3986  0.1781
 4783SOL    HW125985   3.280   2.713   8.550 -0.4994 -1.6611  0.6208
 4783SOL    HW225986   3.263   2.817   8.662  1.2108  0.7366  0.9108
 4784SOL     OW25987   1.249   1.282   9.083  0.1216 -0.3413 -0.0286
 4784SOL    HW125988   1.262   1.276   8.989  0.4684 -2.1503  0.1403
 4784SOL    HW225989   1.246   1.378   9.090  2.0259 -0.3856  1.3729
 4785SOL     OW25990   1.586   4.038   1.228 -0.1519 -0.3989 -0.3926
 4785SOL    HW125991   1.669   4.004   1.262  1.5125  2.5137 -1.6090
 4785SOL    HW225992   1.524   3.994   1.287  0.9153 -1.8836 -0.3785
 4786SOL     OW25993   1.289   2.764   6.151  0.1722 -0.3754  1.0064
 4786SOL    HW125994   1.294   2.814   6.233  1.8523  2.7875 -1.0555
 4786SOL    HW225995   1.371   2.715   6.153  0.7743  0.6877  2.3522
 4787SOL     OW25996   1.307   3.237   8.856 -0.0159  0.4649  0.3292
 4787SOL    HW125997   1.352   3.179   8.794  1.4452  1.1910  0.6914
 4787SOL    HW225998   1.361   3.222   8.934 -0.5321 -2.8034  0.0569
 4788SOL     OW25999   0.754   1.152   8.707 -0.4570 -0.2162 -0.2893
 4788SOL    HW126000   0.828   1.211   8.695 -0.8811  0.6589  1.4633
 4788SOL    HW226001   0.745   1.148   8.802 -1.0254 -2.7064 -0.4264
 4789SOL     OW26002   3.214   4.595   4.078  0.1079 -0.2069 -0.7399
 4789SOL    HW126003   3.176   4.679   4.055  0.0887  0.1374  0.5640
 4789SOL    HW226004   3.271   4.615   4.153 -0.5292 -0.2445 -0.2451
 4790SOL     OW26005   2.431   3.681   1.223  0.1201 -0.0499 -0.4723
 4790SOL    HW126006   2.438   3.731   1.304  1.2794 -0.4988 -0.2892
 4790SOL    HW226007   2.522   3.653   1.207 -0.1456 -1.6454  0.8893
 4791SOL     OW26008   3.246   1.306   7.262 -0.3850  0.5148 -0.2297
 4791SOL    HW126009   3.281   1.389   7.294  0.0565  0.2826 -0.1149
 4791SOL    HW226010   3.276   1.253   7.336 -1.0889 -0.0531 -0.3508
 4792SOL     OW26011   1.641   4.021  14.053  0.1056 -0.2292  0.2779
 4792SOL    HW126012   1.649   4.051  14.144 -3.0571  0.6094  0.2780
 4792SOL    HW226013   1.581   3.948  14.068  0.3673 -0.3580  0.6991
 4793SOL     OW26014   1.097   0.729   1.698  0.1484  0.4365  0.4121
 4793SOL    HW126015   1.077   0.742   1.606  0.0014 -1.1904  0.2287
 4793SOL    HW226016   1.188   0.699   1.687  0.1989  0.8972 -0.3743
 4794SOL     OW26017   3.126   1.309   2.717  0.0953  0.3206 -0.1202
 4794SOL    HW126018   3.094   1.345   2.634  0.8518  1.6433  0.1733
 4794SOL    HW226019   3.040   1.273   2.740  0.1490  1.3293  1.6545
 4795SOL     OW26020   1.008   0.574   3.949  0.1412  0.5276 -0.3864
 4795SOL    HW126021   1.096   0.598   3.919  1.0571 -1.6292  0.5931
 4795SOL    HW226022   1.030   0.552   4.039  2.4450 -0.4999 -1.2057
 4796SOL     OW26023   0.184   1.881   4.983  0.2671  0.5772 -0.5326
 4796SOL    HW126024   0.100   1.918   4.958 -0.1668  1.1386  1.8077
 4796SOL    HW226025   0.167   1.845   5.070  0.8260  3.9800  0.9784
 4797SOL     OW26026   3.468   2.294  14.897  0.0426 -0.4611 -0.3946
 4797SOL    HW126027   3.562   2.309  14.891  0.1984 -1.4375 -0.3756
 4797SOL    HW226028   3.469   2.212  14.948 -0.5191 -0.0373  0.2979
 4798SOL     OW26029   1.149   1.773   0.604 -0.4406 -0.1229  0.1195
 4798SOL    HW126030   1.170   1.682   0.624  1.3339  0.0709 -0.8822
 4798SOL    HW226031   1.122   1.803   0.691 -0.8975  1.3365 -0.5325
 4799SOL     OW26032   0.784   3.629   2.854  0.1773  0.5595 -0.4046
 4799SOL    HW126033   0.710   3.593   2.904  0.8253  2.0481  1.6278
 4799SOL    HW226034   0.825   3.694   2.912 -0.9915  1.4533 -0.5837
 4800SOL     OW26035   0.418   0.712   7.028 -0.4088  0.3418  0.1015
 4800SOL    HW126036   0.454   0.748   6.947 -1.2528 -0.8409 -0.8045
 4800SOL    HW226037   0.470   0.631   7.030 -0.1036  0.5168 -0.5853
 4801SOL     OW26038   1.715   4.637   8.987 -0.1370 -0.2785 -0.5395
 4801SOL    HW126039   1.689   4.708   9.046 -0.4061 -0.6183 -0.2457
 4801SOL    HW226040   1.649   4.569   9.001 -1.1299  1.0700  1.3288
 4802SOL     OW26041   0.945   0.020   5.401  0.0947  0.0034 -0.3487
 4802SOL    HW126042   0.873   0.078   5.373  0.6650  0.9003  0.0544
 4802SOL    HW226043   0.919   4.670   5.370  0.0417 -0.4216  0.8727
 4803SOL     OW26044   2.273   0.028   0.115  0.0288 -0.3614 -0.2800
 4803SOL    HW126045   2.332   4.727   0.181 -0.6789  2.4963  1.9994
 4803SOL    HW226046   2.321   0.110   0.103 -1.9699  0.9722  0.8892
 4804SOL     OW26047   3.183   1.744  13.944 -0.1425 -0.0496 -0.0374
 4804SOL    HW126048   3.124   1.790  14.004 -0.6911 -0.2015 -0.4545
 4804SOL    HW226049   3.149   1.656  13.956 -0.6636  0.3307  1.2699
 4805SOL     OW26050   1.805   3.293   7.730  0.5963 -0.5492  0.3448
 4805SOL    HW126051   1.759   3.333   7.656  0.7923  0.0451  0.5458
 4805SOL    HW226052   1.847   3.221   7.683  1.8609  0.6128 -0.2936
 4806SOL     OW26053   0.662   4.403   6.651 -0.0723 -0.1685  0.4873
 4806SOL    HW126054   0.669   4.491   6.688 -0.9823  1.0993 -2.3109
 4806SOL    HW226055   0.583   4.422   6.599 -1.0209  0.2113  2.0886
 4807SOL     OW26056   2.861   1.029   6.584 -0.0567 -0.5998 -0.0733
 4807SOL    HW126057   2.781   1.075   6.610 -0.6436 -2.5810  1.6192
 4807SOL    HW226058   2.859   0.964   6.655  0.6104 -0.7869 -0.2243
 4808SOL     OW26059   0.490   2.463   7.413  0.1130  0.1631  0.1189
 4808SOL    HW126060   0.437   2.537   7.383  1.5582  1.0039 -0.3646
 4808SOL    HW226061   0.563   2.471   7.351  0.9771 -0.9207  0.9902
 4809SOL     OW26062   3.849   3.090   5.304  0.3038  0.0162  0.3266
 4809SOL    HW126063   3.860   3.180   5.271  2.0988  0.6519  2.6652
 4809SOL    HW226064   3.770   3.063   5.256 -0.3948  1.9433  0.3794
 4810SOL     OW26065   3.039   3.284   5.369  0.4643  0.4288  0.3581
 4810SOL    HW126066   2.983   3.257   5.297  0.1346 -1.5667  1.3528
 4810SOL    HW226067   3.129   3.275   5.337  1.2189  0.3478  2.4801
 4811SOL     OW26068   1.006   3.056  17.104 -0.6064  0.1378  0.5201
 4811SOL    HW126069   0.990   3.137  17.152 -1.9586  1.6368 -2.4637
 4811SOL    HW226070   0.967   3.071  17.018  0.3579 -2.1372 -0.3187
 4812SOL     OW26071   0.200   2.372   8.993 -0.3438 -0.1560  1.0923
 4812SOL    HW126072   0.146   2.413   9.062 -1.5019 -1.5868  1.0392
 4812SOL    HW226073   0.141   2.386   8.919 -0.2913  0.3730  1.1485
 4813SOL     OW26074   3.498   3.238   3.018  0.5375  0.6354  0.6756
 4813SOL    HW126075   3.548   3.209   2.942 -0.6459  2.7378 -0.9247
 4813SOL    HW226076   3.452   3.158   3.042  0.5576  0.6043  0.6089
 4814SOL     OW26077   4.176   0.435  16.872  0.0332  0.0979  0.2880
 4814SOL    HW126078   4.165   0.528  16.849 -4.5651 -0.3949  0.5109
 4814SOL    HW226079   4.234   0.407  16.801 -0.3690  0.6634 -0.2694
 4815SOL     OW26080   2.632   0.303   1.676 -0.1050  0.0940 -0.4457
 4815SOL    HW126081   2.562   0.331   1.736  1.5310 -0.4300  1.6966
 4815SOL    HW226082   2.591   0.224   1.643 -2.2058  0.4139  1.3745
 4816SOL     OW26083   1.909   3.096  13.273  0.0835  0.5628 -0.6416
 4816SOL    HW126084   1.950   3.158  13.213 -2.2626  0.3592 -2.4346
 4816SOL    HW226085   1.833   3.057  13.229 -0.1623  0.9029 -0.5151
 4817SOL     OW26086   2.733   1.889   6.620 -0.3764  0.0470 -0.2028
 4817SOL    HW126087   2.699   1.799   6.620  1.5938 -0.7042  0.9272
 4817SOL    HW226088   2.825   1.871   6.641 -0.3690 -0.5194 -0.7178
 4818SOL     OW26089   0.729   2.504   6.495  0.1614  0.3012  0.0858
 4818SOL    HW126090   0.764   2.476   6.411 -0.1418 -0.9710  0.3826
 4818SOL    HW226091   0.664   2.435   6.508 -0.3001  1.3793  3.4259
 4819SOL     OW26092   4.115   4.368   6.241 -0.3091  0.2187  0.3988
 4819SOL    HW126093   4.116   4.402   6.330  1.8402 -0.4010  0.6029
 4819SOL    HW226094   4.206   4.381   6.215 -1.2757 -0.2179 -3.3103
 4820SOL     OW26095   3.005   4.103  11.877  0.1836 -0.1022  0.2086
 4820SOL    HW126096   2.978   4.171  11.815  4.3464 -0.2742 -1.7991
 4820SOL    HW226097   2.975   4.134  11.963 -0.8283 -0.2262 -0.1032
 4821SOL     OW26098   1.087   1.751   2.914  0.0623 -0.4899  0.0608
 4821SOL    HW126099   1.177   1.726   2.890  0.6122  1.4166  0.1131
 4821SOL    HW226100   1.080   1.711   3.001  0.2182 -3.5171 -1.2945
 4822SOL     OW26101   4.449   0.341   3.085 -0.3109 -0.1251 -0.4250
 4822SOL    HW126102   4.458   0.422   3.034  0.8819 -0.7294 -1.1631
 4822SOL    HW226103   4.526   0.297   3.050 -0.8247 -1.1689 -0.2497
 4823SOL     OW26104   4.109   1.804  13.192  0.4601  0.1851  0.0931
 4823SOL    HW126105   4.117   1.859  13.270 -1.2755 -0.1532  0.5216
 4823SOL    HW226106   4.150   1.859  13.125  1.9096 -1.1790 -0.1053
 4824SOL     OW26107   4.251   1.227  12.961  0.2941 -0.5756  0.3475
 4824SOL    HW126108   4.205   1.206  13.042  0.1031 -0.3956  0.2881
 4824SOL    HW226109   4.222   1.319  12.959 -1.4674 -1.1359 -0.8871
 4825SOL     OW26110   0.163   3.772   6.294  0.0094 -0.4475 -0.1512
 4825SOL    HW126111   0.073   3.747   6.312 -0.2639 -0.7626 -1.9366
 4825SOL    HW226112   0.202   3.685   6.284  1.6832  0.4489 -1.3754
 4826SOL     OW26113   1.207   0.222  15.055  0.0572  0.1616 -0.0450
 4826SOL    HW126114   1.284   0.205  15.001  0.5632 -0.8174  0.9595
 4826SOL    HW226115   1.243   0.227  15.144  1.9582 -0.2929 -0.7850
 4827SOL     OW26116   4.467   2.322   8.722 -0.3855 -0.0490 -0.2654
 4827SOL    HW126117   4.491   2.237   8.685 -1.0544 -0.5577  0.4733
 4827SOL    HW226118   4.404   2.298   8.790  0.1837  3.1521  1.3972
 4828SOL     OW26119   1.767   3.451  16.149 -0.0664 -0.0479  0.4421
 4828SOL    HW126120   1.798   3.386  16.212  0.9478 -0.1499 -0.1700
 4828SOL    HW226121   1.717   3.517  16.198  2.4691  0.1281  2.7641
 4829SOL     OW26122   4.218   1.273   7.676  0.0129  0.9092 -0.6343
 4829SOL    HW126123   4.193   1.206   7.612 -3.3058  1.9962 -0.4985
 4829SOL    HW226124   4.190   1.346   7.621  2.8750  2.5346  0.1052
 4830SOL     OW26125   0.442   3.147  15.479  0.2487  0.3877 -0.7314
 4830SOL    HW126126   0.423   3.072  15.423  1.4662 -3.2620  3.7204
 4830SOL    HW226127   0.365   3.192  15.444 -1.1814 -1.3810  0.0879
 4831SOL     OW26128   4.186   0.253   4.343 -0.2715 -0.2138 -0.1716
 4831SOL    HW126129   4.146   0.252   4.430 -0.4637  0.0196 -0.2568
 4831SOL    HW226130   4.151   0.341   4.326 -1.0671 -0.3014  1.0186
 4832SOL     OW26131   2.088   0.383   1.534 -0.1931 -0.1470 -0.6018
 4832SOL    HW126132   1.998   0.349   1.530 -0.4984  0.5494  0.2437
 4832SOL    HW226133   2.084   0.428   1.619 -0.0250 -2.4500  0.6194
 4833SOL     OW26134   3.426   3.125  13.954 -0.1030 -0.6698 -0.0741
 4833SOL    HW126135   3.442   3.095  13.864  0.6088  0.9513 -0.4714
 4833SOL    HW226136   3.331   3.127  13.943 -0.1508 -0.8785  0.2945
 4834SOL     OW26137   0.642   4.172   5.688 -0.0645  0.4715  0.1260
 4834SOL    HW126138   0.727   4.128   5.679  0.9087  2.3577  0.0315
 4834SOL    HW226139   0.664   4.264   5.704 -3.8956  1.4996 -0.6785
 4835SOL     OW26140   0.455   4.473   7.389 -0.1084  0.2002 -0.5572
 4835SOL    HW126141   0.371   4.481   7.434  1.2649  1.9315  1.7402
 4835SOL    HW226142   0.429   4.398   7.335 -1.5306  0.3736 -0.1111
 4836SOL     OW26143   2.699   0.086   8.114 -0.2445 -0.0239  0.2231
 4836SOL    HW126144   2.786   0.079   8.154 -0.0788 -0.3006 -0.1903
 4836SOL    HW226145   2.648   0.046   8.184  0.3370  1.6070  1.5751
 4837SOL     OW26146   2.155   3.571   2.745  0.4445  0.1516 -0.5297
 4837SOL    HW126147   2.115   3.486   2.761  0.2441  0.1117 -1.2290
 4837SOL    HW226148   2.191   3.552   2.658  0.2139 -0.4769 -0.4891
 4838SOL     OW26149   3.913   2.667  10.169 -0.4071  0.8405  0.1082
 4838SOL    HW126150   3.889   2.650  10.261 -2.6708  0.0840 -0.6080
 4838SOL    HW226151   4.005   2.693  10.170 -0.5126  1.1908  0.6577
 4839SOL     OW26152   3.380   1.322   6.025 -0.6967 -0.4955  0.2019
 4839SOL    HW126153   3.418   1.251   6.075 -2.1198 -0.8208  0.8419
 4839SOL    HW226154   3.385   1.281   5.939  1.7345 -1.3497  0.7642
 4840SOL     OW26155   1.121   0.660   1.183  0.2922  0.5854  0.1638
 4840SOL    HW126156   1.142   0.707   1.103  1.8733 -1.8752 -0.8790
 4840SOL    HW226157   1.139   0.569   1.158 -0.7937  0.0610  1.2614
 4841SOL     OW26158   2.073   4.135   4.828  0.2016 -0.2816  0.4978
 4841SOL    HW126159   1.986   4.116   4.862  0.7287  0.6259  2.3895
 4841SOL    HW226160   2.116   4.174   4.904  2.9323  0.9316 -1.6480
 4842SOL     OW26161   3.104   0.674   4.983 -0.4156 -0.0535 -0.5942
 4842SOL    HW126162   3.152   0.592   4.967  0.2517  0.0962  0.5927
 4842SOL    HW226163   3.180   0.727   5.009  0.4500 -0.4881 -2.2478
 4843SOL     OW26164   3.501   0.793   2.334 -0.0774  0.0091  0.0104
 4843SOL    HW126165   3.571   0.741   2.296  1.3923  1.6264  0.5392
 4843SOL    HW226166   3.546   0.838   2.405  2.4012 -0.5766 -1.2153
 4844SOL     OW26167   2.183   0.949   1.095  0.2404  0.7046 -0.0429
 4844SOL    HW126168   2.098   0.975   1.131  0.7691 -0.1747  1.8824
 4844SOL    HW226169   2.226   0.894   1.161  2.9346  1.7605 -0.9352
 4845SOL     OW26170   1.162   1.732   6.598  0.2537  0.7256 -0.4321
 4845SOL    HW126171   1.231   1.689   6.548 -1.9717  0.2133 -3.0347
 4845SOL    HW226172   1.144   1.654   6.650  0.2811  0.3196 -1.0306
 4846SOL     OW26173   3.882   2.803  14.347 -0.5044  0.5454  0.5094
 4846SOL    HW126174   3.788   2.817  14.359 -0.6852  0.3800 -0.6979
 4846SOL    HW226175   3.878   2.808  14.252 -6.1955 -0.1759  0.6923
 4847SOL     OW26176   3.727   4.129  16.214  0.0778 -0.5513 -0.2156
 4847SOL    HW126177   3.764   4.154  16.298  0.6464 -1.3750 -0.2203
 4847SOL    HW226178   3.800   4.149  16.156  1.2213  0.3139  1.5552
 4848SOL     OW26179   1.667   0.463   5.754 -0.1717 -0.7332  0.7457
 4848SOL    HW126180   1.717   0.530   5.707 -1.3066 -0.8100 -0.5932
 4848SOL    HW226181   1.745   0.418   5.783  0.2555  0.3546  1.3042
 4849SOL     OW26182   2.601   3.921   3.689 -0.2806  0.1845 -0.4250
 4849SOL    HW126183   2.532   3.866   3.652 -0.9615  0.4272  0.4895
 4849SOL    HW226184   2.667   3.852   3.695 -0.1127  0.4958  1.4702
 4850SOL     OW26185   3.102   4.554   2.380  0.0158  0.4942 -0.1446
 4850SOL    HW126186   3.178   4.610   2.362 -1.0821  1.9221 -0.2930
 4850SOL    HW226187   3.025   4.610   2.368 -1.5611 -1.3664  1.2041
 4851SOL     OW26188   2.085   1.014   4.053  0.8026 -0.7361  0.3534
 4851SOL    HW126189   2.087   0.923   4.083 -1.5019 -0.3440  1.6386
 4851SOL    HW226190   2.127   1.059   4.126  1.6390 -0.5529 -0.2383
 4852SOL     OW26191   0.133   1.984   2.788 -0.0919  0.1665 -0.3773
 4852SOL    HW126192   0.114   1.906   2.736 -2.5460 -0.1119  0.9318
 4852SOL    HW226193   0.208   1.951   2.838 -0.3277 -0.1929 -0.2570
 4853SOL     OW26194   3.836   0.114   6.379 -0.1415 -0.0180  0.7538
 4853SOL    HW126195   3.872   0.116   6.468  1.6617  0.1187  0.0176
 4853SOL    HW226196   3.760   0.058   6.394  1.4105 -1.8068  1.8567
 4854SOL     OW26197   2.605   0.138   0.169 -0.4456  0.1920 -0.1866
 4854SOL    HW126198   2.637   0.082   0.239 -1.4878  0.8944  0.8396
 4854SOL    HW226199   2.595   0.073   0.099 -2.0911  0.2207  0.0361
 4855SOL     OW26200   3.238   4.727   6.639 -0.4211 -0.4246 -0.1552
 4855SOL    HW126201   3.233   4.632   6.645  0.6124 -0.5444 -1.3034
 4855SOL    HW226202   3.193   0.008   6.722 -4.1645  2.6298 -2.8811
 4856SOL     OW26203   2.678   1.559   4.337  0.4840 -0.2474  0.1437
 4856SOL    HW126204   2.667   1.606   4.420  1.7732  0.1726  0.0795
 4856SOL    HW226205   2.679   1.636   4.279  1.1747 -1.0640 -0.9281
 4857SOL     OW26206   3.181   3.613  11.584  0.0949  0.7137  0.6370
 4857SOL    HW126207   3.188   3.666  11.505 -2.4187  2.4608  1.5591
 4857SOL    HW226208   3.233   3.536  11.565 -2.0406 -0.1699 -1.6377
 4858SOL     OW26209   2.733   3.140   5.402  0.0699  0.1702  0.0384
 4858SOL    HW126210   2.763   3.165   5.314 -0.6196 -0.4043 -0.3624
 4858SOL    HW226211   2.770   3.053   5.418 -1.6012 -0.5269  0.2244
 4859SOL     OW26212   4.488   4.698   4.799 -0.4528 -0.1858 -0.1322
 4859SOL    HW126213   4.509   4.606   4.815  0.2380 -0.2707 -1.5221
 4859SOL    HW226214   4.485   4.708   4.704 -1.9647  1.3125  0.0947
 4860SOL     OW26215   4.093   3.868   6.249 -0.4094 -0.7852 -0.2980
 4860SOL    HW126216   4.144   3.941   6.212 -3.0821  2.1612  1.8284
 4860SOL    HW226217   4.154   3.800   6.220  1.5503 -0.5881  3.4268
 4861SOL     OW26218   0.929   0.429  11.498 -0.0562 -0.0974 -0.2845
 4861SOL    HW126219   0.943   0.471  11.584  1.4235 -0.7519 -0.2051
 4861SOL    HW226220   0.853   0.476  11.463  0.1063 -0.8279 -1.5981
 4862SOL     OW26221   2.363   1.487   8.193 -0.4248  0.3224 -0.2775
 4862SOL    HW126222   2.319   1.432   8.128  1.7071  0.0696 -1.4951
 4862SOL    HW226223   2.442   1.517   8.148 -0.1343 -1.3511 -0.8912
 4863SOL     OW26224   1.496   0.386   6.527 -0.1282  0.4515  0.0386
 4863SOL    HW126225   1.409   0.410   6.494 -0.6059  1.2713  1.9100
 4863SOL    HW226226   1.497   0.415   6.618 -1.3214  2.1379 -0.4779
 4864SOL     OW26227   1.100   0.200   2.671  0.0640  0.0622 -0.3488
 4864SOL    HW126228   1.060   0.137   2.732 -0.2298 -0.3704 -0.9893
 4864SOL    HW226229   1.181   0.164   2.637  1.2887  1.0788  1.5246
 4865SOL     OW26230   4.046   2.199   6.358  0.2220 -0.1991  0.8246
 4865SOL    HW126231   4.033   2.227   6.449 -1.7731 -1.9455  1.0803
 4865SOL    HW226232   4.120   2.254   6.335 -1.5943  1.1996 -1.6925
 4866SOL     OW26233   3.929   0.399  14.343  0.3073  0.1398 -0.0096
 4866SOL    HW126234   3.920   0.436  14.430 -0.2290  0.8654 -0.3722
 4866SOL    HW226235   3.940   0.309  14.375  2.1248  0.6341  0.7575
 4867SOL     OW26236   1.866   0.824   4.068  0.0917  0.1008 -0.4030
 4867SOL    HW126237   1.857   0.805   3.974  0.8302 -1.4507 -0.1642
 4867SOL    HW226238   1.903   0.912   4.074 -0.8815  0.4917 -0.1008
 4868SOL     OW26239   2.232   4.623  15.171 -0.3912  0.0142 -0.5234
 4868SOL    HW126240   2.175   4.546  15.172  0.7969 -0.8290  1.9136
 4868SOL    HW226241   2.197   4.676  15.242 -1.1896  1.9539 -2.3571
 4869SOL     OW26242   4.465   2.972   8.147  0.0096  0.4014  0.3011
 4869SOL    HW126243   4.444   2.883   8.176 -1.9316  0.5815 -0.6028
 4869SOL    HW226244   4.504   3.010   8.226  1.0278  0.7519 -0.3724
 4870SOL     OW26245   3.700   3.520   5.513 -0.6677 -0.3268  0.0233
 4870SOL    HW126246   3.664   3.576   5.582  0.3986 -1.9598  1.9073
 4870SOL    HW226247   3.790   3.534   5.543 -0.3305 -1.5511 -0.4444
 4871SOL     OW26248   2.665   3.893   5.109 -0.0151 -0.0956 -0.0337
 4871SOL    HW126249   2.655   3.986   5.093 -0.8194 -0.1238  0.2888
 4871SOL    HW226250   2.595   3.855   5.057 -1.3177  2.0998  0.1271
 4872SOL     OW26251   0.197   2.541   7.648 -0.1003  0.6317  0.4448
 4872SOL    HW126252   0.235   2.615   7.695  0.0963  0.2092  0.9536
 4872SOL    HW226253   0.256   2.466   7.654 -0.5469  0.3188  0.9757
 4873SOL     OW26254   3.476   1.605  15.698  0.6941 -0.6866 -0.4234
 4873SOL    HW126255   3.473   1.587  15.792 -0.5086  0.7079 -0.2037
 4873SOL    HW226256   3.387   1.587  15.669  0.5672 -1.8171  0.6530
 4874SOL     OW26257   3.009   0.075   2.279  0.2806 -0.5341  0.1023
 4874SOL    HW126258   3.079   0.065   2.215 -0.5060  0.1260 -0.8625
 4874SOL    HW226259   3.024   0.164   2.309 -1.8650  1.2191 -4.0463
 4875SOL     OW26260   0.025   3.634   7.082  0.0188 -0.5400  0.0021
 4875SOL    HW126261   0.039   3.714   7.031  0.1551 -1.2256 -1.0206
 4875SOL    HW226262   0.111   3.618   7.121 -0.4801  1.0584  1.7655
 4876SOL     OW26263   0.979   1.112   6.014 -0.2738 -0.4404 -0.1439
 4876SOL    HW126264   0.899   1.061   6.029 -0.5952  0.5688  1.5387
 4876SOL    HW226265   1.034   1.045   5.975  1.3480  0.5267  0.5057
 4877SOL     OW26266   1.267   3.757   5.987  0.5981 -0.7941 -0.5056
 4877SOL    HW126267   1.349   3.723   6.023  1.1554  0.6857 -0.3747
 4877SOL    HW226268   1.254   3.838   6.036 -2.6814 -2.0705  0.7493
 4878SOL     OW26269   2.011   0.562   1.322  0.5165  0.3095  0.0677
 4878SOL    HW126270   2.045   0.630   1.380 -4.0769  1.3322  1.5463
 4878SOL    HW226271   2.071   0.488   1.335  2.5280  1.3798 -3.0675
 4879SOL     OW26272   1.000   2.431   1.478  0.4676  0.7748 -0.6573
 4879SOL    HW126273   0.911   2.398   1.467  0.4499 -0.0228  1.9315
 4879SOL    HW226274   1.015   2.442   1.384 -0.2219 -0.1699 -0.8810
 4880SOL     OW26275   4.028   1.439   8.296  0.3435 -0.3438  0.2787
 4880SOL    HW126276   4.047   1.511   8.357 -1.5776 -0.4447  0.9789
 4880SOL    HW226277   3.944   1.470   8.263  0.3988 -1.2936 -0.7452
 4881SOL     OW26278   4.308   0.419   6.860  0.1406 -0.5922 -0.2339
 4881SOL    HW126279   4.237   0.462   6.812 -1.0253 -1.5416  0.6359
 4881SOL    HW226280   4.353   0.501   6.877  2.4103 -1.7284 -0.7458
 4882SOL     OW26281   1.922   1.000   9.046  0.0600  0.0947 -0.0589
 4882SOL    HW126282   1.899   0.935   8.979 -0.4057 -0.8439  1.0070
 4882SOL    HW226283   1.952   1.065   8.982  1.3277  0.0183  0.4561
 4883SOL     OW26284   2.132   0.258  17.449  0.0808 -0.0096  0.0541
 4883SOL    HW126285   2.058   0.237  17.506  0.5991  1.6199  1.3343
 4883SOL    HW226286   2.162   0.167  17.450  0.3896  0.0832 -0.5023
 4884SOL     OW26287   0.718   4.444   7.291  0.1450  0.6436 -0.2721
 4884SOL    HW126288   0.773   4.375   7.328 -3.1587 -1.9937 -0.3226
 4884SOL    HW226289   0.638   4.435   7.343 -0.0863 -0.5981 -0.8500
 4885SOL     OW26290   2.171   1.731   3.657  0.2580  0.2572  0.2733
 4885SOL    HW126291   2.102   1.786   3.620  0.5375  0.5067  0.1258
 4885SOL    HW226292   2.201   1.775   3.736 -1.3375  1.0620  0.4216
 4886SOL     OW26293   0.904   3.070  16.847 -0.5133 -0.1895 -0.2106
 4886SOL    HW126294   0.917   3.109  16.760 -1.6974 -2.1774 -1.2657
 4886SOL    HW226295   0.822   3.022  16.840 -0.9366  0.3640  0.9217
 4887SOL     OW26296   4.561   1.083   3.656  0.1018 -0.1869  0.3274
 4887SOL    HW126297   4.535   1.132   3.578 -0.6987 -1.7313 -0.3757
 4887SOL    HW226298   4.580   1.151   3.720 -2.0777  1.0531 -0.3295
 4888SOL     OW26299   1.374   0.320  17.385 -0.5266 -0.1425  0.2865
 4888SOL    HW126300   1.285   0.288  17.402 -0.7001 -0.3506 -1.0569
 4888SOL    HW226301   1.364   0.401  17.435  2.3094 -0.3254  1.1507
 4889SOL     OW26302   0.797   2.962  14.756 -0.5215 -0.5100  0.2462
 4889SOL    HW126303   0.842   2.924  14.831  0.8861 -1.6896 -1.1805
 4889SOL    HW226304   0.722   2.904  14.760  0.9641 -2.4030  0.6642
 4890SOL     OW26305   1.970   1.856  12.903 -0.0997 -0.0840 -0.2095
 4890SOL    HW126306   2.000   1.799  12.973 -0.5843 -0.2937 -0.1748
 4890SOL    HW226307   1.933   1.926  12.958 -0.8800  0.4762 -1.4184
 4891SOL     OW26308   3.669   4.703  11.969  0.5059  0.2174 -0.7691
 4891SOL    HW126309   3.635   0.050  12.000 -0.7072 -0.6509  0.2482
 4891SOL    HW226310   3.594   4.644  11.974  1.5799 -1.0793  0.0484
 4892SOL     OW26311   4.516   3.760  11.090  0.0587 -0.0123 -0.0830
 4892SOL    HW126312   4.451   3.736  11.156 -1.4050 -0.9108 -1.8277
 4892SOL    HW226313   4.508   3.855  11.094 -1.7455 -0.1416 -0.5205
 4893SOL     OW26314   2.319   1.672   5.355 -0.1150  0.6436 -0.8761
 4893SOL    HW126315   2.353   1.725   5.282 -1.7965  0.3634 -1.8795
 4893SOL    HW226316   2.371   1.593   5.366 -1.2716 -0.3092 -2.2428
 4894SOL     OW26317   3.087   2.889  16.046 -0.4777 -0.0832  0.1529
 4894SOL    HW126318   3.013   2.924  15.997 -0.9255 -2.1643 -0.6287
 4894SOL    HW226319   3.095   2.956  16.114 -1.7715  0.6783 -0.4452
 4895SOL     OW26320   4.453   2.930  15.282 -0.0320  0.6813 -0.2545
 4895SOL    HW126321   4.393   2.978  15.339 -1.0988 -0.6101 -0.3051
 4895SOL    HW226322   4.401   2.850  15.274 -0.2902  0.8129  0.1132
 4896SOL     OW26323   1.811   4.004  15.352  0.2347 -0.1911  0.4044
 4896SOL    HW126324   1.843   3.965  15.271  1.8813 -0.0403  0.9873
 4896SOL    HW226325   1.886   4.061  15.370 -0.0293  0.7921 -1.6991
 4897SOL     OW26326   0.278   4.378   6.429  0.0094  0.2678 -0.5814
 4897SOL    HW126327   0.229   4.455   6.459 -0.7926 -0.3803 -0.2121
 4897SOL    HW226328   0.356   4.429   6.408  1.2904 -0.0133  3.4459
 4898SOL     OW26329   0.583   1.584  10.287  0.2684 -0.0620  0.6768
 4898SOL    HW126330   0.676   1.602  10.274  0.4246  0.2065  2.1216
 4898SOL    HW226331   0.568   1.503  10.239  2.1428  0.0810 -0.1624
 4899SOL     OW26332   3.286   1.126   2.486 -0.3149 -0.0965 -0.1019
 4899SOL    HW126333   3.256   1.152   2.399  2.8585 -0.8957 -1.4025
 4899SOL    HW226334   3.209   1.083   2.525  0.9631  1.1336  3.7566
 4900SOL     OW26335   1.260   0.375  10.471  0.2482  0.7033  0.0497
 4900SOL    HW126336   1.332   0.360  10.411  0.3242  0.4482  0.2050
 4900SOL    HW226337   1.304   0.404  10.551 -2.1855 -1.0477  2.0571
 4901SOL     OW26338   4.273   0.808  16.631  0.4385 -1.2175  0.2964
 4901SOL    HW126339   4.335   0.866  16.675  0.4162 -0.6275 -0.4621
 4901SOL    HW226340   4.331   0.744  16.590  1.0030  0.1218 -0.9757
 4902SOL     OW26341   3.794   2.468  12.352  0.2076  0.6858 -0.1998
 4902SOL    HW126342   3.735   2.533  12.314  1.6260  1.1722 -1.5720
 4902SOL    HW226343   3.874   2.500  12.310  0.8616 -0.9658 -0.2290
 4903SOL     OW26344   2.487   2.139  11.280 -0.5643 -0.1026 -0.7160
 4903SOL    HW126345   2.546   2.068  11.255  0.1962  1.0631 -2.1707
 4903SOL    HW226346   2.462   2.158  11.190 -1.8971 -2.2784 -0.8133
 4904SOL     OW26347   3.233   1.100   2.862  0.6759 -0.4898 -0.1705
 4904SOL    HW126348   3.141   1.077   2.880  1.0834 -0.7993  1.4959
 4904SOL    HW226349   3.215   1.183   2.818  1.6252  0.1451  0.6519
 4905SOL     OW26350   1.885   1.447   7.398  0.1437  0.1420 -0.4144
 4905SOL    HW126351   1.818   1.391   7.360 -0.9838  1.2528 -0.0462
 4905SOL    HW226352   1.857   1.468   7.487 -3.0760 -0.6149 -1.2692
 4906SOL     OW26353   2.775   2.593   3.994 -0.1744  0.5655 -0.2273
 4906SOL    HW126354   2.840   2.527   4.017 -0.8987 -0.4939 -1.1896
 4906SOL    HW226355   2.813   2.632   3.916  1.4538 -2.7359 -1.0965
 4907SOL     OW26356   4.220   3.439   7.221  0.0814 -0.6509 -0.4063
 4907SOL    HW126357   4.315   3.449   7.217 -0.1942  1.8062 -0.5201
 4907SOL    HW226358   4.206   3.358   7.272  2.3255 -1.5288 -1.1769
 4908SOL     OW26359   1.361   4.132   4.617  0.7071 -0.5363  0.3451
 4908SOL    HW126360   1.441   4.182   4.633 -0.3484  1.0956  0.6269
 4908SOL    HW226361   1.298   4.164   4.683  0.0830  1.0637 -1.0334
 4909SOL     OW26362   0.847   2.157   4.833  0.3112  0.2556 -0.3603
 4909SOL    HW126363   0.773   2.208   4.799  0.3899 -0.3813 -1.4775
 4909SOL    HW226364   0.800   2.087   4.880  0.2782  0.7563  0.3601
 4910SOL     OW26365   3.295   2.920  16.994  0.2898  0.3485 -0.6403
 4910SOL    HW126366   3.258   2.832  17.006  0.4479  0.5722  1.5410
 4910SOL    HW226367   3.275   2.942  16.903  2.2771 -0.1228 -1.1817
 4911SOL     OW26368   3.041   2.073  11.761  0.2500  0.5472  0.0495
 4911SOL    HW126369   3.102   2.017  11.808 -0.0031 -0.7987 -1.2127
 4911SOL    HW226370   2.959   2.065  11.811  0.9668  0.7833  1.2548
 4912SOL     OW26371   3.162   0.934   3.180  0.2598 -0.3056 -0.0341
 4912SOL    HW126372   3.184   1.010   3.235  2.2228  1.5180 -3.3565
 4912SOL    HW226373   3.242   0.905   3.137  0.2343 -0.0682 -0.2379
 4913SOL     OW26374   4.018   2.629   4.073  0.6030 -0.0885 -0.0882
 4913SOL    HW126375   4.092   2.572   4.052  1.4704  1.2857 -0.7945
 4913SOL    HW226376   4.021   2.686   3.996 -0.3960  0.4809  0.2947
 4914SOL     OW26377   4.257   3.361   4.559 -0.2615  0.1111 -0.0289
 4914SOL    HW126378   4.320   3.434   4.560 -1.1103  0.8396  0.2626
 4914SOL    HW226379   4.315   3.293   4.594  0.2781 -0.3695 -1.8860
 4915SOL     OW26380   0.307   4.192   0.856 -0.9412  0.1994  0.0412
 4915SOL    HW126381   0.261   4.118   0.817  1.0317 -1.5164  0.9550
 4915SOL    HW226382   0.374   4.137   0.898  0.7301  0.6335 -2.0345
 4916SOL     OW26383   2.301   2.010   6.469  0.1360 -0.0848 -0.3603
 4916SOL    HW126384   2.302   1.998   6.563 -0.9974 -1.7654 -0.5740
 4916SOL    HW226385   2.262   1.926   6.442 -0.6913 -0.0797  0.8378
 4917SOL     OW26386   2.009   3.846   5.710  0.0795  0.0400  0.4350
 4917SOL    HW126387   2.027   3.924   5.763  1.5556  1.1644 -1.7434
 4917SOL    HW226388   1.913   3.843   5.710  0.1097 -0.7081 -0.9085
 4918SOL     OW26389   0.218   1.993  11.781  0.6067 -0.6371 -0.8003
 4918SOL    HW126390   0.123   1.986  11.796  1.0331  0.3809  2.5442
 4918SOL    HW226391   0.232   1.903  11.750  0.8378  0.0429 -2.6361
 4919SOL     OW26392   1.020   0.402   5.535  0.2605  0.1050  0.1702
 4919SOL    HW126393   0.936   0.404   5.580 -0.7881 -0.4570 -1.7604
 4919SOL    HW226394   1.032   0.495   5.554 -3.3945  1.3630 -3.8403
 4920SOL     OW26395   3.640   0.768  17.259  0.0497 -0.3815 -0.2487
 4920SOL    HW126396   3.708   0.717  17.304  1.2586  1.6882  0.2482
 4920SOL    HW226397   3.671   0.858  17.270  1.1759 -0.7614 -0.2660
 4921SOL     OW26398   3.730   1.871  14.638 -0.0455 -0.4034  0.2225
 4921SOL    HW126399   3.753   1.922  14.560  1.1906  0.8475  1.4078
 4921SOL    HW226400   3.704   1.793  14.589  2.2081 -1.4918  0.7766
 4922SOL     OW26401   2.417   3.939   6.057  0.0736  0.4175 -0.1625
 4922SOL    HW126402   2.424   3.933   5.962  2.6021  2.9251 -0.1403
 4922SOL    HW226403   2.407   3.849   6.089  0.2710  1.1497  1.9805
 4923SOL     OW26404   4.592   2.540   2.358 -0.1506 -0.7800  0.3328
 4923SOL    HW126405   4.629   2.520   2.444  1.2427  0.0189 -0.0802
 4923SOL    HW226406   4.534   2.466   2.341  0.9465 -1.0238 -2.3131
 4924SOL     OW26407   1.980   4.276   0.820 -0.0822  0.7137 -0.0620
 4924SOL    HW126408   1.987   4.366   0.789  1.1231  0.7638  0.3394
 4924SOL    HW226409   2.033   4.231   0.753  0.0524  0.5164  0.1772
 4925SOL     OW26410   4.555   2.393  16.908 -0.2413 -0.5646 -0.0019
 4925SOL    HW126411   4.589   2.323  16.852 -2.1897 -1.0112 -0.6152
 4925SOL    HW226412   4.570   2.474  16.859 -0.2357  1.1796  2.8649
 4926SOL     OW26413   3.589   1.387   6.640  0.2071 -0.3329  0.4976
 4926SOL    HW126414   3.610   1.336   6.562  0.2596 -0.0375  0.3185
 4926SOL    HW226415   3.500   1.416   6.618 -0.2812 -1.7750  0.5989
 4927SOL     OW26416   1.449   3.899   6.781  0.2102 -0.0209 -0.1731
 4927SOL    HW126417   1.437   3.819   6.730  1.1562  0.8701 -1.7920
 4927SOL    HW226418   1.378   3.956   6.752  0.6177 -0.1020 -1.3415
 4928SOL     OW26419   0.748   1.587  14.166 -0.2736  0.1426 -0.0162
 4928SOL    HW126420   0.757   1.493  14.177 -3.0764  0.2264  2.9826
 4928SOL    HW226421   0.715   1.578  14.076  0.1544  0.4228 -0.2050
 4929SOL     OW26422   3.779   1.760   1.729 -0.3183  0.3286  0.1370
 4929SOL    HW126423   3.785   1.673   1.688 -0.3737 -0.0128  0.8582
 4929SOL    HW226424   3.791   1.817   1.653 -2.6064  0.2857 -0.2559
 4930SOL     OW26425   0.857   3.273   3.719  0.6983 -0.5828  0.0287
 4930SOL    HW126426   0.860   3.214   3.644 -0.3909 -1.4841  0.6806
 4930SOL    HW226427   0.861   3.205   3.787  2.5937 -0.6847 -0.2048
 4931SOL     OW26428   2.275   3.357  15.958 -0.3526 -0.2470  0.2496
 4931SOL    HW126429   2.227   3.341  15.876  2.1869  1.6328 -1.6161
 4931SOL    HW226430   2.258   3.273  16.001 -0.9547 -0.7492 -0.9611
 4932SOL     OW26431   4.683   1.049  12.165  0.4270  0.1077 -0.1944
 4932SOL    HW126432   4.589   1.028  12.164  0.4640 -0.1261  1.0291
 4932SOL    HW226433   4.699   1.051  12.259 -0.1339  1.2613 -0.1180
 4933SOL     OW26434   4.441   0.895   7.369  0.2607 -0.5552 -0.7933
 4933SOL    HW126435   4.386   0.884   7.291  0.6061 -0.8551 -0.9965
 4933SOL    HW226436   4.456   0.802   7.386  0.7512 -0.5540 -1.2300
 4934SOL     OW26437   2.548   2.007   7.354  0.2799 -0.0931 -0.3831
 4934SOL    HW126438   2.522   1.934   7.298  1.4008 -0.1197 -0.8567
 4934SOL    HW226439   2.609   2.052   7.296  0.3952  1.7332  1.1278
 4935SOL     OW26440   0.529   4.018  15.350  0.0613 -0.0815  0.0012
 4935SOL    HW126441   0.576   4.044  15.429  1.0416  1.6338 -1.1493
 4935SOL    HW226442   0.525   3.922  15.354 -2.5440 -0.0097 -1.0978
 4936SOL     OW26443   2.116   2.633   1.699 -0.2076  0.0773 -0.6602
 4936SOL    HW126444   2.179   2.623   1.628 -1.6674  2.5365 -2.3370
 4936SOL    HW226445   2.120   2.723   1.731  0.1431 -0.5720  1.1228
 4937SOL     OW26446   0.301   0.950  15.625  0.2732  0.0356 -0.4225
 4937SOL    HW126447   0.235   0.936  15.693  1.0494 -0.2044  0.2659
 4937SOL    HW226448   0.250   0.944  15.544 -2.2266  1.1095  1.0723
 4938SOL     OW26449   0.405   2.816  13.021 -0.4929 -0.4915  0.0098
 4938SOL    HW126450   0.349   2.808  13.098 -1.4318  0.5292 -0.5559
 4938SOL    HW226451   0.378   2.738  12.972 -0.4641 -0.6781  0.2905
 4939SOL     OW26452   0.181   4.456   0.345  0.7522 -0.3166 -0.3403
 4939SOL    HW126453   0.145   4.389   0.403  1.9658 -0.3801  0.3522
 4939SOL    HW226454   0.151   4.541   0.376  1.1862 -0.1413 -0.3970
 4940SOL     OW26455   1.822   2.573   2.441 -0.2849 -0.3120  0.4378
 4940SOL    HW126456   1.824   2.655   2.392  2.1343 -1.4853 -1.4205
 4940SOL    HW226457   1.785   2.609   2.521  0.3734 -1.1354  1.1074
 4941SOL     OW26458   2.465   0.572   1.602 -0.3061  0.2500  0.4678
 4941SOL    HW126459   2.553   0.534   1.611 -0.6631 -0.7191 -0.0941
 4941SOL    HW226460   2.409   0.525   1.663  0.8595 -2.5417 -0.5914
 4942SOL     OW26461   3.626   2.811   9.815  0.0324 -0.4010 -0.1580
 4942SOL    HW126462   3.678   2.856   9.748  1.5479  2.5511  3.0263
 4942SOL    HW226463   3.683   2.809   9.892  1.1232 -1.1432 -0.9783
 4943SOL     OW26464   1.819   2.638   8.887 -0.1338 -0.1322  0.3559
 4943SOL    HW126465   1.802   2.713   8.830 -1.3955  1.1684  2.4336
 4943SOL    HW226466   1.912   2.645   8.911 -0.6419 -0.3788  2.4066
 4944SOL     OW26467   3.128   2.368   8.286  0.3230  0.0666  0.0877
 4944SOL    HW126468   3.077   2.443   8.257 -0.3267 -1.4194 -2.6504
 4944SOL    HW226469   3.136   2.399   8.376  3.3681 -0.0588 -0.1436
 4945SOL     OW26470   2.617   3.194   3.671 -0.1048  0.0507 -0.3923
 4945SOL    HW126471   2.658   3.112   3.697  0.4258 -0.0049 -1.4015
 4945SOL    HW226472   2.620   3.238   3.756 -0.9844 -1.2233  0.2985
 4946SOL     OW26473   2.330   3.869   6.446  0.3147  0.0825  0.1484
 4946SOL    HW126474   2.415   3.837   6.414  0.4266 -0.3252  0.8681
 4946SOL    HW226475   2.331   3.838   6.536  2.2375 -0.2322  0.0113
 4947SOL     OW26476   0.211   0.398   5.523  0.1231 -0.6835  0.6500
 4947SOL    HW126477   0.135   0.447   5.553 -1.7111 -3.7078  1.0142
 4947SOL    HW226478   0.171   0.350   5.450 -0.8908 -1.6267  1.8390
 4948SOL     OW26479   1.615   3.932   4.905  0.3221  0.4482 -0.2644
 4948SOL    HW126480   1.584   3.908   4.992 -0.7072 -1.2605 -1.0923
 4948SOL    HW226481   1.530   3.959   4.870  0.6279 -0.5512 -1.8218
 4949SOL     OW26482   0.409   1.379  13.756  0.1106  0.0325 -0.0996
 4949SOL    HW126483   0.345   1.418  13.696  0.2016 -0.6606 -0.6344
 4949SOL    HW226484   0.348   1.378  13.830  0.7019 -3.6952  0.3117
 4950SOL     OW26485   0.986   2.014  15.558  0.3186 -0.1254  0.0163
 4950SOL    HW126486   0.901   2.005  15.601  0.3547 -0.4417  0.0206
 4950SOL    HW226487   0.981   2.095  15.507 -0.6046 -0.6658 -0.7769
 4951SOL     OW26488   4.053   2.575  17.257  0.5037 -0.3033  0.5002
 4951SOL    HW126489   4.011   2.590  17.173  0.8804 -0.5239  0.2714
 4951SOL    HW226490   4.010   2.646  17.306  0.7863 -0.2410  0.6597
 4952SOL     OW26491   3.335   0.360   3.848  0.3889  0.3223 -0.2553
 4952SOL    HW126492   3.315   0.398   3.933  0.4058  0.5875 -0.3712
 4952SOL    HW226493   3.333   0.444   3.802  0.7387  1.0424  1.0511
 4953SOL     OW26494   4.175   1.486  12.953 -0.8942  0.5340 -1.0039
 4953SOL    HW126495   4.110   1.501  13.022 -0.1946 -2.0717  0.1973
 4953SOL    HW226496   4.240   1.553  12.975  0.7889 -1.2442 -0.6282
 4954SOL     OW26497   0.223   2.500   3.377 -0.3682  0.5194 -0.2995
 4954SOL    HW126498   0.136   2.460   3.381  0.5298 -1.4095 -0.2352
 4954SOL    HW226499   0.200   2.571   3.438 -0.6344  1.5427 -1.5977
 4955SOL     OW26500   2.420   1.809   7.168  0.0263  0.1655 -0.3040
 4955SOL    HW126501   2.333   1.816   7.209 -0.1341  1.1043 -0.7900
 4955SOL    HW226502   2.449   1.728   7.209 -0.7480  0.7915  1.4994
 4956SOL     OW26503   2.292   0.568  10.849  0.1647 -0.6882 -0.2126
 4956SOL    HW126504   2.226   0.537  10.912  0.0625  0.3525  0.2033
 4956SOL    HW226505   2.352   0.607  10.913 -0.4241  1.2212 -0.8199
 4957SOL     OW26506   1.828   3.295   6.811  0.6121 -0.4143  0.4573
 4957SOL    HW126507   1.856   3.381   6.778  0.3477  0.3278  2.1810
 4957SOL    HW226508   1.905   3.281   6.865 -0.5563 -1.4933  1.8141
 4958SOL     OW26509   0.463   2.827  11.351 -0.0077  0.2329  0.6607
 4958SOL    HW126510   0.549   2.801  11.318 -0.9108  2.1017 -3.1440
 4958SOL    HW226511   0.455   2.766  11.425 -1.8501 -1.5473 -1.0147
 4959SOL     OW26512   4.373   0.026  12.145 -0.4818  0.3707 -0.0839
 4959SOL    HW126513   4.308   0.080  12.190 -0.1041  1.2093 -0.5422
 4959SOL    HW226514   4.315   4.690  12.121 -1.0355  0.5278  0.7525
 4960SOL     OW26515   4.240   1.347   5.730  0.0970  0.1155 -0.3896
 4960SOL    HW126516   4.212   1.438   5.720 -0.0128  0.4597  2.8567
 4960SOL    HW226517   4.303   1.350   5.802 -1.1433 -1.5129  0.7661
 4961SOL     OW26518   2.489   3.657   4.164 -0.4171  0.4728  0.0295
 4961SOL    HW126519   2.443   3.645   4.081  1.3638  0.1480 -0.8965
 4961SOL    HW226520   2.576   3.624   4.144  0.0388  2.5968 -1.4855
 4962SOL     OW26521   1.455   1.698   7.279 -0.1935  0.3268 -0.0575
 4962SOL    HW126522   1.437   1.617   7.328  0.7642 -0.2210 -0.6126
 4962SOL    HW226523   1.395   1.758   7.323  0.2002  1.4278 -1.0250
 4963SOL     OW26524   2.414   4.096  14.371 -0.3581 -0.6083  0.1447
 4963SOL    HW126525   2.325   4.068  14.392 -0.7619 -0.6291 -1.5884
 4963SOL    HW226526   2.464   4.016  14.388  1.5922  0.0600 -2.6037
 4964SOL     OW26527   4.269   2.752   8.906  0.2679 -0.4610  0.6083
 4964SOL    HW126528   4.351   2.800   8.896  0.2683 -0.1671  2.0915
 4964SOL    HW226529   4.208   2.789   8.842  0.8867 -0.5563 -0.0284
 4965SOL     OW26530   1.001   0.246   6.967  0.0216  0.0871  0.0983
 4965SOL    HW126531   0.922   0.192   6.976  0.5393 -0.8856 -1.3300
 4965SOL    HW226532   0.957   0.314   6.916  0.7703  1.5563  1.4096
 4966SOL     OW26533   3.211   0.006   9.359 -0.1689 -0.0279  0.3297
 4966SOL    HW126534   3.120   0.000   9.390 -1.0490  1.6557 -1.9531
 4966SOL    HW226535   3.210   0.097   9.329  2.0260  0.3368  1.3371
 4967SOL     OW26536   2.394   0.204  17.590 -0.4021 -0.1213  0.7916
 4967SOL    HW126537   2.386   0.269  17.659 -1.8539  0.1985  0.3264
 4967SOL    HW226538   2.303   0.198  17.559 -0.5026 -0.3103  1.1305
 4968SOL     OW26539   2.173   2.227   7.482  0.6127 -0.3793 -0.1773
 4968SOL    HW126540   2.195   2.320   7.481  1.0316 -0.5036 -2.1945
 4968SOL    HW226541   2.128   2.211   7.399 -0.2907 -1.2306  0.4805
 4969SOL     OW26542   2.030   0.979  10.215 -0.4455  0.8402 -0.3275
 4969SOL    HW126543   1.946   1.021  10.232  0.5067  1.6497  2.4089
 4969SOL    HW226544   2.093   1.022  10.274  1.8982 -1.1766 -1.3255
 4970SOL     OW26545   0.615   3.687   1.133  0.0766 -0.3588  0.2673
 4970SOL    HW126546   0.683   3.725   1.187  0.4798  1.7812 -1.7398
 4970SOL    HW226547   0.618   3.594   1.156 -0.6269 -0.4848 -0.1228
 4971SOL     OW26548   2.854   1.146   2.081  0.1145  0.7496  0.1128
 4971SOL    HW126549   2.813   1.088   2.145  1.9716 -1.9232 -1.1004
 4971SOL    HW226550   2.891   1.093   2.011 -0.0679  0.4608  0.2372
 4972SOL     OW26551   0.203   3.090   4.807 -0.2882  0.2407  0.4095
 4972SOL    HW126552   0.214   3.180   4.777  0.8075  0.0615  0.2626
 4972SOL    HW226553   0.157   3.053   4.732  2.6356 -0.8167 -0.8763
 4973SOL     OW26554   3.361   0.063  12.552 -0.0844  0.2122  0.0403
 4973SOL    HW126555   3.285   0.120  12.537 -1.8241 -1.6504  1.7227
 4973SOL    HW226556   3.334   0.002  12.620  2.3944 -1.3683 -0.4129
 4974SOL     OW26557   0.362   1.315   1.822  0.2543  0.3562  0.9978
 4974SOL    HW126558   0.418   1.334   1.897  0.1318  1.5466  0.7844
 4974SOL    HW226559   0.406   1.369   1.756  0.1612 -1.5196 -0.6010
 4975SOL     OW26560   3.960   0.495   0.121  0.0097  0.0338  0.6432
 4975SOL    HW126561   3.918   0.433   0.061  0.9444  0.8880 -0.9193
 4975SOL    HW226562   4.028   0.531   0.063  1.0054 -0.8913  1.2244
 4976SOL     OW26563   1.573   3.899   5.180  0.4157  0.7204  0.6067
 4976SOL    HW126564   1.520   3.945   5.245 -0.3825 -2.0157  1.9126
 4976SOL    HW226565   1.646   3.860   5.227  0.5714 -0.5516 -0.7154
 4977SOL     OW26566   2.518   0.272  14.242 -0.7356  0.0099 -0.6514
 4977SOL    HW126567   2.530   0.211  14.169  2.6258 -0.5532  0.3393
 4977SOL    HW226568   2.447   0.330  14.215 -1.3308  0.3063  1.5064
 4978SOL     OW26569   1.694   2.018   6.972  0.3336 -0.1307  0.4707
 4978SOL    HW126570   1.699   1.932   7.014  1.4212 -0.3860 -0.1708
 4978SOL    HW226571   1.780   2.032   6.931  2.0486 -1.6525  3.5126
 4979SOL     OW26572   0.731   0.723  17.716 -0.0858  0.1017  0.8285
 4979SOL    HW126573   0.714   0.640  17.672 -0.6251 -0.3016  1.7930
 4979SOL    HW226574   0.795   0.755  17.653 -1.3145  0.7950 -0.0514
 4980SOL     OW26575   3.976   1.156   9.580  0.1005 -0.9933 -0.2376
 4980SOL    HW126576   4.006   1.155   9.671  5.5855 -2.7543 -2.0601
 4980SOL    HW226577   4.045   1.106   9.537  0.4514  0.0198 -0.8499
 4981SOL     OW26578   0.005   0.508   3.105 -0.5321  0.0439 -0.4872
 4981SOL    HW126579   4.708   0.593   3.079  0.0145 -0.0850 -1.6603
 4981SOL    HW226580   0.076   0.538   3.161 -0.5688 -0.5235 -0.1339
 4982SOL     OW26581   3.959   0.070  12.444  0.0082 -0.3269 -0.2307
 4982SOL    HW126582   3.944   0.046  12.535  0.1814  0.3127 -0.0294
 4982SOL    HW226583   3.981   4.724  12.400 -1.4465 -0.9501  0.2293
 4983SOL     OW26584   3.993   1.828   0.171 -0.2822  0.3151  0.9284
 4983SOL    HW126585   4.062   1.805   0.108 -0.9765 -1.3815  0.8084
 4983SOL    HW226586   4.027   1.811   0.259 -0.1330  0.1202  0.8320
 4984SOL     OW26587   0.827   2.215   6.993 -0.6260 -0.8846  0.0658
 4984SOL    HW126588   0.900   2.227   7.054 -1.7428 -2.6906  1.7691
 4984SOL    HW226589   0.793   2.132   7.025 -0.2867 -0.1793  2.2502
 4985SOL     OW26590   0.408   2.997  10.806 -0.1974 -0.2674  0.0234
 4985SOL    HW126591   0.397   2.937  10.732 -2.9787  0.4142 -0.1193
 4985SOL    HW226592   0.342   2.956  10.861  2.3048 -2.2137  1.5605
 4986SOL     OW26593   2.356   2.421   7.251  0.1466  0.0339 -0.1950
 4986SOL    HW126594   2.378   2.506   7.289  1.7873 -0.2156 -0.5870
 4986SOL    HW226595   2.439   2.376   7.266 -0.5319 -0.8082  1.0244
 4987SOL     OW26596   4.156   0.037   5.433 -0.6676  0.2485 -0.7964
 4987SOL    HW126597   4.244   0.024   5.470 -1.6689 -2.6943  0.5631
 4987SOL    HW226598   4.127   0.111   5.487 -0.9429  0.2122 -0.8960
 4988SOL     OW26599   2.560   1.706  11.349 -0.0036 -0.1206  0.1836
 4988SOL    HW126600   2.610   1.645  11.403  1.7159 -0.5828 -1.9332
 4988SOL    HW226601   2.531   1.780  11.401 -3.5230 -1.5191  0.2626
 4989SOL     OW26602   3.257   2.077   7.293 -0.0215  0.4637 -0.3557
 4989SOL    HW126603   3.255   2.171   7.277 -0.3447  0.6907  0.9723
 4989SOL    HW226604   3.347   2.066   7.324  0.0039  2.2541  0.1993
 4990SOL     OW26605   3.441   0.285   6.839 -0.4208 -0.1175  0.4900
 4990SOL    HW126606   3.477   0.216   6.893  0.7771  0.1933  0.0930
 4990SOL    HW226607   3.359   0.310   6.882 -0.3050  1.4704 -0.2039
 4991SOL     OW26608   4.130   4.729   4.279  0.2338 -0.0227  0.1657
 4991SOL    HW126609   4.121   0.080   4.317  1.2067  0.8725 -1.6482
 4991SOL    HW226610   4.192   0.012   4.208 -1.7264 -0.7167 -1.7289
 4992SOL     OW26611   1.636   3.856  15.536  0.4091 -0.0777 -0.2464
 4992SOL    HW126612   1.699   3.923  15.507  1.7531 -0.8906  0.8182
 4992SOL    HW226613   1.615   3.890  15.623 -0.6371 -1.2767 -0.0338
 4993SOL     OW26614   3.805   1.395   0.165 -0.5853  0.3025 -0.0400
 4993SOL    HW126615   3.886   1.445   0.175 -0.2084 -0.2978 -0.0717
 4993SOL    HW226616   3.787   1.389   0.259  1.0382 -0.7270  0.2124
 4994SOL     OW26617   0.802   2.776   4.112  0.9572 -0.4632 -0.3243
 4994SOL    HW126618   0.814   2.729   4.195  0.5473 -3.0066 -1.7046
 4994SOL    HW226619   0.809   2.705   4.049  2.4874  0.4324 -1.1455
 4995SOL     OW26620   2.783   3.680   7.959  0.1337  0.0943 -0.4410
 4995SOL    HW126621   2.699   3.690   8.004  0.4015  0.6855 -0.0792
 4995SOL    HW226622   2.751   3.692   7.869 -1.5324  0.3978  0.1770
 4996SOL     OW26623   2.178   4.202  17.369 -0.1866 -0.0414  0.1958
 4996SOL    HW126624   2.117   4.228  17.439 -1.0985  2.0589 -1.3894
 4996SOL    HW226625   2.136   4.118  17.349 -1.1423  0.3390  0.6036
 4997SOL     OW26626   2.606   3.237   1.686 -0.0432 -0.1897 -0.4302
 4997SOL    HW126627   2.632   3.150   1.657  0.2634  0.1389 -1.1469
 4997SOL    HW226628   2.664   3.265   1.756  0.3011  0.2002 -0.8659
 4998SOL     OW26629   0.216   3.106   7.884 -0.9382 -0.4586  0.6089
 4998SOL    HW126630   0.230   3.168   7.813 -0.2443 -0.9429  0.3190
 4998SOL    HW226631   0.125   3.128   7.905 -1.6998 -1.8155 -1.2342
 4999SOL     OW26632   3.237   4.164   5.707 -0.2272  0.6119  0.3972
 4999SOL    HW126633   3.164   4.160   5.645 -0.6441  0.5698  0.8934
 4999SOL    HW226634   3.207   4.106   5.776 -1.2951  0.4607 -0.1900
 5000SOL     OW26635   3.514   1.168   1.994 -0.1691  0.3378 -0.0508
 5000SOL    HW126636   3.542   1.247   2.041 -1.7158  0.6736  0.2994
 5000SOL    HW226637   3.492   1.105   2.063  0.0735 -0.1627 -0.4322
 5001SOL     OW26638   1.770   2.716  14.531 -0.4827  0.3515 -0.3236
 5001SOL    HW126639   1.738   2.728  14.620  1.6695  2.1090  0.2093
 5001SOL    HW226640   1.769   2.808  14.504  1.0780 -0.3021 -2.6620
 5002SOL     OW26641   2.217   4.596   6.433  0.1489  0.0600  0.0454
 5002SOL    HW126642   2.225   4.582   6.339  1.2721 -1.8256  0.4262
 5002SOL    HW226643   2.303   4.579   6.471  0.3794 -1.3944 -1.1572
 5003SOL     OW26644   2.439   0.972   9.285 -0.6044  0.6049 -0.6117
 5003SOL    HW126645   2.399   0.929   9.361  0.3946  0.2077 -0.3146
 5003SOL    HW226646   2.363   0.967   9.226  0.2428  2.1002 -1.8316
 5004SOL     OW26647   3.346   3.646   3.840  0.1738  0.4915  0.0349
 5004SOL    HW126648   3.358   3.566   3.891  0.4777  0.9968  0.7605
 5004SOL    HW226649   3.417   3.657   3.777  0.2935 -1.0772 -0.0919
 5005SOL     OW26650   3.901   0.500  14.590 -0.2318 -0.4743  0.5031
 5005SOL    HW126651   3.921   0.570  14.652  2.6210  0.2280 -1.1939
 5005SOL    HW226652   3.954   0.430  14.627  0.5645  1.3962  2.9020
 5006SOL     OW26653   3.366   0.252   2.329 -0.6328  0.1869  0.6849
 5006SOL    HW126654   3.280   0.283   2.302 -0.8103 -0.0857  0.9478
 5006SOL    HW226655   3.390   0.326   2.385  2.4439  1.5492 -2.4070
 5007SOL     OW26656   1.484   2.942   2.424 -0.0886  0.1039 -0.4776
 5007SOL    HW126657   1.566   2.992   2.430  0.5376 -1.1271  1.3620
 5007SOL    HW226658   1.415   3.005   2.445  0.1146 -0.2807  1.3574
 5008SOL     OW26659   2.344   1.538   6.018  0.3308  0.0803  0.2074
 5008SOL    HW126660   2.316   1.592   6.093  0.7869 -0.7475  0.9652
 5008SOL    HW226661   2.255   1.515   5.993  0.6718 -0.6577 -0.3125
 5009SOL     OW26662   2.790   3.753   2.616 -0.5162 -0.2508  0.0788
 5009SOL    HW126663   2.727   3.718   2.553  0.5275  0.1704 -1.2122
 5009SOL    HW226664   2.785   3.848   2.603 -0.9061 -0.5230 -1.7690
 5010SOL     OW26665   2.887   0.891   7.708 -0.2717 -0.1854  0.2599
 5010SOL    HW126666   2.962   0.853   7.753  1.0167  0.7749 -1.0950
 5010SOL    HW226667   2.830   0.909   7.783 -0.8700  2.0918 -0.7736
 5011SOL     OW26668   4.667   1.265   9.801  0.8084  0.4293  0.0053
 5011SOL    HW126669   4.701   1.348   9.833 -0.9499  1.3549 -0.5357
 5011SOL    HW226670   0.000   1.217   9.756  1.2796 -1.3763  2.6882
 5012SOL     OW26671   1.230   2.301   9.043  0.0996 -0.2246 -0.8939
 5012SOL    HW126672   1.151   2.328   8.996  0.9847  1.2832 -1.5171
 5012SOL    HW226673   1.193   2.288   9.131  2.1431  1.9025  0.2877
 5013SOL     OW26674   3.757   3.729   4.209 -0.1154  0.4317  0.6515
 5013SOL    HW126675   3.828   3.672   4.238 -0.0033  0.5598  0.6310
 5013SOL    HW226676   3.722   3.758   4.293 -0.9740 -0.0761  0.4695
 5014SOL     OW26677   1.152   0.708   2.871  0.4547 -0.3199  0.0040
 5014SOL    HW126678   1.207   0.748   2.804 -0.9993 -1.0368 -1.6112
 5014SOL    HW226679   1.163   0.614   2.856 -1.0096 -0.5238  0.1855
 5015SOL     OW26680   3.875   4.307   2.188 -0.3539 -0.0717  0.2409
 5015SOL    HW126681   3.853   4.217   2.162  0.9959  0.2475 -2.0606
 5015SOL    HW226682   3.917   4.342   2.109 -1.1603 -1.2948 -0.7303
 5016SOL     OW26683   1.804   0.980   6.149  0.3852 -0.1788 -0.3609
 5016SOL    HW126684   1.750   0.902   6.140  0.3453 -0.1252 -0.5950
 5016SOL    HW226685   1.741   1.049   6.128  0.7428  0.9986  2.3985
 5017SOL     OW26686   1.702   4.278   8.016 -0.2161  0.4019 -0.1485
 5017SOL    HW126687   1.707   4.212   8.084  0.2050 -0.2711 -0.8338
 5017SOL    HW226688   1.791   4.296   7.986 -0.5354 -0.1033 -1.4027
 5018SOL     OW26689   1.509   0.422  10.091  0.2304 -0.5376  0.8086
 5018SOL    HW126690   1.587   0.455  10.134  0.0489 -0.7698  1.3141
 5018SOL    HW226691   1.481   0.356  10.155 -3.8503 -0.6458 -1.0501
 5019SOL     OW26692   0.478   2.999   4.629  0.5357  0.1299 -0.4306
 5019SOL    HW126693   0.442   2.916   4.659 -0.8126  0.5314 -0.9683
 5019SOL    HW226694   0.406   3.061   4.640  0.1955 -0.1129 -1.2333
 5020SOL     OW26695   4.418   2.179   4.010  0.6310  0.2999 -0.2588
 5020SOL    HW126696   4.470   2.101   3.992 -0.9633 -0.3588 -2.0111
 5020SOL    HW226697   4.483   2.230   4.058 -2.1853  1.0672  2.7308
 5021SOL     OW26698   3.212   2.539   3.005 -0.2909  0.4227 -0.5915
 5021SOL    HW126699   3.123   2.508   2.987 -0.4652 -0.2350  1.4297
 5021SOL    HW226700   3.252   2.517   2.920 -1.0695 -0.3888 -0.7523
 5022SOL     OW26701   2.243   0.520  17.412  0.1030 -0.0956  0.5392
 5022SOL    HW126702   2.333   0.526  17.446 -0.1646  1.2744  0.9988
 5022SOL    HW226703   2.226   0.426  17.417  1.5648 -0.4389 -0.7260
 5023SOL     OW26704   0.549   3.765   5.581  0.0990 -0.1461  0.0211
 5023SOL    HW126705   0.580   3.791   5.494 -0.1579 -2.3809 -0.7231
 5023SOL    HW226706   0.634   3.752   5.624 -0.0038  1.3770  0.6921
 5024SOL     OW26707   1.215   2.648   7.251  0.0081 -0.1140  0.9529
 5024SOL    HW126708   1.255   2.731   7.225 -1.6116  0.1076 -0.8582
 5024SOL    HW226709   1.222   2.590   7.175  1.8092  0.6678  0.5219
 5025SOL     OW26710   1.928   3.453  15.898 -0.5615 -0.1536  0.6314
 5025SOL    HW126711   1.973   3.369  15.888  1.0712  0.9063 -1.0721
 5025SOL    HW226712   1.885   3.445  15.983  0.7232 -0.4602  1.2642
 5026SOL     OW26713   0.669   4.330   6.032 -0.4060 -0.3411 -0.1429
 5026SOL    HW126714   0.714   4.262   6.082  2.5185  1.2910 -0.5488
 5026SOL    HW226715   0.579   4.303   6.051  0.0965 -1.7515  0.1642
 5027SOL     OW26716   2.861   0.105   5.278  0.1698  0.0282 -0.9836
 5027SOL    HW126717   2.878   0.080   5.187 -2.1313 -2.2732 -0.8021
 5027SOL    HW226718   2.944   0.153   5.278 -0.7461  1.6361  0.4338
 5028SOL     OW26719   1.005   3.176   8.540  0.1326  0.0582 -0.1300
 5028SOL    HW126720   0.995   3.174   8.635 -0.2156  0.2842 -0.1607
 5028SOL    HW226721   0.921   3.143   8.509  0.8382 -1.7195 -0.1705
 5029SOL     OW26722   3.911   0.602   2.542  0.2854 -0.5633  0.1921
 5029SOL    HW126723   3.912   0.654   2.462 -0.6173 -0.7585  0.0530
 5029SOL    HW226724   3.930   0.520   2.498  3.0535  0.1683  0.0659
 5030SOL     OW26725   1.026   2.744  14.734  0.2537  0.4580 -0.2805
 5030SOL    HW126726   1.090   2.684  14.770 -0.7298 -0.8477 -0.6999
 5030SOL    HW226727   0.998   2.795  14.810 -0.4309  0.8350 -0.7846
 5031SOL     OW26728   2.580   0.975   7.438 -0.2317  0.0291 -0.1342
 5031SOL    HW126729   2.563   1.056   7.486 -0.6365 -1.0948  1.6315
 5031SOL    HW226730   2.672   0.989   7.414 -0.1253  1.2697  0.9746
 5032SOL     OW26731   1.118   1.667   0.894  0.1994  0.0797  0.3658
 5032SOL    HW126732   1.119   1.617   0.812 -0.2412 -2.0791  1.6763
 5032SOL    HW226733   1.211   1.660   0.919  0.4410  1.0034 -0.2868
 5033SOL     OW26734   3.211   2.694   3.605  0.1930 -0.1395 -0.6019
 5033SOL    HW126735   3.205   2.789   3.597  1.0977 -0.1029 -0.8822
 5033SOL    HW226736   3.209   2.663   3.515 -1.1899 -1.3363 -0.1480
 5034SOL     OW26737   4.331   0.239   8.790 -0.1501  0.4981  0.1764
 5034SOL    HW126738   4.389   0.304   8.749  0.5470  0.1604  0.6357
 5034SOL    HW226739   4.260   0.255   8.727 -1.0594 -0.0404  1.0894
 5035SOL     OW26740   1.488   1.728   8.031  0.1267 -0.8758 -0.2830
 5035SOL    HW126741   1.457   1.667   8.098  0.6055  0.0233  0.7475
 5035SOL    HW226742   1.423   1.797   8.037 -1.7378 -2.8549  2.2541
 5036SOL     OW26743   0.158   1.916   5.982 -0.1308 -0.2387 -0.4620
 5036SOL    HW126744   0.078   1.875   5.949  0.6183 -1.3033 -0.9590
 5036SOL    HW226745   0.116   1.990   6.026 -0.3779 -0.0693 -0.9815
 5037SOL     OW26746   3.001   3.972   7.737  0.0656  0.2951 -0.4796
 5037SOL    HW126747   2.976   4.037   7.672  0.8515 -1.6341 -2.7033
 5037SOL    HW226748   2.994   4.019   7.820 -0.6683 -0.5463 -0.0579
 5038SOL     OW26749   2.204   2.656   1.419  0.1158 -0.1902 -0.4085
 5038SOL    HW126750   2.132   2.697   1.372 -0.5831 -2.3274 -1.2065
 5038SOL    HW226751   2.156   2.574   1.427 -0.5640  0.2115 -0.3485
 5039SOL     OW26752   0.508   1.553   6.387  0.1886 -0.1296 -0.1067
 5039SOL    HW126753   0.569   1.623   6.365 -1.0717  1.2587  0.9353
 5039SOL    HW226754   0.459   1.591   6.459 -1.6534 -0.7296 -1.0467
 5040SOL     OW26755   0.973   2.789  12.389 -0.7722 -0.0684  0.0462
 5040SOL    HW126756   0.961   2.737  12.469 -2.2988  2.2644  1.3098
 5040SOL    HW226757   0.978   2.718  12.324  4.2405  0.0628  0.2243
 5041SOL     OW26758   0.755   4.379   5.169  0.0729  0.4723 -0.0331
 5041SOL    HW126759   0.763   4.474   5.163 -0.1825  0.6035  1.7024
 5041SOL    HW226760   0.660   4.368   5.178  0.0778  0.9736  0.6135
 5042SOL     OW26761   0.602   2.285   3.121  0.1567 -0.1218  0.2292
 5042SOL    HW126762   0.538   2.248   3.059 -1.0772  3.6906 -0.8002
 5042SOL    HW226763   0.536   2.338   3.167  0.5379  1.0236 -0.5286
 5043SOL     OW26764   0.108   0.410  14.679  0.5536  0.4681 -0.5269
 5043SOL    HW126765   0.058   0.480  14.636  2.1653  1.6282 -0.4883
 5043SOL    HW226766   0.115   0.445  14.768  0.1171 -1.6863  0.3616
 5044SOL     OW26767   0.851   1.529   4.918  0.8216  0.6623  0.5868
 5044SOL    HW126768   0.861   1.444   4.876 -1.2242  0.1805  1.0433
 5044SOL    HW226769   0.943   1.550   4.906  1.1213 -0.8754  0.2129
 5045SOL     OW26770   0.185   3.976   0.749 -0.4409 -0.2621  0.4932
 5045SOL    HW126771   0.139   3.940   0.674  2.4219  1.4228 -2.0672
 5045SOL    HW226772   0.189   3.890   0.792  0.2869  1.4181  3.8186
 5046SOL     OW26773   2.626   3.273   2.882 -0.2402 -0.0282 -0.8477
 5046SOL    HW126774   2.628   3.284   2.787  1.6138  0.8484 -0.6997
 5046SOL    HW226775   2.669   3.351   2.919  2.1326 -1.3767 -0.7644
 5047SOL     OW26776   1.204   2.890  10.172 -0.0794  0.0995 -0.4149
 5047SOL    HW126777   1.201   2.866  10.265  2.1959 -0.1186 -0.4147
 5047SOL    HW226778   1.298   2.901  10.157 -0.0330 -0.6821 -0.6938
 5048SOL     OW26779   0.484   0.928  14.375 -0.4845  0.2956 -0.0587
 5048SOL    HW126780   0.527   0.876  14.443  0.3652  0.5506 -0.4005
 5048SOL    HW226781   0.419   0.977  14.427 -1.3469 -0.0700 -0.7872
 5049SOL     OW26782   0.170   3.082   5.317  0.3906  0.0875  0.1269
 5049SOL    HW126783   0.178   2.988   5.332 -0.1745 -0.1074 -0.7666
 5049SOL    HW226784   0.081   3.097   5.347  0.6477 -1.0183  1.4312
 5050SOL     OW26785   1.640   0.595   3.040 -0.1848 -0.2703 -0.4207
 5050SOL    HW126786   1.640   0.670   2.981  2.0164 -2.7984 -3.6481
 5050SOL    HW226787   1.569   0.608   3.103  0.7717  0.8875  0.4137
 5051SOL     OW26788   3.679   0.926   4.278 -0.5533 -0.8631 -0.1886
 5051SOL    HW126789   3.607   0.986   4.259  1.0067  1.1423  0.2396
 5051SOL    HW226790   3.762   0.960   4.243 -0.7986  0.3257  0.3712
 5052SOL     OW26791   3.755   0.193  17.398  0.0539 -0.1679 -0.2936
 5052SOL    HW126792   3.692   0.239  17.342 -2.3061 -1.2354  1.4700
 5052SOL    HW226793   3.810   0.139  17.343 -0.0595  0.8250 -1.3842
 5053SOL     OW26794   4.386   0.496   0.635 -0.2459  0.2559 -0.0773
 5053SOL    HW126795   4.436   0.557   0.583  1.3919  0.0752  1.2786
 5053SOL    HW226796   4.456   0.434   0.654 -2.3747 -2.1728 -0.0241
 5054SOL     OW26797   4.014   0.717  13.199 -0.1151 -0.0028 -0.1112
 5054SOL    HW126798   3.980   0.788  13.254 -0.6188  0.8169 -1.4780
 5054SOL    HW226799   4.090   0.752  13.152 -2.0746  2.7035 -1.2388
 5055SOL     OW26800   1.179   3.510   9.069  0.1913 -0.5792 -0.2762
 5055SOL    HW126801   1.162   3.506   9.163  2.5557 -1.8215  0.0942
 5055SOL    HW226802   1.098   3.550   9.037  0.5141  0.1070 -0.2333
 5056SOL     OW26803   1.320   2.334  17.530 -0.2111 -0.1464 -0.3837
 5056SOL    HW126804   1.329   2.404  17.465 -1.7994 -1.9668 -2.5419
 5056SOL    HW226805   1.380   2.270  17.492  0.2918  0.0789  0.0156
 5057SOL     OW26806   0.423   2.859   8.758  0.4896 -0.2991  0.6380
 5057SOL    HW126807   0.442   2.838   8.667  1.0316  0.7104  0.5214
 5057SOL    HW226808   0.448   2.779   8.804 -1.2531 -1.9483 -1.2781
 5058SOL     OW26809   1.458   1.518   4.531 -0.6244 -0.5175 -0.1094
 5058SOL    HW126810   1.488   1.586   4.591 -1.1855 -0.0396 -0.3640
 5058SOL    HW226811   1.492   1.541   4.445 -1.6749  0.9451 -0.1332
 5059SOL     OW26812   3.849   2.627   3.611  0.5449 -0.2224  0.5711
 5059SOL    HW126813   3.899   2.563   3.560  0.1047  0.0092 -0.1513
 5059SOL    HW226814   3.781   2.650   3.548  0.5993 -0.9458  0.2478
 5060SOL     OW26815   2.248   4.690   4.315 -0.3456 -0.4237  0.2639
 5060SOL    HW126816   2.260   4.722   4.405 -5.7360  2.1636  0.0310
 5060SOL    HW226817   2.326   4.635   4.304 -0.8769 -1.3668  1.1645
 5061SOL     OW26818   4.159   1.981  12.996  0.3537  0.5030  0.5079
 5061SOL    HW126819   4.144   2.075  13.007  0.6735  0.3587  2.1674
 5061SOL    HW226820   4.236   1.983  12.940 -0.5445  0.0018 -0.7368
 5062SOL     OW26821   3.693   1.195   9.608  0.5994  0.0961  0.0724
 5062SOL    HW126822   3.674   1.210   9.515 -2.1666  0.7276  0.7276
 5062SOL    HW226823   3.789   1.192   9.604  0.5470 -0.2047 -0.9285
 5063SOL     OW26824   1.036   0.552  11.273  0.0348 -0.0386  0.1755
 5063SOL    HW126825   1.013   0.497  11.349 -1.0550  0.1271 -0.0262
 5063SOL    HW226826   1.111   0.593  11.316 -1.3571  0.2346  2.3743
 5064SOL     OW26827   4.221   3.812  13.670  0.0947  0.0510 -0.3988
 5064SOL    HW126828   4.274   3.877  13.625  1.2029 -1.2757 -1.0334
 5064SOL    HW226829   4.185   3.874  13.732  0.8436 -0.1401  0.2195
 5065SOL     OW26830   1.613   2.418   9.607  0.5953  0.1158 -0.3877
 5065SOL    HW126831   1.609   2.344   9.668 -0.8403 -0.1373 -0.7847
 5065SOL    HW226832   1.684   2.390   9.550  1.9936  2.2908  0.3034
 5066SOL     OW26833   3.445   4.541   3.311  0.0611  0.1472 -0.2136
 5066SOL    HW126834   3.490   4.483   3.250 -0.1836 -1.4264  1.1143
 5066SOL    HW226835   3.377   4.485   3.349  1.2562 -1.6203 -0.7307
 5067SOL     OW26836   3.773   3.203  14.283 -0.6940 -0.2806 -0.1347
 5067SOL    HW126837   3.713   3.197  14.209 -1.8755 -1.5148  0.9342
 5067SOL    HW226838   3.854   3.237  14.244 -1.0973 -0.3026 -0.9860
 5068SOL     OW26839   2.425   3.238  17.628  0.2870  0.6536 -0.0554
 5068SOL    HW126840   2.477   3.318  17.629  1.4428 -0.0775 -1.1381
 5068SOL    HW226841   2.457   3.209  17.542  0.7176  0.0985  0.2931
 5069SOL     OW26842   2.946   2.420   6.860 -0.3967  0.4030 -0.7429
 5069SOL    HW126843   2.985   2.487   6.804 -1.5548  1.8911  0.2141
 5069SOL    HW226844   2.920   2.479   6.931  0.0599  1.0285 -1.0920
 5070SOL     OW26845   3.266   0.460   4.074 -0.1481 -0.3571 -0.0001
 5070SOL    HW126846   3.300   0.398   4.140 -1.5439  1.1006  2.0926
 5070SOL    HW226847   3.279   0.548   4.109  0.3917 -0.3888 -0.1218
 5071SOL     OW26848   0.345   1.215   5.113  0.9747 -0.1322  0.7326
 5071SOL    HW126849   0.382   1.296   5.077  1.5209 -0.5147  0.4414
 5071SOL    HW226850   0.393   1.212   5.196  2.7085 -2.9435 -0.3874
 5072SOL     OW26851   0.020   2.284   6.480 -0.0771  0.1906 -0.4433
 5072SOL    HW126852   0.001   2.190   6.481  1.4414 -0.1339 -0.9186
 5072SOL    HW226853   0.042   2.306   6.390 -2.4603  1.0533 -0.8120
 5073SOL     OW26854   1.539   1.707   1.944 -0.0131  0.3806  0.3722
 5073SOL    HW126855   1.492   1.768   1.887 -2.8090 -1.8384  0.2926
 5073SOL    HW226856   1.520   1.749   2.029  0.4720  0.9713  0.1897
 5074SOL     OW26857   3.878   2.070   3.894  0.1271 -0.0612 -0.1220
 5074SOL    HW126858   3.866   2.164   3.897 -1.7647 -0.3398  0.9687
 5074SOL    HW226859   3.973   2.062   3.886 -0.3916 -3.4443 -3.0042
 5075SOL     OW26860   0.947   4.686   6.163 -0.2398 -0.0360 -0.2608
 5075SOL    HW126861   0.919   4.654   6.077 -2.0704 -0.7148  0.5765
 5075SOL    HW226862   1.024   4.735   6.135 -0.8528  0.0236 -1.8355
 5076SOL     OW26863   1.768   1.615   4.495 -0.4238 -0.2185  0.4967
 5076SOL    HW126864   1.704   1.675   4.536  0.7789  0.0619  1.9610
 5076SOL    HW226865   1.781   1.665   4.415 -0.5523 -0.0248  0.5967
 5077SOL     OW26866   4.674   3.128   5.454 -0.3254  0.8932 -0.2098
 5077SOL    HW126867   4.654   3.220   5.471 -1.4266  0.8219 -1.1419
 5077SOL    HW226868   4.604   3.088   5.504 -0.7161  0.5696 -1.0298
 5078SOL     OW26869   2.498   1.370   9.343  0.3002 -0.0898  0.1372
 5078SOL    HW126870   2.408   1.378   9.373 -0.0810 -1.7495 -0.5734
 5078SOL    HW226871   2.516   1.461   9.320  1.9093 -0.1158  1.2750
 5079SOL     OW26872   1.377   3.492   7.729  1.1065  0.2383 -0.1137
 5079SOL    HW126873   1.411   3.538   7.652 -0.1179  0.6699 -0.4107
 5079SOL    HW226874   1.353   3.410   7.687  1.4488  0.7764 -1.3779
 5080SOL     OW26875   2.907   4.271  11.668 -0.3478  0.2299 -0.2416
 5080SOL    HW126876   2.937   4.362  11.665 -1.2397  0.5827  1.6137
 5080SOL    HW226877   2.827   4.276  11.616 -0.0695 -2.4755 -0.9200
 5081SOL     OW26878   0.971   3.536  15.404  0.5490  0.3857  0.0890
 5081SOL    HW126879   1.050   3.521  15.457  1.4129 -0.1417 -1.3180
 5081SOL    HW226880   0.997   3.608  15.346 -0.0326  0.5311  0.0155
 5082SOL     OW26881   3.126   1.786   0.374 -0.1460 -0.5359 -0.5470
 5082SOL    HW126882   3.090   1.837   0.447 -0.0282  0.5688 -1.2619
 5082SOL    HW226883   3.045   1.752   0.336 -0.8035 -0.5410  0.8532
 5083SOL     OW26884   4.248   0.972   3.099  0.1309 -0.1675  0.2879
 5083SOL    HW126885   4.216   0.966   3.189  0.9904  0.5221  0.6437
 5083SOL    HW226886   4.167   0.993   3.052  0.0673 -1.3631 -0.1229
 5084SOL     OW26887   2.766   3.727  17.458 -0.0010  0.0304  0.0598
 5084SOL    HW126888   2.789   3.807  17.410 -0.2854  1.0248  1.5956
 5084SOL    HW226889   2.697   3.754  17.518 -1.4463  1.6823 -2.3172
 5085SOL     OW26890   1.655   1.065   9.475  0.2230  0.1687 -0.6351
 5085SOL    HW126891   1.742   1.052   9.512 -0.3261  1.7381  1.2220
 5085SOL    HW226892   1.675   1.104   9.390  1.0908 -0.3380 -0.6644
 5086SOL     OW26893   1.320   2.715  16.714 -0.2481  0.3416  0.1569
 5086SOL    HW126894   1.239   2.763  16.733  2.6589  3.4805  4.4013
 5086SOL    HW226895   1.312   2.637  16.769  0.2670 -0.5608 -1.0404
 5087SOL     OW26896   3.659   3.269   5.468  0.4097  0.3318  0.6332
 5087SOL    HW126897   3.742   3.221   5.468 -0.0044 -0.3646 -1.5882
 5087SOL    HW226898   3.688   3.359   5.487  0.8413  0.6954 -1.8135
 5088SOL     OW26899   3.137   3.711   1.556 -0.3810  0.4268  0.3008
 5088SOL    HW126900   3.137   3.756   1.472 -0.9240 -3.0340 -1.5635
 5088SOL    HW226901   3.194   3.637   1.536  1.0770  1.8424 -0.8225
 5089SOL     OW26902   0.165   3.408   8.111 -0.2862  0.8092 -0.5525
 5089SOL    HW126903   0.152   3.502   8.121 -1.3136  0.5701  0.2965
 5089SOL    HW226904   0.257   3.422   8.089 -0.5228  1.3244 -1.2354
 5090SOL     OW26905   3.456   0.650   4.485 -0.1426  0.3472 -0.1441
 5090SOL    HW126906   3.404   0.691   4.416  0.2614  2.4308  0.7915
 5090SOL    HW226907   3.509   0.595   4.428  1.8846  0.9904  1.1439
 5091SOL     OW26908   2.163   0.169   5.565  0.0833  0.1960  0.1504
 5091SOL    HW126909   2.127   0.103   5.506 -0.3773  0.2817  0.3365
 5091SOL    HW226910   2.249   0.184   5.525  0.0909 -0.6919 -0.1785
 5092SOL     OW26911   1.323   0.289   3.624 -0.0072 -0.0902 -0.0795
 5092SOL    HW126912   1.381   0.233   3.676 -0.6803 -0.0200  0.7481
 5092SOL    HW226913   1.385   0.344   3.577  1.2891 -1.1074  0.4309
 5093SOL     OW26914   4.417   1.766   2.057  0.2333 -0.7588 -0.0731
 5093SOL    HW126915   4.341   1.763   2.115  0.0766  1.3723 -0.1693
 5093SOL    HW226916   4.378   1.748   1.972 -1.0902  0.5576  0.2713
 5094SOL     OW26917   1.544   1.327   1.295 -0.2927 -0.0400 -0.3974
 5094SOL    HW126918   1.453   1.302   1.277 -0.6725  1.2872 -0.3256
 5094SOL    HW226919   1.545   1.321   1.391  0.3778 -1.2144 -0.4868
 5095SOL     OW26920   0.186   1.346   5.335  0.4066 -0.0752  0.8200
 5095SOL    HW126921   0.198   1.331   5.242  2.0472  1.9575  0.7074
 5095SOL    HW226922   0.093   1.324   5.337  0.5123 -0.5488  0.4960
 5096SOL     OW26923   3.904   3.812   5.088  0.1204  0.1238 -0.0175
 5096SOL    HW126924   3.955   3.835   5.010 -1.3866  0.7393 -0.8134
 5096SOL    HW226925   3.919   3.891   5.139  0.2472 -1.4693  2.4189
 5097SOL     OW26926   3.533   2.297   2.665 -0.3985  0.1509 -0.0475
 5097SOL    HW126927   3.587   2.330   2.593 -0.7723 -0.0442 -0.4197
 5097SOL    HW226928   3.498   2.220   2.619  1.7934 -1.8554  1.6975
 5098SOL     OW26929   3.075   3.713  16.613  0.9222  0.6842 -0.1562
 5098SOL    HW126930   3.158   3.747  16.647  1.0485  0.5230 -0.3035
 5098SOL    HW226931   3.095   3.646  16.548  3.4984 -1.0551  2.3929
 5099SOL     OW26932   2.576   3.847   6.313  0.0228  0.1140  0.0988
 5099SOL    HW126933   2.531   3.905   6.252 -0.9457 -1.1167 -0.3578
 5099SOL    HW226934   2.615   3.911   6.373  1.7891  0.2654 -1.1941
 5100SOL     OW26935   1.873   0.875   1.756  0.3423  0.1119 -0.3359
 5100SOL    HW126936   1.883   0.868   1.851 -1.1806  0.2674 -0.1738
 5100SOL    HW226937   1.969   0.876   1.746  0.7329  1.9511  3.5307
 5101SOL     OW26938   2.605   1.929   7.914 -0.4374 -0.3012  0.0538
 5101SOL    HW126939   2.522   1.882   7.910  0.0619 -1.0749 -1.1049
 5101SOL    HW226940   2.591   1.984   7.991 -0.5383  0.2493 -0.3621
 5102SOL     OW26941   2.262   4.019   7.585  0.0209  0.1005  0.7796
 5102SOL    HW126942   2.288   3.927   7.577  0.3228  0.0254  2.5168
 5102SOL    HW226943   2.266   4.020   7.681 -0.5380  0.4542  0.7971
 5103SOL     OW26944   0.180   4.304  11.894  0.0645 -0.1503  0.9933
 5103SOL    HW126945   0.166   4.393  11.863  2.4552 -0.3154 -0.6120
 5103SOL    HW226946   0.092   4.296  11.930 -1.9254  0.4323 -3.6431
 5104SOL     OW26947   2.207   0.165   1.961  0.4961  0.1006  0.0554
 5104SOL    HW126948   2.190   0.168   1.867 -0.8012 -0.2325  0.2799
 5104SOL    HW226949   2.158   0.084   1.977  1.1295 -0.2548  0.2238
 5105SOL     OW26950   4.534   2.083   6.509 -0.3089 -0.1036 -0.8945
 5105SOL    HW126951   4.488   2.057   6.589 -1.7856 -0.7820 -1.9555
 5105SOL    HW226952   4.503   2.174   6.512 -0.4678 -0.1505 -1.1343
 5106SOL     OW26953   0.706   2.286   3.882 -0.2061 -0.5167  0.5503
 5106SOL    HW126954   0.681   2.207   3.833 -0.3083 -0.1016 -0.0682
 5106SOL    HW226955   0.655   2.268   3.961 -2.0004 -0.8826 -0.6940
 5107SOL     OW26956   3.681   2.473   7.656 -0.4733 -0.4478 -0.4082
 5107SOL    HW126957   3.587   2.460   7.663 -0.6007 -0.0606 -1.4203
 5107SOL    HW226958   3.693   2.378   7.657  2.1916 -0.1498 -5.0245
 5108SOL     OW26959   0.589   2.403   8.936  0.1770 -0.5992  0.4850
 5108SOL    HW126960   0.665   2.416   8.993  0.3384  0.6061  0.0025
 5108SOL    HW226961   0.532   2.353   8.994  0.7577  0.6633  2.1527
 5109SOL     OW26962   3.143   1.979   6.065  0.0694 -0.0351  0.0072
 5109SOL    HW126963   3.070   1.993   6.005 -0.8777  0.6029  1.3147
 5109SOL    HW226964   3.144   1.886   6.086  2.1494  0.3127  1.4194
 5110SOL     OW26965   3.454   0.255   6.335  0.1695 -0.0692 -0.7447
 5110SOL    HW126966   3.524   0.307   6.375  0.1777 -0.7097  0.0886
 5110SOL    HW226967   3.395   0.243   6.410  0.1564  0.2970 -0.6991
 5111SOL     OW26968   2.642   0.081   4.593 -0.2288 -0.1805  0.0551
 5111SOL    HW126969   2.677   0.008   4.645  1.6934  0.1604 -0.7649
 5111SOL    HW226970   2.727   0.113   4.562 -0.9695 -0.1206 -1.9007
 5112SOL     OW26971   2.859   4.223   6.006  0.0242  0.2318 -0.0375
 5112SOL    HW126972   2.843   4.167   5.931  1.0747  2.4729 -1.9647
 5112SOL    HW226973   2.825   4.165   6.074 -0.1383  2.2035  1.5628
 5113SOL     OW26974   3.848   2.018   2.894 -0.5741 -0.5079  0.1103
 5113SOL    HW126975   3.782   1.949   2.889 -0.2039 -0.7171 -2.0112
 5113SOL    HW226976   3.855   2.053   2.805 -0.9314 -0.0929  0.2529
 5114SOL     OW26977   4.386   0.057  12.608 -0.6467 -0.0835 -0.4711
 5114SOL    HW126978   4.418   4.729  12.545  1.2239  1.0234 -0.6653
 5114SOL    HW226979   4.328   4.735  12.657  1.6708 -2.6700 -0.8284
 5115SOL     OW26980   1.930   4.497   0.398 -0.6640  0.1573 -0.2895
 5115SOL    HW126981   1.877   4.520   0.475  1.3922 -0.7442  1.3952
 5115SOL    HW226982   2.008   4.469   0.445  0.7240  3.0184 -0.9025
 5116SOL     OW26983   3.300   3.353   9.249 -0.1255 -0.3788 -0.2301
 5116SOL    HW126984   3.352   3.276   9.225 -0.2142 -0.8347  1.0140
 5116SOL    HW226985   3.331   3.419   9.187  2.5517 -0.8570  0.6078
 5117SOL     OW26986   3.524   3.505  13.308  0.1599  0.0104  0.4608
 5117SOL    HW126987   3.470   3.449  13.252 -0.0540 -0.0986  0.7782
 5117SOL    HW226988   3.611   3.471  13.285 -0.5777 -0.9634 -0.9019
 5118SOL     OW26989   3.110   4.506  15.208 -0.2696 -0.5532 -0.5215
 5118SOL    HW126990   3.118   4.423  15.254  0.5433 -1.9631 -3.1850
 5118SOL    HW226991   3.202   4.529  15.190 -0.1501 -0.1614  0.6008
 5119SOL     OW26992   2.005   1.288   6.376  0.1573  0.4428 -0.2643
 5119SOL    HW126993   1.955   1.286   6.294  0.1847  0.1045 -0.2706
 5119SOL    HW226994   1.931   1.325   6.425 -1.3331 -3.6029  0.5227
 5120SOL     OW26995   1.031   0.671   6.220 -0.3270  0.2899  0.2471
 5120SOL    HW126996   1.103   0.655   6.159  0.4444 -1.0756  1.5433
 5120SOL    HW226997   1.071   0.741   6.272  0.4832 -0.2693  0.3670
 5121SOL     OW26998   4.104   0.559   6.752  0.4127 -0.0123  0.7068
 5121SOL    HW126999   4.124   0.548   6.660  2.4119  2.2192  0.8767
 5121SOL    HW227000   4.041   0.631   6.744  1.4742  0.7195 -0.9375
 5122SOL     OW27001   0.554   3.908   9.943 -0.1666 -0.1424  0.5787
 5122SOL    HW127002   0.496   3.982   9.924  1.2668  0.2747 -2.3040
 5122SOL    HW227003   0.516   3.841   9.886  1.3276  0.8696 -1.6510
 5123SOL     OW27004   3.182   1.489   7.037  0.0057 -0.6617  0.6351
 5123SOL    HW127005   3.189   1.429   7.111 -1.4480 -1.6783 -0.0720
 5123SOL    HW227006   3.105   1.539   7.064 -0.8400 -0.3480 -2.4211
 5124SOL     OW27007   2.437   1.788   9.317 -0.0730 -0.2221  0.1001
 5124SOL    HW127008   2.353   1.752   9.345 -1.4522  0.7941 -2.7890
 5124SOL    HW227009   2.409   1.876   9.291  0.1690 -0.2485 -0.2528
 5125SOL     OW27010   1.556   1.811   1.413  0.7839 -0.5585  0.2487
 5125SOL    HW127011   1.477   1.781   1.369  1.4015 -0.7620 -0.7120
 5125SOL    HW227012   1.576   1.732   1.464  1.7371 -0.0386  0.6828
 5126SOL     OW27013   2.518   0.811  14.462 -0.3945  0.2508  0.4243
 5126SOL    HW127014   2.520   0.837  14.555  0.0376 -3.1266  1.3688
 5126SOL    HW227015   2.560   0.885  14.419  1.8580 -0.4263  1.4145
 5127SOL     OW27016   1.548   3.129  16.091  0.0439 -0.1936 -0.1813
 5127SOL    HW127017   1.509   3.196  16.148 -1.5116 -2.1063  1.0030
 5127SOL    HW227018   1.470   3.085  16.056  2.1696 -2.2716 -2.2509
 5128SOL     OW27019   2.372   3.314   7.242 -0.2025  0.0343 -0.2233
 5128SOL    HW127020   2.456   3.336   7.283 -0.6943 -0.4063  1.0248
 5128SOL    HW227021   2.311   3.370   7.290 -2.1036 -2.1945  0.0051
 5129SOL     OW27022   2.965   1.014   4.831 -0.3026  0.1413 -0.0985
 5129SOL    HW127023   2.993   1.061   4.752 -1.0792 -0.4140 -0.6956
 5129SOL    HW227024   3.048   1.009   4.878 -0.4182 -1.7746 -0.1050
 5130SOL     OW27025   3.278   3.437  10.109 -0.1055 -0.0404  0.3200
 5130SOL    HW127026   3.217   3.416  10.180 -0.7754 -1.2655 -0.6237
 5130SOL    HW227027   3.280   3.351  10.068  1.6779  0.9545 -1.6884
 5131SOL     OW27028   0.254   0.414  17.022  0.1580  0.1183  0.2142
 5131SOL    HW127029   0.183   0.426  17.085  0.3498  0.5882  0.3442
 5131SOL    HW227030   0.263   0.505  16.993  0.4029  0.1061  0.2476
 5132SOL     OW27031   1.007   3.942  14.399  0.0677  0.3446  0.2553
 5132SOL    HW127032   0.929   3.992  14.424  0.8044  0.8170  1.6040
 5132SOL    HW227033   0.969   3.857  14.378 -0.6017  0.5270  0.7377
 5133SOL     OW27034   3.406   4.267   1.538  0.4410 -0.0930 -0.0301
 5133SOL    HW127035   3.489   4.248   1.493  0.4698  2.0081 -0.8881
 5133SOL    HW227036   3.379   4.179   1.563  0.1422  0.2654  0.8957
 5134SOL     OW27037   1.912   1.331   8.649 -0.0143  0.0823  0.5026
 5134SOL    HW127038   1.867   1.369   8.574  2.5901  2.7758  0.3431
 5134SOL    HW227039   1.987   1.284   8.614 -0.7921  0.1526 -1.2452
 5135SOL     OW27040   2.307   0.123  14.658 -0.0954  0.0710  0.3888
 5135SOL    HW127041   2.251   0.155  14.729  0.2523 -0.6989  1.0136
 5135SOL    HW227042   2.265   0.159  14.580 -0.6965 -1.9927 -0.2491
 5136SOL     OW27043   4.268   1.951  14.128  0.3481 -0.0031  0.0207
 5136SOL    HW127044   4.348   1.973  14.080 -1.9385  2.0647 -2.8611
 5136SOL    HW227045   4.221   1.899  14.061 -0.0860  0.3267  0.0708
 5137SOL     OW27046   3.496   2.769   3.190 -0.6984  0.0420  0.0254
 5137SOL    HW127047   3.522   2.788   3.280  0.7974  2.7607 -0.9569
 5137SOL    HW227048   3.469   2.853   3.153  2.0645  0.0976 -1.9090
 5138SOL     OW27049   4.308   3.390  15.035 -0.6625  0.1173  0.1491
 5138SOL    HW127050   4.351   3.419  15.115 -1.7661 -1.6485  1.3664
 5138SOL    HW227051   4.215   3.396  15.058 -0.5493  1.0962  0.3836
 5139SOL     OW27052   2.308   2.535   2.622 -0.0734  0.0289  0.4512
 5139SOL    HW127053   2.303   2.524   2.717  0.1810  0.9064  0.5704
 5139SOL    HW227054   2.261   2.454   2.601  2.0422 -0.8449 -0.9172
 5140SOL     OW27055   3.539   0.390  16.182  0.0844 -0.2517  0.1290
 5140SOL    HW127056   3.475   0.459  16.166 -2.3337 -1.7976  3.0979
 5140SOL    HW227057   3.558   0.367  16.091  0.4690  0.1311  0.1123
 5141SOL     OW27058   4.123   3.543  14.612  0.4860  0.3893 -0.2992
 5141SOL    HW127059   4.126   3.447  14.614 -0.9301  0.3873  2.3377
 5141SOL    HW227060   4.198   3.566  14.667  1.2457  1.3117 -1.7509
 5142SOL     OW27061   0.232   2.781   6.396 -0.3478  0.0066  0.4322
 5142SOL    HW127062   0.245   2.699   6.443 -0.4975 -0.7667 -0.8846
 5142SOL    HW227063   0.144   2.799   6.429  0.1895  1.7771  0.9261
 5143SOL     OW27064   1.597   2.736  11.291 -0.2624 -0.2628  0.0984
 5143SOL    HW127065   1.572   2.802  11.356 -0.7549 -1.3569  1.0177
 5143SOL    HW227066   1.679   2.703  11.328  0.3118  0.5276 -0.4547
 5144SOL     OW27067   1.797   0.344   8.065 -0.6983  0.6164 -0.3475
 5144SOL    HW127068   1.740   0.421   8.074  0.8775  1.9329 -1.5718
 5144SOL    HW227069   1.778   0.320   7.975 -0.9573 -0.8972  0.1115
 5145SOL     OW27070   2.869   0.060   3.241  0.1436 -0.2648  0.0759
 5145SOL    HW127071   2.939   0.040   3.303 -0.0477  0.9668  0.6880
 5145SOL    HW227072   2.791   0.057   3.297 -0.3878  0.6214 -0.6166
 5146SOL     OW27073   1.862   0.249   3.192 -0.0992  0.1489  0.0530
 5146SOL    HW127074   1.829   0.336   3.213 -2.5896 -0.6437 -0.5724
 5146SOL    HW227075   1.906   0.277   3.113 -1.7319  0.7555 -0.6352
 5147SOL     OW27076   3.091   4.352  15.541  0.2590 -0.2634  0.2426
 5147SOL    HW127077   3.127   4.324  15.457  0.5636 -0.0603  0.3031
 5147SOL    HW227078   3.004   4.386  15.521  0.9778  1.4226 -0.0517
 5148SOL     OW27079   2.485   4.691  14.859 -0.6552 -0.2151 -0.3159
 5148SOL    HW127080   2.573   4.715  14.829 -0.1797 -0.1843  1.1318
 5148SOL    HW227081   2.439   4.712  14.777 -1.6414 -2.1107 -0.2397
 5149SOL     OW27082   0.016   3.920   3.973  0.4247  0.1290 -0.3337
 5149SOL    HW127083   0.044   4.011   3.981 -2.2052  1.0475 -1.6022
 5149SOL    HW227084   4.669   3.930   3.928  0.2000 -0.2593  0.0002
 5150SOL     OW27085   0.558   1.655  16.346 -0.1227 -0.0108  0.1492
 5150SOL    HW127086   0.646   1.692  16.353 -0.2073  0.2071  0.0602
 5150SOL    HW227087   0.531   1.676  16.257  0.5105 -0.6128 -0.1811
 5151SOL     OW27088   4.068   2.855   2.414  0.5190  0.0148 -0.3672
 5151SOL    HW127089   4.037   2.821   2.330  0.6753 -0.6083 -0.1770
 5151SOL    HW227090   4.031   2.792   2.476  2.6870 -0.4132  0.5052
 5152SOL     OW27091   1.779   1.594   0.064 -0.0590 -0.4986  0.3744
 5152SOL    HW127092   1.873   1.606   0.053 -0.3951  1.0442 -0.7192
 5152SOL    HW227093   1.762   1.521   0.004  1.4562  0.5965 -1.3831
 5153SOL     OW27094   4.500   2.273  14.180  0.8324  0.4618  0.1158
 5153SOL    HW127095   4.477   2.285  14.088 -0.2328 -1.2360  0.1593
 5153SOL    HW227096   4.413   2.287  14.217  0.5563  1.2858 -0.8645
 5154SOL     OW27097   1.811   2.454  16.715  0.2736  0.2040  0.6318
 5154SOL    HW127098   1.772   2.531  16.756 -0.3347  0.5729 -0.6776
 5154SOL    HW227099   1.758   2.443  16.637  3.7540 -0.3688 -1.6441
 5155SOL     OW27100   4.022   3.829  12.869 -0.6650 -0.3157 -0.3201
 5155SOL    HW127101   4.031   3.856  12.960  1.5475 -2.0775 -0.0058
 5155SOL    HW227102   3.960   3.891  12.832  0.3237  1.4555  1.0190
 5156SOL     OW27103   4.561   1.287  11.096 -0.4106  0.3266 -0.0805
 5156SOL    HW127104   4.527   1.355  11.155 -0.3946  0.5627 -0.3392
 5156SOL    HW227105   4.654   1.294  11.114 -0.5371  0.4530  0.5147
 5157SOL     OW27106   3.459   2.281   2.127  0.1000 -0.7960 -0.0864
 5157SOL    HW127107   3.536   2.296   2.182 -0.2981  3.5455 -0.6476
 5157SOL    HW227108   3.446   2.362   2.078  2.3063  0.6041  1.6357
 5158SOL     OW27109   3.101   3.864   1.792  0.9658  0.4580 -0.1948
 5158SOL    HW127110   3.148   3.785   1.767 -0.8177 -0.2589 -1.2183
 5158SOL    HW227111   3.164   3.927   1.756  0.8948  1.3930  1.3109
 5159SOL     OW27112   0.343   3.717  17.297  0.8418  0.3704 -0.1743
 5159SOL    HW127113   0.251   3.744  17.298  1.0161  1.1011 -2.6831
 5159SOL    HW227114   0.347   3.729  17.202  1.0936  0.7097 -0.1230
 5160SOL     OW27115   0.199   1.797  10.670 -0.1438  0.2410  0.3897
 5160SOL    HW127116   0.179   1.759  10.585  3.5387 -0.1574 -0.2994
 5160SOL    HW227117   0.118   1.846  10.685 -1.6002 -1.7536 -1.0494
 5161SOL     OW27118   1.285   1.488   6.554 -0.2541 -0.3371  0.1283
 5161SOL    HW127119   1.314   1.416   6.498 -0.2563  0.5072 -0.9778
 5161SOL    HW227120   1.258   1.438   6.630  0.6699 -1.1288 -0.0678
 5162SOL     OW27121   0.392   4.677   0.171 -0.0995 -0.0521 -0.5461
 5162SOL    HW127122   0.431   4.681   0.258 -0.8029 -1.2915 -0.1692
 5162SOL    HW227123   0.317   4.734   0.188  1.8741  1.5442  2.5796
 5163SOL     OW27124   0.565   3.073  13.659  0.2208 -0.4469 -0.0851
 5163SOL    HW127125   0.569   3.066  13.754 -1.9786  1.6811  0.1518
 5163SOL    HW227126   0.540   3.164  13.643  1.7815  0.1674  0.9366
 5164SOL     OW27127   1.169   2.983   6.694  0.5857 -0.5424 -0.0558
 5164SOL    HW127128   1.179   3.073   6.664 -1.7169 -0.3465 -0.2149
 5164SOL    HW227129   1.177   2.932   6.613  0.5524 -1.3207  0.4258
 5165SOL     OW27130   0.653   3.813   7.925  0.3688 -0.4796  0.4672
 5165SOL    HW127131   0.665   3.907   7.908  1.3333 -0.5420  0.8054
 5165SOL    HW227132   0.591   3.811   7.998  0.9100  0.5692  0.9565
 5166SOL     OW27133   2.051   2.048   1.625 -0.0993 -0.2988  0.0160
 5166SOL    HW127134   2.069   2.048   1.531  0.5851 -2.3712  0.1515
 5166SOL    HW227135   1.978   1.986   1.623 -0.2966 -0.0573 -0.2597
 5167SOL     OW27136   4.047   3.056   9.016  0.7163  0.0714 -0.0222
 5167SOL    HW127137   3.999   2.984   9.057  0.4373 -0.1052 -0.6595
 5167SOL    HW227138   4.127   3.046   9.068  1.0718  0.4851 -0.4893
 5168SOL     OW27139   3.216   4.320   5.250  0.3194 -0.1479 -0.2416
 5168SOL    HW127140   3.293   4.294   5.299  0.2181 -1.6758 -0.8880
 5168SOL    HW227141   3.256   4.361   5.173 -0.5850 -0.6759 -0.9918
 5169SOL     OW27142   1.588   4.162   0.570  0.2837 -0.1658  0.1945
 5169SOL    HW127143   1.511   4.111   0.593 -1.3425  1.7006 -1.1279
 5169SOL    HW227144   1.559   4.205   0.489 -2.2166 -2.1249  0.0546
 5170SOL     OW27145   2.780   1.336  13.764 -0.2811  0.2339  0.6457
 5170SOL    HW127146   2.827   1.420  13.765  1.1306 -0.5223 -0.8874
 5170SOL    HW227147   2.693   1.374  13.751 -0.2512 -0.2321 -1.0042
 5171SOL     OW27148   1.654   1.018   0.734  0.6836 -0.2845 -0.8274
 5171SOL    HW127149   1.586   1.049   0.675 -0.7175 -3.6456 -1.0119
 5171SOL    HW227150   1.613   0.955   0.794  5.2456 -2.0983  0.3857
 5172SOL     OW27151   3.117   2.562   5.132  0.0371 -0.8251  0.5057
 5172SOL    HW127152   3.112   2.500   5.059  0.0756 -0.8156  0.4956
 5172SOL    HW227153   3.209   2.551   5.155  0.2551 -2.6180 -1.2128
 5173SOL     OW27154   3.270   1.029   5.403  0.0075 -0.1970  0.5221
 5173SOL    HW127155   3.217   1.046   5.481  0.6861  2.2998  0.4470
 5173SOL    HW227156   3.251   1.099   5.341 -2.5961 -0.8358  0.6164
 5174SOL     OW27157   2.584   0.855   5.797  0.1979 -0.4088 -0.4008
 5174SOL    HW127158   2.630   0.841   5.880 -1.9561 -0.0190  0.8572
 5174SOL    HW227159   2.628   0.794   5.738  0.7881  0.0982 -0.4883
 5175SOL     OW27160   0.760   2.713   6.670 -0.3603 -0.1063  0.4525
 5175SOL    HW127161   0.730   2.638   6.620 -1.5847  1.9121 -1.8303
 5175SOL    HW227162   0.713   2.784   6.626  0.9840 -0.5382 -1.6711
 5176SOL     OW27163   3.604   2.430   3.016 -0.3137  0.1575  0.2861
 5176SOL    HW127164   3.624   2.524   3.010 -0.5567  0.1657 -0.4532
 5176SOL    HW227165   3.692   2.394   3.027 -0.2346  0.1545 -0.3461
 5177SOL     OW27166   3.383   3.068   2.230 -0.4603  0.2249 -0.4918
 5177SOL    HW127167   3.344   2.998   2.283 -0.0832  0.4095  0.0288
 5177SOL    HW227168   3.357   3.147   2.277  0.7023 -0.5073  1.3983
 5178SOL     OW27169   2.052   3.187   3.586  0.0905  0.4235 -0.2384
 5178SOL    HW127170   2.057   3.280   3.563 -0.0248  0.4468 -0.1691
 5178SOL    HW227171   2.145   3.168   3.575 -0.3734 -2.1900  0.2826
 5179SOL     OW27172   1.107   3.739   5.708  0.0359  0.4110  0.2250
 5179SOL    HW127173   1.159   3.808   5.750  1.8127 -1.6484  1.4269
 5179SOL    HW227174   1.148   3.756   5.623  0.0174  1.2627  0.3884
 5180SOL     OW27175   3.125   2.859   7.502  0.9159 -0.3965 -0.0266
 5180SOL    HW127176   3.100   2.766   7.499  0.1054 -0.1873  0.2047
 5180SOL    HW227177   3.041   2.896   7.527 -0.3724 -1.4661 -2.6477
 5181SOL     OW27178   3.076   0.879  14.339  0.8804 -0.9298  0.1704
 5181SOL    HW127179   3.067   0.841  14.251  0.6631  0.0372 -0.2287
 5181SOL    HW227180   3.080   0.797  14.388 -0.8885 -0.9645  0.2794
 5182SOL     OW27181   0.343   4.272   7.264 -0.6909  0.1177 -0.0878
 5182SOL    HW127182   0.254   4.245   7.237  0.6145 -2.1897 -2.1066
 5182SOL    HW227183   0.390   4.209   7.209  1.0474  1.7223 -0.4350
 5183SOL     OW27184   2.311   0.562  12.301 -0.1147 -0.0464  0.2138
 5183SOL    HW127185   2.362   0.550  12.221 -1.8626  0.3687 -0.9621
 5183SOL    HW227186   2.231   0.608  12.275  2.2029  3.1965 -1.1684
 5184SOL     OW27187   3.202   3.395  16.647  0.5411 -0.1356  1.0874
 5184SOL    HW127188   3.159   3.407  16.731 -0.1740  0.1396  0.6805
 5184SOL    HW227189   3.293   3.392  16.676  0.2928 -0.7779  1.7755
 5185SOL     OW27190   0.480   0.922   2.604  0.1071  0.3695  0.6570
 5185SOL    HW127191   0.542   0.953   2.538 -2.3207  1.7877 -0.9478
 5185SOL    HW227192   0.521   0.944   2.688  0.2476 -2.3024  1.3095
 5186SOL     OW27193   3.953   0.328   7.804 -0.2340 -0.4868  0.1040
 5186SOL    HW127194   4.033   0.276   7.792 -0.3384 -1.0289  1.8013
 5186SOL    HW227195   3.892   0.306   7.734 -0.6024 -1.8659  0.8705
 5187SOL     OW27196   4.480   0.919   8.352  0.1169  0.1566 -0.1467
 5187SOL    HW127197   4.429   0.960   8.283 -1.5152 -1.1047  0.3278
 5187SOL    HW227198   4.412   0.880   8.406  0.7697  0.5350  0.9535
 5188SOL     OW27199   3.931   3.508   8.347  0.1412 -0.0020  0.0577
 5188SOL    HW127200   4.001   3.552   8.395 -0.7876  0.0733  1.3565
 5188SOL    HW227201   3.871   3.484   8.418 -0.1963 -1.7035 -0.8134
 5189SOL     OW27202   3.495   4.611  10.784  0.3673  0.1469  0.1949
 5189SOL    HW127203   3.494   4.611  10.880 -0.3535 -0.2703  0.1825
 5189SOL    HW227204   3.433   4.539  10.769  0.3981  0.4833 -1.5407
 5190SOL     OW27205   1.210   1.241   8.513 -0.3135 -0.4300  0.2152
 5190SOL    HW127206   1.198   1.198   8.428 -2.0263 -1.3300  0.9151
 5190SOL    HW227207   1.176   1.328   8.491  0.4753 -1.0242 -3.4218
 5191SOL     OW27208   4.280   3.507  10.195  0.0426  0.4724 -0.0992
 5191SOL    HW127209   4.293   3.450  10.120 -1.4028  0.7099 -0.5447
 5191SOL    HW227210   4.284   3.587  10.143 -1.1109  0.7194  0.1899
 5192SOL     OW27211   2.193   0.070   7.215  0.1247 -0.1777 -0.0362
 5192SOL    HW127212   2.151   0.081   7.300 -0.5489 -0.1075 -0.3803
 5192SOL    HW227213   2.228   4.718   7.215 -0.0288 -0.2380  0.2985
 5193SOL     OW27214   2.833   0.376  13.755 -0.8914 -0.1675 -0.3703
 5193SOL    HW127215   2.895   0.408  13.690 -0.3776  1.2664  0.8206
 5193SOL    HW227216   2.887   0.302  13.782 -2.0801 -0.3435  1.5240
 5194SOL     OW27217   4.622   1.631   7.589 -0.1725  0.2345 -0.2942
 5194SOL    HW127218   4.557   1.583   7.641  0.8419 -0.9625 -0.1442
 5194SOL    HW227219   4.603   1.721   7.615 -2.7475 -0.5907  0.6623
 5195SOL     OW27220   2.353   1.810  12.425  0.1076 -0.1382  0.5551
 5195SOL    HW127221   2.292   1.869  12.469 -0.0667  0.0997 -0.0102
 5195SOL    HW227222   2.299   1.731  12.422 -1.2284  0.8643 -2.2198
 5196SOL     OW27223   3.366   2.898   7.656 -0.7447 -0.0301  0.0157
 5196SOL    HW127224   3.280   2.906   7.615 -1.2120  1.2111  1.2712
 5196SOL    HW227225   3.371   2.968   7.720  1.2902  0.8416 -1.0852
 5197SOL     OW27226   1.921   3.063   2.233 -0.8494 -0.3201  0.2684
 5197SOL    HW127227   1.986   3.116   2.278 -1.4903 -0.9834  1.9545
 5197SOL    HW227228   1.884   3.125   2.169 -2.4206 -0.6297  0.8687
 5198SOL     OW27229   1.519   0.987   1.374  0.2604 -0.8186 -0.0854
 5198SOL    HW127230   1.430   0.977   1.408 -0.3170  0.3076 -1.2394
 5198SOL    HW227231   1.575   0.966   1.449  0.2036  0.8965  0.4385
 5199SOL     OW27232   3.847   0.273  17.671 -0.1729 -0.3305  0.1325
 5199SOL    HW127233   3.794   0.352  17.662  2.1025  1.2145  0.5356
 5199SOL    HW227234   3.855   0.241  17.581 -0.1379  0.5526 -0.1733
 5200SOL     OW27235   3.059   3.193   2.437 -0.4280 -0.0411 -0.3837
 5200SOL    HW127236   3.096   3.259   2.379  1.6162 -1.4268 -0.6477
 5200SOL    HW227237   3.143   3.155   2.463 -0.2577 -0.1771 -1.1503
 5201SOL     OW27238   4.730   2.965   8.525  0.5089  0.5830  0.2582
 5201SOL    HW127239   0.004   3.009   8.610  2.1719  0.7686 -0.0511
 5201SOL    HW227240   0.067   2.903   8.527  0.2713  0.3115  0.8721
 5202SOL     OW27241   2.955   4.564   3.640  0.1756  0.0816  0.1012
 5202SOL    HW127242   2.952   4.534   3.731 -1.2823  0.6876  0.2699
 5202SOL    HW227243   3.023   4.631   3.640  0.9894 -0.7540  0.2757
 5203SOL     OW27244   0.310   2.368   6.289 -0.2517 -0.4043  0.2003
 5203SOL    HW127245   0.310   2.419   6.371 -0.9137 -0.1224  0.0254
 5203SOL    HW227246   0.245   2.405   6.230 -1.9738 -1.6458  1.3350
 5204SOL     OW27247   1.450   1.116   6.955  0.6921 -0.1180 -0.1062
 5204SOL    HW127248   1.376   1.071   6.997  0.1674  1.0213  0.1783
 5204SOL    HW227249   1.473   1.061   6.880  0.9173 -1.4492  0.9334
 5205SOL     OW27250   0.701   4.510  16.187  0.3949 -0.1371  0.0734
 5205SOL    HW127251   0.635   4.502  16.256  1.2828  1.3080  1.0929
 5205SOL    HW227252   0.714   4.605  16.190 -0.8868  0.0526 -0.5467
 5206SOL     OW27253   2.160   3.412   8.159 -0.3425 -0.0569 -0.0044
 5206SOL    HW127254   2.096   3.394   8.090 -0.8657  1.2090  0.1531
 5206SOL    HW227255   2.181   3.320   8.173  0.6241 -0.2239 -2.6015
 5207SOL     OW27256   3.853   2.324   2.778 -0.0045 -0.2127 -0.4255
 5207SOL    HW127257   3.814   2.346   2.863 -0.7472  4.8622 -2.0420
 5207SOL    HW227258   3.942   2.356   2.789  0.2320 -1.1713  0.4401
 5208SOL     OW27259   2.508   0.823   5.471  1.0382  0.3972 -0.4747
 5208SOL    HW127260   2.528   0.734   5.501 -0.5275  0.2631  0.1601
 5208SOL    HW227261   2.569   0.845   5.401 -0.2925 -0.7138 -1.9835
 5209SOL     OW27262   2.538   0.982   4.657 -0.4005  0.5623 -0.0200
 5209SOL    HW127263   2.483   1.003   4.733  0.1862 -1.3524  0.9368
 5209SOL    HW227264   2.535   0.886   4.657  1.7398  0.4976  0.5497
 5210SOL     OW27265   1.894   1.987   4.099 -0.1178  0.3747 -0.3649
 5210SOL    HW127266   1.978   1.942   4.097 -1.2791 -1.7767 -1.3253
 5210SOL    HW227267   1.867   1.981   4.190  0.2052  1.9356 -0.1704
 5211SOL     OW27268   1.772   4.575  15.318  0.2474  0.0162 -0.1390
 5211SOL    HW127269   1.699   4.608  15.370  0.1952 -0.3880  0.0420
 5211SOL    HW227270   1.756   4.483  15.339 -2.3550  0.1895 -1.2889
 5212SOL     OW27271   2.137   4.720   9.277 -0.1432 -0.0643 -0.8302
 5212SOL    HW127272   2.230   4.697   9.283 -0.3232 -0.7598 -0.7801
 5212SOL    HW227273   2.115   4.704   9.185 -1.0864 -0.6351 -0.5087
 5213SOL     OW27274   0.527   2.565   7.903  0.0212 -0.1745 -0.1113
 5213SOL    HW127275   0.603   2.606   7.944 -0.7855 -0.3004  1.4902
 5213SOL    HW227276   0.569   2.549   7.818  1.0507  2.3092 -0.0406
 5214SOL     OW27277   4.320   0.752  17.565 -0.1302 -0.1819  0.0318
 5214SOL    HW127278   4.384   0.697  17.610 -0.2746 -1.3333 -1.1672
 5214SOL    HW227279   4.372   0.833  17.561  1.4834 -1.2748 -0.9949
 5215SOL     OW27280   3.929   3.230   8.500 -0.6029 -0.1589  0.3123
 5215SOL    HW127281   3.954   3.139   8.480  0.3798 -0.0311  0.9421
 5215SOL    HW227282   4.007   3.266   8.458 -1.0598 -1.9780 -2.0900
 5216SOL     OW27283   3.177   3.666   6.104  0.0567  0.3394  0.3667
 5216SOL    HW127284   3.252   3.672   6.044  0.2476  0.7114  0.6387
 5216SOL    HW227285   3.205   3.725   6.174 -0.3513  0.4209  0.4608
 5217SOL     OW27286   4.411   3.554  15.681 -0.5036  0.0586 -0.1954
 5217SOL    HW127287   4.348   3.559  15.609 -0.0922 -0.3956 -0.5847
 5217SOL    HW227288   4.493   3.569  15.634  1.1134 -2.3585  1.8773
 5218SOL     OW27289   3.648   3.143   0.422 -0.8478 -0.3637  0.2219
 5218SOL    HW127290   3.628   3.225   0.377  0.1149 -0.4445 -0.3531
 5218SOL    HW227291   3.647   3.183   0.509  2.1157  0.5540 -0.1584
 5219SOL     OW27292   2.387   3.898   4.537 -0.3071 -0.3012 -0.5321
 5219SOL    HW127293   2.299   3.904   4.575 -0.6010 -0.6670 -1.1491
 5219SOL    HW227294   2.385   3.818   4.485  1.4958 -0.0908 -0.9343
 5220SOL     OW27295   4.499   4.481   8.006 -0.3507 -0.3608 -0.1965
 5220SOL    HW127296   4.578   4.500   7.954 -1.1474 -0.8971 -1.5946
 5220SOL    HW227297   4.492   4.386   8.004  1.1276 -0.4930  1.1415
 5221SOL     OW27298   0.783   1.830  16.625  0.6184  0.2910  0.1645
 5221SOL    HW127299   0.833   1.764  16.673  1.2493  0.9415  0.4124
 5221SOL    HW227300   0.719   1.784  16.572 -0.1383 -0.5359  1.7906
 5222SOL     OW27301   2.368   1.815   8.692  0.2561 -0.3106  0.2524
 5222SOL    HW127302   2.302   1.804   8.624  0.0533  2.1735  0.0235
 5222SOL    HW227303   2.366   1.907   8.719 -0.7521  0.2071 -1.5368
 5223SOL     OW27304   4.314   4.451   4.870  0.2843 -0.3095 -0.1672
 5223SOL    HW127305   4.331   4.401   4.949 -0.6047  0.0910  0.2711
 5223SOL    HW227306   4.384   4.415   4.816  0.8263 -1.1533  1.1081
 5224SOL     OW27307   2.633   1.137   9.355  0.4743  0.8267 -0.1826
 5224SOL    HW127308   2.582   1.216   9.340  0.8542  1.7658  3.4430
 5224SOL    HW227309   2.567   1.070   9.339  0.0640  1.8558 -2.7067
 5225SOL     OW27310   3.043   0.333   3.920  0.2181 -0.5723  0.2617
 5225SOL    HW127311   3.002   0.418   3.900 -0.7310 -1.3924 -1.2661
 5225SOL    HW227312   3.105   0.371   3.982  0.3387 -1.2150  0.5233
 5226SOL     OW27313   4.035   3.392   9.036  0.1394 -0.0835  0.1921
 5226SOL    HW127314   4.005   3.323   8.977  0.4357 -2.6376  3.0164
 5226SOL    HW227315   4.128   3.385   9.014  0.1765  0.4793  0.1787
 5227SOL     OW27316   3.384   4.377   7.469 -0.3601  0.5197 -0.0630
 5227SOL    HW127317   3.444   4.310   7.437  0.3638  0.6776  0.9551
 5227SOL    HW227318   3.343   4.407   7.388  1.4283  0.0038 -1.1623
 5228SOL     OW27319   2.275   1.080   7.255  0.0051  0.0476  0.1772
 5228SOL    HW127320   2.247   1.055   7.167 -2.0072  0.3887  0.7142
 5228SOL    HW227321   2.188   1.096   7.294 -0.0443  1.9747 -0.7155
 5229SOL     OW27322   3.536   3.800  15.822  0.3719  0.3244  0.1042
 5229SOL    HW127323   3.559   3.714  15.858  3.4378 -0.4114 -3.6426
 5229SOL    HW227324   3.547   3.853  15.901  0.7153  0.6968 -0.1980
 5230SOL     OW27325   1.907   0.168   8.250 -0.2620  0.6528 -0.5119
 5230SOL    HW127326   1.948   0.099   8.197  0.8411  0.6163  0.3736
 5230SOL    HW227327   1.870   0.232   8.189  1.3006  1.1683 -0.9142
 5231SOL     OW27328   1.028   3.165   8.065 -0.5161  0.0373 -0.0072
 5231SOL    HW127329   1.047   3.147   7.973 -0.9802  0.5209 -0.2002
 5231SOL    HW227330   1.036   3.074   8.093  1.4460  0.3233  0.3836
 5232SOL     OW27331   2.614   3.349   7.682  0.7315 -0.3193 -0.3433
 5232SOL    HW127332   2.704   3.336   7.711  1.3570  1.1035 -1.6355
 5232SOL    HW227333   2.567   3.339   7.765 -0.4135  0.3756 -0.9125
 5233SOL     OW27334   0.360   3.557   6.311  0.1893 -0.3760  0.2704
 5233SOL    HW127335   0.349   3.467   6.280  0.2594 -0.0179 -0.7954
 5233SOL    HW227336   0.418   3.558   6.387 -0.5192  1.8899  0.7994
 5234SOL     OW27337   3.294   3.185   5.179  0.4043 -0.0404  0.0285
 5234SOL    HW127338   3.292   3.095   5.213 -2.7179 -0.1601 -0.4499
 5234SOL    HW227339   3.247   3.178   5.095  5.2855  0.2039 -2.7536
 5235SOL     OW27340   3.411   3.964   3.382 -0.3793  0.3871  0.1559
 5235SOL    HW127341   3.412   4.059   3.397  0.7949  0.5136 -0.7859
 5235SOL    HW227342   3.493   3.945   3.337 -0.6621  2.3584 -1.2202
 5236SOL     OW27343   1.874   2.571   5.277 -0.2438 -0.5847 -0.1652
 5236SOL    HW127344   1.930   2.579   5.200 -2.1849 -1.2043 -1.6438
 5236SOL    HW227345   1.789   2.601   5.243  0.1077 -0.8407 -1.2645
 5237SOL     OW27346   4.397   1.994  10.370 -0.0315  0.2154  0.1170
 5237SOL    HW127347   4.311   2.013  10.333 -0.9967 -1.6314  1.3744
 5237SOL    HW227348   4.379   2.004  10.464 -0.2995  1.3018 -0.0564
 5238SOL     OW27349   3.090   0.120   6.837 -0.1899  0.6999 -0.3737
 5238SOL    HW127350   3.132   0.194   6.879 -1.2344  1.6486 -0.9955
 5238SOL    HW227351   3.038   0.168   6.772  0.7242 -0.9715 -2.3381
 5239SOL     OW27352   3.735   3.815   8.759  0.3353 -0.5411 -0.2312
 5239SOL    HW127353   3.825   3.831   8.728  0.5050  1.9531  1.5568
 5239SOL    HW227354   3.761   3.774   8.842 -0.6255  0.0722  0.3694
 5240SOL     OW27355   3.696   1.501  10.254 -0.2690 -0.1330 -0.7933
 5240SOL    HW127356   3.637   1.572  10.230  2.9503  2.7111 -0.2432
 5240SOL    HW227357   3.641   1.434  10.213  0.0363 -2.1159  2.0423
 5241SOL     OW27358   0.434   2.367   7.057  0.0505  0.2914 -0.0631
 5241SOL    HW127359   0.377   2.441   7.034  0.8716  1.0012  0.1620
 5241SOL    HW227360   0.374   2.295   7.040  0.5772 -0.6490  1.9588
 5242SOL     OW27361   1.265   2.699  17.017  0.6449 -0.6459 -0.1945
 5242SOL    HW127362   1.171   2.686  17.004  0.3225 -0.6486  2.1682
 5242SOL    HW227363   1.265   2.736  17.105  0.6255  0.4083 -0.6333
 5243SOL     OW27364   1.440   3.688   7.254  0.0837 -1.0354 -0.1239
 5243SOL    HW127365   1.533   3.675   7.234  0.4970 -0.2459  1.2517
 5243SOL    HW227366   1.403   3.758   7.200  1.3065 -0.6372 -0.4507
 5244SOL     OW27367   1.379   0.559   3.576  0.6203 -0.6412  0.3644
 5244SOL    HW127368   1.431   0.634   3.606 -0.3096  1.1482 -2.5524
 5244SOL    HW227369   1.313   0.615   3.536 -1.3098 -2.1216  1.5020
 5245SOL     OW27370   1.743   4.095   5.679 -0.3963 -0.2885 -0.3593
 5245SOL    HW127371   1.739   4.008   5.719 -0.8409  0.4993  1.2815
 5245SOL    HW227372   1.785   4.148   5.746 -1.6068 -1.2834  1.1753
 5246SOL     OW27373   1.722   4.674  15.055 -0.8083 -0.5350 -0.4320
 5246SOL    HW127374   1.733   4.636  15.143 -1.2140  2.3307  0.8554
 5246SOL    HW227375   1.708   4.588  15.014 -0.4840 -0.0867 -1.4793
 5247SOL     OW27376   2.511   1.411   2.346 -0.2633 -0.2422 -0.1299
 5247SOL    HW127377   2.517   1.444   2.256 -2.0276  0.2270 -0.0784
 5247SOL    HW227378   2.426   1.444   2.373 -0.1796 -1.2328  1.3119
 5248SOL     OW27379   3.700   1.302  11.004 -0.4536  0.2602  0.4421
 5248SOL    HW127380   3.676   1.316  10.913  0.5663 -0.6974  0.0135
 5248SOL    HW227381   3.761   1.228  10.994  0.5434  1.3183 -1.3345
 5249SOL     OW27382   1.424   1.985   9.778  0.0551 -0.0594  0.1297
 5249SOL    HW127383   1.371   1.906   9.771 -1.0347  0.5942  0.9950
 5249SOL    HW227384   1.480   1.962   9.852 -2.0720 -0.5757  1.5727
 5250SOL     OW27385   0.164   3.351   5.180  0.2596 -0.3021  0.3253
 5250SOL    HW127386   0.208   3.414   5.237  0.9347  2.0699 -2.8394
 5250SOL    HW227387   0.192   3.266   5.215 -3.7311 -0.3294  3.4550
 5251SOL     OW27388   4.332   2.234  12.652  0.7955 -0.7015  0.2645
 5251SOL    HW127389   4.347   2.317  12.607  2.8998 -1.6382 -0.7546
 5251SOL    HW227390   4.342   2.265  12.742 -1.2127 -3.6083  1.5191
 5252SOL     OW27391   3.793   4.265   3.421  0.8466  0.3801 -0.1380
 5252SOL    HW127392   3.773   4.213   3.343 -1.4058 -0.1686  0.7885
 5252SOL    HW227393   3.851   4.337   3.395  0.2729  0.1458 -2.0475
 5253SOL     OW27394   3.927   3.449   6.833  0.0315 -0.4127 -0.2734
 5253SOL    HW127395   4.002   3.505   6.814  1.3855 -1.9958  0.3027
 5253SOL    HW227396   3.905   3.486   6.919  1.0284  0.5087 -0.4146
 5254SOL     OW27397   0.574   2.081   3.377  0.2577  0.1898 -0.5126
 5254SOL    HW127398   0.631   2.081   3.454  0.1972  1.1346 -0.4675
 5254SOL    HW227399   0.618   2.146   3.322 -0.9605 -0.0008 -1.7079
 5255SOL     OW27400   3.107   4.009   5.898 -0.0851  0.5339 -0.7685
 5255SOL    HW127401   3.024   3.971   5.925  0.6884  0.5220  1.5507
 5255SOL    HW227402   3.125   3.938   5.836  1.8241  0.6580 -0.3788
 5256SOL     OW27403   0.205   0.285   9.694  0.5963 -0.0141  0.5395
 5256SOL    HW127404   0.295   0.299   9.666  0.6796  1.2646  1.4554
 5256SOL    HW227405   0.183   0.203   9.650  2.5815  0.7367 -1.8172
 5257SOL     OW27406   0.056   3.838   6.922  0.2245  0.0912 -0.5792
 5257SOL    HW127407   4.704   3.871   6.933  0.3445  0.8991 -2.0062
 5257SOL    HW227408   0.065   3.829   6.827  3.5256  0.3716 -0.3110
 5258SOL     OW27409   4.367   1.673   3.240 -0.1065  0.7224 -0.8037
 5258SOL    HW127410   4.353   1.603   3.177  3.0385 -1.6485  1.1787
 5258SOL    HW227411   4.295   1.664   3.302  1.0913 -1.1636  0.3002
 5259SOL     OW27412   1.954   1.900  15.800 -0.1598  0.3890 -0.0333
 5259SOL    HW127413   1.999   1.829  15.847 -1.3249 -1.1616 -1.2351
 5259SOL    HW227414   1.905   1.923  15.878  2.1219  1.3004  1.1433
 5260SOL     OW27415   4.301   0.016   6.420  0.1311 -0.1013 -0.0296
 5260SOL    HW127416   4.268   0.069   6.493  0.2290  1.5605 -1.2102
 5260SOL    HW227417   4.239   0.036   6.351  1.4383  0.4515 -1.0321
 5261SOL     OW27418   0.494   0.063   9.336 -0.0975  0.3865 -0.6914
 5261SOL    HW127419   0.581   0.058   9.296 -0.1897 -2.3356 -0.5106
 5261SOL    HW227420   0.459   0.129   9.275 -0.3864 -0.0041 -0.9510
 5262SOL     OW27421   2.227   3.101   8.174  0.1659  0.2207 -0.8069
 5262SOL    HW127422   2.193   3.059   8.253  0.8306  2.0317  0.4399
 5262SOL    HW227423   2.317   3.068   8.178  0.2912  0.1895 -4.0956
 5263SOL     OW27424   2.452   4.569   7.929 -0.4452  0.0327 -0.3289
 5263SOL    HW127425   2.419   4.578   8.019  0.1830 -2.0211  0.1240
 5263SOL    HW227426   2.404   4.490   7.905 -1.1886  0.6181 -0.7509
 5264SOL     OW27427   1.948   3.951   3.205  0.2724 -0.4612  0.0602
 5264SOL    HW127428   1.924   3.862   3.180  0.1035 -0.4831  0.3061
 5264SOL    HW227429   1.873   3.998   3.168  1.1256  1.3798  0.6760
 5265SOL     OW27430   3.959   3.070  14.429  0.1354  0.4304 -0.8351
 5265SOL    HW127431   3.926   2.981  14.415 -0.0881  0.3906 -0.0826
 5265SOL    HW227432   3.894   3.118  14.378  1.6597  1.8934 -1.4215
 5266SOL     OW27433   3.023   2.163   3.045  0.0613 -0.0812 -0.6692
 5266SOL    HW127434   3.044   2.245   2.999  1.3841  0.2650  0.5506
 5266SOL    HW227435   3.071   2.107   2.984 -1.2133 -2.9481  0.9769
 5267SOL     OW27436   0.917   1.584  16.652 -0.2962  0.1319  0.1838
 5267SOL    HW127437   0.942   1.501  16.693 -2.2299 -1.4303 -1.8050
 5267SOL    HW227438   0.867   1.549  16.579 -0.4962 -1.4085  1.0771
 5268SOL     OW27439   2.104   3.274   6.940 -0.1704  0.5829  0.1565
 5268SOL    HW127440   2.099   3.356   6.990  5.0696  0.1065  1.4086
 5268SOL    HW227441   2.085   3.208   7.007 -0.3389  0.3044 -0.1632
 5269SOL     OW27442   3.796   1.024   8.861  0.0258 -0.2755  0.4894
 5269SOL    HW127443   3.740   0.953   8.894  0.5062 -0.0542  1.7696
 5269SOL    HW227444   3.766   1.040   8.771  0.0887 -0.5365  0.4211
 5270SOL     OW27445   0.086   0.874   2.060 -0.3273 -0.5108 -0.0552
 5270SOL    HW127446   0.072   0.953   2.112  0.6761  0.3073 -0.9973
 5270SOL    HW227447   0.155   0.909   2.002  0.8248 -0.6692  1.2250
 5271SOL     OW27448   4.056   0.684  17.643 -0.1169 -0.2566 -0.6714
 5271SOL    HW127449   4.150   0.693  17.626  0.1154  0.6421  1.1385
 5271SOL    HW227450   4.020   0.762  17.684  0.3952 -1.0653  1.3270
 5272SOL     OW27451   1.037   2.708  16.867 -0.3658 -0.2910  0.1818
 5272SOL    HW127452   0.951   2.696  16.908 -0.6159  1.6488  0.2132
 5272SOL    HW227453   1.031   2.800  16.840 -0.3360 -1.0006 -2.1825
 5273SOL     OW27454   4.078   2.790   4.606 -0.2094  0.6249  0.5298
 5273SOL    HW127455   4.121   2.875   4.594  1.2743  0.0201  1.5289
 5273SOL    HW227456   4.049   2.773   4.516  1.3810 -2.0980  0.5181
 5274SOL     OW27457   1.198   3.746   2.358  0.2122  0.2059  0.6813
 5274SOL    HW127458   1.164   3.834   2.338 -1.2612  0.0142  2.2711
 5274SOL    HW227459   1.292   3.765   2.359  0.2320 -0.0092  2.8002
 5275SOL     OW27460   2.426   0.892   2.022 -0.1592 -0.2399  0.2059
 5275SOL    HW127461   2.434   0.986   2.005  0.2793 -0.0789  1.3171
 5275SOL    HW227462   2.499   0.858   1.969  2.0519  1.1729  2.3050
 5276SOL     OW27463   4.696   2.152   5.593 -0.3696  0.1135  0.2114
 5276SOL    HW127464   0.041   2.106   5.614  0.6553  2.6099  1.7249
 5276SOL    HW227465   4.717   2.239   5.627 -0.6006 -0.7863  2.6414
 5277SOL     OW27466   3.720   3.540   8.568 -0.3743  0.1466  0.2152
 5277SOL    HW127467   3.645   3.536   8.627 -0.6039 -1.7562 -0.2244
 5277SOL    HW227468   3.786   3.514   8.633 -0.7664  3.2818  1.8761
 5278SOL     OW27469   2.523   3.283   5.160  0.2755  0.0402 -0.2612
 5278SOL    HW127470   2.573   3.204   5.145  0.2949 -0.4597  2.3905
 5278SOL    HW227471   2.470   3.271   5.081  0.1144 -1.3649  0.0670
 5279SOL     OW27472   1.047   3.676   4.835  0.8360  0.4440  0.0795
 5279SOL    HW127473   1.118   3.645   4.778  2.9719  0.2768  2.8191
 5279SOL    HW227474   1.057   3.769   4.813 -3.1838  1.0193  0.7872
 5280SOL     OW27475   0.876   4.601   0.612 -0.5299 -0.3214  0.3391
 5280SOL    HW127476   0.852   4.539   0.543 -1.1297  2.3644 -1.8401
 5280SOL    HW227477   0.802   4.662   0.616 -1.6459 -1.4738 -2.4231
 5281SOL     OW27478   3.785   2.937   3.889  0.2769  0.0862 -0.4655
 5281SOL    HW127479   3.738   2.856   3.869  0.9019 -0.2356 -0.6219
 5281SOL    HW227480   3.748   2.959   3.975 -0.4469 -1.0978 -0.4803
 5282SOL     OW27481   3.710   0.648   8.198 -0.0651  0.5465  0.3518
 5282SOL    HW127482   3.626   0.674   8.235 -0.7383  0.3231 -1.0063
 5282SOL    HW227483   3.771   0.665   8.269  1.0719  0.5261 -0.6250
 5283SOL     OW27484   1.802   0.124   2.108  0.1751  0.2948  0.0616
 5283SOL    HW127485   1.790   0.030   2.116 -2.3173  0.5261 -0.9182
 5283SOL    HW227486   1.864   0.137   2.036  0.7331 -1.7242  0.1709
 5284SOL     OW27487   0.657   0.596   8.692  0.1022 -0.3108 -0.1675
 5284SOL    HW127488   0.574   0.553   8.711 -0.0496 -0.9271 -2.2028
 5284SOL    HW227489   0.645   0.677   8.743  0.6836  0.3592 -1.0861
 5285SOL     OW27490   3.593   0.256   3.812 -0.3403  0.2719  0.3194
 5285SOL    HW127491   3.504   0.284   3.833 -0.8763 -0.6201 -0.8253
 5285SOL    HW227492   3.621   0.337   3.769 -0.1947  1.1699  2.0968
 5286SOL     OW27493   0.825   0.639   7.824 -0.3125  0.1767  0.0461
 5286SOL    HW127494   0.920   0.652   7.823 -0.3345  0.6282  2.5836
 5286SOL    HW227495   0.797   0.689   7.901 -0.3618 -0.6639  0.5820
 5287SOL     OW27496   3.797   0.377   8.544  0.1927 -0.1872 -0.2761
 5287SOL    HW127497   3.812   0.292   8.504  0.1921 -0.4722  0.3369
 5287SOL    HW227498   3.851   0.440   8.496  1.8949 -1.0734  0.4706
 5288SOL     OW27499   4.514   1.913   5.408  0.2648 -0.3085  0.7080
 5288SOL    HW127500   4.432   1.896   5.362 -0.2536  2.0410  0.7680
 5288SOL    HW227501   4.558   1.831   5.387 -0.2680 -0.6047  0.7691
 5289SOL     OW27502   2.741   2.057   8.687 -0.4236  0.4020  0.1086
 5289SOL    HW127503   2.807   1.994   8.659  0.2421  0.5445  1.3377
 5289SOL    HW227504   2.709   2.017   8.768  1.3628 -1.6215 -0.1818
 5290SOL     OW27505   4.398   0.466   4.430  0.6587  1.0365 -0.2676
 5290SOL    HW127506   4.346   0.444   4.352 -1.6857  2.2623  0.9368
 5290SOL    HW227507   4.341   0.533   4.466 -1.5616 -1.5209  1.0259
 5291SOL     OW27508   3.535   2.764  11.225  0.0820  0.2948 -0.0760
 5291SOL    HW127509   3.485   2.777  11.306 -2.3616  0.3636 -1.6217
 5291SOL    HW227510   3.488   2.833  11.179 -0.6459 -0.2947 -0.2066
 5292SOL     OW27511   2.588   1.841   6.035 -0.4146  0.4546 -0.2121
 5292SOL    HW127512   2.571   1.814   6.125  3.1224 -0.8009  0.0870
 5292SOL    HW227513   2.645   1.918   6.037 -1.2040  1.0909 -2.3797
 5293SOL     OW27514   3.350   3.733  13.679 -0.0108  0.0001 -0.1850
 5293SOL    HW127515   3.420   3.795  13.698 -2.2997  2.6037 -0.1628
 5293SOL    HW227516   3.272   3.770  13.721  0.1671  0.1393  0.0218
 5294SOL     OW27517   0.198   3.966   5.417  0.1456 -0.2869 -0.8557
 5294SOL    HW127518   0.179   4.059   5.409 -1.9481 -0.7458 -1.1933
 5294SOL    HW227519   0.190   3.941   5.509  0.1174  0.4913 -0.6447
 5295SOL     OW27520   2.608   4.582  13.564  0.3354  0.3537  0.0014
 5295SOL    HW127521   2.515   4.587  13.584 -0.3503  0.0445 -3.1208
 5295SOL    HW227522   2.630   4.555  13.653  3.5131  0.8806 -0.6098
 5296SOL     OW27523   2.427   2.626   5.954  0.0331 -1.4635 -0.4648
 5296SOL    HW127524   2.423   2.680   5.876  0.5739 -0.3897  0.2438
 5296SOL    HW227525   2.431   2.537   5.919  2.1180 -0.6215 -2.3253
 5297SOL     OW27526   4.132   3.022  13.548  0.0509 -0.2958  0.1312
 5297SOL    HW127527   4.045   3.061  13.547 -0.5255 -1.5388  2.6624
 5297SOL    HW227528   4.116   2.935  13.509 -2.8989  0.6708 -0.7816
 5298SOL     OW27529   0.712   3.031   6.982 -0.0167  0.1087  0.1266
 5298SOL    HW127530   0.634   3.015   6.930  0.2022  0.7193 -0.3975
 5298SOL    HW227531   0.778   3.053   6.916  1.3926  0.7550  1.7402
 5299SOL     OW27532   3.607   0.334   7.990  0.4940  0.7074  0.2485
 5299SOL    HW127533   3.558   0.266   7.945 -0.1876  1.8820 -0.7976
 5299SOL    HW227534   3.640   0.381   7.913 -1.0645  0.1534 -0.7440
 5300SOL     OW27535   0.990   1.941  16.422 -0.2038 -0.8438 -0.0228
 5300SOL    HW127536   0.965   2.030  16.396  0.1618 -0.8734 -0.4713
 5300SOL    HW227537   0.913   1.923  16.476 -0.2149  2.7706  1.1606
 5301SOL     OW27538   3.685   2.676   3.392 -0.1364 -0.2232 -0.1971
 5301SOL    HW127539   3.741   2.608   3.354 -0.2311 -0.0390 -0.6632
 5301SOL    HW227540   3.612   2.625   3.429 -1.1613  0.4345 -1.3224
 5302SOL     OW27541   1.507   0.710   4.897 -0.3876  0.0624 -0.0339
 5302SOL    HW127542   1.473   0.628   4.933 -0.3837 -0.0640 -0.3251
 5302SOL    HW227543   1.597   0.693   4.925 -1.6880 -2.7322  2.4205
 5303SOL     OW27544   3.763   2.663   9.586 -0.4127 -0.2813  0.6886
 5303SOL    HW127545   3.795   2.674   9.496  0.1090 -0.4925  0.8479
 5303SOL    HW227546   3.803   2.743   9.619 -0.1889 -0.0578 -0.1155
 5304SOL     OW27547   4.252   3.839   9.320  0.2420 -1.0916 -0.0036
 5304SOL    HW127548   4.337   3.797   9.311  0.9027  0.3156 -0.4497
 5304SOL    HW227549   4.203   3.774   9.371  0.4959 -0.1817  1.4124
 5305SOL     OW27550   0.354   4.410  13.198  0.1351 -0.4361  0.1949
 5305SOL    HW127551   0.405   4.380  13.123 -0.3732 -0.4557 -0.1442
 5305SOL    HW227552   0.414   4.469  13.243  0.4937 -1.2017  0.7179
 5306SOL     OW27553   1.648   2.422   8.323 -0.3018  0.4766 -0.4113
 5306SOL    HW127554   1.714   2.353   8.315 -1.4989 -0.4374 -2.5129
 5306SOL    HW227555   1.625   2.417   8.415  0.0736 -0.8017 -0.3890
 5307SOL     OW27556   0.037   3.226   6.675 -0.5433  0.0598 -0.5497
 5307SOL    HW127557   0.128   3.221   6.705 -0.7021 -0.7793 -0.2158
 5307SOL    HW227558   0.052   3.199   6.584  0.9536  0.5336 -0.4504
 5308SOL     OW27559   1.499   0.372  14.241  0.0690  0.0175 -0.1911
 5308SOL    HW127560   1.500   0.435  14.169 -0.8399 -0.7486 -0.8680
 5308SOL    HW227561   1.584   0.400  14.275 -0.0257  0.4296 -0.3054
 5309SOL     OW27562   4.483   2.736   9.097 -0.0625  0.0543 -0.3790
 5309SOL    HW127563   4.518   2.748   9.185 -1.8369  0.8927  0.2079
 5309SOL    HW227564   4.537   2.795   9.044 -0.4172 -1.2460 -2.2001
 5310SOL     OW27565   0.138   2.337   4.948 -0.1718 -0.4354 -0.0139
 5310SOL    HW127566   0.091   2.268   4.996 -2.0034  0.8061  0.0016
 5310SOL    HW227567   0.078   2.351   4.875  3.5154 -1.4629 -3.1916
 5311SOL     OW27568   4.005   2.107  12.771  0.1062  0.2313 -0.3787
 5311SOL    HW127569   4.031   2.162  12.846  0.7425  0.9905 -1.1510
 5311SOL    HW227570   4.007   2.019  12.807  0.4211  0.6557  0.6511
 5312SOL     OW27571   0.013   4.144   2.876 -0.2614  0.6137  0.2147
 5312SOL    HW127572   0.013   4.069   2.816 -0.0061  0.3036  0.6041
 5312SOL    HW227573   4.655   4.162   2.875 -0.5183 -0.7613  0.2429
 5313SOL     OW27574   3.834   2.963   4.343  0.3287  0.0900  0.2540
 5313SOL    HW127575   3.875   2.878   4.357  0.1310 -0.1016 -0.3314
 5313SOL    HW227576   3.912   3.015   4.324 -0.4333  0.6562 -1.4018
 5314SOL     OW27577   3.326   2.013  13.355 -0.1887  0.3576  0.3480
 5314SOL    HW127578   3.252   2.063  13.319 -0.2438 -1.0851 -1.5860
 5314SOL    HW227579   3.305   2.030  13.447 -2.0830  2.2569 -0.4350
 5315SOL     OW27580   1.774   2.837   4.387  0.8305  0.7720 -0.4971
 5315SOL    HW127581   1.744   2.920   4.350  1.4970  1.5711  0.7661
 5315SOL    HW227582   1.732   2.844   4.473  2.3769 -3.0190  0.5609
 5316SOL     OW27583   1.805   4.054   8.235 -0.0089  0.1770 -0.0718
 5316SOL    HW127584   1.724   4.008   8.212  2.3113 -3.2899 -1.4056
 5316SOL    HW227585   1.825   4.007   8.316  0.7704  1.3274  0.4034
 5317SOL     OW27586   0.734   2.658   7.506  0.4314 -0.4769 -0.0912
 5317SOL    HW127587   0.728   2.616   7.420  1.2080 -1.3525  0.2857
 5317SOL    HW227588   0.671   2.602   7.551 -0.0035 -0.1614 -0.3057
 5318SOL     OW27589   3.932   2.026   5.028 -0.0607  0.2194  0.6130
 5318SOL    HW127590   3.971   1.949   4.989  1.1352  1.8912 -1.4702
 5318SOL    HW227591   3.867   1.973   5.074 -1.8325 -0.0857 -2.2202
 5319SOL     OW27592   0.478   3.244   8.297  0.5697 -0.3361  0.4844
 5319SOL    HW127593   0.518   3.246   8.210 -0.4433  0.6705  0.0363
 5319SOL    HW227594   0.522   3.320   8.334  0.6334 -0.1595  0.0405
 5320SOL     OW27595   4.089   0.907   3.981 -0.0395 -0.5499 -0.3211
 5320SOL    HW127596   4.158   0.966   3.948  0.6932 -0.3619  1.5706
 5320SOL    HW227597   4.066   0.856   3.904 -0.2653  0.2919 -0.8158
 5321SOL     OW27598   2.175   0.411   7.668  0.3341 -0.9879 -1.0570
 5321SOL    HW127599   2.079   0.406   7.674  0.3762 -0.6108 -0.0814
 5321SOL    HW227600   2.183   0.498   7.629  0.9322 -0.0707  1.1403
 5322SOL     OW27601   1.090   4.529   8.089  0.0781 -0.2742 -0.4166
 5322SOL    HW127602   1.137   4.489   8.162  1.0195  2.4551  0.4593
 5322SOL    HW227603   1.073   4.620   8.113  0.1039 -0.0868 -1.1004
 5323SOL     OW27604   0.374   3.972   7.837 -0.2508 -0.0017 -0.3216
 5323SOL    HW127605   0.443   3.926   7.789 -1.1392  0.8218 -2.4096
 5323SOL    HW227606   0.340   4.041   7.779 -0.6854  1.4619  1.6783
 5324SOL     OW27607   4.569   4.360   8.829 -0.9093  0.0810 -0.4926
 5324SOL    HW127608   4.575   4.373   8.923  1.4868  1.3764 -0.8199
 5324SOL    HW227609   4.476   4.380   8.815 -0.9405  0.0463 -0.3295
 5325SOL     OW27610   3.674   0.588   5.033 -0.1139  0.3509  0.3740
 5325SOL    HW127611   3.629   0.521   5.084 -1.5079  1.2995  0.3963
 5325SOL    HW227612   3.764   0.557   5.041 -0.2980 -0.2247  0.1910
 5326SOL     OW27613   1.082   4.570   6.766  0.1969 -0.5057  0.3070
 5326SOL    HW127614   1.013   4.636   6.767  1.1889  0.5408 -0.5530
 5326SOL    HW227615   1.035   4.495   6.802 -0.5095 -0.4723 -0.5608
 5327SOL     OW27616   0.482   2.806   5.576 -0.2894 -0.0965 -0.3748
 5327SOL    HW127617   0.496   2.739   5.644  1.0904 -0.0395 -0.6181
 5327SOL    HW227618   0.386   2.802   5.571 -0.3357 -0.4231  0.7226
 5328SOL     OW27619   3.634   2.398  13.037  0.3228  0.2316  0.0060
 5328SOL    HW127620   3.552   2.442  13.014  0.0228  0.9228  2.3332
 5328SOL    HW227621   3.649   2.353  12.954 -0.2954  2.3332 -1.2555
 5329SOL     OW27622   2.880   1.710   0.325 -0.0618 -0.3956 -0.4021
 5329SOL    HW127623   2.822   1.633   0.317 -0.1057 -0.5795  1.7554
 5329SOL    HW227624   2.830   1.790   0.341  0.7070  0.1765 -0.8757
 5330SOL     OW27625   4.483   3.812   6.671  0.2326  0.2879  0.1854
 5330SOL    HW127626   4.438   3.860   6.741  1.8958  2.9588 -0.5475
 5330SOL    HW227627   4.467   3.722   6.698 -0.8665  0.1035 -1.1257
 5331SOL     OW27628   1.389   3.716   4.895 -0.5813  0.1639  0.2506
 5331SOL    HW127629   1.325   3.680   4.833 -3.5191 -0.3815  3.5602
 5331SOL    HW227630   1.461   3.707   4.833  1.0103 -1.6140  2.3597
 5332SOL     OW27631   2.862   1.776   8.776  0.2710 -0.1388  0.0197
 5332SOL    HW127632   2.947   1.771   8.820  1.6300  0.2418 -2.5588
 5332SOL    HW227633   2.885   1.764   8.684 -0.1149  0.4857 -0.1535
 5333SOL     OW27634   1.539   2.655   9.702 -0.0384  0.0792  0.4030
 5333SOL    HW127635   1.543   2.567   9.665 -0.2067  0.3200 -0.1871
 5333SOL    HW227636   1.621   2.689   9.667  0.0644  0.0764  0.6429
 5334SOL     OW27637   0.852   4.704   6.756 -0.3099  1.0456 -0.4180
 5334SOL    HW127638   0.775   4.696   6.699 -1.5928  3.3394  0.9560
 5334SOL    HW227639   0.815   4.736   6.838 -0.6043 -2.5909  0.8670
 5335SOL     OW27640   0.928   1.705   4.607 -0.5003  0.0484  0.3998
 5335SOL    HW127641   0.955   1.750   4.686 -0.2319  1.3792 -0.4517
 5335SOL    HW227642   0.962   1.618   4.627  2.2668  0.4136 -2.6990
 5336SOL     OW27643   4.447   0.895  10.628 -0.0422 -0.3041 -0.0325
 5336SOL    HW127644   4.494   0.964  10.580 -0.9832 -0.0771 -0.6195
 5336SOL    HW227645   4.505   0.818  10.632  0.0893 -0.1752  0.4994
 5337SOL     OW27646   1.577   4.479  10.943  0.1679  0.1145 -0.2996
 5337SOL    HW127647   1.636   4.415  10.982 -0.1130  0.8098  1.2872
 5337SOL    HW227648   1.632   4.555  10.924 -0.5073  1.1556  1.9038
 5338SOL     OW27649   4.035   3.323   4.413  0.3815 -0.5053  0.1583
 5338SOL    HW127650   4.085   3.333   4.493 -0.9879 -1.6071  1.1523
 5338SOL    HW227651   4.087   3.264   4.358 -0.1767 -0.8357 -0.0129
 5339SOL     OW27652   3.867   2.484   7.915 -0.3165 -0.3414 -0.0886
 5339SOL    HW127653   3.922   2.550   7.957 -0.0701  0.2346 -1.3380
 5339SOL    HW227654   3.880   2.509   7.824 -0.3916 -1.4870 -0.4159
 5340SOL     OW27655   1.430   0.818   9.052  0.4562 -0.5660 -0.2162
 5340SOL    HW127656   1.398   0.774   9.131  0.9817  3.5298  2.2826
 5340SOL    HW227657   1.387   0.769   8.982 -1.1227  1.7483 -0.8519
 5341SOL     OW27658   2.134   1.821   7.257 -0.1174  0.2519 -0.2863
 5341SOL    HW127659   2.107   1.913   7.251  0.3881  0.3738 -0.7272
 5341SOL    HW227660   2.076   1.770   7.200 -1.4637  1.1127  0.3018
 5342SOL     OW27661   2.055   4.683  15.366  0.7830 -0.6677  0.5537
 5342SOL    HW127662   2.047   4.736  15.445 -0.5949 -0.1729  0.0777
 5342SOL    HW227663   1.963   4.669  15.342  0.6643  0.1650  0.5271
 5343SOL     OW27664   1.855   3.291  15.049 -0.2052 -0.3659  0.2592
 5343SOL    HW127665   1.863   3.200  15.079  0.4139  0.0434  1.3168
 5343SOL    HW227666   1.762   3.304  15.070 -0.0465  0.5773  0.3614
 5344SOL     OW27667   2.475   2.269  11.522 -0.5029  0.5989 -0.1559
 5344SOL    HW127668   2.463   2.225  11.438  1.5197  0.7541 -0.5087
 5344SOL    HW227669   2.462   2.359  11.490 -0.8593  0.4651 -0.3846
 5345SOL     OW27670   4.100   0.258   5.017  0.6429 -0.0106  0.4305
 5345SOL    HW127671   4.049   0.204   5.077  1.1140 -2.3098 -1.2217
 5345SOL    HW227672   4.185   0.251   5.060  0.7068  0.9160  0.4527
 5346SOL     OW27673   2.253   4.340  12.138 -0.7879 -0.6268  1.1462
 5346SOL    HW127674   2.220   4.409  12.081 -2.6518 -1.2274  1.4870
 5346SOL    HW227675   2.314   4.292  12.082 -0.9633  1.8385 -1.1663
 5347SOL     OW27676   2.144   2.587   5.591  0.0671  0.3521 -0.0563
 5347SOL    HW127677   2.189   2.581   5.676  0.6556 -2.1080 -0.5615
 5347SOL    HW227678   2.205   2.625   5.528  1.3817  0.8702  1.5183
 5348SOL     OW27679   0.217   4.151   3.526  0.2867  0.4113 -0.0357
 5348SOL    HW127680   0.126   4.167   3.553  0.6959  1.4582  0.7302
 5348SOL    HW227681   0.230   4.059   3.547  1.2358  0.8361  1.2491
 5349SOL     OW27682   0.256   0.241   4.855  0.1028  1.2400 -0.3170
 5349SOL    HW127683   0.306   0.161   4.839  2.2939  1.6474  4.4133
 5349SOL    HW227684   0.286   0.311   4.797  0.6325 -1.7194 -3.5756
 5350SOL     OW27685   1.500   4.472   8.225  0.4500  0.2419  0.4495
 5350SOL    HW127686   1.544   4.540   8.278 -1.0641  0.4174  1.4871
 5350SOL    HW227687   1.423   4.466   8.282  0.7030  3.0230  1.1169
 5351SOL     OW27688   2.922   2.753   8.069 -0.3025  0.2556  0.3616
 5351SOL    HW127689   2.911   2.834   8.119 -1.8389  0.9563 -1.1093
 5351SOL    HW227690   2.878   2.778   7.988 -0.1616 -2.7235 -0.6268
 5352SOL     OW27691   1.026   1.660   7.863 -0.2338  0.1117  0.0855
 5352SOL    HW127692   0.975   1.662   7.943  0.6930 -1.1031  0.7014
 5352SOL    HW227693   0.972   1.709   7.802  0.2013  2.7105  1.8091
 5353SOL     OW27694   0.055   1.404  10.256  0.1719  0.1238  0.8496
 5353SOL    HW127695   0.104   1.336  10.302 -0.1582 -1.0586 -0.5464
 5353SOL    HW227696   4.710   1.393  10.306 -0.0978 -0.2775  0.3256
 5354SOL     OW27697   1.733   2.412  11.452  0.2459 -0.8650 -0.3138
 5354SOL    HW127698   1.799   2.437  11.516  0.3174 -0.3174 -0.6018
 5354SOL    HW227699   1.773   2.455  11.376 -1.5052 -3.8394 -2.9534
 5355SOL     OW27700   4.233   4.088   7.538 -0.2984 -0.2325  0.5151
 5355SOL    HW127701   4.155   4.065   7.589  0.6994  0.7881  2.5155
 5355SOL    HW227702   4.217   4.026   7.467 -1.0653 -2.2626  2.4825
 5356SOL     OW27703   1.786   3.283   2.151 -0.4876  0.1380  0.1175
 5356SOL    HW127704   1.744   3.313   2.232 -1.2135 -0.7446  0.0622
 5356SOL    HW227705   1.829   3.364   2.125  0.0587 -0.5854 -1.2216
 5357SOL     OW27706   1.744   2.768   2.943  0.1207  0.3743 -0.6555
 5357SOL    HW127707   1.704   2.840   2.991  0.5962 -0.3586  0.8488
 5357SOL    HW227708   1.834   2.772   2.975 -1.3361 -2.7903  3.9203
 5358SOL     OW27709   3.751   1.166  16.598 -0.4379 -0.6642  0.2279
 5358SOL    HW127710   3.764   1.157  16.692 -2.1491  0.0907  0.5314
 5358SOL    HW227711   3.809   1.094  16.570 -0.8551 -1.2820  0.9650
 5359SOL     OW27712   0.968   4.535   7.591  0.6582 -0.2631  0.1878
 5359SOL    HW127713   1.005   4.461   7.542 -0.7738  0.2776 -1.7220
 5359SOL    HW227714   0.968   4.512   7.683 -1.4910 -1.0430 -0.0197
 5360SOL     OW27715   2.289   4.347   7.430  0.0534  0.0760 -0.3149
 5360SOL    HW127716   2.246   4.263   7.445 -0.1451  0.4250  1.0696
 5360SOL    HW227717   2.224   4.406   7.469  2.2270  1.9745  0.4231
 5361SOL     OW27718   3.503   0.949   8.413 -0.0153 -0.2396 -0.6011
 5361SOL    HW127719   3.588   0.987   8.435 -1.0990  1.0968  1.2551
 5361SOL    HW227720   3.477   0.913   8.498  1.4067  0.7810  0.2514
 5362SOL     OW27721   4.557   4.204   0.236 -0.2359  0.1153 -0.2021
 5362SOL    HW127722   4.487   4.227   0.175 -1.5893  1.4442  1.8370
 5362SOL    HW227723   4.554   4.109   0.227  0.6170  0.0387  0.3310
 5363SOL     OW27724   3.050   3.572   7.115 -0.3302 -0.0643 -0.4838
 5363SOL    HW127725   3.055   3.578   7.019 -1.3873 -2.6788 -0.6955
 5363SOL    HW227726   2.962   3.539   7.131 -0.2580  1.0150  2.0741
 5364SOL     OW27727   4.256   1.863   2.311  0.1119  0.2531 -0.0234
 5364SOL    HW127728   4.180   1.853   2.253  0.8490  1.4169 -1.2065
 5364SOL    HW227729   4.251   1.957   2.327 -1.2523  0.3576 -1.0913
 5365SOL     OW27730   2.689   2.675   5.462  0.0557  0.1690 -0.5032
 5365SOL    HW127731   2.721   2.762   5.437  3.6411 -0.6084  1.5078
 5365SOL    HW227732   2.756   2.616   5.429  0.2579 -0.2676  0.6739
 5366SOL     OW27733   0.409   3.970   0.180  0.1999 -0.0554  0.5008
 5366SOL    HW127734   0.455   3.961   0.097 -0.6831 -0.8531  0.0929
 5366SOL    HW227735   0.359   3.889   0.173 -0.4190  0.2810  0.9783
 5367SOL     OW27736   1.425   0.168   7.022 -0.2974 -0.4919 -0.1445
 5367SOL    HW127737   1.405   0.099   7.085 -0.3083 -1.1798 -0.8886
 5367SOL    HW227738   1.371   0.141   6.947 -0.1495 -1.8968  0.2480
 5368SOL     OW27739   3.096   0.728   8.132  0.5780 -0.1890 -0.0306
 5368SOL    HW127740   3.042   0.649   8.143  0.4888 -0.1775 -0.3860
 5368SOL    HW227741   3.028   0.795   8.120  1.3896  0.4001 -1.3680
 5369SOL     OW27742   2.499   2.567   8.262 -0.0154 -0.0971  0.2050
 5369SOL    HW127743   2.446   2.492   8.234 -1.2218  1.2362 -1.1048
 5369SOL    HW227744   2.436   2.607   8.322 -0.9814 -1.7554  0.2888
 5370SOL     OW27745   4.080   1.195  13.173 -0.6428  0.5263  0.0994
 5370SOL    HW127746   4.063   1.122  13.114 -1.1632 -0.9242  2.0542
 5370SOL    HW227747   4.009   1.184  13.236  0.6658  1.2392  1.7082
 5371SOL     OW27748   3.276   1.174   4.735  0.3089  0.4572 -0.3041
 5371SOL    HW127749   3.319   1.152   4.653  1.2129 -2.7964  1.0715
 5371SOL    HW227750   3.182   1.168   4.715  0.1685  2.6635 -0.4142
 5372SOL     OW27751   3.909   3.193   1.435 -0.3593 -0.1529 -0.2872
 5372SOL    HW127752   3.841   3.243   1.481 -1.5653 -1.6132 -0.4611
 5372SOL    HW227753   3.956   3.141   1.501  1.0606  1.7599  0.1909
 5373SOL     OW27754   2.081   2.153   9.128 -0.2356 -0.7058  0.0487
 5373SOL    HW127755   2.148   2.091   9.100  0.3271 -0.8101  1.6318
 5373SOL    HW227756   2.000   2.103   9.116  1.1155 -3.0376  0.7934
 5374SOL     OW27757   1.824   1.653   1.445  0.7701  0.1325  0.0652
 5374SOL    HW127758   1.760   1.636   1.514  1.5556 -0.3493  0.6673
 5374SOL    HW227759   1.790   1.599   1.373  0.2819 -1.4273  1.4559
 5375SOL     OW27760   1.080   1.030   1.215  0.4176 -0.0658 -0.6838
 5375SOL    HW127761   1.019   0.984   1.157 -0.3370  1.0823 -0.8085
 5375SOL    HW227762   1.118   0.954   1.258 -1.3030 -0.3985  0.2423
 5376SOL     OW27763   3.947   1.758   3.154 -0.6863 -0.2416  0.2738
 5376SOL    HW127764   4.020   1.715   3.198  0.8523 -0.0273 -2.0499
 5376SOL    HW227765   3.930   1.837   3.205 -1.4347  0.3429 -0.8691
 5377SOL     OW27766   3.997   4.267   1.838  0.4497 -0.2792  0.0787
 5377SOL    HW127767   3.904   4.286   1.835 -0.0737 -2.9902 -0.9343
 5377SOL    HW227768   4.023   4.344   1.889  1.6783 -0.5078 -0.2065
 5378SOL     OW27769   1.294   2.222  12.754 -0.2847 -0.4079 -0.2420
 5378SOL    HW127770   1.344   2.152  12.796  1.0592  0.4635 -0.4032
 5378SOL    HW227771   1.233   2.248  12.824 -0.7804 -0.5272 -0.6298
 5379SOL     OW27772   3.611   3.808   7.934  0.1624  0.2206 -0.2435
 5379SOL    HW127773   3.686   3.866   7.948  2.0778 -2.6553  1.4228
 5379SOL    HW227774   3.591   3.836   7.845 -0.1852 -0.1248 -0.2709
 5380SOL     OW27775   0.893   1.298   1.438  0.1164  0.1717  0.1428
 5380SOL    HW127776   0.850   1.267   1.358  0.4833  1.2952 -0.4918
 5380SOL    HW227777   0.871   1.391   1.433  2.4546  0.7757  1.0281
 5381SOL     OW27778   0.598   2.363  16.226  0.1067 -0.0529 -0.4355
 5381SOL    HW127779   0.536   2.415  16.174  1.2410  1.0031 -0.7355
 5381SOL    HW227780   0.660   2.321  16.167  0.7404 -0.3041  0.4076
 5382SOL     OW27781   4.221   2.364   8.129  0.6008 -0.0594 -0.2650
 5382SOL    HW127782   4.152   2.314   8.172  0.7276 -0.7487 -0.8736
 5382SOL    HW227783   4.195   2.385   8.039  0.1432  0.2534 -0.0581
 5383SOL     OW27784   0.561   1.906   9.354  0.2891 -0.2306  0.2542
 5383SOL    HW127785   0.536   1.927   9.265  0.0703 -0.1892  0.3266
 5383SOL    HW227786   0.478   1.924   9.399 -0.4238  0.0545 -1.2026
 5384SOL     OW27787   0.894   4.311  12.653  0.0637 -0.2010  0.4516
 5384SOL    HW127788   0.924   4.242  12.593 -1.2271 -0.8760  0.5609
 5384SOL    HW227789   0.847   4.366  12.590  1.2214 -0.3655 -0.5598
 5385SOL     OW27790   3.983   3.321  10.027 -0.1398  0.0557  0.1269
 5385SOL    HW127791   4.018   3.262  10.094  3.0526  1.2330 -0.5182
 5385SOL    HW227792   3.980   3.403  10.075 -1.4440  0.4905 -0.6855
 5386SOL     OW27793   3.896   0.775   3.132  0.6421 -0.2034  0.7662
 5386SOL    HW127794   3.815   0.787   3.082  0.0018  1.8781  2.3147
 5386SOL    HW227795   3.867   0.815   3.214 -1.3042 -0.3951  0.1842
 5387SOL     OW27796   3.499   3.779   8.898  0.1384  0.2220 -0.1106
 5387SOL    HW127797   3.547   3.781   8.981  0.7353 -0.6689 -0.4290
 5387SOL    HW227798   3.569   3.780   8.832  0.2615  0.7616  0.0290
 5388SOL     OW27799   3.491   4.213   3.436  0.1384 -0.1573  0.3975
 5388SOL    HW127800   3.566   4.269   3.455 -0.5679  0.7044  0.6739
 5388SOL    HW227801   3.425   4.274   3.404 -0.0303 -1.1810 -1.1630
 5389SOL     OW27802   3.473   2.507  11.101 -0.7935  0.4139 -0.1449
 5389SOL    HW127803   3.394   2.523  11.151  0.0429  3.4854  0.1692
 5389SOL    HW227804   3.527   2.583  11.122  0.8394 -0.4798 -1.1107
 5390SOL     OW27805   1.501   4.691   9.339 -0.0253  0.5240 -0.1711
 5390SOL    HW127806   1.483   4.656   9.427  1.9757  2.2446  0.9129
 5390SOL    HW227807   1.416   4.731   9.318 -1.8565 -3.8355 -1.1805
 5391SOL     OW27808   1.507   1.769   8.586  0.1154  0.1312 -0.3444
 5391SOL    HW127809   1.488   1.861   8.569  0.9818 -0.0818 -2.3856
 5391SOL    HW227810   1.545   1.783   8.673  0.7262  2.9177 -1.0665
 5392SOL     OW27811   1.086   2.449   7.507  0.3185  0.1824 -0.1276
 5392SOL    HW127812   1.015   2.486   7.559  0.5010  0.5394 -0.1359
 5392SOL    HW227813   1.156   2.444   7.572 -0.0198  0.2507  0.2422
 5393SOL     OW27814   0.404   1.272   8.377  0.0076  0.3830  0.1745
 5393SOL    HW127815   0.315   1.306   8.389  0.1049  0.1328  1.6105
 5393SOL    HW227816   0.420   1.262   8.471  1.2416 -1.1167 -0.1911
 5394SOL     OW27817   1.633   3.970   6.479 -0.1479 -0.0985  0.0151
 5394SOL    HW127818   1.550   3.940   6.442 -0.4686  0.3377  0.3804
 5394SOL    HW227819   1.594   4.039   6.534  1.3635  1.8395 -1.3556
 5395SOL     OW27820   1.586   2.181   3.881 -0.0886 -0.3210  0.6229
 5395SOL    HW127821   1.629   2.259   3.846 -0.6989 -0.5586 -0.6449
 5395SOL    HW227822   1.525   2.224   3.941  0.6891 -0.4883  1.5539
 5396SOL     OW27823   0.368   0.573   8.726 -0.1572  0.5534 -0.0997
 5396SOL    HW127824   0.321   0.581   8.809  0.6726  0.6908  0.3623
 5396SOL    HW227825   0.361   0.661   8.689 -1.8630  1.1617  1.6703
 5397SOL     OW27826   0.789   0.029   6.403  0.0227  0.4048 -0.3311
 5397SOL    HW127827   0.832   0.106   6.441  2.0152 -1.2037  0.6789
 5397SOL    HW227828   0.855   0.016   6.335 -2.2094  1.0901 -2.6226
 5398SOL     OW27829   1.617   3.523  11.509 -0.2243 -0.5536 -0.3720
 5398SOL    HW127830   1.548   3.578  11.474  0.2754  0.6413  0.5097
 5398SOL    HW227831   1.647   3.572  11.586  1.7782  0.3186 -1.7050
 5399SOL     OW27832   3.356   3.928  10.013 -0.2704 -0.3086  0.0410
 5399SOL    HW127833   3.315   3.979  10.084  0.4449  0.2472  0.0572
 5399SOL    HW227834   3.278   3.886   9.977 -0.2323  0.7480 -1.2788
 5400SOL     OW27835   0.133   4.458   4.337 -0.1048  0.5634 -0.0356
 5400SOL    HW127836   0.209   4.484   4.286  0.5228 -1.2717 -0.0230
 5400SOL    HW227837   0.129   4.363   4.323 -0.2655  0.5681 -0.0217
 5401SOL     OW27838   3.314   0.720   4.227 -0.7366  0.2147  0.5073
 5401SOL    HW127839   3.224   0.752   4.231 -1.0974 -0.7932  0.2757
 5401SOL    HW227840   3.350   0.793   4.176  0.4832 -0.2386  0.7274
 5402SOL     OW27841   2.309   3.800  12.428  0.2389  0.0083 -0.0536
 5402SOL    HW127842   2.292   3.741  12.502 -1.2246 -0.1787 -0.5392
 5402SOL    HW227843   2.393   3.768  12.395 -0.3108  1.3256 -2.7127
 5403SOL     OW27844   3.765   3.223   9.070 -0.5416  0.2162  0.2243
 5403SOL    HW127845   3.861   3.217   9.076 -0.5789 -0.2908  0.2941
 5403SOL    HW227846   3.744   3.180   9.153  2.9939  0.6800  1.3974
 5404SOL     OW27847   3.049   0.071   6.284  0.1069 -0.1507 -0.4144
 5404SOL    HW127848   3.088   4.734   6.332 -0.1206 -0.4709 -0.7221
 5404SOL    HW227849   3.091   0.061   6.199  1.0083  0.5963 -0.0645
 5405SOL     OW27850   2.496   0.615  17.492 -0.3193 -0.3053  0.1580
 5405SOL    HW127851   2.556   0.688  17.484  1.6462 -1.9022  0.3084
 5405SOL    HW227852   2.547   0.556  17.547 -1.1531 -0.0239  1.2447
 5406SOL     OW27853   1.866   3.952   8.489  0.4349 -0.2792 -0.1771
 5406SOL    HW127854   1.884   3.915   8.575 -0.8564 -0.5046 -0.0149
 5406SOL    HW227855   1.840   4.038   8.521 -0.8098 -0.7641  0.0792
 5407SOL     OW27856   3.896   3.825  13.883 -0.1290 -0.3657 -0.4135
 5407SOL    HW127857   3.976   3.877  13.883  0.1463 -0.7973 -0.4616
 5407SOL    HW227858   3.885   3.787  13.970  3.0877  0.9927  0.5559
 5408SOL     OW27859   0.340   3.382   1.688  0.1271 -0.2590 -0.5451
 5408SOL    HW127860   0.392   3.437   1.629  0.0719 -0.4558 -0.7774
 5408SOL    HW227861   0.252   3.384   1.650 -0.4910  0.0905  0.9097
 5409SOL     OW27862   4.107   1.410   5.446  0.2701  0.5691  0.0134
 5409SOL    HW127863   4.177   1.434   5.507  0.2089  0.7129  0.0265
 5409SOL    HW227864   4.075   1.328   5.484  0.6643 -0.3398 -1.6002
 5410SOL     OW27865   1.992   2.756   1.300  0.3542 -0.2064 -0.2574
 5410SOL    HW127866   1.941   2.704   1.238 -1.6143 -0.1250  1.2858
 5410SOL    HW227867   1.944   2.839   1.304 -0.8765 -0.8216 -2.2717
 5411SOL     OW27868   4.181   0.803   6.236  0.4138 -0.5861 -0.6212
 5411SOL    HW127869   4.197   0.716   6.199  2.0926 -0.1973 -0.8098
 5411SOL    HW227870   4.176   0.860   6.160 -1.3757  2.3887  1.7576
 5412SOL     OW27871   2.225   0.225  15.589  0.4586 -0.1052  0.2272
 5412SOL    HW127872   2.253   0.153  15.645  1.7246 -0.4651 -0.8662
 5412SOL    HW227873   2.142   0.191  15.557  0.3432  2.3899 -2.1169
 5413SOL     OW27874   2.271   0.342   7.167 -0.0022 -0.3091  0.9762
 5413SOL    HW127875   2.255   0.248   7.173  2.0783 -0.8582 -2.2873
 5413SOL    HW227876   2.338   0.359   7.233  0.3473 -1.5020  0.9309
 5414SOL     OW27877   4.694   1.039   4.972  0.3843 -0.0344  0.5236
 5414SOL    HW127878   0.015   0.981   4.922  1.1162  1.1154  0.0599
 5414SOL    HW227879   4.719   1.013   5.060 -0.4406  2.2010  1.4165
 5415SOL     OW27880   3.229   0.191  16.000 -0.0146  0.2582 -0.1209
 5415SOL    HW127881   3.173   0.200  16.078 -0.0493 -1.1990  0.0175
 5415SOL    HW227882   3.157   0.169  15.941  0.3993 -1.6102  0.0815
 5416SOL     OW27883   0.516   2.296  13.319 -0.0705  1.2632 -0.2448
 5416SOL    HW127884   0.569   2.375  13.327 -1.8450  2.5119 -0.6711
 5416SOL    HW227885   0.587   2.235  13.338 -0.7991 -0.0777 -1.7459
 5417SOL     OW27886   0.714   2.172   7.515 -0.5384 -0.1463 -0.1017
 5417SOL    HW127887   0.668   2.173   7.432  0.9845  0.9455 -0.9348
 5417SOL    HW227888   0.804   2.191   7.487 -0.4503  1.0851  0.9655
 5418SOL     OW27889   1.612   3.349   3.266 -0.3635 -0.3938 -0.5779
 5418SOL    HW127890   1.692   3.394   3.292 -1.2883  0.4598  0.8157
 5418SOL    HW227891   1.622   3.343   3.171 -0.8097 -0.0286 -0.6471
 5419SOL     OW27892   3.207   2.000   3.739 -0.4565  0.2762  0.1076
 5419SOL    HW127893   3.208   1.905   3.744 -1.0923  0.3437  1.4087
 5419SOL    HW227894   3.253   2.017   3.821 -0.8244  0.8509  0.1923
 5420SOL     OW27895   3.066   4.477   1.049  0.0036  0.1192 -0.0037
 5420SOL    HW127896   2.990   4.484   1.107  0.0903 -1.7898  0.3405
 5420SOL    HW227897   3.126   4.544   1.080 -0.1951  0.7336 -0.9594
 5421SOL     OW27898   1.408   3.804   6.353  0.1463 -0.2613 -0.0454
 5421SOL    HW127899   1.319   3.782   6.380 -0.5774  0.9527 -1.4671
 5421SOL    HW227900   1.430   3.756   6.273  1.1633 -1.5770  1.0150
 5422SOL     OW27901   1.332   0.788   7.050 -0.3512  0.0524 -0.2114
 5422SOL    HW127902   1.301   0.790   6.960 -1.7773  0.0737  0.2746
 5422SOL    HW227903   1.331   0.693   7.066  1.0804  0.1863  0.6699
 5423SOL     OW27904   4.154   0.738   7.058  0.3680  0.1640 -0.1847
 5423SOL    HW127905   4.081   0.677   7.044 -2.3434  3.1615  0.7692
 5423SOL    HW227906   4.206   0.689   7.122 -0.8476 -1.0227 -0.1065
 5424SOL     OW27907   2.162   4.026   7.265  0.6472 -0.1911  0.2248
 5424SOL    HW127908   2.142   3.942   7.224 -0.0061  0.4530 -0.7940
 5424SOL    HW227909   2.078   4.060   7.295  0.8042 -1.7745  2.4103
 5425SOL     OW27910   2.826   3.534  14.769 -0.3207  0.0207 -0.7596
 5425SOL    HW127911   2.833   3.615  14.818 -0.3654 -0.2916 -0.2407
 5425SOL    HW227912   2.916   3.502  14.758 -0.1807 -0.2489  1.1349
 5426SOL     OW27913   0.724   0.810   4.563 -0.3927 -0.4113  0.3993
 5426SOL    HW127914   0.658   0.840   4.501  0.4973 -1.2193 -0.9357
 5426SOL    HW227915   0.685   0.841   4.645 -1.6223  0.1288 -0.3997
 5427SOL     OW27916   3.556   4.147   3.797 -0.3462 -0.0925 -0.0157
 5427SOL    HW127917   3.598   4.230   3.820  1.4267 -1.0628  0.2853
 5427SOL    HW227918   3.466   4.173   3.779  0.1482  2.7370  1.6017
 5428SOL     OW27919   2.678   2.994  13.090  0.0465 -0.4713 -1.0069
 5428SOL    HW127920   2.741   3.063  13.073 -0.1172  0.1697  1.0177
 5428SOL    HW227921   2.730   2.924  13.130 -1.1429 -0.2519  0.8902
 5429SOL     OW27922   3.675   1.759   5.617  0.1561 -0.3754 -0.5417
 5429SOL    HW127923   3.683   1.796   5.705  0.8523  0.2827 -0.8780
 5429SOL    HW227924   3.736   1.685   5.605  0.5885 -0.2639  0.9935
 5430SOL     OW27925   3.716   0.546   4.712  0.1870  0.1432  0.4781
 5430SOL    HW127926   3.639   0.493   4.735 -1.0097  1.5850 -0.1714
 5430SOL    HW227927   3.753   0.571   4.796 -0.4100 -0.0710  0.8032
 5431SOL     OW27928   3.493   3.288   3.357  0.1073  1.1505  0.6028
 5431SOL    HW127929   3.465   3.236   3.433 -0.1194  2.0739  1.1573
 5431SOL    HW227930   3.561   3.342   3.398  1.4402 -0.9995  1.2980
 5432SOL     OW27931   4.236   0.731   7.696 -0.4730 -0.2146 -0.2074
 5432SOL    HW127932   4.171   0.737   7.625 -0.0806 -1.6053 -0.6812
 5432SOL    HW227933   4.188   0.666   7.747  0.7269 -1.3510 -0.5235
 5433SOL     OW27934   3.786   2.225   6.265  0.1886  0.1473  0.1892
 5433SOL    HW127935   3.735   2.223   6.346  2.3421 -2.6192  1.4992
 5433SOL    HW227936   3.877   2.241   6.293 -0.1204  3.1777 -0.5112
 5434SOL     OW27937   2.237   1.369   7.571  0.1018  0.5015  0.7534
 5434SOL    HW127938   2.157   1.365   7.622 -0.5117 -0.6536 -0.2847
 5434SOL    HW227939   2.254   1.275   7.562  0.1302  0.5894 -0.1986
 5435SOL     OW27940   3.151   2.590   6.041  0.0574 -0.1872 -0.2617
 5435SOL    HW127941   3.186   2.671   6.078  0.8632 -1.1697  1.1318
 5435SOL    HW227942   3.136   2.537   6.120  3.8709  0.3062  0.7862
 5436SOL     OW27943   2.710   1.933   0.131  0.0967  0.3357  0.0723
 5436SOL    HW127944   2.763   1.984   0.071 -0.3528  0.4785 -0.1966
 5436SOL    HW227945   2.642   1.899   0.073  0.2459  2.8193 -1.5425
 5437SOL     OW27946   3.630   0.035  12.685  0.7956 -0.0346 -0.1809
 5437SOL    HW127947   3.543   0.076  12.687  0.3458 -0.9756 -0.2025
 5437SOL    HW227948   3.684   0.096  12.735 -0.5661  0.5473  0.5872
 5438SOL     OW27949   0.686   1.836   2.626  0.4338  0.3675  0.0482
 5438SOL    HW127950   0.711   1.925   2.601  0.4280  0.5045  0.5273
 5438SOL    HW227951   0.682   1.848   2.721  2.2570 -1.2665  0.3313
 5439SOL     OW27952   0.648   3.877   5.367  0.1249  0.1879 -0.6133
 5439SOL    HW127953   0.720   3.849   5.310  1.5106  2.4563  0.0189
 5439SOL    HW227954   0.655   3.972   5.356  0.3992 -0.0251 -2.2622
 5440SOL     OW27955   1.432   2.052  17.693 -0.1240 -0.3559  0.0018
 5440SOL    HW127956   1.523   2.049  17.721 -0.7338 -2.3193  1.7652
 5440SOL    HW227957   1.437   2.069  17.599 -2.8618  2.5227  0.3981
 5441SOL     OW27958   2.005   3.217  16.770 -0.0994 -0.3779 -0.0787
 5441SOL    HW127959   1.941   3.203  16.840 -0.5054 -2.7770 -0.9136
 5441SOL    HW227960   2.065   3.149  16.803 -0.1700 -0.5498 -0.3074
 5442SOL     OW27961   1.012   0.021   2.861 -0.3024  0.3232 -0.7316
 5442SOL    HW127962   1.048   0.058   2.942 -1.0595 -2.4553  0.8546
 5442SOL    HW227963   1.025   4.665   2.880  0.8791  0.6949  0.2712
 5443SOL     OW27964   2.421   2.650   5.170  0.0133  0.7330  0.5665
 5443SOL    HW127965   2.384   2.739   5.174  0.4453  0.9719 -0.8740
 5443SOL    HW227966   2.353   2.592   5.137  0.2672 -0.8018  2.6773
 5444SOL     OW27967   2.524   1.678   7.543 -0.0125 -0.0840  0.4627
 5444SOL    HW127968   2.468   1.757   7.537  0.7222  0.2548 -1.9729
 5444SOL    HW227969   2.466   1.615   7.586 -1.0528  1.5959  1.5513
 5445SOL     OW27970   0.049   1.979   9.324 -0.2887 -0.5663 -0.8891
 5445SOL    HW127971   0.022   2.048   9.263  0.6644 -0.1914 -0.8788
 5445SOL    HW227972   4.704   1.952   9.367 -0.0303  0.8649  0.4759
 5446SOL     OW27973   4.588   3.087   2.797 -0.3845 -0.5278  0.5188
 5446SOL    HW127974   4.627   3.007   2.760  0.7872  0.2057  0.1642
 5446SOL    HW227975   4.503   3.057   2.831 -1.3108  2.1529  0.5865
 5447SOL     OW27976   2.270   3.309   7.730 -0.3902  0.6741  0.4241
 5447SOL    HW127977   2.282   3.215   7.714 -1.5238  0.3077  1.6632
 5447SOL    HW227978   2.208   3.296   7.802 -0.2242 -1.3541  0.2068
 5448SOL     OW27979   1.942   0.544  10.464  0.0194  0.0495  0.3614
 5448SOL    HW127980   1.942   0.612  10.397  0.4892 -1.6905 -1.4084
 5448SOL    HW227981   1.957   0.608  10.533  1.1365  0.3014 -0.1079
 5449SOL     OW27982   3.549   0.166  12.366 -0.4182 -0.2734 -0.2451
 5449SOL    HW127983   3.494   0.146  12.441 -0.3120 -2.0052 -0.6289
 5449SOL    HW227984   3.567   0.074  12.346 -0.7903 -0.5016  0.4878
 5450SOL     OW27985   1.626   1.188   8.339 -0.0700  0.1004 -0.1364
 5450SOL    HW127986   1.580   1.151   8.264 -1.2163  1.1227  0.0476
 5450SOL    HW227987   1.635   1.118   8.403 -1.2731 -1.1356 -1.3174
 5451SOL     OW27988   0.505   4.352   0.477 -0.4687 -0.1885  0.4520
 5451SOL    HW127989   0.572   4.396   0.529 -0.6922 -0.4889  0.9938
 5451SOL    HW227990   0.476   4.285   0.538 -3.8886  0.2909 -0.5904
 5452SOL     OW27991   3.236   3.264   3.751 -0.4346 -0.0035  0.3639
 5452SOL    HW127992   3.267   3.301   3.834  1.5645  0.5207 -0.6281
 5452SOL    HW227993   3.290   3.324   3.700  1.1582 -0.3413  1.6683
 5453SOL     OW27994   2.320   1.518   4.075 -1.0872 -0.4165 -1.1415
 5453SOL    HW127995   2.332   1.423   4.069 -0.0575 -0.3788  0.2751
 5453SOL    HW227996   2.326   1.522   4.170 -0.0019  1.1316 -1.2745
 5454SOL     OW27997   3.839   3.103  13.582 -0.0813 -0.2074  0.0130
 5454SOL    HW127998   3.757   3.053  13.582 -0.4616  0.4173  1.0418
 5454SOL    HW227999   3.806   3.185  13.544  1.0060 -0.1549 -0.8085
 5455SOL     OW28000   2.831   0.474   6.345 -0.3082 -0.5520 -0.3016
 5455SOL    HW128001   2.921   0.443   6.347 -0.8702 -2.1308  0.9387
 5455SOL    HW228002   2.795   0.445   6.262  0.3751 -0.1225 -0.7412
 5456SOL     OW28003   2.535   0.878   1.166 -0.1380 -0.2183 -0.6281
 5456SOL    HW128004   2.561   0.942   1.101  1.9414 -1.8678 -1.4132
 5456SOL    HW228005   2.447   0.858   1.135 -0.5795  0.3936  0.2190
 5457SOL     OW28006   0.669   0.789   8.002 -0.4251 -0.4326 -0.1686
 5457SOL    HW128007   0.693   0.846   7.928  1.8317 -1.4996 -0.2381
 5457SOL    HW228008   0.574   0.784   7.993 -0.6189 -0.9130  2.3088
 5458SOL     OW28009   4.710   4.123   4.571  0.1360  0.1947 -0.2121
 5458SOL    HW128010   4.621   4.089   4.569 -0.3926  1.6703 -1.6318
 5458SOL    HW228011   4.702   4.208   4.613 -1.3362 -0.4368  0.7950
 5459SOL     OW28012   1.752   2.796   1.747  0.4589 -0.5433 -0.2243
 5459SOL    HW128013   1.682   2.760   1.801  2.0610 -1.4746  1.2188
 5459SOL    HW228014   1.752   2.735   1.674 -1.3218 -0.9225  0.0976
 5460SOL     OW28015   2.612   0.067   4.202 -0.4034 -0.3682 -0.0112
 5460SOL    HW128016   2.549   0.109   4.144 -0.5258  0.0803  0.4486
 5460SOL    HW228017   2.683   0.130   4.207 -1.2800  0.4759  1.9211
 5461SOL     OW28018   1.860   0.366   5.449  0.0562  0.3328 -0.0696
 5461SOL    HW128019   1.854   0.440   5.508 -2.7470 -0.3314  0.4659
 5461SOL    HW228020   1.950   0.379   5.419  0.1962 -2.1347 -0.7929
 5462SOL     OW28021   3.833   0.704  17.470  0.1607 -0.1121 -0.3059
 5462SOL    HW128022   3.850   0.799  17.471 -0.6765  0.0389  0.0611
 5462SOL    HW228023   3.917   0.681  17.509  0.5600 -0.2609 -1.2703
 5463SOL     OW28024   1.365   4.406  15.788  0.6329 -0.0350 -0.3226
 5463SOL    HW128025   1.407   4.489  15.766 -0.4698  0.7962  0.7541
 5463SOL    HW228026   1.421   4.354  15.730  1.3193  0.1862  0.1522
 5464SOL     OW28027   1.024   4.474  16.501  0.0749  0.2476 -0.2585
 5464SOL    HW128028   0.936   4.436  16.503  0.5984 -0.8961  1.9033
 5464SOL    HW228029   1.086   4.406  16.475  0.6908 -0.0468  1.9382
 5465SOL     OW28030   4.273   1.940  13.377  0.1447  0.2149 -0.2780
 5465SOL    HW128031   4.308   1.873  13.435 -1.0257  0.1979  0.4030
 5465SOL    HW228032   4.339   1.965  13.312  0.3085  0.8330  0.1326
 5466SOL     OW28033   2.486   3.725  17.593  0.4681  0.5019  0.4365
 5466SOL    HW128034   2.444   3.713  17.508 -0.7729  1.7947  0.8881
 5466SOL    HW228035   2.414   3.724  17.655  1.4319 -1.9007  1.5419
 5467SOL     OW28036   1.018   2.970  12.145 -0.6111  0.0369  0.0021
 5467SOL    HW128037   0.935   2.973  12.192 -1.0166  0.3973 -0.7273
 5467SOL    HW228038   1.004   3.045  12.086 -1.1213 -0.6920 -0.8143
 5468SOL     OW28039   2.335   0.861   7.431 -0.3673 -0.1421 -0.5794
 5468SOL    HW128040   2.424   0.896   7.426 -1.2202  1.9075 -1.4057
 5468SOL    HW228041   2.279   0.938   7.442 -0.3699 -0.2908  0.4410
 5469SOL     OW28042   0.728   4.350   0.086 -0.2014  0.1704  0.7127
 5469SOL    HW128043   0.718   4.326  17.739  0.1380 -1.5773  1.1372
 5469SOL    HW228044   0.709   4.272   0.137  0.3228  0.2401  1.0193
 5470SOL     OW28045   1.304   3.717   4.416  0.4024  0.1803 -0.0853
 5470SOL    HW128046   1.395   3.744   4.425 -0.8525  3.9849  1.0096
 5470SOL    HW228047   1.286   3.743   4.326  1.7214 -0.7409 -0.6096
 5471SOL     OW28048   3.589   0.971   8.149 -0.2070  0.4951 -0.1910
 5471SOL    HW128049   3.543   0.895   8.113  1.7461  0.1657 -2.0403
 5471SOL    HW228050   3.571   0.977   8.242  1.7315 -1.6147  0.3165
 5472SOL     OW28051   3.144   3.325  16.389  0.0250 -0.0935 -0.0281
 5472SOL    HW128052   3.168   3.354  16.477  1.4053  0.1108 -0.4727
 5472SOL    HW228053   3.103   3.407  16.361 -0.4590  0.8208  3.3014
 5473SOL     OW28054   4.259   1.932   5.284 -0.0357  0.0762  0.6042
 5473SOL    HW128055   4.246   1.930   5.190 -2.8258  1.6774  0.9664
 5473SOL    HW228056   4.185   1.991   5.295 -0.1824  0.3095 -1.8628
 5474SOL     OW28057   3.711   2.523   9.191  0.1407  0.1897 -0.2419
 5474SOL    HW128058   3.693   2.429   9.191  1.1501 -0.0175 -1.0878
 5474SOL    HW228059   3.804   2.509   9.208 -0.0616  0.4593  1.0461
 5475SOL     OW28060   1.193   2.304   8.603 -0.4638  0.1259  0.0958
 5475SOL    HW128061   1.116   2.254   8.632 -1.6368  1.4225 -0.7597
 5475SOL    HW228062   1.154   2.391   8.612 -0.2358  0.4111 -1.7074
 5476SOL     OW28063   2.872   0.155  15.123 -0.4062  0.0847 -0.1615
 5476SOL    HW128064   2.783   0.189  15.132 -0.8409 -1.1685  0.2891
 5476SOL    HW228065   2.859   0.108  15.041  2.0769  2.3626 -1.8695
 5477SOL     OW28066   1.117   1.307   9.492  0.0047 -0.1425 -0.2728
 5477SOL    HW128067   1.196   1.257   9.473 -1.7654 -3.1075  0.0591
 5477SOL    HW228068   1.053   1.235   9.491  0.2074 -0.3340  0.4135
 5478SOL     OW28069   1.718   3.742   3.339  0.0994  1.0132 -0.1059
 5478SOL    HW128070   1.742   3.792   3.416 -1.4751  2.4983 -0.5582
 5478SOL    HW228071   1.626   3.771   3.332 -0.3789 -0.3803  0.4901
 5479SOL     OW28072   3.382   1.005  15.262 -0.1019  0.6542  0.3173
 5479SOL    HW128073   3.315   1.026  15.326  0.5165  1.0804  0.8258
 5479SOL    HW228074   3.340   1.029  15.179 -1.5682 -1.6717  0.3988
 5480SOL     OW28075   1.145   2.794  11.022 -0.1848 -0.1101  0.8778
 5480SOL    HW128076   1.117   2.708  11.052 -1.3226  0.3274  1.0912
 5480SOL    HW228077   1.235   2.788  11.053  0.0709 -4.4483 -0.7621
 5481SOL     OW28078   2.994   2.821  17.058  0.3168  0.1273  0.0618
 5481SOL    HW128079   3.017   2.875  17.134  0.1628  1.1537 -0.6168
 5481SOL    HW228080   3.052   2.745  17.067 -0.3999 -0.1744  1.9847
 5482SOL     OW28081   0.901   0.498  11.056  0.1978  0.5463 -0.1004
 5482SOL    HW128082   0.846   0.434  11.101  0.7888  0.6827  0.8192
 5482SOL    HW228083   0.968   0.512  11.123  0.0298 -1.1654  0.4246
 5483SOL     OW28084   0.514   0.572  11.626  0.0325  0.2244 -0.2861
 5483SOL    HW128085   0.517   0.548  11.718  1.8597  0.0297 -0.3850
 5483SOL    HW228086   0.457   0.649  11.621  0.9242  0.7795 -1.9064
 5484SOL     OW28087   0.035   2.130   6.104 -0.5150 -0.6704  0.4155
 5484SOL    HW128088   4.684   2.142   6.141 -1.3084  0.7252 -1.9084
 5484SOL    HW228089   0.053   2.223   6.091 -3.9004 -0.1405 -0.3246
 5485SOL     OW28090   1.883   0.868   0.363  0.1372  0.8280 -0.1629
 5485SOL    HW128091   1.814   0.801   0.364  1.1132 -0.1849 -1.7021
 5485SOL    HW228092   1.933   0.839   0.439  1.4109  0.6368 -1.0810
 5486SOL     OW28093   3.504   4.100   5.958 -0.0579  0.4223 -0.1375
 5486SOL    HW128094   3.530   4.148   6.036  0.8157 -0.1315 -0.0880
 5486SOL    HW228095   3.422   4.066   5.993 -0.4621  1.2613 -0.2533
 5487SOL     OW28096   4.422   4.523   3.222 -0.3626  0.2818  0.9334
 5487SOL    HW128097   4.386   4.529   3.311 -2.1855  0.1148  0.2052
 5487SOL    HW228098   4.355   4.567   3.169  0.3167 -0.5809 -0.6354
 5488SOL     OW28099   1.117   2.811   9.161 -0.0607 -0.4659  0.3646
 5488SOL    HW128100   1.173   2.832   9.087 -0.6241 -1.3468 -0.2984
 5488SOL    HW228101   1.179   2.756   9.209  0.6980  0.5999  0.6142
 5489SOL     OW28102   0.627   2.224   2.680 -0.2368 -0.5530 -0.5915
 5489SOL    HW128103   0.650   2.291   2.615 -0.7368  1.5017  1.3179
 5489SOL    HW228104   0.666   2.144   2.645  0.8135 -0.0590 -0.5321
 5490SOL     OW28105   2.044   0.398   0.395  0.3205  0.2908  0.6613
 5490SOL    HW128106   2.038   0.466   0.327 -1.7806  0.8795  1.4387
 5490SOL    HW228107   2.138   0.377   0.392  1.0637  3.4736  0.7655
 5491SOL     OW28108   2.386   3.909   5.503  0.0633 -0.5325 -0.2899
 5491SOL    HW128109   2.312   3.965   5.478 -0.1886 -0.4747  0.5912
 5491SOL    HW228110   2.346   3.825   5.484  1.9839 -0.6254 -3.7662
 5492SOL     OW28111   2.307   2.334   3.375 -0.7204 -0.3359 -0.5800
 5492SOL    HW128112   2.225   2.328   3.325 -2.0708 -1.4693  1.7392
 5492SOL    HW228113   2.370   2.283   3.324 -0.9742 -0.2784 -0.9520
 5493SOL     OW28114   1.490   0.554   0.210  0.1918 -0.2059 -0.0873
 5493SOL    HW128115   1.552   0.594   0.271  0.9545 -2.1075  0.3994
 5493SOL    HW228116   1.543   0.478   0.185  0.1761  0.4432 -2.0738
 5494SOL     OW28117   3.499   3.971  12.814  0.3293  0.1904 -0.4081
 5494SOL    HW128118   3.479   4.015  12.896 -1.8525 -0.5723 -0.5087
 5494SOL    HW228119   3.413   3.961  12.771 -0.1166  1.2520  0.2494
 5495SOL     OW28120   3.424   2.501  13.967 -0.4472  0.0012 -0.5588
 5495SOL    HW128121   3.392   2.539  13.886 -0.2802  1.3899  0.0274
 5495SOL    HW228122   3.406   2.579  14.019 -0.5633 -0.9816  0.8981
 5496SOL     OW28123   2.234   1.952  15.139 -0.3290  0.1708 -0.1583
 5496SOL    HW128124   2.162   2.015  15.139 -0.9506 -0.5339  0.8095
 5496SOL    HW228125   2.274   1.981  15.221  0.7979 -1.4780 -0.1265
 5497SOL     OW28126   0.963   4.245   4.674 -0.0446 -0.2672 -0.0374
 5497SOL    HW128127   0.990   4.193   4.598  0.0163  0.7222 -0.6942
 5497SOL    HW228128   1.037   4.304   4.685  1.3078 -1.6879 -1.5156
 5498SOL     OW28129   4.566   3.559   8.865  0.3249  0.1234  0.2288
 5498SOL    HW128130   4.659   3.580   8.871 -0.1001  2.7162 -2.0540
 5498SOL    HW228131   4.532   3.633   8.815 -0.1606 -0.5019 -0.3636
 5499SOL     OW28132   2.408   2.115   7.579  0.0767  0.3629 -0.6574
 5499SOL    HW128133   2.333   2.145   7.527  1.3781  2.4186 -1.3493
 5499SOL    HW228134   2.433   2.034   7.533 -0.8058  0.2486 -0.9425
 5500SOL     OW28135   2.043   1.314  16.150  0.2655  0.0128  0.2333
 5500SOL    HW128136   2.030   1.348  16.239  0.5395 -0.4172  0.4386
 5500SOL    HW228137   2.133   1.340  16.131 -0.8639  2.7252 -1.2210
 5501SOL     OW28138   4.114   0.406   6.318  0.0121 -0.2200 -0.3605
 5501SOL    HW128139   4.101   0.319   6.281  0.1927 -1.0426  1.4684
 5501SOL    HW228140   4.096   0.474   6.254 -2.3762 -0.0396  0.5237
 5502SOL     OW28141   2.554   3.108   7.135 -0.4372  0.2016  0.2108
 5502SOL    HW128142   2.505   3.190   7.138 -2.1178 -0.8275  0.8002
 5502SOL    HW228143   2.583   3.094   7.225 -4.7975 -2.2605  1.2185
 5503SOL     OW28144   3.513   0.919   9.239 -0.5643  0.0734  0.4914
 5503SOL    HW128145   3.561   0.983   9.186  0.4248  0.6230  2.0660
 5503SOL    HW228146   3.560   0.921   9.322 -2.7991 -2.4783  1.7832
 5504SOL     OW28147   2.792   1.735   1.605  0.1564 -0.0756  0.6983
 5504SOL    HW128148   2.804   1.679   1.682  2.4146  0.1607  0.5269
 5504SOL    HW228149   2.781   1.661   1.546  3.3867 -0.2098  0.2513
 5505SOL     OW28150   2.337   3.694   4.383  0.6764 -0.3745 -0.2942
 5505SOL    HW128151   2.254   3.679   4.339  1.2651  0.4300 -1.6858
 5505SOL    HW228152   2.400   3.716   4.313 -1.2773  1.9255 -1.3449
 5506SOL     OW28153   2.013   3.463   3.850  0.1667  0.8603 -0.0843
 5506SOL    HW128154   2.084   3.455   3.786 -0.2846  1.6310 -0.6825
 5506SOL    HW228155   2.030   3.554   3.872 -0.6884  1.0942 -0.3735
 5507SOL     OW28156   0.971   2.830  11.372 -0.6634 -0.1190  0.7992
 5507SOL    HW128157   1.026   2.758  11.342  2.8157  3.4385 -1.5089
 5507SOL    HW228158   1.041   2.864  11.428 -0.4583  0.9053 -0.0688
 5508SOL     OW28159   1.048   4.248   7.196  0.4799 -0.0168 -0.1736
 5508SOL    HW128160   1.109   4.261   7.123 -2.3124  2.2077 -2.0928
 5508SOL    HW228161   1.090   4.166   7.222  0.8867 -0.1824 -1.3160
 5509SOL     OW28162   1.956   1.070   1.151 -0.6349  0.0137  0.5153
 5509SOL    HW128163   1.938   1.125   1.074 -1.2835  1.2851  1.5724
 5509SOL    HW228164   1.873   1.088   1.195 -0.0819 -0.1920  1.6330
 5510SOL     OW28165   4.236   1.364  13.303 -0.2043 -0.8087 -0.5209
 5510SOL    HW128166   4.317   1.313  13.310  0.8845  1.0867  0.6942
 5510SOL    HW228167   4.180   1.301  13.259 -2.3769  2.7238 -2.7707
 5511SOL     OW28168   1.292   4.168   3.524 -0.2977  0.1210  0.4714
 5511SOL    HW128169   1.316   4.257   3.496 -1.0308 -0.1709 -1.0791
 5511SOL    HW228170   1.221   4.189   3.584 -0.0064 -1.7010  1.4398
 5512SOL     OW28171   0.146   3.600   0.693 -0.0459  0.0375 -0.0481
 5512SOL    HW128172   0.117   3.670   0.634  1.3409 -0.2380 -1.0552
 5512SOL    HW228173   0.106   3.632   0.774  2.3796  0.4726  0.9660
 5513SOL     OW28174   1.838   0.428   0.825 -0.5061 -0.1738  0.4464
 5513SOL    HW128175   1.760   0.454   0.875 -0.7385  0.8713 -0.4600
 5513SOL    HW228176   1.830   0.460   0.735  1.4608  0.6017  0.5635
 5514SOL     OW28177   0.112   4.707   0.677 -0.2502 -0.3788  0.0579
 5514SOL    HW128178   0.087   4.712   0.585 -1.2694 -1.0468  0.3065
 5514SOL    HW228179   0.050   4.646   0.715 -0.6810 -0.1259 -0.2349
 5515SOL     OW28180   1.768   3.169   5.864  0.0627  0.1420 -0.0819
 5515SOL    HW128181   1.785   3.097   5.803  1.1731  0.8571 -0.6193
 5515SOL    HW228182   1.673   3.179   5.856 -0.2029 -3.5793 -1.8511
 5516SOL     OW28183   4.723   4.641   9.994  0.3799 -0.6933  0.0041
 5516SOL    HW128184   4.643   4.591   9.980 -0.4387  0.6051  0.1117
 5516SOL    HW228185   0.005   4.611  10.083  0.8716  1.5579  0.6721
 5517SOL     OW28186   3.159   2.719   4.753  0.2279 -0.0795 -0.5285
 5517SOL    HW128187   3.125   2.791   4.806  0.4516 -0.6180  0.3576
 5517SOL    HW228188   3.082   2.696   4.702 -0.1901  0.5112 -0.1522
 5518SOL     OW28189   2.300   2.460   2.896 -1.1114  0.1902 -0.3154
 5518SOL    HW128190   2.248   2.381   2.911 -0.6001  0.1395  1.2440
 5518SOL    HW228191   2.382   2.410   2.899 -1.2847 -0.0675  0.2493
 5519SOL     OW28192   2.082   4.107  12.131 -0.5969  0.5431  0.4386
 5519SOL    HW128193   2.145   4.178  12.119 -1.5631  1.4418  0.6253
 5519SOL    HW228194   2.109   4.071  12.215 -1.2022 -2.6486 -0.7242
 5520SOL     OW28195   1.200   2.319  17.098 -0.3748  0.8640  0.0635
 5520SOL    HW128196   1.263   2.365  17.042  1.6063  0.9165  2.3162
 5520SOL    HW228197   1.115   2.346  17.064 -0.0347  1.6260 -0.1881
 5521SOL     OW28198   4.701   4.233   6.020 -0.0861  0.0612  0.3793
 5521SOL    HW128199   4.734   4.206   6.107 -3.5358  1.3078  2.0615
 5521SOL    HW228200   4.615   4.191   6.026 -0.6321  1.7013  3.9241
 5522SOL     OW28201   3.420   2.545   3.801 -0.6643  0.1814  0.1625
 5522SOL    HW128202   3.501   2.591   3.780 -0.1888 -1.4552 -1.5770
 5522SOL    HW228203   3.350   2.609   3.790  0.5637  1.6427  0.7827
 5523SOL     OW28204   3.932   2.689   8.782  0.1110  0.5613  0.1657
 5523SOL    HW128205   3.892   2.770   8.750  0.8588  0.5746 -0.7446
 5523SOL    HW228206   4.012   2.690   8.730 -0.8190  2.2300 -1.2612
 5524SOL     OW28207   1.250   4.592   6.384 -0.1325 -0.2591  0.3085
 5524SOL    HW128208   1.336   4.557   6.364 -0.1017 -0.5527  0.9640
 5524SOL    HW228209   1.204   4.583   6.300 -0.8567 -0.2385  0.7023
 5525SOL     OW28210   4.057   0.966  11.158  0.5580 -0.2793  0.4425
 5525SOL    HW128211   4.085   0.906  11.228  0.3537 -0.5200  0.3187
 5525SOL    HW228212   4.072   0.901  11.090  0.3954 -1.8797  1.9266
 5526SOL     OW28213   3.018   3.567  16.344 -0.2346 -1.0053 -0.1190
 5526SOL    HW128214   3.034   3.597  16.255 -1.2325 -0.1609 -0.0185
 5526SOL    HW228215   2.924   3.580  16.360  0.5971  1.1945  3.0666
 5527SOL     OW28216   1.786   1.230   6.968 -0.6079 -0.0967  0.2584
 5527SOL    HW128217   1.765   1.219   7.061 -2.0096 -2.1208 -0.2935
 5527SOL    HW228218   1.741   1.156   6.926 -0.2290 -0.7856  1.0534
 5528SOL     OW28219   3.556   1.985   6.656 -0.1811 -0.1162  0.4609
 5528SOL    HW128220   3.495   1.916   6.627  0.7589 -0.3109 -1.0530
 5528SOL    HW228221   3.510   2.038   6.722  0.3062  0.6364  0.1859
 5529SOL     OW28222   3.548   1.695   5.946  0.2710 -0.3656 -0.4326
 5529SOL    HW128223   3.638   1.719   5.926  0.7529 -2.1744 -0.4335
 5529SOL    HW228224   3.522   1.740   6.027 -2.1751 -1.3176 -0.6938
 5530SOL     OW28225   4.576   3.643   3.124 -0.0328 -0.1070  0.4496
 5530SOL    HW128226   4.574   3.739   3.118 -0.8993 -0.1475  0.0229
 5530SOL    HW228227   4.668   3.624   3.141 -0.2559 -2.0091 -0.4431
 5531SOL     OW28228   1.511   4.623   7.162 -0.1932  0.0953  0.4672
 5531SOL    HW128229   1.550   4.536   7.166 -1.4965 -0.4860  0.3359
 5531SOL    HW228230   1.575   4.686   7.197  2.4843 -2.1729 -0.3361
 5532SOL     OW28231   1.313   1.534   9.123 -0.2998 -0.0324  0.5227
 5532SOL    HW128232   1.335   1.586   9.046 -1.6184 -0.7699 -0.3400
 5532SOL    HW228233   1.344   1.593   9.192  0.8573 -0.4750  0.3751
 5533SOL     OW28234   3.140   2.268   2.639 -0.9571 -0.1063 -0.3079
 5533SOL    HW128235   3.093   2.192   2.605 -1.9544 -0.1028  1.0825
 5533SOL    HW228236   3.100   2.324   2.573 -0.1331 -1.0145 -1.5708
 5534SOL     OW28237   4.231   0.834  11.680  0.3445 -0.2406 -0.0822
 5534SOL    HW128238   4.303   0.872  11.730 -1.5372  1.4286  1.4011
 5534SOL    HW228239   4.245   0.882  11.599  0.0868 -1.0610 -0.6092
 5535SOL     OW28240   1.110   3.224   3.151 -0.0898 -0.0534 -0.1950
 5535SOL    HW128241   1.178   3.290   3.164 -2.0461  2.0410 -0.5839
 5535SOL    HW228242   1.031   3.277   3.161  1.1170  2.1517 -2.5448
 5536SOL     OW28243   3.173   0.304   8.306  0.2036 -0.5037  0.4240
 5536SOL    HW128244   3.183   0.238   8.236 -0.0907 -1.4927  1.3093
 5536SOL    HW228245   3.222   0.258   8.374 -1.0431  1.5216  2.6756
 5537SOL     OW28246   0.096   4.565   4.592 -0.2034 -0.4652 -0.5247
 5537SOL    HW128247   0.128   4.486   4.548 -1.7924 -1.2182 -0.3208
 5537SOL    HW228248   0.162   4.625   4.556  1.0671 -0.5743  1.6222
 5538SOL     OW28249   3.529   1.514  15.962  0.2461  0.1238  0.5200
 5538SOL    HW128250   3.560   1.569  16.033  1.0749  2.2767 -1.5080
 5538SOL    HW228251   3.613   1.469  15.947 -0.6061 -0.9689 -0.9469
 5539SOL     OW28252   2.732   3.456  15.188  0.4688  0.2983  0.3307
 5539SOL    HW128253   2.788   3.407  15.249  1.0163 -0.0232 -0.4292
 5539SOL    HW228254   2.787   3.534  15.179  1.7220 -0.4668  1.3382
 5540SOL     OW28255   1.144   0.798  16.319  0.6154 -0.1000 -0.3894
 5540SOL    HW128256   1.136   0.885  16.280  0.4519 -0.2788 -0.7497
 5540SOL    HW228257   1.173   0.740  16.249 -2.9895 -0.0272 -1.9248
 5541SOL     OW28258   2.352   2.918   5.252  0.0952  0.2115 -0.2353
 5541SOL    HW128259   2.263   2.953   5.249 -0.8931 -2.4227 -0.9563
 5541SOL    HW228260   2.376   2.960   5.335  0.6568  1.2422 -0.9242
 5542SOL     OW28261   4.568   2.536   9.997 -0.5284 -0.5187 -0.0139
 5542SOL    HW128262   4.499   2.503  10.055  0.2591  2.4074  2.5794
 5542SOL    HW228263   4.565   2.466   9.932 -0.4022 -0.0300 -0.5415
 5543SOL     OW28264   1.217   1.293   3.580 -0.1796  0.2389  0.1654
 5543SOL    HW128265   1.284   1.360   3.590  0.3308 -0.4994  1.7442
 5543SOL    HW228266   1.265   1.220   3.540 -1.8747  0.1086 -1.6054
 5544SOL     OW28267   4.627   1.530   1.058  0.4405 -0.3246 -0.2039
 5544SOL    HW128268   4.629   1.576   0.975  1.3291 -2.1939 -1.2289
 5544SOL    HW228269   4.713   1.489   1.049  0.1778 -1.1493  1.0380
 5545SOL     OW28270   4.630   1.978   7.047  0.2826 -0.3765 -0.0087
 5545SOL    HW128271   4.630   2.015   6.958 -0.4494  1.2026  0.6394
 5545SOL    HW228272   4.706   1.920   7.051  0.0558 -0.5959  0.9861
 5546SOL     OW28273   0.528   3.718   4.639 -0.4318  0.2857  0.1459
 5546SOL    HW128274   0.560   3.804   4.665 -1.9034  1.3035 -1.4085
 5546SOL    HW228275   0.607   3.667   4.660 -1.3278 -2.2587 -2.6123
 5547SOL     OW28276   2.509   0.088   6.865 -0.1169 -0.0134 -1.0779
 5547SOL    HW128277   2.505   0.004   6.911  0.5754 -0.0019 -0.9971
 5547SOL    HW228278   2.415   0.095   6.851 -0.4574  0.1948  1.3062
 5548SOL     OW28279   0.797   0.547   5.566  0.4568  0.2619  0.4107
 5548SOL    HW128280   0.775   0.571   5.656 -0.8257 -0.2315  0.2354
 5548SOL    HW228281   0.789   0.632   5.522  0.7441  0.9990  1.7788
 5549SOL     OW28282   4.175   0.937  16.943  0.3391  0.2550 -0.6118
 5549SOL    HW128283   4.158   0.973  16.856  1.1351 -0.4622 -1.0676
 5549SOL    HW228284   4.122   0.995  16.998 -0.5276 -0.6681 -0.4699
 5550SOL     OW28285   2.422   3.217  12.952  0.2531 -0.0947  0.4921
 5550SOL    HW128286   2.450   3.307  12.969  1.2736 -0.5043  0.9531
 5550SOL    HW228287   2.356   3.213  13.022  0.2388 -0.7037  0.4410
 5551SOL     OW28288   3.044   0.286  16.873 -0.2212 -0.2544  0.7246
 5551SOL    HW128289   3.005   0.353  16.815  0.9767 -0.2839 -0.1162
 5551SOL    HW228290   2.970   0.251  16.923  1.6914 -1.5822  2.5890
 5552SOL     OW28291   2.402   0.248   8.255  0.8425 -0.1616 -0.1347
 5552SOL    HW128292   2.349   0.227   8.331  2.2873 -2.2718  0.2625
 5552SOL    HW228293   2.335   0.227   8.190 -0.5156  1.7375  0.6520
 5553SOL     OW28294   1.302   2.531  13.922  0.2128  0.4367 -0.2441
 5553SOL    HW128295   1.336   2.581  13.996  1.8254 -0.6523 -0.2408
 5553SOL    HW228296   1.209   2.531  13.945  0.7490  1.2011  1.8560
 5554SOL     OW28297   4.389   0.167   6.943 -0.1266  0.0610  0.0615
 5554SOL    HW128298   4.367   0.256   6.916 -0.3560  0.3457  1.2000
 5554SOL    HW228299   4.451   0.135   6.877 -2.6750 -0.2982 -2.1139
 5555SOL     OW28300   4.315   4.299   5.878  0.2415  0.1495 -0.4969
 5555SOL    HW128301   4.373   4.371   5.854 -1.5643  2.0191  0.8045
 5555SOL    HW228302   4.363   4.246   5.941  0.0092  1.1797  0.5373
 5556SOL     OW28303   3.086   1.318  12.158  0.4789  0.5109  0.5198
 5556SOL    HW128304   3.166   1.294  12.205  1.4253 -1.4585 -2.1502
 5556SOL    HW228305   3.054   1.237  12.119 -0.0833  0.6069  0.7755
 5557SOL     OW28306   3.575   2.077   8.697 -0.3607 -0.2550 -0.7002
 5557SOL    HW128307   3.546   2.039   8.780 -0.2376  2.6118  0.6678
 5557SOL    HW228308   3.603   2.165   8.722 -0.2121  0.0701 -2.0089
 5558SOL     OW28309   1.411   1.465   3.684 -0.6638  1.0830 -0.3148
 5558SOL    HW128310   1.466   1.415   3.744  1.6147  3.3453 -0.5267
 5558SOL    HW228311   1.474   1.525   3.644  0.6029 -0.6538 -0.9127
 5559SOL     OW28312   0.327   0.345   8.577 -0.0266 -0.5407  0.7592
 5559SOL    HW128313   0.239   0.310   8.578 -0.8047  1.2812 -3.4230
 5559SOL    HW228314   0.326   0.426   8.629 -0.1603  0.0227 -0.1176
 5560SOL     OW28315   3.434   2.096  12.368 -0.0165  0.4996 -0.0261
 5560SOL    HW128316   3.444   2.191  12.374 -1.2017  0.6483 -0.4347
 5560SOL    HW228317   3.499   2.078  12.437  1.7421  1.0471 -1.5554
 5561SOL     OW28318   4.420   2.705   9.637  0.0394  0.2080  0.3055
 5561SOL    HW128319   4.402   2.776   9.576  1.2915  0.0626 -0.2347
 5561SOL    HW228320   4.338   2.657   9.646  1.0359 -1.5708  0.0518
 5562SOL     OW28321   2.789   4.641   2.838 -0.5910 -0.4038  0.4190
 5562SOL    HW128322   2.725   4.589   2.788  0.5081 -0.7756 -0.6092
 5562SOL    HW228323   2.775   4.619   2.930 -2.0979 -4.1209 -0.6789
 5563SOL     OW28324   0.651   2.024   3.796 -0.1010 -0.1171 -0.8789
 5563SOL    HW128325   0.683   1.975   3.873 -0.4922  1.0581  0.0309
 5563SOL    HW228326   0.565   1.984   3.800 -0.8945  1.6465 -0.1569
 5564SOL     OW28327   0.195   1.599   3.733 -0.3400  0.1316 -0.0025
 5564SOL    HW128328   0.178   1.530   3.669 -0.4960 -0.1912  0.3867
 5564SOL    HW228329   0.112   1.612   3.780 -0.9094 -0.8476 -0.7217
 5565SOL     OW28330   1.155   2.275  13.736  0.2320  0.1656  0.5329
 5565SOL    HW128331   1.105   2.334  13.792 -0.1183  0.2861  0.0957
 5565SOL    HW228332   1.247   2.284  13.760  0.6062  0.2449 -0.9744
 5566SOL     OW28333   1.256   3.596   4.664 -0.6157 -0.0283 -0.2610
 5566SOL    HW128334   1.289   3.647   4.590 -0.2671 -0.8232 -0.6560
 5566SOL    HW228335   1.236   3.508   4.632  0.2362 -1.0602  2.0247
 5567SOL     OW28336   4.705   4.273   5.475 -0.2604 -0.1264 -0.1201
 5567SOL    HW128337   4.735   4.279   5.566 -1.4304 -3.5333  0.4892
 5567SOL    HW228338   0.014   4.346   5.433  1.8339  0.5229  3.2468
 5568SOL     OW28339   0.866   0.306   4.885  0.0658 -0.6149  0.9610
 5568SOL    HW128340   0.938   0.337   4.940 -1.1583  1.0561  1.6397
 5568SOL    HW228341   0.858   0.371   4.815 -4.5244 -1.9871  0.1890
 5569SOL     OW28342   0.419   3.299   4.727  0.4536  0.4233 -0.1975
 5569SOL    HW128343   0.515   3.298   4.729  0.4152  1.0607  2.9234
 5569SOL    HW228344   0.394   3.309   4.819  0.7399 -2.1753  0.1675
 5570SOL     OW28345   2.966   2.789  12.322 -0.1116 -0.2301  0.0937
 5570SOL    HW128346   3.037   2.822  12.376 -0.8748  1.0353  0.3177
 5570SOL    HW228347   2.889   2.844  12.338  0.5799  0.4580  1.0207
 5571SOL     OW28348   4.262   2.389   9.440  0.0917 -0.0778  0.4737
 5571SOL    HW128349   4.252   2.429   9.526 -1.9465  0.5727 -0.0684
 5571SOL    HW228350   4.211   2.309   9.453  2.3075 -1.5296  0.2101
 5572SOL     OW28351   4.380   3.981   7.127  0.0289  0.1130  0.5550
 5572SOL    HW128352   4.377   3.900   7.178  1.3419 -1.9928 -2.6969
 5572SOL    HW228353   4.401   4.041   7.198  1.4765  0.2155  0.0361
 5573SOL     OW28354   3.548   2.486   1.424 -0.2195 -0.1829  0.2562
 5573SOL    HW128355   3.590   2.401   1.413  2.5027  1.1902 -0.2639
 5573SOL    HW228356   3.470   2.482   1.369 -1.6704  1.1225  2.2310
 5574SOL     OW28357   2.084   1.394  16.497 -0.0438  0.7610  0.1066
 5574SOL    HW128358   2.137   1.387  16.576  0.4775 -0.1844 -0.3203
 5574SOL    HW228359   2.146   1.437  16.437 -0.4329  1.5959  0.3066
 5575SOL     OW28360   3.842   3.015   2.140 -0.0944  0.2689 -0.5406
 5575SOL    HW128361   3.935   3.040   2.137  0.2614 -0.7741  1.9848
 5575SOL    HW228362   3.851   2.926   2.174 -1.8446  0.1214 -0.4789
 5576SOL     OW28363   1.266   1.132  14.523  0.0788 -0.0807  0.1634
 5576SOL    HW128364   1.307   1.196  14.465  0.8795  0.2611  1.1026
 5576SOL    HW228365   1.174   1.130  14.495  0.7237  1.0777 -2.0489
 5577SOL     OW28366   4.464   2.744  17.063  0.4581  0.2338  0.4307
 5577SOL    HW128367   4.489   2.717  17.152  2.7757  0.8060 -0.0379
 5577SOL    HW228368   4.544   2.774  17.020 -0.6795  3.0889  0.3544
 5578SOL     OW28369   1.575   0.510   9.790  0.0868  0.0219 -0.2553
 5578SOL    HW128370   1.628   0.431   9.778 -1.8809 -1.3344 -0.0248
 5578SOL    HW228371   1.537   0.495   9.877  0.1683  0.6377 -0.1118
 5579SOL     OW28372   3.152   3.675   5.481 -0.0535 -0.5036 -0.2045
 5579SOL    HW128373   3.107   3.706   5.402  2.7892 -0.0390 -1.6497
 5579SOL    HW228374   3.239   3.669   5.442  0.3285  2.2217  0.2402
 5580SOL     OW28375   1.694   2.150   6.447 -0.1363  0.3198 -0.1347
 5580SOL    HW128376   1.710   2.062   6.481  1.8529  1.2239  1.3291
 5580SOL    HW228377   1.643   2.192   6.516  2.1949  2.4046  0.3110
 5581SOL     OW28378   2.856   1.184  17.613 -0.0857  0.7729  0.3341
 5581SOL    HW128379   2.785   1.120  17.610  0.8469 -0.3787  2.4564
 5581SOL    HW228380   2.817   1.261  17.573 -1.6338 -0.6074 -0.7637
 5582SOL     OW28381   3.397   4.625  14.829  0.1862 -0.1352  0.2225
 5582SOL    HW128382   3.342   4.596  14.757 -0.0629 -0.9313  0.7294
 5582SOL    HW228383   3.444   4.543  14.843 -1.2562 -1.0704 -0.4820
 5583SOL     OW28384   0.209   2.909   7.676 -0.4149 -0.0711  0.1457
 5583SOL    HW128385   0.241   2.979   7.734  1.6073  0.7550 -1.9544
 5583SOL    HW228386   0.245   2.834   7.725  2.7358  1.1148 -0.3408
 5584SOL     OW28387   0.567   3.373   7.480 -0.3764  0.1399  0.1470
 5584SOL    HW128388   0.612   3.348   7.560 -1.6854  0.7124  1.0483
 5584SOL    HW228389   0.567   3.292   7.428  1.4390 -1.2902  2.3908
 5585SOL     OW28390   2.477   3.485   4.867 -0.0579 -0.0025 -0.0376
 5585SOL    HW128391   2.417   3.442   4.806  0.0267  0.7258 -0.6248
 5585SOL    HW228392   2.474   3.577   4.840 -0.7692 -0.1944 -0.6275
 5586SOL     OW28393   4.705   3.498   9.495  0.5111 -0.6827 -0.0655
 5586SOL    HW128394   4.641   3.538   9.553  0.1608 -0.3804 -0.6618
 5586SOL    HW228395   0.007   3.435   9.556 -1.3820 -1.0897  0.6994
 5587SOL     OW28396   2.995   2.309   4.625 -0.4891  0.2256 -0.1711
 5587SOL    HW128397   2.937   2.363   4.571  0.6508  0.9797 -0.6472
 5587SOL    HW228398   3.067   2.371   4.641  1.3136 -2.3426  1.6899
 5588SOL     OW28399   3.198   4.633   4.787 -0.2019  0.4591  0.4306
 5588SOL    HW128400   3.228   4.543   4.776  2.6686  1.0736  3.2446
 5588SOL    HW228401   3.166   4.647   4.698  1.0454 -2.0514 -0.3911
 5589SOL     OW28402   3.709   3.218   8.651 -0.1226  0.5874 -0.2850
 5589SOL    HW128403   3.790   3.229   8.602 -0.6501 -0.7564 -1.4710
 5589SOL    HW228404   3.707   3.284   8.720  0.3756  0.7146 -0.3988
 5590SOL     OW28405   0.430   2.345   8.016 -0.2346  0.2856 -0.2191
 5590SOL    HW128406   0.480   2.277   7.971  2.1637  2.7402 -1.2964
 5590SOL    HW228407   0.472   2.426   7.985 -0.5110  0.6990  0.4673
 5591SOL     OW28408   2.868   2.036  13.310  0.1773 -0.0749  0.1775
 5591SOL    HW128409   2.800   2.103  13.296 -0.0121 -0.0436  1.2848
 5591SOL    HW228410   2.848   2.008  13.399 -1.1636  0.9138  0.1953
 5592SOL     OW28411   2.336   0.337  12.878  0.5527 -0.5408  0.3041
 5592SOL    HW128412   2.273   0.272  12.848  1.0213  0.2653 -2.4806
 5592SOL    HW228413   2.411   0.281  12.859 -0.5076 -2.2258  1.0593
 5593SOL     OW28414   2.647   3.153  17.140 -0.1482  0.3587  0.3516
 5593SOL    HW128415   2.698   3.117  17.067  1.3708  0.6822  1.2521
 5593SOL    HW228416   2.630   3.237  17.095  0.9399 -0.1563 -1.0307
 5594SOL     OW28417   1.637   3.728   2.887 -1.0127 -0.7108  0.2590
 5594SOL    HW128418   1.669   3.809   2.846 -1.5370 -0.2353  0.8013
 5594SOL    HW228419   1.545   3.751   2.894 -0.5162  1.1595  0.6883
 5595SOL     OW28420   1.408   0.307   7.728 -0.1603 -0.3552  0.3267
 5595SOL    HW128421   1.380   0.399   7.732 -0.8864 -0.5943  0.7581
 5595SOL    HW228422   1.329   0.275   7.770 -0.7032  2.2892  1.3579
 5596SOL     OW28423   2.633   4.362   0.337  0.6969  0.0733  0.0573
 5596SOL    HW128424   2.550   4.318   0.354 -0.0471  0.8680 -1.4984
 5596SOL    HW228425   2.681   4.331   0.414  1.5458 -0.4250 -0.6723
 5597SOL     OW28426   1.418   3.964   8.008 -0.1413  0.4279 -0.2242
 5597SOL    HW128427   1.438   4.034   7.946 -2.3074  1.8196  0.6496
 5597SOL    HW228428   1.400   3.884   7.959 -0.3738  0.7944 -0.7452
 5598SOL     OW28429   4.235   3.853   7.360 -0.6664  0.1342 -0.1392
 5598SOL    HW128430   4.283   3.771   7.359  2.0500  1.7179  0.5664
 5598SOL    HW228431   4.148   3.820   7.337 -0.5002 -1.0685  0.9646
 5599SOL     OW28432   3.554   3.992   7.173 -0.2638  0.1368 -0.3589
 5599SOL    HW128433   3.473   3.944   7.155 -0.5200  0.8012 -0.9962
 5599SOL    HW228434   3.618   3.924   7.154 -2.2823 -1.5607 -1.0316
 5600SOL     OW28435   0.823   1.257   5.437  0.3119 -0.6029 -0.3312
 5600SOL    HW128436   0.820   1.332   5.377  1.9032  0.1411  0.5322
 5600SOL    HW228437   0.877   1.290   5.508 -2.9614  2.5654  0.7166
 5601SOL     OW28438   3.490   3.320  12.689  0.2692  0.4297 -0.2248
 5601SOL    HW128439   3.575   3.359  12.709  1.0096 -0.8979 -0.7460
 5601SOL    HW228440   3.499   3.291  12.598  1.0531  0.7769 -0.2559
 5602SOL     OW28441   0.530   2.642   5.780  0.3151 -0.1450  0.0085
 5602SOL    HW128442   0.625   2.647   5.770  0.2189 -0.0561 -0.9002
 5602SOL    HW228443   0.513   2.563   5.830 -0.9476  0.8858  1.2222
 5603SOL     OW28444   1.393   4.259  12.463 -0.2427  0.3738  0.4151
 5603SOL    HW128445   1.481   4.295  12.470  0.5667 -1.4881 -0.2995
 5603SOL    HW228446   1.331   4.327  12.435  0.0734  1.9671  3.6352
 5604SOL     OW28447   0.850   4.338  12.246 -0.1416 -0.1149  0.1137
 5604SOL    HW128448   0.788   4.321  12.317  1.7197 -1.2141  1.4805
 5604SOL    HW228449   0.909   4.264  12.261 -0.1435 -0.3192 -0.9106
 5605SOL     OW28450   1.604   4.463   4.390  0.1292  0.2859  0.2599
 5605SOL    HW128451   1.693   4.428   4.390  0.6175  1.5440  1.1911
 5605SOL    HW228452   1.591   4.466   4.295  1.5329  1.3312  0.0956
 5606SOL     OW28453   0.302   0.133   6.462 -0.5446  0.6034 -0.0979
 5606SOL    HW128454   0.350   0.075   6.403  0.7840  1.0013  0.5918
 5606SOL    HW228455   0.371   0.139   6.527 -0.1102 -1.2017 -0.3851
 5607SOL     OW28456   0.845   4.689   4.118  0.3336 -0.0829  0.5983
 5607SOL    HW128457   0.919   4.638   4.150  0.0724 -1.5043 -1.0088
 5607SOL    HW228458   0.882   0.021   4.062 -0.0440 -0.6997 -0.4069
 5608SOL     OW28459   2.792   3.474  17.385 -0.0733  0.1035 -0.2204
 5608SOL    HW128460   2.746   3.479  17.301 -0.4758 -3.2212 -0.1748
 5608SOL    HW228461   2.772   3.564  17.412  1.5633  0.7613 -1.1865
 5609SOL     OW28462   4.321   0.094   7.488 -0.1520  0.4232  0.2015
 5609SOL    HW128463   4.228   0.113   7.493 -0.5834 -1.4813 -0.3883
 5609SOL    HW228464   4.335   0.137   7.403  1.6802  1.4683  1.0288
 5610SOL     OW28465   1.018   4.646  11.692 -0.2837  0.1160 -0.1764
 5610SOL    HW128466   1.046   4.592  11.618 -0.0959  0.1070 -0.0985
 5610SOL    HW228467   1.082   4.624  11.759 -0.1183 -2.3241 -1.1483
 5611SOL     OW28468   2.877   1.941   8.031 -0.4713  0.2916 -0.5721
 5611SOL    HW128469   2.797   1.922   7.983 -1.2209 -1.1491  1.2543
 5611SOL    HW228470   2.942   1.878   8.001 -0.7184 -0.4177  0.3937
 5612SOL     OW28471   1.524   1.863   2.190 -0.3365 -0.1768 -0.5671
 5612SOL    HW128472   1.618   1.866   2.209 -0.7783 -0.5612  1.6612
 5612SOL    HW228473   1.501   1.956   2.196  0.3800  0.1738 -3.2326
 5613SOL     OW28474   2.552   4.229   7.930  0.3081  0.1860  0.3838
 5613SOL    HW128475   2.603   4.305   7.959  1.8406 -0.4204 -0.7217
 5613SOL    HW228476   2.526   4.249   7.840  1.7945 -0.6993 -0.2402
 5614SOL     OW28477   0.187   1.223  10.418 -0.2862  0.4139 -0.5802
 5614SOL    HW128478   0.102   1.210  10.458  0.8149  0.1462  1.6749
 5614SOL    HW228479   0.234   1.191  10.495  1.3491  3.5779 -0.2621
 5615SOL     OW28480   1.634   0.529   8.238 -0.1258  0.2151 -0.2698
 5615SOL    HW128481   1.619   0.435   8.234 -0.0790  0.2203 -0.5714
 5615SOL    HW228482   1.683   0.533   8.320  0.4051 -1.5780 -0.5110
 5616SOL     OW28483   4.586   1.554  15.692  0.2694  0.5736  0.5171
 5616SOL    HW128484   4.551   1.533  15.605 -0.3261  1.9320  0.4363
 5616SOL    HW228485   4.604   1.648  15.692 -1.0605  0.8203 -4.0686
 5617SOL     OW28486   4.524   3.665  17.356 -0.3562  0.3231  0.3963
 5617SOL    HW128487   4.586   3.671  17.429  0.9386 -2.0767 -0.5121
 5617SOL    HW228488   4.528   3.758  17.332 -0.7798  0.0980 -0.5468
 5618SOL     OW28489   1.443   3.067  10.548  0.9993 -0.0137 -0.1459
 5618SOL    HW128490   1.463   3.088  10.457 -1.0354  2.1877 -0.0862
 5618SOL    HW228491   1.451   3.148  10.599 -1.5871  0.3689 -0.3774
 5619SOL     OW28492   2.649   1.821   4.236 -0.7889  0.0946  0.5337
 5619SOL    HW128493   2.657   1.864   4.150  0.5450 -1.7047 -0.2394
 5619SOL    HW228494   2.588   1.873   4.288 -0.2203  0.7155  0.5843
 5620SOL     OW28495   2.123   2.435   9.544 -0.0273 -0.0171  0.3096
 5620SOL    HW128496   2.101   2.435   9.637  1.1245 -1.3920  0.5754
 5620SOL    HW228497   2.150   2.344   9.549 -0.4020 -0.2576 -1.8704
 5621SOL     OW28498   1.836   1.307  15.184 -0.6090  0.5366 -0.1135
 5621SOL    HW128499   1.898   1.235  15.171 -0.0068  1.1590 -0.7311
 5621SOL    HW228500   1.837   1.357  15.102 -1.5472 -0.6544 -0.8458
 5622SOL     OW28501   2.158   3.728   5.946  0.1579 -0.0029  0.3249
 5622SOL    HW128502   2.126   3.790   5.880 -2.9086 -0.5631  1.2575
 5622SOL    HW228503   2.242   3.703   5.908 -0.3695 -2.0968  0.5254
 5623SOL     OW28504   4.632   0.285   0.476  0.6209  0.3462 -0.2779
 5623SOL    HW128505   4.588   0.230   0.541  1.0123 -0.1106 -0.4010
 5623SOL    HW228506   4.719   0.266   0.510 -0.2931  1.4821  2.6672
 5624SOL     OW28507   1.109   2.861   2.980 -0.3337  0.0791 -0.1938
 5624SOL    HW128508   1.026   2.843   2.937 -0.1899  1.4166 -0.9994
 5624SOL    HW228509   1.074   2.882   3.067  1.6852  3.5679 -0.2390
 5625SOL     OW28510   1.030   4.560   5.151 -0.0952 -0.0845  0.5406
 5625SOL    HW128511   1.032   4.469   5.179  5.2483  0.2116  1.0462
 5625SOL    HW228512   0.988   4.555   5.065 -0.7022  2.0328  0.7217
 5626SOL     OW28513   3.890   3.615   3.163 -0.0956  0.3137  0.3373
 5626SOL    HW128514   3.870   3.668   3.087  2.1895  2.2221  1.0603
 5626SOL    HW228515   3.837   3.537   3.146  2.3770 -1.3985  0.4356
 5627SOL     OW28516   1.688   2.125   6.171  0.2972  0.4418 -0.1302
 5627SOL    HW128517   1.656   2.124   6.261 -3.1606  0.6616 -1.3741
 5627SOL    HW228518   1.606   2.092   6.137 -0.1159 -0.2295  1.5203
 5628SOL     OW28519   0.023   2.669   6.842  0.2406  0.3862  0.3688
 5628SOL    HW128520   4.712   2.741   6.882 -1.1841 -0.2596 -0.1668
 5628SOL    HW228521   4.694   2.609   6.806 -1.1033  2.8316 -1.2953
 5629SOL     OW28522   0.935   3.388   0.418  0.1541  0.3063 -0.3853
 5629SOL    HW128523   0.861   3.327   0.414 -0.0583  0.4887  0.8228
 5629SOL    HW228524   0.898   3.463   0.370 -0.3888  0.3767  0.1455
 5630SOL     OW28525   3.680   3.735   5.683  0.6329  0.2246 -0.0549
 5630SOL    HW128526   3.696   3.803   5.749 -3.5276  1.3112 -0.1824
 5630SOL    HW228527   3.717   3.773   5.603 -0.1035  0.2862 -0.3703
 5631SOL     OW28528   0.856   0.649   4.393 -0.7204  0.2323  0.4121
 5631SOL    HW128529   0.816   0.704   4.460  0.4498  0.2461  1.0957
 5631SOL    HW228530   0.774   0.611   4.362 -0.4929 -1.9627  2.5956
 5632SOL     OW28531   3.217   1.977  13.606  0.1639 -0.1833  0.2597
 5632SOL    HW128532   3.156   1.913  13.569  1.8488 -0.6217 -1.7031
 5632SOL    HW228533   3.252   1.916  13.671 -1.5077 -1.9372 -0.4961
 5633SOL     OW28534   0.831   3.029  11.216  0.0983 -0.5405 -0.4641
 5633SOL    HW128535   0.876   2.950  11.245 -1.5573 -2.3744 -2.9848
 5633SOL    HW228536   0.848   3.023  11.122 -0.4222 -1.7896 -0.4745
 5634SOL     OW28537   2.279   3.616   4.649 -0.1221  0.6990  0.7082
 5634SOL    HW128538   2.317   3.592   4.564 -0.7666  0.8832  0.3727
 5634SOL    HW228539   2.214   3.679   4.617  0.8185  1.1110 -0.4005
 5635SOL     OW28540   2.926   0.880   3.869 -0.7025  0.0553 -0.0289
 5635SOL    HW128541   2.885   0.877   3.783 -0.1005 -1.4788 -0.2541
 5635SOL    HW228542   2.925   0.975   3.879 -1.1175 -0.0022  0.4401
 5636SOL     OW28543   4.592   1.000   5.376  0.8047  0.2146 -0.1057
 5636SOL    HW128544   4.671   0.950   5.354  1.4915  1.2554  0.0132
 5636SOL    HW228545   4.521   0.962   5.323  0.8603 -1.6950  1.2068
 5637SOL     OW28546   3.159   0.659   5.981  0.2470 -0.2175 -0.8979
 5637SOL    HW128547   3.147   0.658   6.077 -0.6308 -0.2416 -1.0016
 5637SOL    HW228548   3.085   0.712   5.950 -0.0082 -1.3685 -2.2169
 5638SOL     OW28549   1.370   1.224   9.341  0.6164  0.0481 -0.1501
 5638SOL    HW128550   1.312   1.256   9.272 -0.5017 -0.5916  0.5099
 5638SOL    HW228551   1.440   1.188   9.287  0.3397 -0.3320 -0.2518
 5639SOL     OW28552   2.496   3.328   7.957 -0.1969 -0.7010 -0.4377
 5639SOL    HW128553   2.452   3.249   7.926  0.8544 -1.1233 -0.8308
 5639SOL    HW228554   2.545   3.282   8.025  1.4343  1.7413  0.0368
 5640SOL     OW28555   1.124   1.063   4.259 -0.3625  0.1200 -0.2147
 5640SOL    HW128556   1.067   1.005   4.209 -3.0306  0.5644  2.2443
 5640SOL    HW228557   1.184   0.994   4.286 -2.4211 -0.1183  3.8218
 5641SOL     OW28558   0.951   3.880   4.121 -0.4388  0.1728  0.4979
 5641SOL    HW128559   0.867   3.852   4.159 -0.5773  0.1456  0.1795
 5641SOL    HW228560   0.920   3.954   4.068  0.0424 -0.7920 -1.1335
 5642SOL     OW28561   4.707   3.673   2.848 -0.1292  0.3276 -0.4276
 5642SOL    HW128562   0.021   3.641   2.922  1.1254  0.4932 -1.1986
 5642SOL    HW228563   4.723   3.605   2.782 -0.1361 -0.3284  0.2509
 5643SOL     OW28564   3.954   2.235  14.343  0.1212  0.1761  0.3870
 5643SOL    HW128565   4.004   2.173  14.290 -1.2392 -2.6365  2.3802
 5643SOL    HW228566   3.962   2.321  14.303  2.0389 -0.1617  0.0693
 5644SOL     OW28567   1.650   2.134   5.044  0.7763  0.2276  0.4454
 5644SOL    HW128568   1.556   2.150   5.039  0.1263 -2.9327  2.3300
 5644SOL    HW228569   1.681   2.098   4.961 -1.1245 -1.6445  0.5315
 5645SOL     OW28570   1.679   3.060  13.085  0.5633 -0.4580  0.2091
 5645SOL    HW128571   1.621   2.985  13.098 -1.4829  1.0177 -0.4041
 5645SOL    HW228572   1.623   3.124  13.042  1.7274  2.0098  2.3457
 5646SOL     OW28573   2.551   1.365   6.074 -0.3605  0.0730 -0.2089
 5646SOL    HW128574   2.511   1.280   6.060 -1.3863  1.1151 -3.5559
 5646SOL    HW228575   2.473   1.421   6.072  1.0906  2.1916  1.2850
 5647SOL     OW28576   1.778   2.093   1.969  0.0168 -0.0196 -0.2263
 5647SOL    HW128577   1.793   2.013   2.020  0.9580 -0.6649 -1.5232
 5647SOL    HW228578   1.864   2.120   1.937  0.9007 -1.5071  0.8609
 5648SOL     OW28579   1.327   0.018   4.808 -0.0575 -0.1452  0.0955
 5648SOL    HW128580   1.321   0.002   4.902  2.0295 -3.2265 -0.3289
 5648SOL    HW228581   1.418   4.730   4.795 -0.5218 -1.4715 -0.5551
 5649SOL     OW28582   2.273   4.371   1.067 -0.3649 -0.1945 -0.2613
 5649SOL    HW128583   2.329   4.372   0.989 -0.2299  1.2699 -0.1512
 5649SOL    HW228584   2.199   4.314   1.047 -0.5094 -0.0617 -0.0973
 5650SOL     OW28585   2.614   1.299   1.591 -0.4932 -0.0323  0.4789
 5650SOL    HW128586   2.532   1.297   1.639 -1.6189 -0.0545 -1.4193
 5650SOL    HW228587   2.668   1.257   1.658  0.3706  0.6126  0.1816
 5651SOL     OW28588   1.735   0.401   8.467  0.0861  0.0880  0.3831
 5651SOL    HW128589   1.706   0.341   8.398 -0.2201 -0.5426  1.0585
 5651SOL    HW228590   1.673   0.390   8.539 -0.7639  0.2041 -0.3434
 5652SOL     OW28591   4.275   0.584   5.993 -0.2829 -0.3121 -0.6068
 5652SOL    HW128592   4.277   0.678   5.972  0.9730 -0.2238 -0.0914
 5652SOL    HW228593   4.365   0.556   5.978 -0.0474  1.7987 -3.1898
 5653SOL     OW28594   0.108   3.814   6.650 -0.2330 -0.1321  0.2275
 5653SOL    HW128595   0.030   3.815   6.595  0.6900 -0.4513 -1.0877
 5653SOL    HW228596   0.173   3.840   6.584  0.6465 -1.5548  0.5286
 5654SOL     OW28597   4.144   1.938  17.048 -0.9923  0.6427  0.4612
 5654SOL    HW128598   4.080   1.958  16.981 -1.0815 -1.7343 -0.1475
 5654SOL    HW228599   4.080   1.924  17.118 -0.1332  1.0361  1.3444
 5655SOL     OW28600   0.509   1.386  13.391  0.6580  0.3466  0.1986
 5655SOL    HW128601   0.552   1.373  13.475  2.1540  0.2217 -0.5884
 5655SOL    HW228602   0.418   1.388  13.419  0.1819 -1.4240 -1.1876
 5656SOL     OW28603   3.386   1.251  15.627  0.3955  0.0228 -0.3009
 5656SOL    HW128604   3.457   1.281  15.570  1.8114  0.1853  1.5490
 5656SOL    HW228605   3.415   1.253  15.719 -1.3652 -2.2821  0.2908
 5657SOL     OW28606   0.218   2.776   5.637 -0.3104  0.0315 -0.2100
 5657SOL    HW128607   0.162   2.699   5.632 -1.5750  1.0963 -2.3815
 5657SOL    HW228608   0.204   2.811   5.725  0.3194  1.3804 -0.6474
 5658SOL     OW28609   0.366   2.680   7.302  0.2254  0.0159  0.2249
 5658SOL    HW128610   0.428   2.721   7.241  0.7259 -1.3971 -0.2264
 5658SOL    HW228611   0.287   2.709   7.256 -0.9453  1.0750  2.9554
 5659SOL     OW28612   1.760   1.370   6.423 -0.4805  0.6561 -0.0036
 5659SOL    HW128613   1.734   1.421   6.346 -0.7790  1.0294  0.3456
 5659SOL    HW228614   1.707   1.410   6.492 -0.9741  0.5342 -0.3126
 5660SOL     OW28615   2.726   1.437   7.924 -0.6165  0.0631  0.1438
 5660SOL    HW128616   2.723   1.365   7.987 -1.9498 -1.0833 -1.2329
 5660SOL    HW228617   2.733   1.387   7.843 -0.8028  2.0363 -1.0913
 5661SOL     OW28618   3.520   4.131   9.930 -0.5533  0.6087  0.2516
 5661SOL    HW128619   3.481   4.043   9.939  0.8193 -0.3510 -3.3288
 5661SOL    HW228620   3.471   4.170   9.858  0.4390  0.1828 -0.6375
 5662SOL     OW28621   0.337   4.118   6.854  0.1264  0.0121 -0.1035
 5662SOL    HW128622   0.306   4.200   6.892  1.4966  0.6618 -0.3926
 5662SOL    HW228623   0.305   4.124   6.764 -0.8472 -0.8761  0.1897
 5663SOL     OW28624   3.376   0.827   7.294  0.0889 -0.5127  0.0732
 5663SOL    HW128625   3.421   0.854   7.374 -0.7626 -0.8965  0.6862
 5663SOL    HW228626   3.286   0.850   7.318  0.8584  1.8729  0.6718
 5664SOL     OW28627   1.423   4.252   5.787  0.1468  0.3417 -0.2604
 5664SOL    HW128628   1.412   4.159   5.770 -1.4665  0.6499 -0.9598
 5664SOL    HW228629   1.480   4.250   5.863  0.0613  0.4495 -0.1922
 5665SOL     OW28630   3.517   1.777   2.433  0.2809  0.1153 -0.3780
 5665SOL    HW128631   3.610   1.796   2.449 -0.1128  1.8812 -0.2128
 5665SOL    HW228632   3.513   1.806   2.342 -0.7747  0.3657 -0.2463
 5666SOL     OW28633   2.355   2.369   4.196 -0.1483 -0.0352 -0.1815
 5666SOL    HW128634   2.302   2.443   4.225  0.5346  0.0322  0.8741
 5666SOL    HW228635   2.416   2.418   4.140 -0.4497  3.0271  2.1808
 5667SOL     OW28636   2.857   3.402   9.014 -0.0605 -0.0764 -0.3775
 5667SOL    HW128637   2.835   3.454   9.091  0.2984  0.6656 -0.7658
 5667SOL    HW228638   2.906   3.470   8.967  0.5655 -1.8277 -2.2812
 5668SOL     OW28639   4.015   3.555  11.045 -0.0206 -0.1935  0.0551
 5668SOL    HW128640   3.952   3.598  10.987  1.7533  2.7620  0.3083
 5668SOL    HW228641   4.085   3.559  10.980  0.3908 -1.5467  0.4257
 5669SOL     OW28642   0.582   0.869   3.416 -0.0467 -0.0587 -0.1450
 5669SOL    HW128643   0.517   0.800   3.432 -0.8187  0.8441  0.6356
 5669SOL    HW228644   0.665   0.822   3.415 -0.2717 -0.4854  0.6794
 5670SOL     OW28645   4.493   0.039  16.769  0.4020  0.6799 -0.0769
 5670SOL    HW128646   4.434   0.049  16.843  0.9587 -0.4655  0.5153
 5670SOL    HW228647   4.573   0.006  16.810 -0.4953  1.6328  2.4213
 5671SOL     OW28648   1.641   3.854  12.871 -0.0413 -0.1057  0.2416
 5671SOL    HW128649   1.682   3.878  12.954 -0.6919 -0.8969  0.7990
 5671SOL    HW228650   1.671   3.926  12.815  1.2749  1.4392  2.9454
 5672SOL     OW28651   0.031   4.567   3.678  0.0993  0.5890 -0.0837
 5672SOL    HW128652   0.017   4.658   3.704 -0.9898  0.2541  0.5422
 5672SOL    HW228653   0.020   4.575   3.583 -4.1972 -0.6021  0.3109
 5673SOL     OW28654   0.413   1.894   7.192  0.1165  0.2735  0.4990
 5673SOL    HW128655   0.389   1.827   7.128 -3.1339  1.9053 -0.0028
 5673SOL    HW228656   0.377   1.855   7.272 -0.8540  2.0930  0.9615
 5674SOL     OW28657   1.670   4.356  14.983 -0.1527  0.1888 -0.3155
 5674SOL    HW128658   1.636   4.286  14.927 -0.2800  0.1747 -0.2219
 5674SOL    HW228659   1.763   4.348  14.965 -0.0182  1.5454 -0.2226
 5675SOL     OW28660   4.706   0.549   6.432  0.2413 -0.7482  0.2562
 5675SOL    HW128661   4.720   0.607   6.358 -1.8346 -0.5852 -0.0061
 5675SOL    HW228662   0.036   0.481   6.418  0.2664 -0.4795 -0.8896
 5676SOL     OW28663   3.935   2.454   1.464 -0.2016 -0.0930 -0.4421
 5676SOL    HW128664   3.939   2.361   1.442  0.2253  0.2243 -1.6613
 5676SOL    HW228665   3.998   2.485   1.400  2.4556 -1.9769  1.2353
 5677SOL     OW28666   2.899   0.609   8.475 -0.0885 -0.1796 -0.8039
 5677SOL    HW128667   2.840   0.676   8.440 -0.4042 -0.3118 -0.5309
 5677SOL    HW228668   2.929   0.584   8.387 -1.3486  1.3504 -1.6685
 5678SOL     OW28669   3.955   0.863   2.802  0.2685  0.1868 -0.3791
 5678SOL    HW128670   4.016   0.820   2.743  1.2175  0.4994  0.3749
 5678SOL    HW228671   3.896   0.789   2.819  0.1284  0.3485 -0.1475
 5679SOL     OW28672   3.501   2.739   0.158  0.8373 -0.3288 -0.0361
 5679SOL    HW128673   3.584   2.758   0.115  1.2795 -6.3999 -1.8002
 5679SOL    HW228674   3.501   2.811   0.222  2.9054 -0.4141  0.0470
 5680SOL     OW28675   2.935   3.479   1.142  0.1090 -0.3734  0.0503
 5680SOL    HW128676   2.981   3.478   1.058 -1.8333 -1.0842 -1.0206
 5680SOL    HW228677   3.002   3.503   1.205  0.4766 -1.0067 -0.0987
 5681SOL     OW28678   3.307   0.931   4.060  0.1530  0.0073  0.4797
 5681SOL    HW128679   3.246   0.992   4.018  0.3128  1.5606  2.5083
 5681SOL    HW228680   3.273   0.852   4.017  2.0799 -0.7365  0.3038
 5682SOL     OW28681   3.816   4.410   6.394  0.0234 -0.1027 -0.2977
 5682SOL    HW128682   3.723   4.418   6.417 -0.0636  1.3460 -1.1769
 5682SOL    HW228683   3.863   4.475   6.446  0.3103 -0.3724 -0.2247
 5683SOL     OW28684   3.417   2.172   0.882 -0.0726 -0.2802  0.0234
 5683SOL    HW128685   3.372   2.110   0.939 -2.0265  1.8239  0.7556
 5683SOL    HW228686   3.413   2.121   0.801 -0.8291  2.3351 -1.5878
 5684SOL     OW28687   1.399   1.299   2.115 -0.4055 -0.2539 -0.5217
 5684SOL    HW128688   1.466   1.330   2.054  0.4037  0.3452  0.6693
 5684SOL    HW228689   1.321   1.318   2.062 -0.7187  2.1355  0.8194
 5685SOL     OW28690   4.463   2.273   8.164 -0.2206  0.2556  0.2927
 5685SOL    HW128691   4.369   2.288   8.172 -0.1282  1.1781 -0.3744
 5685SOL    HW228692   4.472   2.318   8.080  1.3652 -1.0985 -0.2522
 5686SOL     OW28693   3.360   3.487   1.451  0.0777  0.6687  0.4365
 5686SOL    HW128694   3.367   3.439   1.369  1.4295  0.4935  0.6648
 5686SOL    HW228695   3.444   3.531   1.456  1.0138 -1.0716 -0.0115
 5687SOL     OW28696   0.543   4.368   2.002 -0.6283  0.2864  0.1357
 5687SOL    HW128697   0.572   4.282   2.032  1.1021  0.8033 -0.0919
 5687SOL    HW228698   0.489   4.398   2.075 -0.2905  1.7116 -0.2092
 5688SOL     OW28699   2.925   0.821   5.205 -0.3658  0.2086 -0.5402
 5688SOL    HW128700   3.018   0.839   5.219 -0.6811 -0.0208  1.9109
 5688SOL    HW228701   2.922   0.832   5.110  1.0244  1.9317 -0.3896
 5689SOL     OW28702   0.309   0.961  11.209 -0.2413  0.4889 -0.1682
 5689SOL    HW128703   0.321   0.878  11.254  1.6682  0.3025 -1.0085
 5689SOL    HW228704   0.232   0.943  11.154 -1.4685  2.9605  0.7362
 5690SOL     OW28705   0.019   3.089   8.798  0.2570  0.2472 -0.0085
 5690SOL    HW128706   0.055   3.015   8.848 -0.1023 -0.5910 -0.9882
 5690SOL    HW228707   0.039   3.162   8.856  2.2107  0.9634 -1.5817
 5691SOL     OW28708   4.299   0.341  13.719 -0.8580  0.3043 -0.3213
 5691SOL    HW128709   4.241   0.266  13.707 -1.9101  1.1969 -0.7799
 5691SOL    HW228710   4.288   0.391  13.638  0.8688 -0.1465 -0.8232
 5692SOL     OW28711   1.607   2.563   5.425  1.1364  0.7925 -0.0686
 5692SOL    HW128712   1.605   2.615   5.505 -0.7457  1.4680 -0.5785
 5692SOL    HW228713   1.681   2.506   5.446  0.2081 -0.6910 -0.8129
 5693SOL     OW28714   1.673   0.388   5.189  0.1994 -0.1592  0.2666
 5693SOL    HW128715   1.601   0.331   5.214 -0.0290  0.4036  0.8942
 5693SOL    HW228716   1.734   0.389   5.263 -0.6940 -0.4729  1.0011
 5694SOL     OW28717   3.440   1.553   6.345  0.1041 -0.1466  0.8367
 5694SOL    HW128718   3.510   1.489   6.353 -0.4353 -0.7569  0.6509
 5694SOL    HW228719   3.381   1.537   6.419  0.9026 -0.6259  1.3648
 5695SOL     OW28720   0.428   0.814  16.200  0.5558 -0.3193  0.0216
 5695SOL    HW128721   0.493   0.744  16.192 -0.5523 -1.1514 -1.5639
 5695SOL    HW228722   0.472   0.882  16.149 -2.9258  0.9161 -1.2960
 5696SOL     OW28723   4.088   4.264   8.248 -0.1815  0.1302 -0.5205
 5696SOL    HW128724   4.160   4.270   8.310 -0.8626  2.5383  0.0737
 5696SOL    HW228725   4.070   4.358   8.235 -1.7386 -0.1645 -0.4776
 5697SOL     OW28726   2.540   4.146   4.204 -0.3754 -0.0416  0.3105
 5697SOL    HW128727   2.625   4.116   4.237 -0.4783 -2.3765 -1.5460
 5697SOL    HW228728   2.493   4.158   4.286 -0.1939 -1.6013  0.6416
 5698SOL     OW28729   1.258   4.619   3.273 -0.5123 -1.1504  0.1436
 5698SOL    HW128730   1.279   4.690   3.333  0.6818 -0.0766 -1.5648
 5698SOL    HW228731   1.302   4.644   3.192  0.7188 -4.0311 -0.0730
 5699SOL     OW28732   2.721   2.419   8.219 -0.0438  0.1950 -0.4053
 5699SOL    HW128733   2.666   2.453   8.290 -2.4712  2.7587 -3.4937
 5699SOL    HW228734   2.806   2.453   8.247 -0.1391 -0.7598  1.0361
 5700SOL     OW28735   4.641   3.970   1.939  0.0839 -0.0187 -0.8159
 5700SOL    HW128736   4.719   4.024   1.950  0.7513 -1.2611  0.4939
 5700SOL    HW228737   4.593   3.976   2.022  1.7022 -0.8491  0.1756
 5701SOL     OW28738   1.380   3.168  12.758 -0.2351 -0.1555 -0.2638
 5701SOL    HW128739   1.365   3.182  12.664  1.0971 -1.4170 -0.6617
 5701SOL    HW228740   1.298   3.197  12.799  1.3857 -0.2135  3.0236
 5702SOL     OW28741   4.669   4.042   7.196  0.6091  0.0203  0.6133
 5702SOL    HW128742   4.582   4.045   7.235  0.6374 -2.0698  0.8387
 5702SOL    HW228743   4.695   4.135   7.196 -0.2557  0.2690 -1.2030
 5703SOL     OW28744   0.209   1.277  16.813  0.2935 -0.5773  0.1308
 5703SOL    HW128745   0.230   1.348  16.873  1.3098  1.6811 -2.9339
 5703SOL    HW228746   0.291   1.242  16.780  0.8729  0.9241 -0.0001
 5704SOL     OW28747   2.080   1.325   3.118  0.1288 -0.7561  0.2506
 5704SOL    HW128748   1.991   1.291   3.119  0.2790 -1.1405  0.5797
 5704SOL    HW228749   2.071   1.415   3.149 -0.8860 -1.0533  0.8068
 5705SOL     OW28750   3.707   1.312   4.683 -0.0550 -0.4777 -0.0753
 5705SOL    HW128751   3.686   1.349   4.768  1.7539  0.9743 -0.2616
 5705SOL    HW228752   3.650   1.235   4.683  0.0997 -0.5931 -0.0180
 5706SOL     OW28753   3.573   0.811   6.462 -0.2000 -1.0531 -0.0736
 5706SOL    HW128754   3.511   0.744   6.434 -1.8138  0.0482  0.8488
 5706SOL    HW228755   3.605   0.773   6.544  0.6917  2.4141  1.1863
 5707SOL     OW28756   1.922   3.776  17.727 -0.0190 -0.2278  0.2094
 5707SOL    HW128757   1.862   3.803  17.656  1.1376  0.1569 -0.6225
 5707SOL    HW228758   1.877   3.826   0.050  2.3493  0.0270  1.5923
 5708SOL     OW28759   3.259   3.678  11.086  0.4439  0.2045 -0.4316
 5708SOL    HW128760   3.194   3.738  11.050 -0.7900 -1.6612 -1.3003
 5708SOL    HW228761   3.290   3.629  11.009  0.8471  0.1903 -0.2616
 5709SOL     OW28762   1.553   1.771   4.656 -0.3013  0.0402  0.5029
 5709SOL    HW128763   1.568   1.862   4.684 -1.5263  0.3107  0.3044
 5709SOL    HW228764   1.482   1.747   4.716 -1.5325 -1.6843 -1.6548
 5710SOL     OW28765   3.251   4.223   8.952 -0.9501  0.3005  0.1523
 5710SOL    HW128766   3.185   4.164   8.916  1.4252 -2.7933  0.8095
 5710SOL    HW228767   3.303   4.165   9.009 -0.5947  1.2938  0.8301
 5711SOL     OW28768   1.503   0.608   5.477  0.5452 -0.0111 -0.1084
 5711SOL    HW128769   1.468   0.519   5.476 -0.0634  0.2498 -1.8356
 5711SOL    HW228770   1.595   0.590   5.494 -0.1849 -2.5020  1.1654
 5712SOL     OW28771   0.635   2.792   9.162 -0.5908  0.0839 -0.7321
 5712SOL    HW128772   0.725   2.765   9.147 -0.7518 -0.1205 -1.3361
 5712SOL    HW228773   0.592   2.732   9.222 -2.5056  1.3730 -0.7854
 5713SOL     OW28774   2.276   3.477   2.214 -0.3203 -0.0118  0.0896
 5713SOL    HW128775   2.231   3.433   2.141 -1.3359  1.7961 -0.3706
 5713SOL    HW228776   2.354   3.518   2.176  0.6306 -0.7002  1.3156
 5714SOL     OW28777   0.287   3.807   5.192 -0.1237  0.1649 -0.1048
 5714SOL    HW128778   0.261   3.849   5.273 -0.4012 -1.8800  0.8618
 5714SOL    HW228779   0.370   3.852   5.171  1.1953 -1.8730  0.7490
 5715SOL     OW28780   1.306   1.451  11.403 -0.4163 -0.1335 -0.1206
 5715SOL    HW128781   1.310   1.443  11.498  0.4724 -1.4310 -0.2677
 5715SOL    HW228782   1.241   1.521  11.391  1.2715  1.6315  0.9173
 5716SOL     OW28783   3.618   4.723   8.161 -0.1831  0.2752  0.4137
 5716SOL    HW128784   3.549   4.698   8.101 -1.1244  0.4106  1.4365
 5716SOL    HW228785   3.571   0.034   8.230  1.6473  1.0690  1.1386
 5717SOL     OW28786   1.572   4.254   4.721  1.0606  0.2041  0.0560
 5717SOL    HW128787   1.563   4.235   4.814  0.3788 -0.3797 -0.1277
 5717SOL    HW228788   1.666   4.261   4.707  1.5816 -3.3135  1.7212
 5718SOL     OW28789   3.234   3.461  12.315 -0.2040 -0.3011  0.0683
 5718SOL    HW128790   3.220   3.426  12.226 -1.4790  1.3336 -0.3813
 5718SOL    HW228791   3.224   3.381  12.366  0.5859 -0.1755  0.4212
 5719SOL     OW28792   3.159   2.357   8.555  0.7378  0.1366 -1.2054
 5719SOL    HW128793   3.189   2.266   8.559 -0.5191 -0.2950 -1.6966
 5719SOL    HW228794   3.130   2.364   8.646 -0.3963 -0.3173 -1.5357
 5720SOL     OW28795   3.751   2.408  11.851 -0.1070 -0.2168  0.1152
 5720SOL    HW128796   3.670   2.362  11.873 -0.1638  0.0684  0.5017
 5720SOL    HW228797   3.811   2.337  11.827  0.2808 -0.2419  1.1710
 5721SOL     OW28798   4.166   0.956   4.409 -0.1201 -0.3254  0.4844
 5721SOL    HW128799   4.245   0.936   4.359 -1.0399 -2.8648  0.0640
 5721SOL    HW228800   4.184   1.043   4.445 -0.5056  1.1546 -2.8529
 5722SOL     OW28801   0.072   2.045   8.160 -0.5516  0.2897  0.1444
 5722SOL    HW128802   0.113   2.120   8.118 -1.8839  0.8725 -0.1150
 5722SOL    HW228803   0.103   1.971   8.108 -0.9342  0.0475  0.2533
 5723SOL     OW28804   1.160   2.779  17.247 -0.3782 -0.0464 -0.0532
 5723SOL    HW128805   1.087   2.721  17.267  0.2747 -0.0963  2.2520
 5723SOL    HW228806   1.115   2.848  17.198  0.8827  1.4603  0.8640
 5724SOL     OW28807   4.364   2.790   3.693 -0.0244 -1.1652 -0.2439
 5724SOL    HW128808   4.420   2.758   3.765  1.5419  1.4605 -0.2969
 5724SOL    HW228809   4.318   2.867   3.725  0.8015 -0.6168 -0.3816
 5725SOL     OW28810   1.820   3.676  11.662  0.4609  0.1697 -0.0095
 5725SOL    HW128811   1.830   3.755  11.714 -1.4729 -0.6177  1.5862
 5725SOL    HW228812   1.826   3.602  11.722 -0.6991 -0.9109 -1.2035
 5726SOL     OW28813   2.400   4.327  10.447  0.6390  0.0356 -0.1375
 5726SOL    HW128814   2.463   4.352  10.514  1.3775 -1.2681 -0.3664
 5726SOL    HW228815   2.433   4.368  10.367 -0.8647  0.8326 -0.3596
 5727SOL     OW28816   0.398   4.352   0.212 -0.0696 -0.0740  0.0765
 5727SOL    HW128817   0.341   4.421   0.246 -2.0296 -1.1304 -1.0472
 5727SOL    HW228818   0.441   4.329   0.294  1.5094 -0.1648 -0.7780
 5728SOL     OW28819   0.453   0.093  15.488  0.3432  0.0885  0.1790
 5728SOL    HW128820   0.483   0.135  15.408 -0.3879 -2.0027 -1.1848
 5728SOL    HW228821   0.399   0.021  15.455 -0.3869  0.1819  1.1549
 5729SOL     OW28822   4.497   1.696   8.152 -0.5608  0.5058  0.3269
 5729SOL    HW128823   4.496   1.649   8.236  0.5513 -1.0333 -0.5107
 5729SOL    HW228824   4.404   1.717   8.142 -1.1051 -2.0283 -0.2222
 5730SOL     OW28825   2.026   4.409   8.029  0.6578  0.3347  0.0883
 5730SOL    HW128826   2.002   4.378   8.117 -0.1193 -0.7676 -0.5100
 5730SOL    HW228827   2.071   4.334   7.990  0.9752  1.0305 -0.8851
 5731SOL     OW28828   4.145   0.435  15.055 -0.2104  0.4119 -0.2727
 5731SOL    HW128829   4.096   0.473  15.128 -1.5787 -2.0669  0.1072
 5731SOL    HW228830   4.170   0.358  15.106 -1.0634 -0.8995 -1.8184
 5732SOL     OW28831   3.122   4.538   1.929  0.0529  0.7083  0.5992
 5732SOL    HW128832   3.124   4.623   1.972  1.4238  1.0669 -0.1789
 5732SOL    HW228833   3.126   4.480   2.005  2.5535  0.2810  0.1483
 5733SOL     OW28834   4.363   3.444   9.860  0.0808 -0.1048  0.1727
 5733SOL    HW128835   4.456   3.454   9.879  0.2248 -1.8405  0.3707
 5733SOL    HW228836   4.340   3.533   9.888  1.5426  0.5526 -0.7480
 5734SOL     OW28837   3.575   0.823   8.922  0.0712 -0.0161 -0.4074
 5734SOL    HW128838   3.482   0.824   8.943  0.0879 -0.0905 -0.3300
 5734SOL    HW228839   3.610   0.750   8.973 -0.9039 -0.6216 -0.5973
 5735SOL     OW28840   3.006   0.346  17.319 -0.5104 -0.4483 -1.1241
 5735SOL    HW128841   3.000   0.441  17.315  1.2237 -0.2261  1.1615
 5735SOL    HW228842   3.095   0.332  17.354 -1.6063 -1.2534  1.3515
 5736SOL     OW28843   0.363   2.140   8.851  0.5271  0.1832  0.4074
 5736SOL    HW128844   0.321   2.187   8.923 -0.1124  0.1718  0.0511
 5736SOL    HW228845   0.372   2.216   8.793 -1.3187 -0.0821 -0.2387
 5737SOL     OW28846   1.621   2.876   3.729 -0.0683 -0.1972  0.2319
 5737SOL    HW128847   1.640   2.896   3.820 -2.0885  1.6003  0.2582
 5737SOL    HW228848   1.702   2.910   3.691  0.6035 -0.6566  1.2521
 5738SOL     OW28849   1.264   3.204   8.485 -0.4540  0.5162 -0.6719
 5738SOL    HW128850   1.169   3.195   8.488 -0.5604  2.0724  0.6741
 5738SOL    HW228851   1.275   3.295   8.457 -0.7026  0.6407 -0.3497
 5739SOL     OW28852   1.687   3.583  12.836  0.5283 -0.1486  0.0257
 5739SOL    HW128853   1.652   3.672  12.850 -0.8099 -0.9738  1.8547
 5739SOL    HW228854   1.654   3.552  12.752  2.5198  2.3468 -1.6819
 5740SOL     OW28855   4.215   4.307   6.706 -0.3681 -0.1318  0.4112
 5740SOL    HW128856   4.283   4.353   6.756 -0.9932  0.0968  1.0469
 5740SOL    HW228857   4.276   4.249   6.661 -1.4913 -0.5214 -0.6071
 5741SOL     OW28858   2.508   1.227   7.572 -0.2229 -0.6655 -0.2624
 5741SOL    HW128859   2.494   1.318   7.598 -0.0265 -0.1951 -1.8142
 5741SOL    HW228860   2.557   1.197   7.648  0.9957 -0.7958 -1.0934
 5742SOL     OW28861   2.773   1.193   4.909  0.9814 -0.2870  0.5439
 5742SOL    HW128862   2.828   1.264   4.943  3.0785 -2.6045  1.9470
 5742SOL    HW228863   2.834   1.120   4.903  0.9182 -0.2580 -0.6394
 5743SOL     OW28864   4.141   3.249   7.784  0.1570  0.1102 -0.2842
 5743SOL    HW128865   4.208   3.214   7.842  1.5380  2.4228 -0.4940
 5743SOL    HW228866   4.134   3.339   7.816  0.4074  0.1244 -0.2726
 5744SOL     OW28867   2.121   1.654  12.441 -0.2683  0.1596  0.1047
 5744SOL    HW128868   2.174   1.579  12.469  1.0234  1.2090  0.4918
 5744SOL    HW228869   2.072   1.672  12.521 -1.3651  0.3728 -0.6272
 5745SOL     OW28870   0.286   1.117  13.377  0.1912  0.2092 -0.2346
 5745SOL    HW128871   0.202   1.090  13.414 -0.1834 -1.9398 -2.6870
 5745SOL    HW228872   0.298   1.206  13.410 -0.5655  0.2403 -0.0480
 5746SOL     OW28873   3.323   1.769   6.935  0.5146 -0.1286 -0.3173
 5746SOL    HW128874   3.291   1.835   6.997 -0.0223 -0.1105 -0.6181
 5746SOL    HW228875   3.404   1.744   6.980 -1.6974  0.5435  4.0513
 5747SOL     OW28876   3.739   4.029  16.681 -0.5093 -0.2420 -0.8910
 5747SOL    HW128877   3.749   4.117  16.645 -0.5824  0.1725  0.1054
 5747SOL    HW228878   3.688   3.982  16.615 -0.6372 -0.6064 -0.5311
 5748SOL     OW28879   0.751   0.227  13.716 -0.1396 -0.6739 -0.2038
 5748SOL    HW128880   0.792   0.189  13.794  1.4734 -3.3306 -2.3570
 5748SOL    HW228881   0.827   0.231  13.658  0.1341  0.6999  0.2441
 5749SOL     OW28882   0.769   3.986  15.086 -0.4707  0.0309 -0.4774
 5749SOL    HW128883   0.765   4.015  14.995 -2.0371 -2.0322 -1.0605
 5749SOL    HW228884   0.767   4.067  15.137 -0.1287  1.3144 -2.4722
 5750SOL     OW28885   3.569   2.049   3.872  0.6359 -0.6601 -0.4476
 5750SOL    HW128886   3.595   1.961   3.846  0.9572 -0.9950  0.9975
 5750SOL    HW228887   3.652   2.093   3.849 -0.3909  1.3212 -0.3704
 5751SOL     OW28888   3.329   1.288  17.198 -0.0417 -0.0112 -0.0354
 5751SOL    HW128889   3.287   1.373  17.211 -1.8559 -1.0785  0.9607
 5751SOL    HW228890   3.291   1.232  17.265  0.1515 -0.6380 -0.4540
 5752SOL     OW28891   0.139   0.398  11.610 -0.2966  0.5485 -1.0228
 5752SOL    HW128892   0.212   0.414  11.549  0.2859  0.8403 -0.2457
 5752SOL    HW228893   0.056   0.393  11.562 -0.3939  0.4074 -0.8390
 5753SOL     OW28894   4.274   2.338   6.371 -0.2758  0.2117  0.4019
 5753SOL    HW128895   4.328   2.319   6.448  0.6417  0.5598 -0.1614
 5753SOL    HW228896   4.314   2.419   6.339  2.0766 -1.6863 -1.4882
 5754SOL     OW28897   4.488   2.730   6.157 -0.0502  0.1885 -0.2321
 5754SOL    HW128898   4.402   2.751   6.192  0.3511 -1.1947  1.5760
 5754SOL    HW228899   4.545   2.785   6.210 -0.2910  2.5928 -2.4490
 5755SOL     OW28900   1.131   0.274   5.018  0.0231 -0.0692  0.5637
 5755SOL    HW128901   1.146   0.364   4.988  0.2811 -0.0616  0.7196
 5755SOL    HW228902   1.121   0.283   5.113  1.9048 -0.1085  0.7686
 5756SOL     OW28903   1.513   1.645   3.431 -0.3295  0.0284  0.9398
 5756SOL    HW128904   1.575   1.574   3.450 -0.6664 -0.3170  0.7439
 5756SOL    HW228905   1.516   1.641   3.336  0.5866 -1.3426  1.0165
 5757SOL     OW28906   0.386   3.124  12.263 -0.0317  0.3125 -0.3761
 5757SOL    HW128907   0.303   3.170  12.274  0.8288  0.8835  3.6304
 5757SOL    HW228908   0.362   3.034  12.285  2.7797 -0.4993 -0.7128
 5758SOL     OW28909   0.254   4.162   7.678  0.3862  0.2716 -0.4261
 5758SOL    HW128910   0.278   4.132   7.590  0.0785 -0.1383 -0.3712
 5758SOL    HW228911   0.169   4.201   7.657  0.7990  1.8567  0.8983
 5759SOL     OW28912   1.955   4.124   0.418  0.6551  0.8075  0.1724
 5759SOL    HW128913   1.941   4.175   0.339 -0.8431  0.5634  0.2920
 5759SOL    HW228914   2.039   4.155   0.454  0.4082  1.1783  0.4282
 5760SOL     OW28915   3.552   1.136   2.484  0.2600 -0.1837 -0.4962
 5760SOL    HW128916   3.557   1.091   2.569 -0.8835 -1.0239 -0.8753
 5760SOL    HW228917   3.457   1.144   2.479  0.1097 -0.9554  0.8995
 5761SOL     OW28918   1.131   3.459   5.755  0.6553 -0.3172  0.1529
 5761SOL    HW128919   1.105   3.551   5.747 -0.8195 -0.8529 -1.1101
 5761SOL    HW228920   1.043   3.425   5.766  0.2659  0.4028 -0.7238
 5762SOL     OW28921   0.307   1.339  17.150 -0.0440 -0.6480  0.6151
 5762SOL    HW128922   0.395   1.336  17.186 -0.3304  2.5683  1.5631
 5762SOL    HW228923   0.298   1.253  17.109 -3.0593  0.1349 -0.3918
 5763SOL     OW28924   0.722   2.386   4.637 -0.5991  0.0513 -0.0135
 5763SOL    HW128925   0.686   2.470   4.606  0.2457  0.0504 -0.9965
 5763SOL    HW228926   0.666   2.378   4.714 -2.5345  3.3125 -1.0425
 5764SOL     OW28927   2.197   1.675  11.279  0.1533 -0.6406  0.0518
 5764SOL    HW128928   2.186   1.698  11.371 -0.5422  0.6880 -0.3735
 5764SOL    HW228929   2.150   1.743  11.231  0.3017  0.2608  1.1748
 5765SOL     OW28930   0.679   0.361   5.813  0.1387  0.0592  0.0618
 5765SOL    HW128931   0.626   0.329   5.740 -1.6344  1.5408  0.6865
 5765SOL    HW228932   0.750   0.298   5.806  0.6439  0.6444 -0.0252
 5766SOL     OW28933   3.257   1.076  17.398  0.4121 -0.3097 -0.2989
 5766SOL    HW128934   3.203   1.029  17.460 -1.1716  0.5308 -1.0409
 5766SOL    HW228935   3.338   1.033  17.426  0.8916  0.4796 -0.4413
 5767SOL     OW28936   3.601   1.359   5.502 -0.2335  0.1268 -0.1908
 5767SOL    HW128937   3.681   1.407   5.524  0.2376 -0.7114 -0.0814
 5767SOL    HW228938   3.547   1.426   5.460  0.5788  0.8942 -0.0352
 5768SOL     OW28939   3.631   2.386  17.697 -0.2184  0.4814  0.2296
 5768SOL    HW128940   3.612   2.356  17.608  0.8752 -0.9962  0.4953
 5768SOL    HW228941   3.700   2.325  17.722  1.7133  1.9059 -1.6557
 5769SOL     OW28942   0.856   3.890  15.696 -0.4716 -0.2767 -0.4326
 5769SOL    HW128943   0.915   3.940  15.640  2.0425 -1.5673  1.0338
 5769SOL    HW228944   0.803   3.850  15.627  0.2953 -0.4961 -0.8877
 5770SOL     OW28945   0.619   4.670   6.614  0.2504 -0.4898 -0.5432
 5770SOL    HW128946   0.581   0.020   6.633  0.3290 -0.7505  0.8011
 5770SOL    HW228947   0.673   4.693   6.538  0.0901 -1.5361 -0.9647
 5771SOL     OW28948   0.677   3.794   7.345 -0.2223 -0.0290  0.4098
 5771SOL    HW128949   0.642   3.832   7.265 -0.9860 -0.1907  0.6732
 5771SOL    HW228950   0.597   3.776   7.394 -0.6941  0.7742 -0.0584
 5772SOL     OW28951   0.442   3.040  14.346 -0.2627  0.1470  0.4311
 5772SOL    HW128952   0.508   2.988  14.299  0.7282  2.7407 -1.0485
 5772SOL    HW228953   0.380   3.063  14.278  1.0970  0.2326 -0.7833
 5773SOL     OW28954   1.153   1.781   7.084  0.2135  0.3694 -0.4871
 5773SOL    HW128955   1.224   1.845   7.087 -0.6153  1.3269 -0.9841
 5773SOL    HW228956   1.076   1.837   7.097  0.5755  1.2374 -2.0917
 5774SOL     OW28957   1.616   4.338   2.625  0.0995  1.1361  0.0590
 5774SOL    HW128958   1.604   4.262   2.567  0.3305  1.4138 -0.3591
 5774SOL    HW228959   1.697   4.309   2.668 -0.4862 -2.5333 -1.3651
 5775SOL     OW28960   4.465   1.886  17.279 -0.3948 -0.6629  0.5207
 5775SOL    HW128961   4.481   1.851  17.191  1.3283 -1.4336  1.1284
 5775SOL    HW228962   4.533   1.953  17.287  0.1575 -1.2822  1.1315
 5776SOL     OW28963   1.988   3.114   4.800  0.1883  0.0016 -0.0401
 5776SOL    HW128964   1.917   3.158   4.846  0.7094  1.0702 -0.2414
 5776SOL    HW228965   1.995   3.159   4.716  3.3502 -0.4184 -0.0026
 5777SOL     OW28966   1.117   1.829  10.702 -0.7066 -0.3667  0.4928
 5777SOL    HW128967   1.208   1.857  10.705 -0.2152 -1.7346 -1.7458
 5777SOL    HW228968   1.105   1.808  10.609  2.1051 -0.5658  0.1851
 5778SOL     OW28969   4.709   0.943  11.265  0.7459 -0.0276  0.6429
 5778SOL    HW128970   0.036   1.013  11.282  1.3259 -0.6783  1.1896
 5778SOL    HW228971   0.021   0.896  11.196  2.7784 -0.7806  2.5918
 5779SOL     OW28972   3.733   2.936   7.946 -0.7451 -0.4294 -0.4573
 5779SOL    HW128973   3.744   2.881   7.868  0.6531  1.1347 -1.3764
 5779SOL    HW228974   3.790   3.003   7.908 -0.7269 -0.1022  0.1620
 5780SOL     OW28975   0.636   2.235   4.161  0.4358  0.0100  0.4199
 5780SOL    HW128976   0.695   2.300   4.198  0.2934 -1.1835  2.7376
 5780SOL    HW228977   0.593   2.208   4.242  1.8281 -1.6583  0.6042
 5781SOL     OW28978   0.768   3.593   7.775 -0.0205 -0.1453  0.0052
 5781SOL    HW128979   0.795   3.623   7.688  1.0027  1.0102  0.7165
 5781SOL    HW228980   0.717   3.666   7.811 -0.0369  0.7604 -1.8542
 5782SOL     OW28981   4.156   2.468   2.216  0.4401  0.1317 -0.3135
 5782SOL    HW128982   4.108   2.480   2.299  0.2213  1.6434 -0.6561
 5782SOL    HW228983   4.100   2.493   2.143  1.1076 -0.3056 -0.9703
 5783SOL     OW28984   1.450   2.901  17.571  0.5681  0.0392 -0.5981
 5783SOL    HW128985   1.517   2.841  17.540  1.1546  1.1723 -1.4944
 5783SOL    HW228986   1.462   2.907  17.666  1.6081  1.4378 -0.8139
 5784SOL     OW28987   2.111   2.434   9.833  0.6625 -0.3493  0.0747
 5784SOL    HW128988   2.017   2.442   9.844  0.7328  1.5211 -0.7798
 5784SOL    HW228989   2.140   2.459   9.921  0.2692 -1.0272  0.3983
 5785SOL     OW28990   4.502   2.020   0.565  0.2375  0.2020 -0.6913
 5785SOL    HW128991   4.549   2.059   0.490 -1.4759  2.4622 -0.5993
 5785SOL    HW228992   4.568   2.036   0.632  0.4966  0.2523 -0.9567
 5786SOL     OW28993   1.523   2.189  17.442  0.2758  0.5913 -0.4417
 5786SOL    HW128994   1.584   2.257  17.414  2.4996 -0.8681  0.8063
 5786SOL    HW228995   1.538   2.111  17.388 -1.9914 -0.3642  0.3236
 5787SOL     OW28996   2.406   4.522   5.939 -0.0811 -0.4566 -0.1695
 5787SOL    HW128997   2.472   4.587   5.964  0.0088  0.0513 -1.7226
 5787SOL    HW228998   2.464   4.447   5.922  1.4793  0.9324 -1.0768
 5788SOL     OW28999   3.137   1.041   5.648  0.2506 -0.5323 -0.9574
 5788SOL    HW129000   3.049   1.054   5.682  0.2346 -0.3115 -1.0808
 5788SOL    HW229001   3.153   0.951   5.675  0.5595 -0.0339  0.5405
 5789SOL     OW29002   4.588   1.307   2.980  0.5320  0.0650  0.3574
 5789SOL    HW129003   4.565   1.331   3.070 -0.6945  0.8107 -0.1565
 5789SOL    HW229004   4.594   1.396   2.946  1.1819 -0.2377 -0.3165
 5790SOL     OW29005   0.055   2.109   4.316 -0.2668  0.3031 -0.0664
 5790SOL    HW129006   0.149   2.089   4.313 -0.3717 -0.3059  1.0141
 5790SOL    HW229007   0.053   2.126   4.410  0.8525 -0.2407  0.0526
 5791SOL     OW29008   1.553   1.672  11.726  0.2778  0.2313 -0.1901
 5791SOL    HW129009   1.626   1.617  11.754 -0.0460 -0.2498 -0.2779
 5791SOL    HW229010   1.543   1.654  11.632  0.8578  0.2862 -0.2646
 5792SOL     OW29011   2.248   1.509  10.058  0.4857 -0.4371 -0.2097
 5792SOL    HW129012   2.335   1.539  10.085  0.8330 -0.1587 -1.6028
 5792SOL    HW229013   2.225   1.576   9.994  2.0277  1.1213  0.8728
 5793SOL     OW29014   4.533   3.119   4.432  0.1328  0.3667 -0.2660
 5793SOL    HW129015   4.523   3.175   4.509  0.5566  0.7683 -0.5062
 5793SOL    HW229016   4.555   3.031   4.463  1.6833 -0.1428 -2.8397
 5794SOL     OW29017   2.793   1.058   2.508  0.3932  0.3245 -0.0542
 5794SOL    HW129018   2.767   1.024   2.422 -1.7827  0.9694  0.3411
 5794SOL    HW229019   2.775   1.149   2.485  2.4488  0.5584 -0.7205
 5795SOL     OW29020   3.892   0.451  15.973  0.6299 -0.2549 -0.1976
 5795SOL    HW129021   3.953   0.388  16.011  2.2945  1.6885  0.3783
 5795SOL    HW229022   3.953   0.495  15.914  0.2886 -0.2038 -0.5116
 5796SOL     OW29023   2.705   4.482   6.535 -0.1565 -0.2468  0.0909
 5796SOL    HW129024   2.774   4.443   6.481  0.4526 -0.2532  0.8678
 5796SOL    HW229025   2.755   4.503   6.614  0.4813  0.5105 -0.5156
 5797SOL     OW29026   2.246   1.106   7.758  0.1866 -0.2262 -0.1100
 5797SOL    HW129027   2.195   1.085   7.680  1.9886  0.7855 -1.5558
 5797SOL    HW229028   2.181   1.119   7.827  1.4392  0.9863  0.8681
 5798SOL     OW29029   2.596   3.970   6.992 -0.1000 -0.4762  0.4561
 5798SOL    HW129030   2.510   3.931   7.007  1.2270 -2.7681  2.0008
 5798SOL    HW229031   2.626   3.956   7.082  1.0497 -0.9970 -0.0046
 5799SOL     OW29032   4.236   1.899  15.122 -0.2067 -0.0921  0.0128
 5799SOL    HW129033   4.184   1.887  15.043 -0.3816  1.4301 -0.1036
 5799SOL    HW229034   4.305   1.833  15.109  1.3835  1.6494 -0.4854
 5800SOL     OW29035   4.162   0.822   8.258 -0.3207 -0.0108 -0.0302
 5800SOL    HW129036   4.214   0.743   8.271  0.5146  0.5046 -0.2261
 5800SOL    HW229037   4.227   0.881   8.219  0.3528 -0.5985  0.2088
 5801SOL     OW29038   0.021   2.663   9.619  0.1428  0.4558 -0.2384
 5801SOL    HW129039   0.048   2.720   9.691 -0.1840 -1.1718  1.1734
 5801SOL    HW229040   4.673   2.705   9.606 -1.1810 -2.0225  0.3471
 5802SOL     OW29041   3.098   2.584  13.179  0.7478  0.8962 -0.0656
 5802SOL    HW129042   3.036   2.514  13.199 -0.6502  2.3947  0.7833
 5802SOL    HW229043   3.066   2.658  13.230  0.2422 -0.0062  0.9369
 5803SOL     OW29044   2.472   1.765   0.567 -0.4097 -0.0654  0.5797
 5803SOL    HW129045   2.379   1.784   0.550  0.3402  0.5925 -2.9285
 5803SOL    HW229046   2.491   1.849   0.608 -2.6618  0.3709  0.7363
 5804SOL     OW29047   3.701   0.057  16.583 -0.1445 -0.0428 -0.4711
 5804SOL    HW129048   3.669   0.147  16.571  0.6385  0.4537  1.1229
 5804SOL    HW229049   3.633   0.010  16.536  0.6663 -0.8741 -0.8190
 5805SOL     OW29050   0.338   1.915   3.418 -0.3097 -0.7539 -0.1975
 5805SOL    HW129051   0.272   1.941   3.482 -1.7732  2.7395 -3.1260
 5805SOL    HW229052   0.409   1.979   3.422 -1.7596  0.7621  1.1436
 5806SOL     OW29053   3.167   3.667   3.613 -0.2665 -0.0844 -0.3313
 5806SOL    HW129054   3.218   3.689   3.691  0.3566  0.4808 -0.8998
 5806SOL    HW229055   3.211   3.585   3.589 -0.0708  0.0726 -0.5090
 5807SOL     OW29056   4.685   0.507   4.472 -0.2216  0.2137  0.0338
 5807SOL    HW129057   4.702   0.508   4.378  2.1754 -3.4921  0.4589
 5807SOL    HW229058   4.592   0.483   4.464 -0.2020  0.6322 -1.4369
 5808SOL     OW29059   3.791   2.093  15.205 -0.3226 -0.1300 -0.4027
 5808SOL    HW129060   3.778   2.179  15.244  0.3665 -0.8838  1.4534
 5808SOL    HW229061   3.804   2.048  15.288  0.6386  1.3638  0.2574
 5809SOL     OW29062   0.467   3.160   7.335 -0.3252  0.4241  0.4864
 5809SOL    HW129063   0.372   3.168   7.340 -0.2190  1.5573  0.5170
 5809SOL    HW229064   0.474   3.100   7.410 -0.4215 -0.4975 -0.2471
 5810SOL     OW29065   2.534   1.665   6.953  0.0307 -0.3755  0.0255
 5810SOL    HW129066   2.573   1.637   7.036 -2.1537 -2.6263  0.3094
 5810SOL    HW229067   2.442   1.640   6.962 -0.7614  1.5353 -2.9119
 5811SOL     OW29068   3.936   3.938  16.837 -0.0922 -0.5033 -0.0293
 5811SOL    HW129069   4.003   3.945  16.770 -1.1545  0.3006 -1.0031
 5811SOL    HW229070   3.875   3.970  16.771  1.0640 -2.3176 -1.9650
 5812SOL     OW29071   1.623   4.368   4.148  0.1491  0.1222 -0.5582
 5812SOL    HW129072   1.570   4.333   4.076 -0.8403 -0.1302  0.2879
 5812SOL    HW229073   1.692   4.303   4.158 -0.4522 -0.3840  0.4128
 5813SOL     OW29074   0.568   3.708   6.188 -0.0744  0.4389 -0.5838
 5813SOL    HW129075   0.495   3.663   6.230 -0.6620  3.2409  1.4024
 5813SOL    HW229076   0.639   3.645   6.199  0.4104  1.7964  3.8720
 5814SOL     OW29077   1.225   1.365   3.993 -0.4635  0.5836 -0.4305
 5814SOL    HW129078   1.312   1.330   4.013 -0.5132 -0.0804 -1.3505
 5814SOL    HW229079   1.175   1.311   4.054 -0.1478  1.2936  0.4435
 5815SOL     OW29080   0.780   0.038   4.754 -0.1031 -0.3707  0.2328
 5815SOL    HW129081   0.827   0.111   4.794  1.5547 -1.5422  0.4168
 5815SOL    HW229082   0.777   0.063   4.662  0.4386  0.8193  0.5484
 5816SOL     OW29083   3.944   1.619  10.275  0.5638 -0.2648 -0.4224
 5816SOL    HW129084   3.867   1.562  10.274 -0.3855  0.9894  3.4492
 5816SOL    HW229085   3.958   1.621  10.369  0.5567 -2.2612 -0.3723
 5817SOL     OW29086   4.034   1.961   6.119 -0.7285  0.3740 -0.3316
 5817SOL    HW129087   4.128   1.944   6.115 -0.1758  3.9420 -2.2790
 5817SOL    HW229088   4.032   2.048   6.159  0.1481  1.4166 -2.5463
 5818SOL     OW29089   1.008   3.815  15.961  0.5914 -0.4460 -0.0426
 5818SOL    HW129090   0.958   3.832  15.882 -0.6168  0.4004  0.8916
 5818SOL    HW229091   1.067   3.890  15.961 -0.0725  0.0713 -0.5931
 5819SOL     OW29092   3.740   0.825  11.699  0.5104  0.1272 -0.0398
 5819SOL    HW129093   3.730   0.784  11.785 -1.5089 -1.2540 -0.9230
 5819SOL    HW229094   3.836   0.830  11.699  0.6997 -3.3458 -1.5423
 5820SOL     OW29095   0.822   3.888   5.170  0.5305  0.3574  0.3771
 5820SOL    HW129096   0.905   3.840   5.162 -0.8178 -1.7377 -0.9598
 5820SOL    HW229097   0.869   3.972   5.169  0.4082  0.3867 -2.4248
 5821SOL     OW29098   1.846   2.581  11.257  0.1007 -0.2601  0.7306
 5821SOL    HW129099   1.826   2.577  11.164  2.1743 -1.3769  0.3331
 5821SOL    HW229100   1.929   2.628  11.265  0.1528 -1.0199  4.9914
 5822SOL     OW29101   1.749   2.886   3.964  0.0629  0.3839  0.4598
 5822SOL    HW129102   1.828   2.926   3.929 -0.7093 -1.1042 -2.9769
 5822SOL    HW229103   1.734   2.927   4.049  3.2801 -1.3399  1.8242
 5823SOL     OW29104   2.966   2.839   8.808 -0.3750  0.9048  0.1082
 5823SOL    HW129105   2.986   2.865   8.898 -0.5676  0.1450  0.3705
 5823SOL    HW229106   2.996   2.917   8.760 -1.4911  1.9577  1.1347
 5824SOL     OW29107   2.899   3.799   7.470 -0.6009 -0.2538 -0.0288
 5824SOL    HW129108   2.910   3.867   7.536  1.5744 -0.5814 -0.0462
 5824SOL    HW229109   2.960   3.828   7.401  1.5010 -0.3653  1.8059
 5825SOL     OW29110   3.051   4.459   0.608 -0.1993  0.0816  0.1998
 5825SOL    HW129111   3.094   4.510   0.539  0.2981 -0.4190  0.1399
 5825SOL    HW229112   2.993   4.525   0.646 -3.3719 -2.7348  0.2083
 5826SOL     OW29113   1.057   2.584  11.254  0.2314 -0.3912  0.6962
 5826SOL    HW129114   1.137   2.542  11.286  1.5290  1.6857  0.1993
 5826SOL    HW229115   1.024   2.516  11.197  0.2394 -0.3020  0.5846
 5827SOL     OW29116   3.031   0.658  17.315 -0.1111 -0.6384 -0.3343
 5827SOL    HW129117   3.099   0.625  17.256  1.3144 -2.2247  2.2077
 5827SOL    HW229118   3.049   0.752  17.326 -2.1540 -0.3348  0.2514
 5828SOL     OW29119   3.964   1.398   2.872 -0.9448  0.2868 -0.3470
 5828SOL    HW129120   3.934   1.489   2.867 -1.0614  0.2126 -1.0263
 5828SOL    HW229121   4.052   1.416   2.837 -0.3840 -0.7838  0.5102
 5829SOL     OW29122   0.389   0.928   7.755  0.1132 -0.8877  0.8766
 5829SOL    HW129123   0.397   0.842   7.712 -2.1951  0.6784 -2.6411
 5829SOL    HW229124   0.300   0.953   7.731  0.3114 -0.8328  0.2048
 5830SOL     OW29125   1.595   4.597   5.193 -0.0304 -0.0427  0.6463
 5830SOL    HW129126   1.540   4.668   5.226 -1.3124 -0.7555  0.0525
 5830SOL    HW229127   1.534   4.523   5.201 -0.0695  0.0157  0.8950
 5831SOL     OW29128   4.428   1.013   4.576  0.2424  0.0084 -0.4310
 5831SOL    HW129129   4.411   1.067   4.498  0.5010  0.9497  0.1578
 5831SOL    HW229130   4.483   1.073   4.626  1.0328  0.2375 -1.5862
 5832SOL     OW29131   1.026   3.110   6.060  0.2000  0.4148 -0.1992
 5832SOL    HW129132   1.081   3.103   5.983  0.6520  0.1670  0.1463
 5832SOL    HW229133   0.957   3.044   6.046 -0.6825  0.9670  1.5703
 5833SOL     OW29134   4.716   1.206  10.867 -0.4769  0.1713 -0.0135
 5833SOL    HW129135   4.656   1.257  10.920 -1.1731  0.1951 -0.8182
 5833SOL    HW229136   4.678   1.117  10.867  1.3511 -0.5995 -0.8130
 5834SOL     OW29137   2.311   0.341   2.513 -0.2094  0.5700  0.5589
 5834SOL    HW129138   2.322   0.293   2.595  0.0796 -0.9807 -0.3818
 5834SOL    HW229139   2.397   0.383   2.517 -0.5598  1.5716 -2.9574
 5835SOL     OW29140   0.202   3.116   7.121 -0.2824  0.3134  0.3497
 5835SOL    HW129141   0.219   3.159   7.037 -1.4493  1.9549  0.9668
 5835SOL    HW229142   0.179   3.028   7.091  1.1899  0.1255 -0.2379
 5836SOL     OW29143   3.373   0.337   4.746 -0.1446  0.2303  1.0331
 5836SOL    HW129144   3.460   0.297   4.753 -0.2617  0.0949  1.8007
 5836SOL    HW229145   3.395   0.424   4.778 -3.7776  1.5883 -0.3002
 5837SOL     OW29146   4.667   4.377   3.212 -0.3382 -0.3363  0.3347
 5837SOL    HW129147   4.703   4.410   3.130  2.5873  0.1913  1.8575
 5837SOL    HW229148   4.578   4.414   3.207 -0.3563 -0.2708  1.1343
 5838SOL     OW29149   1.236   3.864   4.190 -0.1693 -0.3794  0.1716
 5838SOL    HW129150   1.267   3.934   4.249  1.6708 -0.3247 -0.8757
 5838SOL    HW229151   1.149   3.897   4.164 -0.5498 -1.6112 -0.0934
 5839SOL     OW29152   1.135   1.877  15.351  0.8782 -0.2621  0.9769
 5839SOL    HW129153   1.095   1.915  15.429  0.9269  1.2041  0.2946
 5839SOL    HW229154   1.074   1.921  15.291 -0.5910 -2.9249  0.5465
 5840SOL     OW29155   0.326   3.506   3.340  0.0018 -0.3702 -0.0016
 5840SOL    HW129156   0.281   3.523   3.423 -1.8268  0.9344 -1.2894
 5840SOL    HW229157   0.386   3.433   3.359  0.2221 -0.3511 -0.6307
 5841SOL     OW29158   1.040   0.740   9.655  0.4816  0.1141  0.5859
 5841SOL    HW129159   1.075   0.829   9.658  2.0889 -0.4264 -1.9723
 5841SOL    HW229160   0.955   0.760   9.695 -0.2824  0.9668 -1.4889
 5842SOL     OW29161   3.758   3.277   4.475 -0.0327  0.3008  0.4526
 5842SOL    HW129162   3.837   3.294   4.425  0.1127  0.4618  0.7354
 5842SOL    HW229163   3.699   3.303   4.405  0.8524 -0.8838 -0.7300
 5843SOL     OW29164   0.295   4.083  13.422  0.0273 -0.7394  0.4507
 5843SOL    HW129165   0.301   4.168  13.465 -0.9465 -0.2622 -0.3736
 5843SOL    HW229166   0.322   4.028  13.497 -1.3338 -0.4151  1.1721
 5844SOL     OW29167   0.729   2.711  10.597  0.0382 -0.7660  0.5919
 5844SOL    HW129168   0.816   2.677  10.618  0.5094  0.1633  0.0870
 5844SOL    HW229169   0.730   2.788  10.654  3.4097 -0.0477 -0.4983
 5845SOL     OW29170   0.876   4.007   3.677  0.0209 -0.1716  0.0376
 5845SOL    HW129171   0.870   4.009   3.772  0.7172 -1.4862  0.0990
 5845SOL    HW229172   0.854   3.917   3.653  1.5034 -1.2806  2.9087
 5846SOL     OW29173   3.838   2.401   3.926 -0.3432  0.0751  0.0491
 5846SOL    HW129174   3.891   2.412   4.004  0.4640  1.6694 -0.7406
 5846SOL    HW229175   3.907   2.397   3.860 -1.9853 -0.0453 -1.6917
 5847SOL     OW29176   2.315   2.513   9.329  0.6664  0.5199 -0.1058
 5847SOL    HW129177   2.402   2.479   9.349 -0.1229 -1.2615  0.3303
 5847SOL    HW229178   2.259   2.481   9.399  0.6641 -0.5525 -0.5941
 5848SOL     OW29179   1.561   3.620   4.711 -0.1591  0.2889  0.4340
 5848SOL    HW129180   1.645   3.575   4.716 -0.3585  0.1215  2.1157
 5848SOL    HW229181   1.509   3.549   4.674  1.9119 -1.2161  0.3897
 5849SOL     OW29182   3.057   2.538   7.894 -0.5310  0.0100 -0.4065
 5849SOL    HW129183   3.012   2.615   7.929 -0.8388 -0.5963  0.5163
 5849SOL    HW229184   2.996   2.468   7.916  0.3633 -0.9795 -1.0432
 5850SOL     OW29185   0.631   3.219   6.129  0.1740 -0.3703 -0.3640
 5850SOL    HW129186   0.695   3.284   6.099  1.4153  0.5947  4.2479
 5850SOL    HW229187   0.607   3.170   6.051 -0.5762  2.0785 -1.6808
 5851SOL     OW29188   4.029   1.705   4.366  0.2062  0.1863 -0.4913
 5851SOL    HW129189   4.076   1.649   4.427  1.5788  3.4849  1.5096
 5851SOL    HW229190   4.058   1.791   4.397 -0.4708  0.9865 -2.0577
 5852SOL     OW29191   4.139   3.021   6.278 -0.1246  0.1745  0.5101
 5852SOL    HW129192   4.066   3.021   6.217 -1.3498 -1.5140  1.9724
 5852SOL    HW229193   4.109   3.080   6.346  2.7324  0.5001  1.4825
 5853SOL     OW29194   0.688   0.234  17.116  0.6530  0.4169 -0.0405
 5853SOL    HW129195   0.720   0.152  17.076  1.2548  1.7862 -2.3701
 5853SOL    HW229196   0.615   0.200  17.167  1.3326 -0.5882  0.2680
 5854SOL     OW29197   2.765   0.793  17.218 -0.1030 -0.2798  0.6030
 5854SOL    HW129198   2.760   0.722  17.154  2.0536 -2.2327  2.6318
 5854SOL    HW229199   2.858   0.815  17.218 -0.6080  1.8861 -0.7656
 5855SOL     OW29200   2.051   3.949   0.859  0.0138  0.2413 -0.7971
 5855SOL    HW129201   2.045   3.876   0.797 -1.5170 -0.5938  0.3374
 5855SOL    HW229202   2.004   4.013   0.806  1.3970 -0.6072 -3.0512
 5856SOL     OW29203   2.567   3.242   6.170 -0.3520  0.2998  0.2261
 5856SOL    HW129204   2.631   3.270   6.104 -1.2089 -0.5918 -0.9873
 5856SOL    HW229205   2.485   3.281   6.141 -0.6978 -1.0002 -0.5620
 5857SOL     OW29206   0.687   1.247   7.662  0.2706 -0.2741  0.0778
 5857SOL    HW129207   0.735   1.262   7.581  1.4168 -1.1553  0.5854
 5857SOL    HW229208   0.658   1.336   7.682  0.1585 -0.3029  0.0399
 5858SOL     OW29209   0.678   2.222  13.952 -0.3381 -0.2550 -0.9360
 5858SOL    HW129210   0.702   2.233  13.860 -0.0378  1.2021 -0.6723
 5858SOL    HW229211   0.706   2.131  13.962 -1.1759 -0.2129  1.7275
 5859SOL     OW29212   2.072   2.282   3.235 -0.3489 -0.2854 -0.0655
 5859SOL    HW129213   2.032   2.343   3.172  1.0333  0.7009  0.0072
 5859SOL    HW229214   1.999   2.246   3.284 -0.9259 -1.0219 -1.4566
 5860SOL     OW29215   3.834   2.257   9.519 -0.5312  0.2134 -0.3269
 5860SOL    HW129216   3.829   2.313   9.597  2.0306 -0.9318  0.6434
 5860SOL    HW229217   3.813   2.181   9.574 -0.7537  1.3070  1.1139
 5861SOL     OW29218   0.571   1.528  16.043 -0.2194  0.2510 -0.3038
 5861SOL    HW129219   0.624   1.513  15.965  0.4813  1.1784 -0.0041
 5861SOL    HW229220   0.542   1.618  16.032 -0.0755 -0.0358 -3.1644
 5862SOL     OW29221   1.593   1.573   1.575 -0.1862  0.1895 -0.1685
 5862SOL    HW129222   1.571   1.480   1.565 -0.1733  0.2810 -1.0816
 5862SOL    HW229223   1.559   1.580   1.664  1.4885 -0.4785  0.5366
 5863SOL     OW29224   0.376   1.627  13.121 -0.4952 -0.1846  0.4921
 5863SOL    HW129225   0.304   1.614  13.182  1.6240  1.4190  3.3056
 5863SOL    HW229226   0.342   1.700  13.070  0.8905 -0.0218 -0.2180
 5864SOL     OW29227   1.165   1.056  16.227  0.4737  0.6606  0.0331
 5864SOL    HW129228   1.112   1.136  16.225 -2.0860 -1.0473 -2.0072
 5864SOL    HW229229   1.236   1.103  16.269  0.3571 -1.1097  2.2248
 5865SOL     OW29230   2.605   3.313   6.761 -0.0606 -0.0407  0.1086
 5865SOL    HW129231   2.540   3.311   6.831 -1.6345 -4.1533 -1.4967
 5865SOL    HW229232   2.566   3.249   6.701 -0.0561  0.0741 -0.0174
 5866SOL     OW29233   3.432   2.261  14.619  0.7403 -0.5503 -0.0229
 5866SOL    HW129234   3.406   2.350  14.593 -3.2157 -1.8694 -0.5192
 5866SOL    HW229235   3.464   2.278  14.708  0.3142  0.0080  0.0238
 5867SOL     OW29236   1.191   1.972   8.228  0.4196 -0.6765  0.1087
 5867SOL    HW129237   1.194   2.006   8.317  1.2372  0.9715 -0.5521
 5867SOL    HW229238   1.099   1.989   8.209 -1.0413 -0.6427  7.2450
 5868SOL     OW29239   0.196   2.207  13.732  0.4952 -0.4323 -0.5191
 5868SOL    HW129240   0.117   2.182  13.781  1.1623 -1.6233 -0.0419
 5868SOL    HW229241   0.216   2.124  13.688  0.2358 -1.2714  0.9431
 5869SOL     OW29242   2.104   2.699   0.915  0.5830 -0.1282 -0.1881
 5869SOL    HW129243   2.137   2.748   0.991 -1.5373  0.0012  0.6542
 5869SOL    HW229244   2.010   2.715   0.921  0.4255 -1.8987  2.1562
 5870SOL     OW29245   0.325   1.771   6.565  0.3774 -0.0086 -0.3547
 5870SOL    HW129246   0.364   1.800   6.647  1.7072  0.5558 -1.1862
 5870SOL    HW229247   0.390   1.801   6.501  2.2661  2.5608  2.8127
 5871SOL     OW29248   1.942   3.538   8.711 -0.0520  0.1534  0.0383
 5871SOL    HW129249   1.918   3.516   8.621 -1.6313  0.3028  0.4283
 5871SOL    HW229250   1.885   3.611   8.734  1.6311  1.4767 -0.0112
 5872SOL     OW29251   2.214   4.716   4.032 -0.1550  0.3193  0.0217
 5872SOL    HW129252   2.153   4.648   4.005  0.5237 -0.2342 -0.1202
 5872SOL    HW229253   2.205   4.719   4.128  0.5462  0.9991  0.0694
 5873SOL     OW29254   2.083   3.804   5.020 -0.1290 -0.0534 -0.0210
 5873SOL    HW129255   2.052   3.861   5.090 -0.8056  3.8967 -3.5830
 5873SOL    HW229256   2.010   3.801   4.959 -0.5514  2.0321  0.3977
 5874SOL     OW29257   3.532   0.468  15.911 -0.0562  0.0280  0.3018
 5874SOL    HW129258   3.444   0.455  15.876 -0.8995 -0.8689  2.7263
 5874SOL    HW229259   3.505   0.535  15.973 -0.2517  0.6589 -0.4638
 5875SOL     OW29260   2.616   2.829   8.798 -0.5152 -0.1128 -0.3958
 5875SOL    HW129261   2.689   2.779   8.837  0.3180  1.2214 -0.2507
 5875SOL    HW229262   2.655   2.894   8.740  0.4649 -2.9844 -2.9036
 5876SOL     OW29263   0.470   2.480   2.789 -0.0676 -0.0125 -0.7374
 5876SOL    HW129264   0.534   2.501   2.721 -1.7607 -1.3584 -2.7391
 5876SOL    HW229265   0.397   2.530   2.755 -1.8618 -0.4716  2.4996
 5877SOL     OW29266   2.358   0.966   3.356  0.4306  0.2301  0.1180
 5877SOL    HW129267   2.303   0.987   3.280 -1.2994  0.3673  1.4019
 5877SOL    HW229268   2.449   0.972   3.325  0.7253  0.6058  1.0740
 5878SOL     OW29269   3.802   0.761   6.158  0.0019 -0.6671 -0.5413
 5878SOL    HW129270   3.719   0.726   6.189  0.7206 -1.6594  0.2192
 5878SOL    HW229271   3.849   0.681   6.136  0.7774 -0.2501 -0.3915
 5879SOL     OW29272   0.336   0.779  12.729 -0.1259 -0.4102 -0.2291
 5879SOL    HW129273   0.368   0.692  12.753  0.1472 -0.6433 -1.4757
 5879SOL    HW229274   0.374   0.823  12.805 -1.3949 -1.8554  1.2346
 5880SOL     OW29275   0.178   4.575  12.307 -0.2703 -0.2494  0.0328
 5880SOL    HW129276   0.151   4.490  12.342  2.2632 -1.1366 -0.1921
 5880SOL    HW229277   0.260   4.570  12.357  0.4861  0.2953 -1.1562
 5881SOL     OW29278   2.071   3.915   9.244 -0.3088 -0.7562 -0.3254
 5881SOL    HW129279   1.992   3.955   9.207 -0.9536  0.5545  2.4406
 5881SOL    HW229280   2.030   3.857   9.308 -0.2745 -0.0831  0.3174
 5882SOL     OW29281   2.924   0.733   5.868  0.1958  0.8006 -0.4384
 5882SOL    HW129282   2.861   0.741   5.796 -0.6083  3.3584  0.5717
 5882SOL    HW229283   2.868   0.745   5.945 -2.7884 -0.5618 -2.3825
 5883SOL     OW29284   3.391   3.757   5.954  0.3622 -0.3096 -0.6616
 5883SOL    HW129285   3.473   3.783   5.995  0.8746 -1.2877 -1.0852
 5883SOL    HW229286   3.411   3.759   5.860 -0.0303 -2.8519 -0.7960
 5884SOL     OW29287   2.644   4.726   7.276 -0.1585 -0.0614  0.4160
 5884SOL    HW129288   2.672   0.080   7.267 -0.5342 -0.1880 -1.9050
 5884SOL    HW229289   2.571   0.014   7.334 -1.2958  0.3329 -1.1773
 5885SOL     OW29290   3.129   3.676   7.779  0.3589 -0.0711  0.4719
 5885SOL    HW129291   3.048   3.725   7.767  0.1182 -0.5278  0.2315
 5885SOL    HW229292   3.192   3.737   7.739  0.0719 -0.8649 -1.2112
 5886SOL     OW29293   3.532   3.612   9.842 -0.1771 -0.2512 -0.1997
 5886SOL    HW129294   3.535   3.597   9.747  0.5711  1.0872 -0.3822
 5886SOL    HW229295   3.538   3.521   9.871  1.5054 -0.0791 -0.0073
 5887SOL     OW29296   2.410   0.199   0.379 -0.2376 -0.4843  0.3746
 5887SOL    HW129297   2.462   0.171   0.304 -0.8507  2.2813 -1.0563
 5887SOL    HW229298   2.420   0.294   0.375 -0.9248 -0.4368 -0.2030
 5888SOL     OW29299   3.471   1.291   8.886 -0.6372 -0.0014 -0.0325
 5888SOL    HW129300   3.506   1.329   8.967  1.1422 -0.5505 -0.5357
 5888SOL    HW229301   3.400   1.233   8.913 -0.5175 -0.9999 -1.9191
 5889SOL     OW29302   1.644   2.632   2.229  0.0547 -0.1090  0.2276
 5889SOL    HW129303   1.573   2.569   2.218 -0.6655  0.4853  1.5196
 5889SOL    HW229304   1.693   2.585   2.296 -2.5344 -1.7312  0.9690
 5890SOL     OW29305   0.595   4.353   3.893 -0.1820  0.0048  0.2539
 5890SOL    HW129306   0.593   4.411   3.817  1.7537 -0.0599  0.1539
 5890SOL    HW229307   0.553   4.271   3.869  0.9959 -0.4222 -0.3703
 5891SOL     OW29308   4.729   2.065   5.312 -0.1361 -0.5594 -0.7135
 5891SOL    HW129309   4.643   2.024   5.321 -0.8891  1.1152 -0.2925
 5891SOL    HW229310   4.725   2.117   5.392 -0.8087  0.7849 -1.6132
 5892SOL     OW29311   3.080   3.138  11.578 -0.0304 -0.2375 -0.2486
 5892SOL    HW129312   2.990   3.120  11.550  0.6071 -1.8827 -1.2237
 5892SOL    HW229313   3.132   3.075  11.527 -2.2804 -2.0749 -0.2708
 5893SOL     OW29314   4.501   3.727   7.145  0.3561  0.0084  0.0402
 5893SOL    HW129315   4.583   3.705   7.101  0.3675 -0.8611  0.4966
 5893SOL    HW229316   4.437   3.695   7.082 -0.1909 -0.1271  0.6583
 5894SOL     OW29317   4.467   2.870   8.487 -0.4355  0.5700  0.2173
 5894SOL    HW129318   4.552   2.913   8.495 -0.4157  1.0034 -2.1902
 5894SOL    HW229319   4.489   2.779   8.506 -0.8250  0.2504 -0.8055
 5895SOL     OW29320   2.780   2.545  13.551  0.1448 -0.7346 -0.5280
 5895SOL    HW129321   2.771   2.586  13.465  2.6142 -0.9235 -0.8647
 5895SOL    HW229322   2.849   2.482  13.530  1.1624 -0.1062  0.9711
 5896SOL     OW29323   0.535   2.754   4.395 -0.2584  0.5109  0.2542
 5896SOL    HW129324   0.446   2.761   4.431 -1.3781  2.7607 -2.9530
 5896SOL    HW229325   0.583   2.691   4.449 -0.8839 -0.3844 -0.2398
 5897SOL     OW29326   1.734   0.800  10.014  0.2750 -0.5193 -0.3959
 5897SOL    HW129327   1.806   0.749  10.050  0.5824  0.8316  0.9436
 5897SOL    HW229328   1.739   0.764   9.926 -0.6165 -2.0645  0.1679
 5898SOL     OW29329   3.936   3.640   6.208 -0.0834  0.2132  0.2468
 5898SOL    HW129330   3.893   3.644   6.123  1.0878 -2.2770 -0.4716
 5898SOL    HW229331   3.982   3.724   6.212 -0.6972  0.6085 -1.3117
 5899SOL     OW29332   1.885   1.130   9.285 -0.5351 -0.4430 -0.7719
 5899SOL    HW129333   1.905   1.094   9.199  3.8200  1.3529 -0.4821
 5899SOL    HW229334   1.939   1.068   9.334 -0.6851  1.5944  1.9514
 5900SOL     OW29335   3.423   3.386   2.326 -0.9096 -0.0794 -0.4953
 5900SOL    HW129336   3.354   3.439   2.364 -1.3136  0.1266 -1.5049
 5900SOL    HW229337   3.474   3.446   2.271 -0.0852  0.8628  1.3056
 5901SOL     OW29338   0.693   2.537   5.065  0.0380  0.2240 -0.5574
 5901SOL    HW129339   0.732   2.560   4.981  2.2559 -0.8863  0.1620
 5901SOL    HW229340   0.726   2.607   5.120  0.4352 -0.5410  0.1736
 5902SOL     OW29341   4.649   3.659  17.599 -0.4945  0.3580 -0.0062
 5902SOL    HW129342   4.687   3.683  17.683  1.2894 -0.6189 -0.5419
 5902SOL    HW229343   4.650   3.564  17.597 -0.7290  0.3516  0.2742
 5903SOL     OW29344   1.529   4.404   9.014  0.3610  0.1930 -0.5564
 5903SOL    HW129345   1.526   4.327   9.070  1.6243  0.6100  0.0856
 5903SOL    HW229346   1.437   4.431   9.018  0.4313 -0.1857  2.8771
 5904SOL     OW29347   0.951   0.685   7.528  0.2226  0.1664 -0.1112
 5904SOL    HW129348   0.970   0.762   7.581 -1.4323 -2.0142  3.7048
 5904SOL    HW229349   0.856   0.676   7.525 -0.0044  1.7759  2.6410
 5905SOL     OW29350   1.829   1.104   4.204  0.7251  0.6394  0.3229
 5905SOL    HW129351   1.909   1.156   4.195  1.3527 -0.5282 -0.8347
 5905SOL    HW229352   1.768   1.174   4.226  0.2172  0.3386 -0.1395
 5906SOL     OW29353   3.345   0.602   6.611  0.3772  0.5917 -0.4144
 5906SOL    HW129354   3.340   0.642   6.525  1.2070 -0.6810 -1.0512
 5906SOL    HW229355   3.273   0.538   6.605  2.0195 -1.1087 -2.0638
 5907SOL     OW29356   3.113   0.017   3.699  0.4041  0.5884 -0.0799
 5907SOL    HW129357   3.195   0.054   3.668  0.9904  0.0578  0.8484
 5907SOL    HW229358   3.127   0.019   3.794 -0.9021  2.8601  0.0815
 5908SOL     OW29359   3.116   0.283  14.169 -1.1086 -0.1057  0.3286
 5908SOL    HW129360   3.022   0.274  14.155 -1.0900 -0.8049  0.6443
 5908SOL    HW229361   3.150   0.320  14.087 -1.0086 -1.0325 -0.0506
 5909SOL     OW29362   0.518   1.975   4.448 -0.6892  0.2084  0.2889
 5909SOL    HW129363   0.565   2.058   4.462 -2.0215  1.3289 -1.8516
 5909SOL    HW229364   0.585   1.915   4.415 -0.5496 -1.4273  3.5512
 5910SOL     OW29365   2.793   3.440   7.132 -0.2663  0.6547 -0.6493
 5910SOL    HW129366   2.792   3.370   7.066 -1.1799  0.2037 -0.1642
 5910SOL    HW229367   2.707   3.482   7.131 -0.9116 -0.6637 -1.4031
 5911SOL     OW29368   1.077   1.982   8.920 -0.3183  0.7597 -0.7825
 5911SOL    HW129369   1.136   1.909   8.933 -0.9404  0.4809  0.5303
 5911SOL    HW229370   0.997   1.938   8.952  1.4931 -0.7054  1.7472
 5912SOL     OW29371   3.595   3.257   7.425  0.2950  0.7062 -0.0449
 5912SOL    HW129372   3.522   3.262   7.363 -0.5507 -0.4392  0.8374
 5912SOL    HW229373   3.663   3.296   7.372  0.4825  0.5765  0.1007
 5913SOL     OW29374   0.473   1.118   9.875 -0.2285 -0.1510  0.2859
 5913SOL    HW129375   0.407   1.184   9.893  0.7766  0.3793  2.0939
 5913SOL    HW229376   0.435   1.040   9.917 -0.6434  1.0681  2.1651
 5914SOL     OW29377   1.362   3.108   9.808 -0.6139  0.4352 -1.1263
 5914SOL    HW129378   1.351   3.053   9.731 -2.3133 -1.7613  0.7084
 5914SOL    HW229379   1.273   3.119   9.841  0.1450 -1.5060  1.5844
 5915SOL     OW29380   1.455   2.018   6.762  0.2875 -0.2136 -0.2150
 5915SOL    HW129381   1.386   2.056   6.817 -1.8175 -1.6033 -1.8871
 5915SOL    HW229382   1.398   1.989   6.691  0.8620 -0.6683 -0.4909
 5916SOL     OW29383   0.680   3.424   8.935  0.1520  0.1583 -0.0914
 5916SOL    HW129384   0.634   3.474   8.867 -1.4275  1.6053  2.0528
 5916SOL    HW229385   0.609   3.362   8.949  0.4316 -0.6721 -2.3990
 5917SOL     OW29386   0.880   3.153  12.683  0.6020  0.5122  0.1779
 5917SOL    HW129387   0.873   3.179  12.591 -0.7490 -1.0495 -0.1786
 5917SOL    HW229388   0.814   3.206  12.727  0.6687  0.4552  0.3474
 5918SOL     OW29389   2.708   2.304  16.187  0.3277 -0.5878 -0.6591
 5918SOL    HW129390   2.680   2.395  16.192  0.4316 -0.5093 -1.5726
 5918SOL    HW229391   2.643   2.274  16.123  0.4250 -1.6191 -0.2806
 5919SOL     OW29392   2.893   3.559   4.682 -0.5319 -0.6614  0.0140
 5919SOL    HW129393   2.835   3.620   4.728 -2.2266 -0.7393 -1.9900
 5919SOL    HW229394   2.826   3.533   4.618 -0.5556 -0.8182  0.1046
 5920SOL     OW29395   3.589   0.937  17.001  0.1755 -0.1898  1.2452
 5920SOL    HW129396   3.526   0.953  17.071  1.6071  2.2772  1.9891
 5920SOL    HW229397   3.545   0.861  16.964 -0.8407  0.9688  0.0675
 5921SOL     OW29398   0.462   3.274  14.495 -0.1401 -0.0145 -0.1593
 5921SOL    HW129399   0.368   3.283  14.478  0.3213  3.2380 -0.9747
 5921SOL    HW229400   0.488   3.197  14.444 -3.4120 -0.7069 -0.7535
 5922SOL     OW29401   2.940   3.512  16.042 -0.2033 -0.5495  0.0736
 5922SOL    HW129402   2.884   3.590  16.041  3.1024  1.8080  1.3076
 5922SOL    HW229403   2.896   3.448  16.097  1.9568 -0.4943  1.8425
 5923SOL     OW29404   1.786   0.712   3.813  0.0600 -0.3371  0.6089
 5923SOL    HW129405   1.813   0.646   3.749  0.2129 -0.5874  0.9332
 5923SOL    HW229406   1.710   0.674   3.858  0.9424 -1.2323  1.3382
 5924SOL     OW29407   2.810   4.735  14.604 -0.5281 -0.3631  0.4108
 5924SOL    HW129408   2.850   0.065  14.548  1.5922 -1.0430  1.1160
 5924SOL    HW229409   2.729   0.048  14.617  1.4393  2.7261  0.8910
 5925SOL     OW29410   3.396   0.403   2.019 -0.2947 -0.6837  0.1054
 5925SOL    HW129411   3.355   0.445   2.096  1.3403 -1.2303  1.2646
 5925SOL    HW229412   3.477   0.452   2.009 -2.4230  3.1069  1.2585
 5926SOL     OW29413   0.915   2.180  16.306  0.4471  0.9149  0.1525
 5926SOL    HW129414   0.987   2.235  16.277 -1.1173  1.9309 -1.8337
 5926SOL    HW229415   0.885   2.244  16.370 -0.0341 -1.1286  1.9831
 5927SOL     OW29416   2.490   0.321   1.144 -0.3547  0.5034  0.0529
 5927SOL    HW129417   2.413   0.270   1.118 -1.1933  2.0718 -0.5639
 5927SOL    HW229418   2.446   0.378   1.207 -2.4388 -1.2330  0.1704
 5928SOL     OW29419   4.296   3.720  11.472  1.2561 -0.5360  0.3227
 5928SOL    HW129420   4.268   3.643  11.522  0.3464 -0.4731 -0.0735
 5928SOL    HW229421   4.350   3.765  11.535  0.1612 -1.5754  2.0104
 5929SOL     OW29422   4.124   2.223  14.005 -0.0505  0.4797 -0.0109
 5929SOL    HW129423   4.060   2.153  13.993  0.2396  0.3524 -0.8351
 5929SOL    HW229424   4.202   2.193  13.957  2.0479  1.9890  2.4613
 5930SOL     OW29425   2.196   4.095   6.135 -0.1683 -0.4520 -0.4575
 5930SOL    HW129426   2.218   4.118   6.226 -0.5282  2.1152 -1.0162
 5930SOL    HW229427   2.280   4.058   6.107 -0.1775  0.5236 -1.7349
 5931SOL     OW29428   0.525   2.449  13.968 -0.3121  0.7012 -0.0649
 5931SOL    HW129429   0.550   2.507  14.040  0.8486 -0.0982  0.1636
 5931SOL    HW229430   0.604   2.396  13.975  0.4994  1.7832 -1.0605
 5932SOL     OW29431   0.267   1.179   1.114  0.5864 -0.5688 -0.2570
 5932SOL    HW129432   0.260   1.268   1.080  0.1592 -0.7373 -0.6220
 5932SOL    HW229433   0.236   1.119   1.046 -0.1418  2.4542 -2.5699
 5933SOL     OW29434   4.267   0.581   8.307 -0.7427 -0.1470  0.3612
 5933SOL    HW129435   4.262   0.540   8.221 -1.7048  0.3400  0.1753
 5933SOL    HW229436   4.281   0.505   8.364  0.3373  1.0966  1.7474
 5934SOL     OW29437   4.194   1.579   4.191  0.4315  0.3958  0.0360
 5934SOL    HW129438   4.275   1.553   4.236 -0.6225 -0.6828  1.3152
 5934SOL    HW229439   4.144   1.639   4.245 -0.3179 -2.1761  2.1748
 5935SOL     OW29440   1.942   4.617  17.005  0.1067 -0.7457  0.6332
 5935SOL    HW129441   2.027   4.592  16.969 -0.8209 -0.6878 -1.5808
 5935SOL    HW229442   1.911   4.663  16.927 -1.3845 -0.8610  1.1659
 5936SOL     OW29443   0.977   2.725   5.625 -0.0377  0.5279  0.1303
 5936SOL    HW129444   1.068   2.708   5.601 -0.3240  0.5008 -0.9593
 5936SOL    HW229445   0.977   2.819   5.603  0.6938  0.9839  2.0405
 5937SOL     OW29446   1.871   3.223  17.115  0.3907  0.2076  0.1888
 5937SOL    HW129447   1.829   3.291  17.061  0.1863 -0.6097 -0.6831
 5937SOL    HW229448   1.866   3.148  17.056 -2.8292 -0.7718  1.7443
 5938SOL     OW29449   3.013   1.827   9.165 -0.2109 -0.1786  0.2422
 5938SOL    HW129450   3.028   1.802   9.074  2.3467  0.6125  0.4384
 5938SOL    HW229451   2.934   1.879   9.165  0.3733  0.7022  0.0587
 5939SOL     OW29452   1.173   2.262   5.081  0.0248  0.1394  0.2013
 5939SOL    HW129453   1.082   2.294   5.089  0.3983  1.1338  0.5111
 5939SOL    HW229454   1.212   2.350   5.083  0.0981  0.0708  1.7240
 5940SOL     OW29455   0.847   1.397   6.452 -0.0444  0.3934  0.7597
 5940SOL    HW129456   0.832   1.314   6.497 -2.6082  0.5558  0.2445
 5940SOL    HW229457   0.762   1.406   6.409  0.6593  1.6377 -0.3957
 5941SOL     OW29458   3.688   2.820   6.509 -0.2191 -0.2520  0.0916
 5941SOL    HW129459   3.764   2.787   6.558 -0.4605 -0.4903  0.3018
 5941SOL    HW229460   3.710   2.911   6.490 -0.1757 -0.1438  0.6683
 5942SOL     OW29461   2.191   1.008   5.219 -0.2137 -0.1208 -0.4952
 5942SOL    HW129462   2.222   0.932   5.170  2.1667  0.6814 -0.2377
 5942SOL    HW229463   2.277   1.048   5.233 -0.2551 -0.9593  2.1326
 5943SOL     OW29464   0.120   0.913   4.235 -0.4142 -0.5306  0.0307
 5943SOL    HW129465   0.082   0.881   4.317  0.0442  0.2193  0.5336
 5943SOL    HW229466   0.066   0.867   4.170 -1.5409  2.2001 -0.9351
 5944SOL     OW29467   4.679   1.215  11.481  0.1221 -0.2714 -0.0895
 5944SOL    HW129468   4.732   1.204  11.402  0.7086  0.5380  0.1859
 5944SOL    HW229469   4.709   1.300  11.513  1.3084 -0.9328  0.5784
 5945SOL     OW29470   3.812   1.804   4.620  0.3354 -0.0802 -0.3771
 5945SOL    HW129471   3.734   1.821   4.567  0.3365 -1.3316 -0.7850
 5945SOL    HW229472   3.814   1.709   4.628 -1.8479 -0.2978 -2.3800
 5946SOL     OW29473   3.711   0.635   2.202  0.0497  0.2370  0.0107
 5946SOL    HW129474   3.785   0.674   2.250 -0.9492  0.6058  1.2494
 5946SOL    HW229475   3.681   0.571   2.266  2.4393  0.4542  1.3782
 5947SOL     OW29476   1.054   0.180  10.464  0.5847  0.4585  0.4384
 5947SOL    HW129477   1.034   0.133  10.545  2.0065 -0.0935  0.4567
 5947SOL    HW229478   1.117   0.248  10.485 -0.0245  1.8970 -2.4394
 5948SOL     OW29479   1.804   2.486  17.100  0.3603 -0.3987 -0.3381
 5948SOL    HW129480   1.872   2.532  17.150  1.3579 -1.4365 -0.7449
 5948SOL    HW229481   1.858   2.428  17.047  0.4806  0.5519 -1.2540
 5949SOL     OW29482   3.705   2.256   9.278  0.3418 -0.0769  0.4433
 5949SOL    HW129483   3.734   2.223   9.363 -1.0831 -0.8817  0.6267
 5949SOL    HW229484   3.638   2.188   9.268  1.1759 -0.7743 -0.3460
 5950SOL     OW29485   1.185   2.962  16.838  0.3344  0.0481 -0.1590
 5950SOL    HW129486   1.251   2.984  16.903 -0.7429  1.5581  0.4321
 5950SOL    HW229487   1.118   3.026  16.863  2.2927  2.0408  0.0059
 5951SOL     OW29488   2.361   2.197   4.856  0.1740 -0.0811  0.0244
 5951SOL    HW129489   2.296   2.184   4.787  0.7104  0.3204 -0.5520
 5951SOL    HW229490   2.315   2.207   4.940  1.5246 -0.3193  0.7886
 5952SOL     OW29491   2.749   2.668  15.468 -0.5234 -0.1621 -0.8573
 5952SOL    HW129492   2.717   2.641  15.554  0.4130  3.8277  0.7448
 5952SOL    HW229493   2.727   2.594  15.412 -3.9157  1.3618 -1.5814
 5953SOL     OW29494   3.224   4.691   3.207 -0.2291  0.1011 -0.2595
 5953SOL    HW129495   3.195   4.600   3.197 -0.0411 -0.1424  1.4222
 5953SOL    HW229496   3.304   4.681   3.259  0.4970 -0.7568 -1.5456
 5954SOL     OW29497   0.291   4.050  16.552 -0.3693  0.7065  0.2675
 5954SOL    HW129498   0.301   3.967  16.506  0.2540  2.4414 -2.8061
 5954SOL    HW229499   0.197   4.060  16.540 -0.7229 -2.1546  0.8504
 5955SOL     OW29500   0.975   0.920   7.956 -0.1872  0.3525  0.4091
 5955SOL    HW129501   1.017   1.004   7.976 -1.0884  0.8144  0.3527
 5955SOL    HW229502   1.021   0.857   8.011  0.0633  2.0522  2.1881
 5956SOL     OW29503   3.725   2.751   7.720 -0.3581 -0.0832 -0.0479
 5956SOL    HW129504   3.648   2.766   7.774 -0.2864  0.9070 -0.2337
 5956SOL    HW229505   3.709   2.662   7.687 -1.5532  0.0695  0.1388
 5957SOL     OW29506   4.576   0.506   2.078  0.5312 -0.1425 -0.0709
 5957SOL    HW129507   4.580   0.443   2.150 -1.0336  1.4251  1.3767
 5957SOL    HW229508   4.604   0.579   2.133 -0.6575  0.3584 -0.1383
 5958SOL     OW29509   2.319   3.095  12.696  0.3171 -0.0557  0.2399
 5958SOL    HW129510   2.262   3.083  12.772 -1.4071 -0.6812 -1.1281
 5958SOL    HW229511   2.329   3.005  12.662 -0.9430  0.3947 -1.3560
 5959SOL     OW29512   2.348   4.013   0.883 -0.6481 -0.4823  0.5817
 5959SOL    HW129513   2.282   3.953   0.918 -3.4986  1.6878 -1.0663
 5959SOL    HW229514   2.387   3.950   0.823  1.6700  1.9723 -0.5167
 5960SOL     OW29515   3.126   1.773   8.402  0.6835 -0.1700  0.2543
 5960SOL    HW129516   3.102   1.681   8.396  0.8679 -0.2327  0.4594
 5960SOL    HW229517   3.180   1.786   8.324 -1.5999  0.9137 -1.1412
 5961SOL     OW29518   0.806   2.311  15.418  0.3266  0.6511  0.8692
 5961SOL    HW129519   0.875   2.371  15.448  0.6595  0.1532  1.1040
 5961SOL    HW229520   0.722   2.356  15.423 -0.8248 -1.2847 -1.2157
 5962SOL     OW29521   3.228   4.393   6.550  0.1764  0.2383 -0.0537
 5962SOL    HW129522   3.165   4.325   6.526 -0.3808  0.6746  0.1524
 5962SOL    HW229523   3.203   4.397   6.643  1.0186  0.8580  0.1370
 5963SOL     OW29524   0.360   2.490   5.512  0.0611  0.7745  0.2080
 5963SOL    HW129525   0.447   2.528   5.499  0.1873 -0.4338 -2.3547
 5963SOL    HW229526   0.376   2.441   5.593 -1.2455 -1.1488 -0.7096
 5964SOL     OW29527   2.635   3.705   7.365  0.4474  0.2931  0.3807
 5964SOL    HW129528   2.724   3.716   7.396  1.3826 -1.1208 -1.7997
 5964SOL    HW229529   2.581   3.727   7.441 -2.0948 -0.8081 -1.0895
 5965SOL     OW29530   2.440   4.689   0.883  0.0145 -0.2751  0.1515
 5965SOL    HW129531   2.454   0.034   0.931  3.7370 -0.5940 -0.3774
 5965SOL    HW229532   2.521   4.639   0.896 -0.8017 -1.4890  0.6083
 5966SOL     OW29533   1.114   4.053   6.306 -0.2621  0.3287  0.1964
 5966SOL    HW129534   1.118   3.976   6.364 -1.3650  0.1075 -0.0092
 5966SOL    HW229535   1.065   4.108   6.367  0.1571  1.6605 -0.7009
 5967SOL     OW29536   2.493   0.101  14.055  0.3528  0.2778  0.3773
 5967SOL    HW129537   2.411   0.054  14.062 -1.8823  4.0648 -0.2295
 5967SOL    HW229538   2.475   0.145  13.972  1.2403  0.4919  0.2930
 5968SOL     OW29539   2.821   4.606   1.840  0.2855  0.4916  0.3833
 5968SOL    HW129540   2.840   4.697   1.815 -0.4445  0.3347 -0.7529
 5968SOL    HW229541   2.854   4.596   1.929  0.2867 -0.7756  0.2375
 5969SOL     OW29542   4.639   1.961   2.446  0.6428 -0.4109  0.0929
 5969SOL    HW129543   4.674   1.873   2.434  1.2844 -0.4297  2.1956
 5969SOL    HW229544   4.679   2.002   2.369 -0.6587  0.7473  0.0498
 5970SOL     OW29545   3.233   4.342   4.203 -0.0897  0.2505 -0.2731
 5970SOL    HW129546   3.228   4.430   4.165 -0.4194  1.1493  1.8668
 5970SOL    HW229547   3.149   4.343   4.248 -0.6974  0.9292 -1.4364
 5971SOL     OW29548   1.992   0.091   8.500 -0.0702 -0.6371  0.1515
 5971SOL    HW129549   1.960   0.106   8.411 -1.3747 -0.5727  0.6313
 5971SOL    HW229550   1.909   0.092   8.547 -0.0992  0.0850  0.0755
 5972SOL     OW29551   2.251   1.863   5.648 -0.0968 -0.0294 -0.3964
 5972SOL    HW129552   2.279   1.929   5.584  0.3190  1.1336  0.9967
 5972SOL    HW229553   2.305   1.890   5.721 -0.5075  2.5055 -1.0222
 5973SOL     OW29554   0.341   3.326  12.632 -0.1330  0.1014 -0.6524
 5973SOL    HW129555   0.375   3.303  12.546  0.5338 -0.5001 -0.2223
 5973SOL    HW229556   0.425   3.337  12.676 -0.6965  1.0171  0.2031
 5974SOL     OW29557   2.863   1.839  12.593  0.1946  0.5797 -0.3476
 5974SOL    HW129558   2.856   1.767  12.530  0.9761 -1.1349  1.5031
 5974SOL    HW229559   2.799   1.810  12.659  1.5925 -0.5501  0.5090
 5975SOL     OW29560   2.502   0.433  12.623  0.6964  0.7888 -0.1208
 5975SOL    HW129561   2.538   0.387  12.699  3.3597  1.1638 -1.1596
 5975SOL    HW229562   2.418   0.387  12.615  1.6113 -0.9340  0.2007
 5976SOL     OW29563   0.341   1.003  10.288  0.7802  0.6349 -0.2304
 5976SOL    HW129564   0.266   1.039  10.335  1.2963  0.9262  0.3656
 5976SOL    HW229565   0.357   0.923  10.338  1.2944  1.5276  1.0379
 5977SOL     OW29566   3.819   4.394   8.110  0.5595  0.8258 -0.5454
 5977SOL    HW129567   3.902   4.347   8.108  0.6254  0.9359 -0.3721
 5977SOL    HW229568   3.770   4.366   8.187 -0.0855 -0.6659 -1.4957
 5978SOL     OW29569   2.112   1.685   8.634  0.1302 -0.0337  0.0162
 5978SOL    HW129570   2.157   1.613   8.679  1.6589  0.4813 -0.6771
 5978SOL    HW229571   2.136   1.658   8.545  0.0674 -2.7256  0.8046
 5979SOL     OW29572   2.566   4.725   1.135  0.1407 -0.1686  0.0100
 5979SOL    HW129573   2.480   4.684   1.139 -1.3748  2.9548 -0.2302
 5979SOL    HW229574   2.569   0.038   1.216 -0.0348  2.2742 -1.4667
 5980SOL     OW29575   2.673   0.822  17.472 -0.6606  0.3707 -0.3531
 5980SOL    HW129576   2.746   0.768  17.503 -0.9842  1.1619  1.7469
 5980SOL    HW229577   2.701   0.825  17.380  2.3271 -0.6394  0.5221
 5981SOL     OW29578   0.336   3.911   3.923  0.3231 -0.1127 -0.2303
 5981SOL    HW129579   0.341   3.817   3.939 -0.9353 -0.2594 -0.7235
 5981SOL    HW229580   0.271   3.937   3.988  3.3577 -0.0520  2.7850
 5982SOL     OW29581   0.296   4.519   8.738 -0.1525 -0.1919  0.5621
 5982SOL    HW129582   0.385   4.508   8.703 -0.0065  2.2760  0.1659
 5982SOL    HW229583   0.272   4.429   8.759  0.5048 -0.2109  1.2475
 5983SOL     OW29584   4.339   4.360   2.589 -0.1703 -0.0615  0.5206
 5983SOL    HW129585   4.306   4.416   2.659 -0.1070  1.6444 -0.8128
 5983SOL    HW229586   4.380   4.287   2.636  1.0308 -0.5082 -1.2061
 5984SOL     OW29587   2.990   3.010   6.190  0.2327  0.3853  0.1259
 5984SOL    HW129588   2.988   2.992   6.096 -0.8755 -0.8953  0.3916
 5984SOL    HW229589   2.897   2.996   6.210  0.0216 -1.5516 -2.1422
 5985SOL     OW29590   4.028   3.460  13.204 -0.2135  0.0976 -0.1076
 5985SOL    HW129591   4.088   3.393  13.238  0.3604 -0.6502 -2.6056
 5985SOL    HW229592   4.009   3.517  13.279 -1.1512  0.5149 -0.6688
 5986SOL     OW29593   1.678   0.265   3.789  0.2617 -0.3758  0.3328
 5986SOL    HW129594   1.620   0.188   3.786  1.0121 -0.9490  0.5744
 5986SOL    HW229595   1.753   0.237   3.841 -0.5386  1.0039  2.2319
 5987SOL     OW29596   1.648   2.218   7.386  0.0921 -0.4072  0.6437
 5987SOL    HW129597   1.658   2.126   7.412 -3.1047 -1.0155 -0.2883
 5987SOL    HW229598   1.713   2.221   7.316 -0.5865  1.6697  0.1041
 5988SOL     OW29599   2.679   2.495   2.627  0.8746 -0.1185  0.2716
 5988SOL    HW129600   2.647   2.567   2.572 -2.2041 -2.0196 -0.4035
 5988SOL    HW229601   2.603   2.494   2.684  0.3992 -0.0393 -0.3546
 5989SOL     OW29602   3.535   0.176   1.471  0.0971  0.8264  0.4370
 5989SOL    HW129603   3.517   0.126   1.392  1.0900 -3.8289  3.1513
 5989SOL    HW229604   3.491   0.260   1.462  0.5264  0.8395 -1.6461
 5990SOL     OW29605   1.986   1.110   7.885  0.1734 -0.0350 -0.2556
 5990SOL    HW129606   2.005   1.067   7.969 -1.2482  1.6831  0.9252
 5990SOL    HW229607   1.897   1.080   7.869  0.8505 -1.4692 -1.3046
 5991SOL     OW29608   4.613   2.486   3.596  0.4200  0.1204 -0.3631
 5991SOL    HW129609   4.686   2.541   3.624  0.0315  0.5891 -0.2570
 5991SOL    HW229610   4.656   2.449   3.519 -2.0504 -1.4467 -0.9848
 5992SOL     OW29611   1.490   3.656   4.097 -0.2917 -0.1043  0.2525
 5992SOL    HW129612   1.459   3.660   4.007  1.2464  0.1837 -0.2727
 5992SOL    HW229613   1.504   3.746   4.126 -2.5277  0.1117  0.6971
 5993SOL     OW29614   4.681   2.034  13.165  0.6582 -0.3947  0.0835
 5993SOL    HW129615   4.591   2.066  13.162 -0.2351 -2.9178  0.7246
 5993SOL    HW229616   4.711   2.087  13.239 -1.3351 -0.5466  0.9913
 5994SOL     OW29617   3.107   1.293   5.076  0.4926 -0.7326  0.1888
 5994SOL    HW129618   3.062   1.357   5.021  1.3207  0.7946  1.2904
 5994SOL    HW229619   3.040   1.283   5.143  0.1380 -1.1607 -0.2314
 5995SOL     OW29620   0.006   2.647   7.416  0.3298  0.6204  0.0348
 5995SOL    HW129621   0.100   2.628   7.418  0.1382 -0.2240  0.9340
 5995SOL    HW229622   4.721   2.613   7.329 -1.2625  3.7464 -0.7772
 5996SOL     OW29623   1.525   3.113   4.830 -0.2514  0.0275 -0.4177
 5996SOL    HW129624   1.529   3.121   4.735  0.8473  0.2826 -0.3452
 5996SOL    HW229625   1.484   3.027   4.841 -0.9961  0.3748 -0.4905
 5997SOL     OW29626   4.460   3.919  15.218 -0.3755 -0.3507 -0.5786
 5997SOL    HW129627   4.550   3.891  15.202 -0.4677 -0.4101 -0.9804
 5997SOL    HW229628   4.448   3.974  15.141  0.8212 -2.1452 -2.0506
 5998SOL     OW29629   3.198   3.085   7.350 -0.4668 -0.1530 -0.3907
 5998SOL    HW129630   3.171   3.002   7.390  1.1722 -0.1061  0.7641
 5998SOL    HW229631   3.209   3.133   7.432  1.4613 -2.9451  0.9775
 5999SOL     OW29632   4.175   3.238   7.504  0.0646  0.6629 -0.6483
 5999SOL    HW129633   4.087   3.259   7.473 -0.8939 -0.9418  0.9527
 5999SOL    HW229634   4.165   3.250   7.599  0.8704 -0.6159 -0.4055
 6000SOL     OW29635   3.763   3.802   9.528 -0.2414  0.3989  0.3628
 6000SOL    HW129636   3.733   3.714   9.552 -1.9729  0.6449 -0.9542
 6000SOL    HW229637   3.840   3.805   9.586 -0.3860 -1.7203  0.6730
 6001SOL     OW29638   4.309   2.657  12.796  0.3650  0.1912 -0.2924
 6001SOL    HW129639   4.260   2.714  12.856  2.0056  1.0305  0.2502
 6001SOL    HW229640   4.243   2.632  12.732  1.6242 -0.5595 -1.2968
 6002SOL     OW29641   3.447   0.429  14.209  0.0969  0.0283  0.1583
 6002SOL    HW129642   3.505   0.431  14.285  0.9860  0.0629 -0.5239
 6002SOL    HW229643   3.409   0.517  14.205 -0.3743 -0.1542  0.7513
 6003SOL     OW29644   0.335   3.698   2.362 -0.2994  0.2232  0.1167
 6003SOL    HW129645   0.297   3.637   2.299 -1.0667  1.5537 -0.7061
 6003SOL    HW229646   0.398   3.649   2.415 -3.0449 -3.9274 -0.4094
 6004SOL     OW29647   0.461   0.131  16.824 -0.2805 -0.0764 -0.2569
 6004SOL    HW129648   0.374   0.166  16.806 -1.0026 -1.5457  0.3538
 6004SOL    HW229649   0.454   0.042  16.791  3.2030 -0.4106 -0.0602
 6005SOL     OW29650   4.206   3.019   4.542  0.4873  0.0133  0.2591
 6005SOL    HW129651   4.211   3.112   4.520 -1.0417  0.4223  1.6732
 6005SOL    HW229652   4.238   3.017   4.633  0.9264  1.9997  0.1456
 6006SOL     OW29653   3.025   1.585   4.485 -0.5728  0.4282  0.5198
 6006SOL    HW129654   3.104   1.621   4.445 -0.2693 -0.6412  0.1781
 6006SOL    HW229655   2.953   1.631   4.443 -1.6174 -2.3200 -0.6883
 6007SOL     OW29656   0.080   3.905   7.636 -0.5374  1.3414  0.2430
 6007SOL    HW129657   0.000   3.910   7.584 -1.8009  0.5332  2.0936
 6007SOL    HW229658   0.060   3.846   7.709 -0.5385  1.3813  0.2750
 6008SOL     OW29659   0.393   3.126   8.744 -0.2859 -0.1173  0.0398
 6008SOL    HW129660   0.393   3.033   8.768  1.1719  0.0585  0.7199
 6008SOL    HW229661   0.334   3.122   8.669  1.8443 -0.7326 -1.5954
 6009SOL     OW29662   0.308   0.131  16.163 -0.1604 -0.1834  0.3259
 6009SOL    HW129663   0.282   0.160  16.076  0.9857  0.7212  0.2839
 6009SOL    HW229664   0.225   0.096  16.195  0.4268 -1.2404  0.7092
 6010SOL     OW29665   1.844   3.555   0.446  0.3101 -0.2370 -0.1638
 6010SOL    HW129666   1.866   3.648   0.439 -0.8566 -0.0428 -1.1063
 6010SOL    HW229667   1.937   3.531   0.453  0.7132  1.3459 -0.0820
 6011SOL     OW29668   0.695   3.425   1.212 -0.3838 -0.2949 -0.9959
 6011SOL    HW129669   0.705   3.331   1.220  3.6022  0.2026 -0.0418
 6011SOL    HW229670   0.786   3.454   1.205 -0.3436 -1.1269 -4.0381
 6012SOL     OW29671   2.243   3.880   1.153 -0.4268  0.6231  0.3112
 6012SOL    HW129672   2.306   3.811   1.173 -1.2806  0.2154  1.5889
 6012SOL    HW229673   2.290   3.962   1.169 -0.9249  1.4936 -2.6322
 6013SOL     OW29674   2.417   0.886   3.900 -0.2079  0.2174  0.5779
 6013SOL    HW129675   2.499   0.894   3.948  0.0670  2.8455 -0.3347
 6013SOL    HW229676   2.438   0.816   3.838 -1.4036  2.1294 -2.0188
 6014SOL     OW29677   0.983   1.825   8.478  0.4589  0.0888  0.7617
 6014SOL    HW129678   0.937   1.904   8.454  0.5924  0.4310  1.6363
 6014SOL    HW229679   1.067   1.868   8.494  0.4157  0.5336 -0.2306
 6015SOL     OW29680   0.295   0.985   4.702  0.1246  0.1346 -0.5958
 6015SOL    HW129681   0.250   0.927   4.763  0.2076 -0.1041 -0.7630
 6015SOL    HW229682   0.310   0.914   4.640  2.3271  0.5609 -0.5441
 6016SOL     OW29683   1.359   2.544   8.995 -0.4930  0.2186 -0.0508
 6016SOL    HW129684   1.290   2.604   9.024 -0.2167  1.1868 -1.4124
 6016SOL    HW229685   1.318   2.459   9.011 -1.1691  0.7878  1.2497
 6017SOL     OW29686   3.213   1.173  10.270  0.5003  0.1810 -0.5992
 6017SOL    HW129687   3.211   1.232  10.345  3.7433 -1.8348  1.0571
 6017SOL    HW229688   3.125   1.172  10.231  1.3296  0.9610 -2.5037
 6018SOL     OW29689   0.639   2.087   5.204 -0.6630 -0.1620  0.2016
 6018SOL    HW129690   0.730   2.097   5.178 -0.1034 -0.1962  2.2030
 6018SOL    HW229691   0.605   2.176   5.215 -0.0686  0.1713 -0.6111
 6019SOL     OW29692   2.984   1.974   9.819 -0.3005  0.1675 -0.0893
 6019SOL    HW129693   3.009   1.911   9.887  1.7540 -1.5858 -2.4613
 6019SOL    HW229694   2.898   1.938   9.796 -0.3499  2.4291 -3.3298
 6020SOL     OW29695   2.535   0.522   2.499  0.1860  0.0866  0.3604
 6020SOL    HW129696   2.586   0.495   2.575 -2.3192 -0.2530  1.9043
 6020SOL    HW229697   2.463   0.558   2.550 -1.3973 -2.0541 -0.3519
 6021SOL     OW29698   3.208   0.890   8.340  0.0915 -0.0787 -0.2121
 6021SOL    HW129699   3.239   0.828   8.406 -1.0539  0.8694  1.2080
 6021SOL    HW229700   3.160   0.835   8.279 -1.4447 -0.1905  1.0909
 6022SOL     OW29701   2.863   1.359   6.210  0.0296 -0.1893  0.3324
 6022SOL    HW129702   2.784   1.388   6.256 -0.9690 -1.7315 -0.4545
 6022SOL    HW229703   2.830   1.274   6.184 -0.4086 -0.1978  0.9000
 6023SOL     OW29704   2.450   1.600  14.819 -0.3705 -0.0000  0.0507
 6023SOL    HW129705   2.545   1.605  14.817 -0.3480  0.3436  2.1900
 6023SOL    HW229706   2.422   1.658  14.890 -0.2154 -0.7829  0.7574
 6024SOL     OW29707   1.711   2.640   5.662  0.4702 -0.1200 -0.0050
 6024SOL    HW129708   1.801   2.658   5.635  0.8956 -1.1668  0.6971
 6024SOL    HW229709   1.711   2.716   5.720 -1.1360  0.8269 -1.2485
 6025SOL     OW29710   0.883   0.639   2.799  0.0068  0.2669 -0.6222
 6025SOL    HW129711   0.973   0.668   2.815 -0.5207  1.2739  0.5168
 6025SOL    HW229712   0.861   0.606   2.886 -0.0319 -1.6178 -1.3422
 6026SOL     OW29713   2.766   3.587   4.103  0.1475 -0.0346  0.3846
 6026SOL    HW129714   2.785   3.528   4.175 -1.1725 -1.4246 -0.3935
 6026SOL    HW229715   2.811   3.666   4.131 -0.5063  0.4927 -0.0612
 6027SOL     OW29716   2.713   0.994   2.250 -0.1555  0.3464  0.3439
 6027SOL    HW129717   2.638   1.052   2.259 -0.6151 -0.0447 -1.0604
 6027SOL    HW229718   2.685   0.918   2.301  2.0716 -0.4796  0.3711
 6028SOL     OW29719   4.461   4.179   3.960  0.2382 -0.1032 -0.2450
 6028SOL    HW129720   4.514   4.253   3.990  0.9691 -0.6433 -0.1772
 6028SOL    HW229721   4.392   4.176   4.026 -0.3140  3.6344 -0.6556
 6029SOL     OW29722   0.368   0.571   4.931 -0.3650 -0.3242 -0.5922
 6029SOL    HW129723   0.392   0.582   4.839 -0.2312 -0.1290 -0.5320
 6029SOL    HW229724   0.456   0.574   4.968 -0.9561 -0.6466  0.8324
 6030SOL     OW29725   2.899   4.301   8.480 -0.0187  0.3398  0.0461
 6030SOL    HW129726   2.896   4.218   8.528  1.7851 -0.0015 -0.4227
 6030SOL    HW229727   2.940   4.362   8.542  0.3395  0.4009 -0.2514
 6031SOL     OW29728   1.990   0.505   8.141 -0.2245  0.0951  0.3134
 6031SOL    HW129729   1.917   0.466   8.094 -0.6871 -0.2935  1.3401
 6031SOL    HW229730   1.981   0.465   8.228  2.3372  0.2021  0.6442
 6032SOL     OW29731   1.095   1.586   4.185 -0.9253 -0.2377  0.7739
 6032SOL    HW129732   1.178   1.547   4.214 -1.2154 -0.8606  0.7410
 6032SOL    HW229733   1.127   1.674   4.162  1.5997 -1.1932  0.6715
 6033SOL     OW29734   4.676   0.346  17.140 -0.2828  0.4514 -0.2786
 6033SOL    HW129735   4.714   0.261  17.116  0.8341  0.6318  0.8124
 6033SOL    HW229736   4.602   0.356  17.081 -1.1494 -0.5790  0.6284
 6034SOL     OW29737   4.556   1.289  15.257  0.4467  0.6686 -0.0976
 6034SOL    HW129738   4.628   1.268  15.316  0.6365  0.2995 -0.4632
 6034SOL    HW229739   4.515   1.203  15.244  0.7025  0.5228  0.0609
 6035SOL     OW29740   1.514   1.377  10.315  0.0703 -0.1989 -0.3063
 6035SOL    HW129741   1.530   1.345  10.404 -1.8278 -1.0630 -0.2843
 6035SOL    HW229742   1.584   1.438  10.292  0.3938 -0.7023 -0.6444
 6036SOL     OW29743   4.628   1.430  10.587  0.4823 -0.1951  0.2955
 6036SOL    HW129744   4.613   1.335  10.580 -0.9371  0.1268 -1.1329
 6036SOL    HW229745   4.715   1.427  10.627 -0.0357 -0.2092  1.4237
 6037SOL     OW29746   1.683   1.786  15.417 -0.1246 -0.0048  0.2500
 6037SOL    HW129747   1.616   1.813  15.480 -1.8518  0.2814 -1.7064
 6037SOL    HW229748   1.632   1.709  15.391 -2.1847  0.6354  2.3600
 6038SOL     OW29749   2.707   2.598  13.285  0.5182  0.0572 -0.2154
 6038SOL    HW129750   2.618   2.631  13.281 -0.0471 -1.2356  1.4220
 6038SOL    HW229751   2.749   2.633  13.206  0.0984  1.3526  0.1358
 6039SOL     OW29752   3.608   4.609   5.066  0.3310 -0.7922 -0.0815
 6039SOL    HW129753   3.570   4.631   5.151  1.7456 -0.8630  0.5653
 6039SOL    HW229754   3.664   4.682   5.038 -0.6999 -1.0181 -2.7304
 6040SOL     OW29755   4.222   2.391   7.827  0.2982  0.3917 -0.2336
 6040SOL    HW129756   4.181   2.460   7.774 -2.5742 -0.5847  0.7482
 6040SOL    HW229757   4.182   2.307   7.803 -0.8914  0.6588  0.8391
 6041SOL     OW29758   2.603   1.953   8.366  0.1595  0.9223  0.0215
 6041SOL    HW129759   2.571   2.015   8.431  0.1515 -1.5644  2.3719
 6041SOL    HW229760   2.575   1.867   8.397 -0.6345  1.1398 -0.0902
 6042SOL     OW29761   3.260   4.188  15.992  0.9891 -0.4828 -0.3584
 6042SOL    HW129762   3.244   4.189  15.897 -0.7628  0.7670 -0.0499
 6042SOL    HW229763   3.343   4.236  15.994  1.2677 -1.0199  0.9498
 6043SOL     OW29764   4.066   3.045   5.848  0.0772  0.4918  0.7235
 6043SOL    HW129765   3.999   2.999   5.898  1.6350 -1.2560  1.2105
 6043SOL    HW229766   4.020   3.092   5.779 -1.1387  1.2239  2.0391
 6044SOL     OW29767   4.589   0.148   5.881  0.7633  0.0292 -0.5271
 6044SOL    HW129768   4.495   0.163   5.873  0.2536 -2.0446  1.4015
 6044SOL    HW229769   4.620   0.178   5.796  0.5428  0.9147 -0.3016
 6045SOL     OW29770   3.260   3.916   7.662 -0.0281 -0.1396 -0.6331
 6045SOL    HW129771   3.183   3.967   7.688 -1.3744 -1.4229 -2.1139
 6045SOL    HW229772   3.321   3.987   7.682  0.7268 -1.2316  0.9041
 6046SOL     OW29773   2.467   0.573   8.179 -0.4232 -0.4912  0.0462
 6046SOL    HW129774   2.488   0.481   8.194  1.4604  0.0588  0.8799
 6046SOL    HW229775   2.383   0.582   8.134  0.1112 -0.8001 -1.0064
 6047SOL     OW29776   3.933   2.886  14.047 -0.1877  0.0200 -0.2784
 6047SOL    HW129777   3.927   2.917  13.957 -0.1216  1.0095  0.0624
 6047SOL    HW229778   3.983   2.954  14.092 -1.4371  1.1712 -0.6386
 6048SOL     OW29779   2.918   3.026   5.911  0.2670 -0.2676  0.4323
 6048SOL    HW129780   2.888   2.946   5.868  0.6287  1.2132 -2.5751
 6048SOL    HW229781   2.945   3.079   5.837 -1.8286 -1.0239 -0.8503
 6049SOL     OW29782   4.512   3.702   7.411 -0.5230  0.7757  0.3591
 6049SOL    HW129783   4.518   3.709   7.316 -0.0042  0.5990  0.3811
 6049SOL    HW229784   4.538   3.789   7.444 -1.2086  1.2393 -0.3176
 6050SOL     OW29785   4.280   2.853  13.302  0.2294 -0.0826  0.5371
 6050SOL    HW129786   4.355   2.819  13.350  1.0519  0.7690 -0.1454
 6050SOL    HW229787   4.308   2.944  13.286 -0.5753  0.1069  0.1978
 6051SOL     OW29788   0.520   0.760   0.343 -0.2891  0.5668 -0.1360
 6051SOL    HW129789   0.513   0.680   0.395  0.8809 -0.4717 -1.6009
 6051SOL    HW229790   0.611   0.746   0.318 -0.1391  1.2469  0.0081
 6052SOL     OW29791   3.417   3.530   2.935 -0.5820  0.4914  0.2078
 6052SOL    HW129792   3.503   3.545   2.895 -0.7085 -0.7147 -0.4967
 6052SOL    HW229793   3.421   3.435   2.950  1.9629  0.7964  1.5245
 6053SOL     OW29794   1.568   2.014  12.515  0.3027 -0.7826  0.1588
 6053SOL    HW129795   1.625   2.060  12.454 -1.1100  2.3548  1.1522
 6053SOL    HW229796   1.585   1.928  12.477 -0.5734 -0.4514 -0.9861
 6054SOL     OW29797   3.884   2.416  14.648 -0.5579  0.2763 -0.5022
 6054SOL    HW129798   3.948   2.469  14.601  0.1667 -0.3954 -0.2760
 6054SOL    HW229799   3.806   2.452  14.607 -0.5380  1.5321  0.5829
 6055SOL     OW29800   3.878   4.263  10.247  0.2715 -0.3751 -0.4194
 6055SOL    HW129801   3.902   4.297  10.333 -0.0708 -0.5959 -0.2361
 6055SOL    HW229802   3.964   4.245  10.207 -0.0209 -0.2599 -1.0997
 6056SOL     OW29803   1.391   2.307  12.321  0.0528  0.5865 -0.3632
 6056SOL    HW129804   1.444   2.381  12.291  0.7123 -0.7470 -2.4750
 6056SOL    HW229805   1.377   2.329  12.413 -0.3606  0.6077 -0.4273
 6057SOL     OW29806   0.409   0.910   9.428 -0.6760  0.2618 -0.4448
 6057SOL    HW129807   0.386   0.874   9.513  0.6985 -1.6962 -0.9198
 6057SOL    HW229808   0.440   0.995   9.461  0.5305 -1.1277  1.9864
 6058SOL     OW29809   4.644   1.894   4.875  0.4651 -0.5154 -0.0654
 6058SOL    HW129810   4.577   1.825   4.871  0.3078 -0.4646  1.6566
 6058SOL    HW229811   4.671   1.890   4.783 -0.8469 -0.9330 -0.4327
 6059SOL     OW29812   4.564   0.520   4.079 -0.5068 -0.1558 -0.0050
 6059SOL    HW129813   4.635   0.476   4.125  0.0562  2.0436  1.2214
 6059SOL    HW229814   4.497   0.452   4.070 -1.0567  0.2659  0.8571
 6060SOL     OW29815   3.843   0.776  10.928 -0.1158 -0.0205  0.6351
 6060SOL    HW129816   3.773   0.813  10.982 -1.3650 -1.3144 -0.1303
 6060SOL    HW229817   3.811   0.687  10.917 -1.9092  0.8841 -1.5645
 6061SOL     OW29818   4.643   1.317   9.237 -0.1981  0.1563 -0.7927
 6061SOL    HW129819   4.609   1.228   9.231  4.0868 -1.6088  1.4295
 6061SOL    HW229820   4.591   1.359   9.168  2.1575 -1.3194 -3.4278
 6062SOL     OW29821   2.341   2.012   2.015 -0.4786 -0.3769  0.3594
 6062SOL    HW129822   2.387   2.079   2.065 -0.1002 -0.6865  0.4270
 6062SOL    HW229823   2.350   2.049   1.927 -2.1703 -1.0755 -0.1032
 6063SOL     OW29824   4.573   2.227   6.851 -0.0197  0.1554  0.5436
 6063SOL    HW129825   4.494   2.182   6.880  0.3778  0.8842  2.7624
 6063SOL    HW229826   4.602   2.165   6.784  1.7859 -0.0670  1.5415
 6064SOL     OW29827   1.771   3.193   4.934  1.0116 -0.5092 -0.5085
 6064SOL    HW129828   1.777   3.138   5.012 -0.1115  0.3790  0.2133
 6064SOL    HW229829   1.686   3.160   4.902  0.7725 -0.1523 -0.2466
 6065SOL     OW29830   3.948   2.932   6.630 -0.1566 -0.2479 -0.1588
 6065SOL    HW129831   4.013   2.945   6.699  0.3717  2.0336 -1.1005
 6065SOL    HW229832   3.942   3.018   6.589 -0.4604 -0.2421 -0.0958
 6066SOL     OW29833   1.726   0.878   7.068  0.3471 -0.7872  0.7789
 6066SOL    HW129834   1.708   0.785   7.054  1.8771 -0.9482 -0.1001
 6066SOL    HW229835   1.656   0.925   7.022 -1.1029 -2.5517  1.1888
 6067SOL     OW29836   1.433   2.706   7.945  0.3781  0.1816 -0.0994
 6067SOL    HW129837   1.442   2.644   8.018 -0.4251  1.6841  1.2761
 6067SOL    HW229838   1.445   2.791   7.986 -1.5681  1.5071 -2.2686
 6068SOL     OW29839   1.652   2.363  17.280  0.1502 -0.3338 -0.1831
 6068SOL    HW129840   1.691   2.385  17.195 -0.0404  1.0746  0.1003
 6068SOL    HW229841   1.712   2.411  17.336  2.1277 -1.7752 -1.0728
 6069SOL     OW29842   2.387   3.768   7.518 -0.0984  0.1556 -0.0992
 6069SOL    HW129843   2.386   3.692   7.576 -1.7476 -0.3460 -0.7729
 6069SOL    HW229844   2.311   3.746   7.463 -0.7083 -3.2608  2.0850
 6070SOL     OW29845   0.577   0.576  16.164 -0.4528 -0.1459  0.3783
 6070SOL    HW129846   0.539   0.488  16.175 -0.1991 -0.3238 -0.1675
 6070SOL    HW229847   0.668   0.553  16.146 -0.0196  2.4021 -0.6747
 6071SOL     OW29848   3.772   4.491   7.850  0.2595 -0.5259  0.1236
 6071SOL    HW129849   3.693   4.546   7.856  0.5375 -0.4601  3.3582
 6071SOL    HW229850   3.755   4.447   7.934 -0.1195  0.8904  0.7898
 6072SOL     OW29851   4.441   3.251   9.083  0.7682 -0.2307  0.0853
 6072SOL    HW129852   4.425   3.184   9.149  1.2429 -1.8271 -1.4147
 6072SOL    HW229853   4.422   3.333   9.129 -1.5986 -0.7191 -0.0299
 6073SOL     OW29854   3.238   1.924   8.041  0.4577  0.5228 -0.1390
 6073SOL    HW129855   3.328   1.945   8.068  1.0669 -1.6604 -0.4300
 6073SOL    HW229856   3.204   2.011   8.059  1.9797  1.7359 -3.2197
 6074SOL     OW29857   3.277   3.994  15.409  0.7246 -0.2957 -0.1086
 6074SOL    HW129858   3.342   3.961  15.472 -3.2401 -5.2210  1.3834
 6074SOL    HW229859   3.319   3.972  15.326 -2.0286  0.9076 -1.8024
 6075SOL     OW29860   3.947   3.612  13.685  0.0862 -0.6441  0.3938
 6075SOL    HW129861   3.980   3.523  13.703 -1.0632 -1.4557 -1.5096
 6075SOL    HW229862   3.991   3.667  13.750  0.2211  1.7559 -1.7484
 6076SOL     OW29863   3.812   2.208   2.087 -0.4899 -0.2706  0.1532
 6076SOL    HW129864   3.809   2.159   2.005  0.3712 -1.0847  0.6032
 6076SOL    HW229865   3.883   2.271   2.071 -1.1703  0.1025 -1.3464
 6077SOL     OW29866   3.373   2.563   5.207 -0.2808  0.0556 -0.8998
 6077SOL    HW129867   3.388   2.654   5.230  4.4353 -0.8041 -0.5483
 6077SOL    HW229868   3.446   2.538   5.151 -0.4234  0.8476 -1.4351
 6078SOL     OW29869   0.795   3.532   4.610  0.4971  0.0102  0.2273
 6078SOL    HW129870   0.833   3.515   4.696  0.3512 -0.4678  0.1936
 6078SOL    HW229871   0.753   3.448   4.591 -1.6294  1.1229 -0.0161
 6079SOL     OW29872   2.614   0.219  16.027  0.3282 -0.5070 -0.8270
 6079SOL    HW129873   2.580   0.212  16.116 -0.6303  0.5692 -1.1138
 6079SOL    HW229874   2.559   0.294  16.005  1.1624  0.7428  1.3541
 6080SOL     OW29875   4.151   3.352   3.870  0.0031 -0.2732  0.2874
 6080SOL    HW129876   4.097   3.273   3.876  1.3770 -1.1972  0.3042
 6080SOL    HW229877   4.211   3.347   3.944  0.1164  0.8058  0.2774
 6081SOL     OW29878   2.574   3.072   4.390  0.5848 -0.1903 -0.3415
 6081SOL    HW129879   2.501   3.011   4.404  2.3678 -2.4300 -0.8195
 6081SOL    HW229880   2.573   3.134   4.463 -0.1146  1.6255 -1.8816
 6082SOL     OW29881   0.854   3.722   7.541  0.1219  0.3897 -0.1191
 6082SOL    HW129882   0.772   3.745   7.497 -0.0066 -0.6045 -0.3916
 6082SOL    HW229883   0.873   3.811   7.572 -0.5032  0.0775  1.1928
 6083SOL     OW29884   4.181   0.837  10.699  0.2099  0.2622 -0.2037
 6083SOL    HW129885   4.270   0.868  10.682 -0.5126  1.7401 -1.2586
 6083SOL    HW229886   4.134   0.908  10.656  0.4347  0.7439  0.3423
 6084SOL     OW29887   0.859   4.716  17.220  1.1154 -0.8110 -0.4535
 6084SOL    HW129888   0.862   4.724  17.124  1.5701 -4.2460 -0.7480
 6084SOL    HW229889   0.923   4.644  17.225 -0.9563 -2.5134  1.3075
 6085SOL     OW29890   2.421   1.204   5.279  0.0935  0.2797 -0.5020
 6085SOL    HW129891   2.491   1.193   5.215  0.7964  1.1526  0.1161
 6085SOL    HW229892   2.457   1.149   5.348 -0.3788  0.6889  0.0734
 6086SOL     OW29893   0.030   1.046   3.917  0.5253 -0.5886  0.0875
 6086SOL    HW129894   0.073   1.129   3.938 -0.2666  0.0394 -0.7798
 6086SOL    HW229895   0.088   1.003   3.854  0.3562  0.6827 -0.9232
 6087SOL     OW29896   2.970   3.425   8.614  0.0557 -0.5313  0.4139
 6087SOL    HW129897   3.005   3.513   8.627  1.5758 -0.8944 -1.2729
 6087SOL    HW229898   3.053   3.377   8.613  1.0569  1.2097 -0.1011
 6088SOL     OW29899   0.321   3.987   4.838  0.3419 -0.0009  0.1318
 6088SOL    HW129900   0.329   4.017   4.928 -1.0417 -1.8395  0.8571
 6088SOL    HW229901   0.386   4.043   4.796  1.4712 -0.0381  1.8130
 6089SOL     OW29902   1.349   4.061   4.349  0.2711 -0.2042  0.1371
 6089SOL    HW129903   1.346   4.059   4.445  0.7937  1.7822  0.2008
 6089SOL    HW229904   1.364   4.148   4.312  0.4841  1.0124  3.1370
 6090SOL     OW29905   0.745   4.606  14.987 -0.2803 -0.8148 -0.2954
 6090SOL    HW129906   0.806   4.632  14.917 -1.5933 -0.5957 -1.3682
 6090SOL    HW229907   0.662   4.632  14.947 -1.1486 -4.3337 -0.7474
 6091SOL     OW29908   1.275   1.219   1.658 -0.7593  0.3267  0.0636
 6091SOL    HW129909   1.220   1.237   1.734 -1.5267  0.5031 -0.5295
 6091SOL    HW229910   1.229   1.267   1.589  1.2755  0.5978 -1.1102
 6092SOL     OW29911   3.386   2.181   5.068  0.0305 -0.0499 -0.6000
 6092SOL    HW129912   3.344   2.096   5.058 -0.5423  0.1948 -0.2885
 6092SOL    HW229913   3.438   2.175   5.148 -5.0565 -1.1098  2.6245
 6093SOL     OW29914   0.062   0.383  16.473  0.4812 -0.1895  0.1710
 6093SOL    HW129915   0.133   0.423  16.423  1.9010 -0.1372  2.2708
 6093SOL    HW229916   0.103   0.332  16.542  0.4283  0.5741  0.7655
 6094SOL     OW29917   1.543   4.029   8.533  0.1600  0.5779  0.0443
 6094SOL    HW129918   1.480   4.095   8.561 -1.7602 -0.6595 -1.4436
 6094SOL    HW229919   1.627   4.075   8.537 -0.9756  2.4733  2.4222
 6095SOL     OW29920   3.200   2.000  17.109  0.2909 -0.0031 -0.0636
 6095SOL    HW129921   3.178   1.908  17.100 -0.0495  0.0651  0.0465
 6095SOL    HW229922   3.276   1.992  17.167 -0.5421  0.3472  1.0920
 6096SOL     OW29923   4.643   1.489   2.402 -0.3646 -0.6185 -0.1061
 6096SOL    HW129924   4.627   1.580   2.377  1.6164  0.5971  3.0767
 6096SOL    HW229925   4.631   1.505   2.496  0.2282 -1.0729  0.0457
 6097SOL     OW29926   1.222   0.054  11.386  0.0234  0.0875 -0.3462
 6097SOL    HW129927   1.240   4.736  11.463  0.4848 -1.8147 -1.8034
 6097SOL    HW229928   1.138   0.090  11.414  0.8030  2.3401 -0.9002
 6098SOL     OW29929   3.835   1.646   4.005 -0.3100 -0.3282 -0.2680
 6098SOL    HW129930   3.930   1.654   3.996 -0.2997 -1.4531 -1.1331
 6098SOL    HW229931   3.799   1.718   3.952  1.1744  2.1073  2.0090
 6099SOL     OW29932   2.770   0.247   5.653  0.0152  0.6587 -0.1470
 6099SOL    HW129933   2.780   0.152   5.643 -0.1953  0.6565 -0.3461
 6099SOL    HW229934   2.768   0.252   5.748  0.4196  0.8320 -0.1502
 6100SOL     OW29935   1.342   2.781  14.420  0.2028 -0.7475 -0.4078
 6100SOL    HW129936   1.381   2.824  14.496 -0.6778  0.0220 -0.3858
 6100SOL    HW229937   1.251   2.811  14.417 -0.9914 -4.2669  1.0856
 6101SOL     OW29938   4.334   3.090   8.588  0.2719 -0.1263 -0.4145
 6101SOL    HW129939   4.398   3.042   8.535  0.6107  0.6754 -0.7421
 6101SOL    HW229940   4.296   3.020   8.640 -0.9002  0.8470  0.0223
 6102SOL     OW29941   3.426   1.058   4.502  0.3967 -0.4367 -0.0893
 6102SOL    HW129942   3.516   1.044   4.531  0.1951 -0.0506  0.7100
 6102SOL    HW229943   3.433   1.147   4.469  1.9131 -0.5822 -0.1773
 6103SOL     OW29944   3.805   4.229  16.490 -0.2512  0.4340  0.2127
 6103SOL    HW129945   3.894   4.232  16.524 -0.8409  1.6487  1.6374
 6103SOL    HW229946   3.797   4.309  16.439 -1.9210  2.3017  3.4282
 6104SOL     OW29947   4.400   3.800  15.764 -0.5710 -0.1351  0.6981
 6104SOL    HW129948   4.376   3.712  15.735  1.7363 -0.4938 -0.0809
 6104SOL    HW229949   4.360   3.858  15.699 -3.1932 -2.1842  0.5088
 6105SOL     OW29950   4.490   2.120   4.766  0.0247 -0.0114 -0.1178
 6105SOL    HW129951   4.501   2.074   4.849 -0.8929  0.7816  0.4437
 6105SOL    HW229952   4.462   2.207   4.794  1.6922  0.5169 -0.1064
 6106SOL     OW29953   3.783   4.495   9.848  0.5910  0.8066 -0.5176
 6106SOL    HW129954   3.774   4.400   9.843 -2.7781  1.1113 -0.4604
 6106SOL    HW229955   3.848   4.506   9.780  0.1748 -3.6479 -1.6360
 6107SOL     OW29956   0.493   2.973   6.822 -0.5948  0.4462 -0.7775
 6107SOL    HW129957   0.404   2.998   6.799  0.4203  1.9986 -3.0744
 6107SOL    HW229958   0.527   2.925   6.746 -1.2640 -1.1880 -0.0179
 6108SOL     OW29959   3.757   0.356  17.145 -0.1856  0.4438 -1.3069
 6108SOL    HW129960   3.829   0.312  17.101  0.7965 -0.1077  0.8583
 6108SOL    HW229961   3.789   0.445  17.133 -0.3127  0.9215  1.7748
 6109SOL     OW29962   1.488   3.411  16.075  0.1640 -0.0518 -0.3113
 6109SOL    HW129963   1.574   3.396  16.115 -0.3816 -1.7310  0.2654
 6109SOL    HW229964   1.483   3.504  16.053 -1.1517  0.5269  2.3779
 6110SOL     OW29965   1.613   2.266   6.983  0.4761  0.5358  0.1733
 6110SOL    HW129966   1.563   2.263   7.064  1.5778 -2.5523  0.7358
 6110SOL    HW229967   1.630   2.172   6.974 -0.4560  0.3924 -0.1711
 6111SOL     OW29968   4.188   2.909   8.695 -1.0158  0.0955 -0.2943
 6111SOL    HW129969   4.178   2.821   8.660  1.5075  0.2792 -1.4638
 6111SOL    HW229970   4.100   2.946   8.696 -0.0917  2.3398 -0.0766
 6112SOL     OW29971   4.090   1.992  14.347 -0.3204  0.1879  0.6642
 6112SOL    HW129972   4.161   1.991  14.282 -1.9406  1.5335 -1.1138
 6112SOL    HW229973   4.089   1.898  14.362 -0.8817  0.0871 -0.0092
 6113SOL     OW29974   3.605   4.558   1.698 -0.5513 -0.1988 -0.0663
 6113SOL    HW129975   3.529   4.527   1.746 -0.9422  0.7006 -0.0888
 6113SOL    HW229976   3.580   4.548   1.606 -0.2793  0.8256 -0.2546
 6114SOL     OW29977   1.766   1.059   2.922  0.1767 -0.5736  0.2825
 6114SOL    HW129978   1.845   1.097   2.885 -0.4604  0.9116  0.4686
 6114SOL    HW229979   1.700   1.129   2.926  0.7307 -0.1161  1.4389
 6115SOL     OW29980   1.855   0.653   5.877 -0.1749  0.1973  1.1448
 6115SOL    HW129981   1.915   0.688   5.943 -0.9653 -0.8512  2.4142
 6115SOL    HW229982   1.919   0.616   5.817 -1.4883 -1.1257  0.5585
 6116SOL     OW29983   0.143   1.406   3.522  0.0181 -0.2385 -0.1784
 6116SOL    HW129984   0.211   1.386   3.458  0.1903 -0.6139  0.1254
 6116SOL    HW229985   0.161   1.334   3.582 -1.4723 -0.0868  0.4539
 6117SOL     OW29986   2.184   1.302  15.461 -0.0691 -0.1180  0.5491
 6117SOL    HW129987   2.187   1.352  15.379 -1.7883  1.2871  1.3345
 6117SOL    HW229988   2.124   1.364  15.503 -1.4372  0.9878 -3.0304
 6118SOL     OW29989   4.687   1.824  15.758 -0.0907 -0.6919  0.0055
 6118SOL    HW129990   0.039   1.859  15.766 -0.3390  0.0723 -0.5990
 6118SOL    HW229991   4.661   1.866  15.676  1.6978  0.6528  0.1262
 6119SOL     OW29992   1.739   0.848   5.210  0.5074 -0.1803 -0.8741
 6119SOL    HW129993   1.756   0.921   5.150  3.4957 -0.0476  0.1376
 6119SOL    HW229994   1.644   0.858   5.216  0.7426  2.3130 -1.2105
 6120SOL     OW29995   2.461   3.023   8.025 -0.1168 -0.0033  0.0224
 6120SOL    HW129996   2.495   2.957   8.085  0.5965 -0.1757 -0.5765
 6120SOL    HW229997   2.385   2.982   7.985  1.2364 -1.8830 -0.6118
 6121SOL     OW29998   3.330   1.943   5.528 -0.4241  0.3406 -0.3758
 6121SOL    HW129999   3.294   1.855   5.524  1.6031 -0.5675  1.4830
 6121SOL    HW230000   3.278   1.981   5.457 -1.1233 -0.2546 -0.1857
 6122SOL     OW30001   4.041   0.019   0.529  0.2867 -0.2780 -0.2560
 6122SOL    HW130002   4.038   4.691   0.599 -0.2334 -2.1736 -2.0338
 6122SOL    HW230003   4.074   0.099   0.570  0.4294  0.6243 -2.1324
 6123SOL     OW30004   2.566   2.454   6.813 -0.5010  0.1431 -0.1983
 6123SOL    HW130005   2.508   2.378   6.819 -1.2201  0.5166 -2.3841
 6123SOL    HW230006   2.580   2.456   6.718 -0.1676  0.6869 -0.1383
 6124SOL     OW30007   2.545   0.023   1.689 -0.9148  0.1162  0.0788
 6124SOL    HW130008   2.592   4.679   1.669 -3.0681 -0.5224 -2.4214
 6124SOL    HW230009   2.504   4.734   1.772  1.1602  2.8999  1.9470
 6125SOL     OW30010   3.661   1.947   8.036 -0.5144  0.2184 -0.5810
 6125SOL    HW130011   3.668   1.983   8.125  0.1679  2.8236 -1.7000
 6125SOL    HW230012   3.568   1.968   8.027 -0.2678  1.6660  0.1418
 6126SOL     OW30013   2.747   0.829   6.036  0.3280  0.0148  0.2179
 6126SOL    HW130014   2.790   0.904   6.078  0.8844  0.2248 -0.7399
 6126SOL    HW230015   2.680   0.804   6.100 -0.1065 -1.4959 -0.8448
 6127SOL     OW30016   0.723   2.664   8.227  0.3018  0.2839  0.2646
 6127SOL    HW130017   0.667   2.605   8.278  1.5234 -0.0302  1.2348
 6127SOL    HW230018   0.667   2.734   8.192 -0.2032 -1.2644 -1.9734
 6128SOL     OW30019   3.282   2.102   3.338 -0.1294 -0.2461 -0.1971
 6128SOL    HW130020   3.317   2.104   3.249 -2.3072  1.7309 -1.0224
 6128SOL    HW230021   3.191   2.126   3.320 -0.8275 -2.2816  0.7164
 6129SOL     OW30022   0.412   2.284   9.123 -0.5089 -0.0853  0.8998
 6129SOL    HW130023   0.380   2.311   9.210 -0.6082  0.1417  0.7925
 6129SOL    HW230024   0.341   2.325   9.074  0.1905 -2.5945 -2.1425
 6130SOL     OW30025   2.457   2.784   0.953 -0.4378  0.0448 -0.0932
 6130SOL    HW130026   2.411   2.854   1.000 -0.0669  1.1196 -1.3177
 6130SOL    HW230027   2.384   2.732   0.920  0.5650 -1.4493  0.0372
 6131SOL     OW30028   3.079   2.297   5.359  0.0376  0.3917  0.2108
 6131SOL    HW130029   3.061   2.246   5.280  0.1633 -1.7242  1.5306
 6131SOL    HW230030   3.068   2.225   5.422 -2.0395 -0.8603 -1.5973
 6132SOL     OW30031   0.112   1.494   7.490  0.3736 -0.2126  0.4898
 6132SOL    HW130032   0.028   1.531   7.517  0.9106  0.5362  1.1274
 6132SOL    HW230033   0.111   1.418   7.548 -0.2529 -2.3836 -2.3587
 6133SOL     OW30034   3.413   0.709  16.917  0.3494 -0.4407  0.3584
 6133SOL    HW130035   3.353   0.782  16.901 -1.2706 -2.0541 -0.8627
 6133SOL    HW230036   3.401   0.648  16.845  0.7502 -0.0616 -0.0271
 6134SOL     OW30037   4.313   2.262   8.447  0.0978  0.8908  0.0796
 6134SOL    HW130038   4.387   2.296   8.497  1.7487  1.1322 -2.4816
 6134SOL    HW230039   4.244   2.282   8.510 -1.2694 -2.1642 -0.4484
 6135SOL     OW30040   2.874   3.014   8.214  0.1686 -0.1824  0.4620
 6135SOL    HW130041   2.840   3.103   8.207  0.7467  0.0668  0.7682
 6135SOL    HW230042   2.796   2.981   8.257 -1.3298 -0.1010 -2.2397
 6136SOL     OW30043   1.105   1.499   4.997  0.2797  0.4247 -0.2601
 6136SOL    HW130044   1.148   1.555   5.062 -1.4682  1.1901  0.2178
 6136SOL    HW230045   1.166   1.515   4.925 -0.6215 -0.2786 -1.1775
 6137SOL     OW30046   1.015   3.445   6.439  0.2191  0.9264  0.7420
 6137SOL    HW130047   1.018   3.506   6.512 -2.7527  1.2713  0.5897
 6137SOL    HW230048   1.057   3.505   6.378  2.5256 -0.9181  0.5281
 6138SOL     OW30049   1.711   3.735   2.446 -0.0237  0.3073  0.0810
 6138SOL    HW130050   1.703   3.640   2.454 -1.0719  0.4249  0.4988
 6138SOL    HW230051   1.800   3.760   2.471  0.2428 -1.8138  1.3547
 6139SOL     OW30052   1.755   1.894   5.250 -0.1601 -0.2211 -0.0121
 6139SOL    HW130053   1.681   1.893   5.189  1.1231  1.7818 -1.6209
 6139SOL    HW230054   1.777   1.987   5.257  1.6310 -0.8079  2.0991
 6140SOL     OW30055   1.035   0.659  15.933  0.1984  0.0466 -0.6826
 6140SOL    HW130056   1.109   0.656  15.993 -0.6242 -3.6788  0.1529
 6140SOL    HW230057   0.965   0.646  15.997 -0.2152  1.8219 -0.7707
 6141SOL     OW30058   0.919   3.671   3.310 -0.2471  0.0891  0.0279
 6141SOL    HW130059   0.934   3.614   3.385  2.6352  0.4114 -0.3264
 6141SOL    HW230060   0.922   3.759   3.350  1.0450  0.0050  0.1042
 6142SOL     OW30061   3.780   2.654  14.056  0.7900  0.0152  0.2618
 6142SOL    HW130062   3.705   2.713  14.046  0.5002 -0.1279  1.4941
 6142SOL    HW230063   3.858   2.709  14.051  0.1869  0.7722 -0.8354
 6143SOL     OW30064   4.659   2.715   2.166 -0.2912  0.5339  0.5652
 6143SOL    HW130065   4.596   2.779   2.198  0.3026  1.6623 -0.5568
 6143SOL    HW230066   4.634   2.650   2.233  2.3526 -1.3436 -0.2546
 6144SOL     OW30067   0.504   1.765   8.959 -0.2385  0.1215  0.4243
 6144SOL    HW130068   0.495   1.820   8.882 -0.2548 -1.8023 -0.9442
 6144SOL    HW230069   0.459   1.821   9.022  1.3158  0.7759  0.9653
 6145SOL     OW30070   3.514   0.697  14.672 -0.0598 -0.0226 -0.0500
 6145SOL    HW130071   3.475   0.713  14.586  0.2491  1.3297  0.0630
 6145SOL    HW230072   3.436   0.708  14.727 -0.5077 -1.8380 -0.3189
 6146SOL     OW30073   1.198   0.919   4.533 -0.5159 -0.1688 -0.6598
 6146SOL    HW130074   1.240   0.855   4.590 -1.8202  0.5760  1.1653
 6146SOL    HW230075   1.244   0.903   4.451 -0.9016 -0.3806 -0.8393
 6147SOL     OW30076   1.796   4.581   4.807  0.1545  0.0940 -0.1385
 6147SOL    HW130077   1.806   4.627   4.724 -0.4181 -0.2501 -0.3880
 6147SOL    HW230078   1.719   4.622   4.846  0.7539  0.7243  0.3957
 6148SOL     OW30079   2.420   4.431   2.028 -0.1512  0.3919 -0.2676
 6148SOL    HW130080   2.502   4.403   2.068 -0.4303  0.4798  0.3824
 6148SOL    HW230081   2.391   4.499   2.090  2.2135  0.7619  0.4288
 6149SOL     OW30082   1.028   3.395   3.895 -0.3000 -0.1873  0.3277
 6149SOL    HW130083   1.009   3.489   3.903 -0.7977 -0.2143 -0.4901
 6149SOL    HW230084   0.971   3.362   3.826  0.0060  0.9993 -0.4875
 6150SOL     OW30085   1.434   2.941  12.970  0.0282  0.2157  0.1810
 6150SOL    HW130086   1.373   3.014  12.985  1.9209  1.3300  2.5281
 6150SOL    HW230087   1.367   2.875  12.955  0.6586 -0.8174  1.9522
 6151SOL     OW30088   3.050   2.539  14.674  0.0713 -0.3446 -0.1483
 6151SOL    HW130089   3.107   2.561  14.600 -0.1555  0.4528 -0.0878
 6151SOL    HW230090   3.111   2.511  14.742 -1.5845 -1.9658  0.6634
 6152SOL     OW30091   4.560   0.361   9.061 -0.2405  0.7523 -0.2439
 6152SOL    HW130092   4.524   0.421   8.996  1.9268 -0.8592 -2.9221
 6152SOL    HW230093   4.547   0.410   9.142 -2.5410 -1.7368  0.9162
 6153SOL     OW30094   3.453   2.875   2.713  0.2706  0.1115 -0.1254
 6153SOL    HW130095   3.448   2.892   2.619 -1.0259 -1.2667 -0.2961
 6153SOL    HW230096   3.454   2.780   2.716  2.7852  0.1371 -0.7177
 6154SOL     OW30097   2.499   3.896   8.300 -0.7141 -0.1251  0.4876
 6154SOL    HW130098   2.413   3.867   8.329 -0.5432 -2.2307 -1.1569
 6154SOL    HW230099   2.476   3.940   8.219  1.1740 -0.0116  0.0056
 6155SOL     OW30100   2.915   2.573   5.352  0.0365  0.1203  0.7368
 6155SOL    HW130101   2.989   2.517   5.329 -1.3257 -0.7381 -1.5465
 6155SOL    HW230102   2.960   2.657   5.338  1.2804 -0.2902  2.2307
 6156SOL     OW30103   1.016   4.222   0.257 -0.3784 -0.1718  0.2860
 6156SOL    HW130104   1.010   4.228   0.162 -1.6524 -0.7730  0.3342
 6156SOL    HW230105   0.931   4.183   0.273  0.4305 -2.7496 -1.6531
 6157SOL     OW30106   4.475   2.298  11.551 -0.3461 -0.1101 -0.4324
 6157SOL    HW130107   4.503   2.349  11.475  1.7067  0.8666  0.9919
 6157SOL    HW230108   4.467   2.374  11.609  1.1509 -0.5201  0.3107
 6158SOL     OW30109   2.451   0.287  11.664  0.0283 -0.0511  0.0691
 6158SOL    HW130110   2.510   0.212  11.672  2.0877  1.6539  0.8434
 6158SOL    HW230111   2.400   0.261  11.588  2.3762 -1.2979 -1.1065
 6159SOL     OW30112   2.430   0.152   1.490 -0.0619 -0.0041 -0.0841
 6159SOL    HW130113   2.458   0.072   1.534 -1.4105  0.7037  2.0089
 6159SOL    HW230114   2.502   0.168   1.428 -2.0304  2.4337 -1.7686
 6160SOL     OW30115   1.776   4.729   3.201  1.1120 -0.1815 -0.0662
 6160SOL    HW130116   1.798   0.086   3.200  2.1403 -0.4361 -0.6176
 6160SOL    HW230117   1.782   4.698   3.111 -0.1314 -3.0637  0.8280
 6161SOL     OW30118   1.085   3.309  11.792  0.0602  0.1928 -0.1693
 6161SOL    HW130119   1.172   3.338  11.821  0.7598 -1.9591 -0.1116
 6161SOL    HW230120   1.071   3.348  11.706 -0.1116 -1.6466 -0.9634
 6162SOL     OW30121   0.471   4.371   5.141  0.4220 -0.1586  0.2009
 6162SOL    HW130122   0.403   4.319   5.182  0.7671 -1.1403 -0.4812
 6162SOL    HW230123   0.423   4.399   5.063  2.1889 -1.0411 -1.2231
 6163SOL     OW30124   1.853   3.698   3.104  0.1070  0.4920 -0.0231
 6163SOL    HW130125   1.793   3.665   3.037  0.6098 -0.1899 -0.1388
 6163SOL    HW230126   1.786   3.702   3.173  0.5387 -1.4425  0.5131
 6164SOL     OW30127   4.118   0.750   9.448 -0.2439  0.0149 -0.6665
 6164SOL    HW130128   4.061   0.798   9.388 -0.1337  2.0804  0.8768
 6164SOL    HW230129   4.184   0.703   9.397  0.7827  1.6062 -0.8116
 6165SOL     OW30130   4.538   3.752   1.200 -0.3808 -0.7019  0.7181
 6165SOL    HW130131   4.484   3.791   1.131 -0.3653  0.1752  1.2079
 6165SOL    HW230132   4.539   3.830   1.254  0.8564  0.5292 -1.0990
 6166SOL     OW30133   3.493   0.103   7.260  0.1151  0.8484  0.7958
 6166SOL    HW130134   3.525   0.042   7.326 -0.7478  0.1528  0.5592
 6166SOL    HW230135   3.400   0.106   7.279  0.2622 -1.0049  1.7558
 6167SOL     OW30136   1.468   1.374  16.925  0.0721 -0.2366 -0.3941
 6167SOL    HW130137   1.524   1.429  16.870  2.2183 -1.2237  0.8067
 6167SOL    HW230138   1.382   1.386  16.883 -0.3913 -0.9780  0.3511
 6168SOL     OW30139   2.932   3.636   6.842  0.0296 -0.9015  0.2057
 6168SOL    HW130140   2.870   3.588   6.787 -1.0057  0.4881  0.1543
 6168SOL    HW230141   2.883   3.719   6.846  2.0820  0.2995  0.1974
 6169SOL     OW30142   2.697   4.547   3.585 -0.0700  0.0239 -0.5005
 6169SOL    HW130143   2.679   4.494   3.508  1.4363  3.5417 -3.2816
 6169SOL    HW230144   2.791   4.543   3.603 -0.1854  1.1080  0.3959
 6170SOL     OW30145   3.436   4.491   5.918 -0.4368  0.2462 -0.2214
 6170SOL    HW130146   3.346   4.510   5.895 -1.1676 -1.5376  1.0988
 6170SOL    HW230147   3.447   4.412   5.864  1.0562 -2.0328  3.3711
 6171SOL     OW30148   0.676   1.007   5.438 -0.6087  0.6254 -0.4981
 6171SOL    HW130149   0.750   1.066   5.455 -0.6231  0.6028 -0.3526
 6171SOL    HW230150   0.610   1.043   5.498 -0.0872 -0.5436  0.7775
 6172SOL     OW30151   1.429   3.580  12.025 -0.2953  0.1833 -0.1638
 6172SOL    HW130152   1.445   3.515  12.093  0.4947 -0.1154 -0.6397
 6172SOL    HW230153   1.405   3.659  12.073  1.3900  0.3265  0.4402
 6173SOL     OW30154   4.606   3.645  16.948 -0.0707  0.2664 -0.5030
 6173SOL    HW130155   4.686   3.698  16.949 -0.3386  0.6388  1.5671
 6173SOL    HW230156   4.611   3.589  17.025 -0.9984 -1.4315 -1.6835
 6174SOL     OW30157   3.140   4.067   2.119 -0.4719  0.0748  0.1313
 6174SOL    HW130158   3.077   4.137   2.106  0.0262  0.2132 -1.6559
 6174SOL    HW230159   3.110   4.025   2.199 -0.6937  0.6692  0.3544
 6175SOL     OW30160   3.841   3.155  11.109  0.5948 -0.5425  0.3723
 6175SOL    HW130161   3.855   3.227  11.171  1.4842 -0.2518 -0.1666
 6175SOL    HW230162   3.747   3.167  11.119  0.7079 -0.8931  1.8249
 6176SOL     OW30163   2.627   4.005   1.595 -0.2916 -0.2341  0.1849
 6176SOL    HW130164   2.587   4.079   1.549 -2.6488 -0.9435  1.1041
 6176SOL    HW230165   2.712   4.029   1.558 -0.7089  1.7964  0.5821
 6177SOL     OW30166   3.969   3.944   7.644  0.3026  0.2018  0.0157
 6177SOL    HW130167   3.908   3.986   7.583 -0.9488 -0.5256  0.7597
 6177SOL    HW230168   3.919   3.867   7.671  1.0595 -0.6768 -1.1077
 6178SOL     OW30169   2.319   2.355   5.216 -0.6498 -0.6909  0.3887
 6178SOL    HW130170   2.372   2.299   5.274  1.5022 -1.7296 -2.5555
 6178SOL    HW230171   2.299   2.288   5.150 -0.4315 -1.9354  1.5937
 6179SOL     OW30172   3.956   1.825   7.119  0.5054 -0.2757 -0.1249
 6179SOL    HW130173   3.878   1.833   7.063  1.3533 -0.2443 -1.2999
 6179SOL    HW230174   3.927   1.792   7.204  2.6677 -1.0834  0.2977
 6180SOL     OW30175   1.968   3.344   2.798  0.1940  0.3609  0.2482
 6180SOL    HW130176   2.024   3.266   2.801  0.0899  0.3182  1.0031
 6180SOL    HW230177   1.964   3.367   2.891  0.4654 -0.2623  0.4139
 6181SOL     OW30178   2.420   4.666   9.253 -0.6108  0.5653  0.1917
 6181SOL    HW130179   2.425   4.634   9.163 -1.3701 -0.7260  0.6128
 6181SOL    HW230180   2.489   4.732   9.253  0.5879 -0.6905 -2.0574
 6182SOL     OW30181   3.263   4.165  11.259  0.7721  0.0408 -0.6340
 6182SOL    HW130182   3.241   4.073  11.270  0.6228  0.1337 -0.1535
 6182SOL    HW230183   3.197   4.211  11.311  1.2748 -1.8669  1.7122
 6183SOL     OW30184   4.397   3.101   6.958 -0.2719 -0.0109  0.0622
 6183SOL    HW130185   4.452   3.076   7.033 -0.9581 -0.5340  0.3895
 6183SOL    HW230186   4.339   3.169   6.991 -1.2066 -0.7468 -0.0492
 6184SOL     OW30187   0.111   3.718   7.847 -0.3330 -0.0950 -0.2792
 6184SOL    HW130188   0.204   3.709   7.824 -0.0792  1.5376  0.1494
 6184SOL    HW230189   0.106   3.702   7.941 -1.1410  1.3427 -0.0974
 6185SOL     OW30190   0.889   0.205   3.628  0.1306  0.1875 -0.2555
 6185SOL    HW130191   0.944   0.283   3.637 -1.5661  1.3296  0.0583
 6185SOL    HW230192   0.948   0.146   3.581 -0.2093  0.3796 -0.9267
 6186SOL     OW30193   1.442   0.709   6.454  0.1082  0.0019 -0.4283
 6186SOL    HW130194   1.474   0.664   6.376  3.3679 -1.0057  1.5266
 6186SOL    HW230195   1.522   0.743   6.494 -0.6057  0.2164  0.8152
 6187SOL     OW30196   2.869   4.477   6.106 -0.7349  0.3376 -0.0023
 6187SOL    HW130197   2.833   4.451   6.191  0.3728 -1.8283 -0.2008
 6187SOL    HW230198   2.852   4.393   6.064 -0.3742  0.3662 -0.2021
 6188SOL     OW30199   4.468   1.596   3.659 -0.3045  0.4681  0.6355
 6188SOL    HW130200   4.523   1.519   3.671  0.4073  0.4901 -2.3317
 6188SOL    HW230201   4.383   1.577   3.700 -0.2993 -0.2711  0.3111
 6189SOL     OW30202   3.069   1.525   3.390  0.3931  0.3810  0.4496
 6189SOL    HW130203   2.988   1.473   3.391  0.5305  0.1816  1.0676
 6189SOL    HW230204   3.115   1.485   3.463 -0.9940 -0.2154  0.9943
 6190SOL     OW30205   0.357   4.437   8.330  0.4437 -0.7248 -0.5030
 6190SOL    HW130206   0.353   4.352   8.373  2.2352 -0.0345  1.0156
 6190SOL    HW230207   0.380   4.410   8.241  1.9534  1.0072 -0.6444
 6191SOL     OW30208   4.554   1.648  11.722  0.7369 -0.5112  0.6605
 6191SOL    HW130209   4.521   1.701  11.649  0.7773 -1.3788  0.0162
 6191SOL    HW230210   4.545   1.702  11.801  0.2679 -0.4346  0.5608
 6192SOL     OW30211   1.229   3.322   4.646  0.2680 -0.0178  0.4379
 6192SOL    HW130212   1.197   3.286   4.729 -1.6810 -0.5491 -0.5450
 6192SOL    HW230213   1.176   3.271   4.584  1.6490 -1.9270  0.8261
 6193SOL     OW30214   2.844   4.134   2.239  0.5648 -0.4801 -0.1889
 6193SOL    HW130215   2.808   4.060   2.191  1.5521 -0.6427 -0.6736
 6193SOL    HW230216   2.900   4.087   2.301  0.5670  0.4687  0.5423
 6194SOL     OW30217   0.558   2.444   5.975 -0.0353  0.5274 -0.1908
 6194SOL    HW130218   0.557   2.513   6.042 -0.0592  0.1799  0.1698
 6194SOL    HW230219   0.651   2.431   5.954  0.3270 -0.6287  2.0994
 6195SOL     OW30220   2.354   0.677   5.680  0.1928  0.0595 -0.4721
 6195SOL    HW130221   2.404   0.597   5.695  1.5027  1.2087  1.3621
 6195SOL    HW230222   2.408   0.742   5.725 -0.2007  1.1007 -1.5145
 6196SOL     OW30223   1.203   2.168  17.331  0.4714 -0.3242 -0.3686
 6196SOL    HW130224   1.184   2.239  17.392  0.5690 -0.5896 -0.0263
 6196SOL    HW230225   1.175   2.206  17.248  0.6015 -0.6615 -0.5681
 6197SOL     OW30226   2.915   3.300   7.327 -0.1204 -0.4966 -0.9818
 6197SOL    HW130227   2.849   3.346   7.276  0.2705  2.0518  0.8012
 6197SOL    HW230228   2.944   3.367   7.390  2.0714 -0.0562 -2.4594
 6198SOL     OW30229   1.926   0.735   7.890  0.1550 -0.4271 -0.1042
 6198SOL    HW130230   2.015   0.738   7.856 -0.7689 -0.9857 -2.5555
 6198SOL    HW230231   1.943   0.765   7.980  0.1148 -0.0901 -0.2089
 6199SOL     OW30232   4.714   4.264   5.749  0.7073 -1.3181 -0.1339
 6199SOL    HW130233   4.713   4.287   5.842  0.3285  0.3830 -0.5615
 6199SOL    HW230234   4.682   4.173   5.751 -1.8359 -0.4290 -0.8590
 6200SOL     OW30235   2.350   1.591   6.585  0.1904  0.2952 -0.5145
 6200SOL    HW130236   2.321   1.667   6.636 -2.5669 -1.6870  0.8001
 6200SOL    HW230237   2.287   1.604   6.514  0.5031 -2.5162 -1.3041
 6201SOL     OW30238   1.293   2.635   9.296 -0.1915 -0.7715  0.4682
 6201SOL    HW130239   1.383   2.650   9.323 -0.3099 -1.1965  1.0893
 6201SOL    HW230240   1.266   2.565   9.355  0.5139 -1.1173  0.3747
 6202SOL     OW30241   3.465   0.045  15.939 -0.6291  0.0890 -0.1434
 6202SOL    HW130242   3.397   0.108  15.965  0.6275  1.3177  0.1511
 6202SOL    HW230243   3.427   0.013  15.857  2.1872  1.6619 -2.0576
 6203SOL     OW30244   1.933   2.007  12.636  0.0885 -0.4891 -0.6125
 6203SOL    HW130245   1.895   1.922  12.611 -2.4379  0.9325 -1.5581
 6203SOL    HW230246   1.961   1.977  12.723  1.1101 -2.2981 -1.5504
 6204SOL     OW30247   4.460   0.292   5.616  0.0510 -0.4162  0.1933
 6204SOL    HW130248   4.396   0.346   5.663 -0.9616 -2.1619  0.8120
 6204SOL    HW230249   4.444   0.317   5.525  0.0562  2.8412  1.0833
 6205SOL     OW30250   4.495   2.618   8.745  0.1869 -0.3071 -0.5342
 6205SOL    HW130251   4.473   2.525   8.747 -0.0853 -0.1841  1.6544
 6205SOL    HW230252   4.445   2.649   8.668 -1.7997 -2.2977 -0.0298
 6206SOL     OW30253   1.428   3.687  13.986  0.0363  0.5839  0.1043
 6206SOL    HW130254   1.436   3.736  13.904  1.1018 -1.5673 -1.0637
 6206SOL    HW230255   1.414   3.599  13.952  0.9184  0.2562  0.5907
 6207SOL     OW30256   2.976   2.226   3.337 -0.3772 -0.4261  0.0685
 6207SOL    HW130257   2.918   2.300   3.317 -1.2469 -1.2174 -0.3253
 6207SOL    HW230258   2.991   2.186   3.251  1.4131  3.4733 -1.4434
 6208SOL     OW30259   2.011   4.002   5.957  0.1421 -0.6079 -0.1716
 6208SOL    HW130260   2.079   4.051   6.004 -0.3297 -1.3515  1.2778
 6208SOL    HW230261   1.963   4.075   5.918  2.5720  0.7273 -0.7174
 6209SOL     OW30262   0.579   2.946  12.419 -0.2571 -0.2335  0.0344
 6209SOL    HW130263   0.603   3.001  12.494  1.0021  1.1033 -1.3364
 6209SOL    HW230264   0.512   2.889  12.457 -0.6329  0.7124  0.7895
 6210SOL     OW30265   3.875   1.402   5.749 -0.2974 -0.3331  0.3721
 6210SOL    HW130266   3.848   1.315   5.779 -0.2145 -0.4383  0.1508
 6210SOL    HW230267   3.891   1.440   5.835  0.0137  0.4567 -0.0399
 6211SOL     OW30268   1.976   2.039   7.252 -0.5245  0.0075 -0.1211
 6211SOL    HW130269   2.013   2.117   7.212 -0.6078  0.4100  0.6021
 6211SOL    HW230270   1.887   2.053   7.220 -0.8838 -1.3136  0.3091
 6212SOL     OW30271   2.969   1.940   8.553 -0.0086 -0.4743  0.2472
 6212SOL    HW130272   2.961   1.995   8.475  0.9760 -0.9698 -0.2042
 6212SOL    HW230273   3.003   1.857   8.518  0.8685 -0.3899  0.9155
 6213SOL     OW30274   0.317   0.548   3.815 -0.2745  0.1891 -0.2210
 6213SOL    HW130275   0.335   0.641   3.802  2.2595 -0.1717  0.7152
 6213SOL    HW230276   0.222   0.547   3.805 -0.0353  0.4864 -2.5624
 6214SOL     OW30277   2.519   3.435  14.351 -0.0810  0.7360 -0.5952
 6214SOL    HW130278   2.526   3.458  14.443  1.1236  1.7380 -0.9369
 6214SOL    HW230279   2.607   3.455  14.320  0.5830  0.1576  0.9588
 6215SOL     OW30280   1.154   3.969  15.008 -0.2980 -0.0681 -0.0687
 6215SOL    HW130281   1.136   4.026  14.933  2.0031 -0.3342 -0.8243
 6215SOL    HW230282   1.072   3.979  15.056  0.5325  2.0975  0.9044
 6216SOL     OW30283   0.098   3.097   3.260  0.3002 -0.2472 -0.4800
 6216SOL    HW130284   0.079   3.175   3.312  1.5451 -0.1470 -0.1741
 6216SOL    HW230285   0.036   3.109   3.188  1.0886  2.1219 -0.7532
 6217SOL     OW30286   0.385   4.039  15.610 -0.0383  0.3508  0.7315
 6217SOL    HW130287   0.361   4.018  15.700 -1.0909  1.0899  0.6222
 6217SOL    HW230288   0.480   4.055  15.610 -0.1583  1.1231  2.3490
 6218SOL     OW30289   2.263   3.213   5.584 -0.0095  0.4506 -0.0714
 6218SOL    HW130290   2.294   3.192   5.673 -1.6969  2.7813  1.0477
 6218SOL    HW230291   2.316   3.150   5.535 -2.5271 -0.1551 -1.9466
 6219SOL     OW30292   2.407   4.217  17.201  0.6782 -0.2991 -0.4551
 6219SOL    HW130293   2.330   4.211  17.257  0.5345  0.2533 -0.5936
 6219SOL    HW230294   2.472   4.154  17.233 -0.6968 -1.4367  0.0893
 6220SOL     OW30295   4.680   2.550   3.031 -0.3812 -0.2944  0.1919
 6220SOL    HW130296   4.627   2.590   3.101  0.8643  0.0350  0.9477
 6220SOL    HW230297   4.696   2.626   2.975  0.0997 -0.1179  0.5652
 6221SOL     OW30298   4.075   2.883   7.321 -0.4203  0.0227 -0.1929
 6221SOL    HW130299   4.102   2.801   7.279  4.3274  0.7449  1.5134
 6221SOL    HW230300   4.009   2.839   7.374 -0.5413  0.8833  0.3648
 6222SOL     OW30301   4.735   3.774  15.250  0.3682  0.9330  0.4117
 6222SOL    HW130302   0.026   3.800  15.162  0.2565 -0.9345 -0.1740
 6222SOL    HW230303   0.078   3.739  15.291 -0.1043 -0.8701 -0.1949
 6223SOL     OW30304   4.372   3.585  10.442  0.2687 -0.0448 -0.2244
 6223SOL    HW130305   4.340   3.525  10.374 -1.2839  0.7211 -0.1749
 6223SOL    HW230306   4.323   3.554  10.518  2.2849 -0.0566  1.0747
 6224SOL     OW30307   4.280   2.084   3.423 -0.2944  0.1367  0.0001
 6224SOL    HW130308   4.367   2.049   3.444  0.9410  2.2426 -1.5620
 6224SOL    HW230309   4.300   2.156   3.363 -1.0276 -0.1567 -0.5982
 6225SOL     OW30310   1.236   1.480   4.747 -0.1127  0.2628 -0.6357
 6225SOL    HW130311   1.157   1.461   4.696 -0.1458 -0.3847 -0.3439
 6225SOL    HW230312   1.267   1.392   4.769 -1.0215  0.3126  0.8733
 6226SOL     OW30313   0.712   2.703  11.388  0.3805 -0.2062 -0.1434
 6226SOL    HW130314   0.721   2.621  11.340  1.2297  0.3437 -0.9237
 6226SOL    HW230315   0.797   2.746  11.374 -0.2771  1.3135  0.5288
 6227SOL     OW30316   3.209   1.223   1.267  0.0592 -0.5860  1.0047
 6227SOL    HW130317   3.175   1.173   1.193 -1.3070 -0.0849  1.2979
 6227SOL    HW230318   3.282   1.173   1.302 -0.0345 -1.5551 -0.1749
 6228SOL     OW30319   3.288   3.226  13.404 -0.0634  0.2147  0.4953
 6228SOL    HW130320   3.260   3.316  13.388  0.5000  0.4116  0.6110
 6228SOL    HW230321   3.344   3.219  13.327 -1.3199 -1.4317 -0.2685
 6229SOL     OW30322   3.454   3.785   1.729  0.2406 -0.2177  0.1010
 6229SOL    HW130323   3.464   3.750   1.641  0.3890  0.7779 -0.2680
 6229SOL    HW230324   3.459   3.704   1.780  1.0035 -0.3080 -0.1164
 6230SOL     OW30325   3.093   0.444   6.672  0.1065 -0.3736  0.1105
 6230SOL    HW130326   3.044   0.392   6.736 -2.7681  0.5859 -1.3100
 6230SOL    HW230327   3.025   0.499   6.633 -0.3684  0.3885  2.0027
 6231SOL     OW30328   1.421   3.420   4.236 -0.2592 -0.3648  0.0308
 6231SOL    HW130329   1.422   3.506   4.193  0.6025 -0.7371 -0.6971
 6231SOL    HW230330   1.507   3.395   4.202  0.7422  2.6897  0.3014
 6232SOL     OW30331   0.160   3.031   9.112  0.4523  0.2860  0.2551
 6232SOL    HW130332   0.204   3.107   9.072 -1.4413  0.9778 -0.5290
 6232SOL    HW230333   0.160   2.963   9.044 -2.3288  1.1422 -0.6208
 6233SOL     OW30334   0.005   1.053   9.503  0.6645 -0.0958  0.1997
 6233SOL    HW130335   0.019   1.126   9.442  0.4687  0.7154  1.1451
 6233SOL    HW230336   0.053   1.076   9.582 -0.2543  0.9197  0.4466
 6234SOL     OW30337   1.517   1.283   1.574 -0.1759 -0.6244  0.7283
 6234SOL    HW130338   1.431   1.279   1.616 -0.8360 -2.9567 -0.8921
 6234SOL    HW230339   1.541   1.190   1.577 -1.0055 -0.8616 -0.1958
 6235SOL     OW30340   0.135   3.866   2.251  0.2655 -0.1559 -0.0105
 6235SOL    HW130341   0.171   3.926   2.316  1.0374 -1.3174  0.6094
 6235SOL    HW230342   0.211   3.845   2.197 -0.3292 -2.1938 -0.0458
 6236SOL     OW30343   2.678   0.982   1.635  0.4085 -0.8372 -0.1222
 6236SOL    HW130344   2.707   0.958   1.546 -0.5903 -1.2783 -0.3234
 6236SOL    HW230345   2.755   1.027   1.670  0.6138 -2.7743  1.9161
 6237SOL     OW30346   2.363   0.371   5.048  0.5042 -0.4184  0.1011
 6237SOL    HW130347   2.441   0.321   5.071 -0.2707 -1.7525 -0.1386
 6237SOL    HW230348   2.398   0.409   4.968  1.1678 -2.2546 -0.4930
 6238SOL     OW30349   0.811   2.327   5.889  0.3558 -0.1270  0.6589
 6238SOL    HW130350   0.835   2.277   5.812  2.1733 -0.0599  1.1795
 6238SOL    HW230351   0.870   2.282   5.950  1.1730 -1.5852 -1.1995
 6239SOL     OW30352   4.564   4.709   8.289  0.3033  0.1404  0.6531
 6239SOL    HW130353   4.501   0.044   8.278  0.7944  0.6109  0.8747
 6239SOL    HW230354   4.604   4.689   8.204 -0.0108 -0.2819  0.6079
 6240SOL     OW30355   4.204   4.175   4.963 -0.6672 -0.0006 -0.0654
 6240SOL    HW130356   4.292   4.141   4.946 -1.3561 -3.6638  3.6991
 6240SOL    HW230357   4.139   4.149   4.897  0.3835 -1.0539 -0.6838
 6241SOL     OW30358   3.840   0.152   5.819 -0.2383 -0.0851 -0.3691
 6241SOL    HW130359   3.789   0.091   5.873  0.9879  2.1016  3.2933
 6241SOL    HW230360   3.818   0.120   5.732  1.9843  0.5121 -1.1303
 6242SOL     OW30361   0.469   3.747   1.649  0.2625  0.2789  0.0440
 6242SOL    HW130362   0.523   3.668   1.661 -3.1862 -1.7167  2.4803
 6242SOL    HW230363   0.398   3.720   1.707 -0.7367 -0.0549 -1.3339
 6243SOL     OW30364   0.504   3.101   3.672 -0.7931 -0.4003 -0.3193
 6243SOL    HW130365   0.559   3.053   3.734  0.8737  0.3669 -1.2082
 6243SOL    HW230366   0.512   3.056   3.588 -0.2907  0.0374 -0.5054
 6244SOL     OW30367   3.342   4.101   2.971 -0.2002  0.2725 -0.1394
 6244SOL    HW130368   3.431   4.098   2.937 -0.5166  0.2821 -0.9672
 6244SOL    HW230369   3.322   4.195   2.970 -3.3636 -0.3505  2.4919
 6245SOL     OW30370   2.193   3.688  17.686 -0.0359 -0.6841 -0.1081
 6245SOL    HW130371   2.200   3.669   0.036  0.2217  1.4045  0.2776
 6245SOL    HW230372   2.097   3.691  17.686 -0.1054 -2.6918 -0.8482
 6246SOL     OW30373   3.441   0.608  17.170 -0.4838  0.1660  0.4561
 6246SOL    HW130374   3.441   0.635  17.078  1.4135 -0.1643  0.3555
 6246SOL    HW230375   3.529   0.637  17.196  0.2483  0.6675 -2.5456
 6247SOL     OW30376   4.053   4.025   3.291 -0.5236 -0.6873 -0.1737
 6247SOL    HW130377   4.103   3.943   3.298 -2.2909 -1.6998  0.7983
 6247SOL    HW230378   4.031   4.032   3.384 -0.5835 -2.5645 -0.0431
 6248SOL     OW30379   0.082   4.497  16.106  0.1064 -0.6464  0.2084
 6248SOL    HW130380   0.017   4.433  16.135 -0.4119  0.2506  0.9949
 6248SOL    HW230381   0.029   4.549  16.045 -0.3880 -1.6440 -0.2254
 6249SOL     OW30382   4.691   2.382   4.729 -0.3874  1.1016 -0.4448
 6249SOL    HW130383   4.655   2.450   4.671 -1.2576  0.5161 -0.5798
 6249SOL    HW230384   4.606   2.352   4.758  0.1895  1.5390  1.6866
 6250SOL     OW30385   3.929   1.453   6.674  0.0209  0.1134  0.6031
 6250SOL    HW130386   3.935   1.509   6.597 -1.3364 -1.9882 -1.0389
 6250SOL    HW230387   3.986   1.502   6.734 -0.2284  1.6177 -0.3866
 6251SOL     OW30388   2.825   3.816   5.336 -0.2004 -0.1880 -0.3679
 6251SOL    HW130389   2.752   3.829   5.276 -0.0317  2.8090  0.0591
 6251SOL    HW230390   2.776   3.796   5.416 -0.6535  4.2341  0.4628
 6252SOL     OW30391   4.183   1.649  10.111 -0.2433 -0.0400 -0.0644
 6252SOL    HW130392   4.251   1.702  10.154 -0.7022  0.1793  0.3990
 6252SOL    HW230393   4.107   1.649  10.170 -0.3911  0.8581 -0.2544
 6253SOL     OW30394   1.730   1.789   7.387  0.2130 -0.2508  0.5806
 6253SOL    HW130395   1.763   1.726   7.452 -1.0255  0.6488  2.0809
 6253SOL    HW230396   1.655   1.739   7.355  0.8886 -1.3803  0.7608
 6254SOL     OW30397   4.104   4.688   5.688 -0.5490 -0.1169  0.7888
 6254SOL    HW130398   4.193   4.716   5.710 -1.6027  1.2161  3.4519
 6254SOL    HW230399   4.099   4.602   5.729 -0.3844 -0.4674  0.0592
 6255SOL     OW30400   2.928   2.863   6.795 -0.1928  0.4327 -0.0755
 6255SOL    HW130401   2.977   2.944   6.777 -0.4143  0.9587  1.6892
 6255SOL    HW230402   2.842   2.896   6.771 -0.9864 -0.0835  2.0485
 6256SOL     OW30403   1.107   0.854  12.469 -0.9916  0.2269 -0.0170
 6256SOL    HW130404   1.021   0.831  12.503  0.0708 -1.7768  1.3705
 6256SOL    HW230405   1.158   0.864  12.550 -1.6610  0.7260  0.3486
 6257SOL     OW30406   2.773   0.057  13.509  0.3141 -0.3579  0.2037
 6257SOL    HW130407   2.723   4.711  13.513  6.1857 -3.8225  1.6580
 6257SOL    HW230408   2.755   0.093  13.596 -0.4916  0.7887 -0.4381
 6258SOL     OW30409   2.057   4.351  17.559  0.8208  0.5773  0.1563
 6258SOL    HW130410   1.994   4.397  17.503  1.7049  2.8686  1.0399
 6258SOL    HW230411   2.027   4.401  17.635 -0.5793 -2.3429  1.5422
 6259SOL     OW30412   1.961   0.857   8.484  0.1009  0.5380  0.9309
 6259SOL    HW130413   2.022   0.832   8.414  1.9708 -0.6564  3.0086
 6259SOL    HW230414   1.932   0.769   8.509  0.6953  0.5759  1.7569
 6260SOL     OW30415   3.284   0.961   7.773  0.0273 -0.1737 -0.1846
 6260SOL    HW130416   3.258   1.011   7.695 -2.0312  1.8909  1.8408
 6260SOL    HW230417   3.373   0.930   7.757  0.2982  0.4357  0.1252
 6261SOL     OW30418   2.351   2.753  13.418 -0.5542 -0.0309  0.3116
 6261SOL    HW130419   2.427   2.771  13.362 -1.8219  0.4140 -1.2477
 6261SOL    HW230420   2.335   2.836  13.463 -2.0082  0.5769 -1.3177
 6262SOL     OW30421   3.042   0.814   2.759  0.0842 -0.7604 -0.3301
 6262SOL    HW130422   3.103   0.741   2.768 -0.7232 -1.0149  3.3131
 6262SOL    HW230423   2.959   0.779   2.793  0.5679 -0.2559  1.3659
 6263SOL     OW30424   4.001   0.800  15.117 -0.0184 -0.0695  0.6627
 6263SOL    HW130425   3.911   0.829  15.103 -0.9104 -2.3022  1.7308
 6263SOL    HW230426   3.999   0.712  15.155 -0.7291 -0.9133 -1.3192
 6264SOL     OW30427   3.369   3.646   3.371 -0.1987  0.0705  0.6276
 6264SOL    HW130428   3.336   3.722   3.419  2.4643  0.3051  2.1129
 6264SOL    HW230429   3.422   3.689   3.304  0.6884 -1.8154  0.1311
 6265SOL     OW30430   0.477   0.315   9.644 -0.1965  0.0358  0.2972
 6265SOL    HW130431   0.511   0.245   9.701  0.4705 -0.0281 -0.1758
 6265SOL    HW230432   0.492   0.282   9.556  1.3090  1.3319  0.0567
 6266SOL     OW30433   2.981   0.258   0.941 -0.7665 -0.2261  0.2056
 6266SOL    HW130434   2.997   0.323   1.010 -0.0284 -0.5422  0.3273
 6266SOL    HW230435   2.892   0.238   0.970 -0.5264 -1.9858 -0.3058
 6267SOL     OW30436   3.717   2.134  12.475  0.0615  0.4005 -0.1448
 6267SOL    HW130437   3.731   2.125  12.570 -0.7733  0.4420 -0.0229
 6267SOL    HW230438   3.664   2.213  12.464 -0.4778 -0.0229 -0.5501
 6268SOL     OW30439   2.486   2.961   3.405 -0.0999 -0.0592  0.4770
 6268SOL    HW130440   2.457   3.049   3.380  1.0226  0.3625  0.6779
 6268SOL    HW230441   2.428   2.907   3.351 -0.7970  0.5660  0.6032
 6269SOL     OW30442   2.990   4.255  11.373  0.3226  0.0746  0.1020
 6269SOL    HW130443   2.967   4.304  11.452  1.8939  0.4783  0.3209
 6269SOL    HW230444   3.033   4.180  11.413 -1.7048 -0.6905  0.8455
 6270SOL     OW30445   0.918   2.988   5.605  0.3930 -0.6375 -0.0135
 6270SOL    HW130446   0.846   3.049   5.620  0.3602 -0.8362  0.6210
 6270SOL    HW230447   0.985   3.020   5.544  0.7236 -1.3449 -0.0130
 6271SOL     OW30448   1.779   0.409   1.524  0.0068  0.1574 -0.1667
 6271SOL    HW130449   1.727   0.361   1.589  0.0064  0.8673  0.3601
 6271SOL    HW230450   1.763   0.497   1.559  0.7583  0.0485  0.4308
 6272SOL     OW30451   1.509   4.147   5.459 -0.3006  0.5751 -0.4297
 6272SOL    HW130452   1.502   4.233   5.499 -0.3192  0.8129 -0.9508
 6272SOL    HW230453   1.544   4.098   5.534  2.3523 -0.1300 -2.1032
 6273SOL     OW30454   0.557   4.557   5.892  0.3058 -0.1023  0.7915
 6273SOL    HW130455   0.541   4.591   5.980  0.5443  1.9159  0.0560
 6273SOL    HW230456   0.513   4.472   5.904 -2.4270  0.7981 -2.9115
 6274SOL     OW30457   2.879   3.082   2.266  0.5796  0.1132 -0.4302
 6274SOL    HW130458   2.942   3.118   2.329 -0.8311  0.7271  0.6451
 6274SOL    HW230459   2.803   3.067   2.322  0.3269  1.3092 -0.4722
 6275SOL     OW30460   2.091   4.022   3.410 -0.2809  0.1303  0.3382
 6275SOL    HW130461   2.117   4.102   3.364 -1.6224 -0.2256 -1.0354
 6275SOL    HW230462   2.042   3.985   3.336  0.3146  0.4300 -0.2030
 6276SOL     OW30463   2.445   2.068   5.255 -0.4562  0.1822  0.3670
 6276SOL    HW130464   2.531   2.067   5.214 -0.4664  0.2429  0.3449
 6276SOL    HW230465   2.395   2.000   5.211 -2.5990  1.3561  0.9754
 6277SOL     OW30466   3.497   2.598  14.858  0.5232  0.0647 -0.4543
 6277SOL    HW130467   3.551   2.520  14.853  1.3795  0.4363  2.7337
 6277SOL    HW230468   3.560   2.657  14.816  0.9452 -0.4570 -0.5422
 6278SOL     OW30469   1.717   4.327   8.834 -0.2802  0.0613  0.1362
 6278SOL    HW130470   1.803   4.309   8.871 -1.4178 -1.6409  1.9560
 6278SOL    HW230471   1.665   4.340   8.913 -0.5243 -0.5995  0.0873
 6279SOL     OW30472   2.260   4.132   5.323  0.1431 -0.1319 -0.7402
 6279SOL    HW130473   2.341   4.173   5.352 -0.9153  1.6931 -0.3938
 6279SOL    HW230474   2.196   4.202   5.333 -1.6053 -1.6998 -0.8566
 6280SOL     OW30475   3.348   4.585   6.168  0.2650 -0.1935 -1.0381
 6280SOL    HW130476   3.391   4.671   6.167  0.6250 -0.3688  1.5059
 6280SOL    HW230477   3.386   4.561   6.083 -0.9240 -0.3757 -1.5235
 6281SOL     OW30478   3.600   3.544   4.986  0.3804 -0.7884 -0.4745
 6281SOL    HW130479   3.516   3.542   5.032 -0.3818  0.1282 -1.7910
 6281SOL    HW230480   3.560   3.508   4.907 -2.1625  1.6768 -0.3141
 6282SOL     OW30481   0.271   3.305  17.171  0.1111  0.9661  0.0090
 6282SOL    HW130482   0.361   3.337  17.181  0.3578  1.3528 -3.5973
 6282SOL    HW230483   0.233   3.349  17.247 -0.4798 -0.7498  0.7137
 6283SOL     OW30484   4.511   4.630   7.474  0.4692  0.2943 -0.0531
 6283SOL    HW130485   4.591   4.679   7.495  1.3339 -1.9576  2.0009
 6283SOL    HW230486   4.436   4.686   7.495 -0.6699 -0.9932 -0.6691
 6284SOL     OW30487   1.517   0.942  15.909  0.0324  0.1389  0.4431
 6284SOL    HW130488   1.597   0.962  15.861  0.5253 -0.2828  1.1002
 6284SOL    HW230489   1.452   0.914  15.843  0.2422 -2.0111  1.1471
 6285SOL     OW30490   4.493   0.253   4.589  0.0652  0.2572 -0.1011
 6285SOL    HW130491   4.462   0.325   4.535  1.5700  1.0901  0.1548
 6285SOL    HW230492   4.416   0.247   4.646 -0.0076 -4.4687 -0.7230
 6286SOL     OW30493   3.679   1.508   3.395 -0.2942 -0.3808  0.2768
 6286SOL    HW130494   3.587   1.481   3.399 -0.8545  1.5408  0.4229
 6286SOL    HW230495   3.675   1.580   3.331  1.0243 -0.4801  0.0854
 6287SOL     OW30496   4.144   0.026   0.261  0.1491 -0.0412  0.4737
 6287SOL    HW130497   4.074   4.723   0.209 -0.3516  2.7696 -0.9932
 6287SOL    HW230498   4.134   4.730   0.350  0.2902  1.5784  1.0808
 6288SOL     OW30499   2.754   0.083  15.477  0.4595 -0.5044 -0.4168
 6288SOL    HW130500   2.832   0.048  15.434  0.0545 -2.8800  0.7736
 6288SOL    HW230501   2.685   0.018  15.464 -1.2312  0.8233  2.0370
 6289SOL     OW30502   0.311   4.434   2.982  0.1626  0.1856  0.5812
 6289SOL    HW130503   0.373   4.409   3.050  0.0684  1.4207  1.1115
 6289SOL    HW230504   0.354   4.516   2.959  0.3275 -0.3882 -1.1754
 6290SOL     OW30505   3.597   4.735   1.229  0.1295  0.2826 -0.3032
 6290SOL    HW130506   3.662   4.669   1.253  0.1058  1.0363  1.8528
 6290SOL    HW230507   3.632   0.045   1.152  1.7901  0.0192  0.2917
 6291SOL     OW30508   2.382   1.148   1.926  0.1734  0.0640  0.6398
 6291SOL    HW130509   2.406   1.114   1.840 -1.2596  0.6229  0.0072
 6291SOL    HW230510   2.342   1.233   1.906 -0.8108 -0.8931 -1.5148
 6292SOL     OW30511   0.592   0.478  17.027 -0.2917 -0.0971 -0.6186
 6292SOL    HW130512   0.498   0.474  17.043 -0.3441  0.9704 -0.6595
 6292SOL    HW230513   0.634   0.411  17.081 -0.5672 -0.4121 -0.7933
 6293SOL     OW30514   0.426   3.509   8.015 -0.6368 -0.5729  0.4465
 6293SOL    HW130515   0.418   3.532   7.923  0.3207 -3.0121 -0.2609
 6293SOL    HW230516   0.506   3.457   8.024  1.7185  3.1954  1.2826
 6294SOL     OW30517   2.952   2.826  14.552  0.0679  0.0316  0.4773
 6294SOL    HW130518   2.903   2.907  14.541 -0.4385 -0.2950  0.2991
 6294SOL    HW230519   2.885   2.761  14.575 -0.3509 -0.5815 -2.3659
 6295SOL     OW30520   0.842   0.316  17.582  0.0053  0.1508  0.2257
 6295SOL    HW130521   0.843   0.275  17.496  2.4046  0.4097  0.1482
 6295SOL    HW230522   0.811   0.238  17.629  1.0585 -0.1187  0.4591
 6296SOL     OW30523   2.580   0.779   1.827 -0.2405 -0.0133  0.6238
 6296SOL    HW130524   2.644   0.809   1.762 -2.2060  1.3288 -0.6540
 6296SOL    HW230525   2.507   0.738   1.781  0.4283  1.3984 -1.7058
 6297SOL     OW30526   0.556   3.010   5.423 -0.1440 -0.1544  0.1856
 6297SOL    HW130527   0.536   2.935   5.480  0.3547  0.0261  0.5996
 6297SOL    HW230528   0.533   2.974   5.337  3.2143  0.9201 -1.1410
 6298SOL     OW30529   3.995   2.371  14.988 -0.8811  0.3655  0.4548
 6298SOL    HW130530   3.991   2.299  14.925 -1.5331  0.8228 -0.0146
 6298SOL    HW230531   4.087   2.398  14.979 -0.8232 -0.2276 -0.7422
 6299SOL     OW30532   2.412   0.247   5.804 -0.0044 -0.1286 -0.1053
 6299SOL    HW130533   2.404   0.186   5.731 -0.1376 -1.1091  0.7285
 6299SOL    HW230534   2.412   0.184   5.876  3.0126  0.6548  0.5617
 6300SOL     OW30535   3.655   4.213   9.001  0.3416 -0.2745 -0.0923
 6300SOL    HW130536   3.596   4.149   9.041  0.4589 -0.0121  0.4986
 6300SOL    HW230537   3.648   4.188   8.909  0.7244  0.7336 -0.3958
 6301SOL     OW30538   3.848   4.338   2.860 -0.8293 -0.4151 -0.0851
 6301SOL    HW130539   3.761   4.300   2.862 -0.9852 -0.0683 -0.2605
 6301SOL    HW230540   3.852   4.395   2.783 -0.9424  2.4771  2.0916
 6302SOL     OW30541   2.382   3.384   4.343  0.0961 -0.6304 -0.6193
 6302SOL    HW130542   2.458   3.356   4.293  0.9913 -2.1120  1.5679
 6302SOL    HW230543   2.396   3.478   4.344 -1.0339 -0.4832  1.7532
 6303SOL     OW30544   0.623   4.152   2.132 -0.2285 -0.2729 -0.4715
 6303SOL    HW130545   0.565   4.138   2.206  1.0245 -0.6106  0.4558
 6303SOL    HW230546   0.586   4.100   2.061  3.2490 -0.0500 -2.4731
 6304SOL     OW30547   2.214   0.138   8.101  0.5922 -0.1618  0.2658
 6304SOL    HW130548   2.128   0.113   8.069 -0.0721  2.1149  0.2368
 6304SOL    HW230549   2.247   0.167   8.016 -1.4384 -4.1727 -1.8420
 6305SOL     OW30550   3.158   0.681  17.625 -0.3464 -0.0865 -0.0189
 6305SOL    HW130551   3.182   0.626  17.699  1.7101  1.2983  0.3457
 6305SOL    HW230552   3.150   0.767  17.666  2.9846  0.7360 -1.0740
 6306SOL     OW30553   0.253   3.926  14.868 -0.1343  0.5068 -0.5403
 6306SOL    HW130554   0.292   3.979  14.937  3.6061  0.8141 -2.9231
 6306SOL    HW230555   0.314   3.948  14.798 -0.3092 -0.7303 -1.0828
 6307SOL     OW30556   2.916   3.913  17.663  0.1853  0.0881  0.0473
 6307SOL    HW130557   2.976   3.839  17.660  1.7440  1.3887 -1.0965
 6307SOL    HW230558   2.977   3.987  17.672 -1.0633  1.0754  0.3919
 6308SOL     OW30559   1.266   0.982   1.469 -0.2405  0.4052 -0.3917
 6308SOL    HW130560   1.265   1.016   1.559 -2.5317 -1.2154  0.1984
 6308SOL    HW230561   1.210   0.906   1.481 -1.0369  1.0205 -0.2230
 6309SOL     OW30562   1.408   4.505   2.693 -0.3865 -0.0461 -0.4481
 6309SOL    HW130563   1.370   4.526   2.607 -2.6346 -0.1502  0.5163
 6309SOL    HW230564   1.480   4.447   2.672 -1.2164 -0.7888 -1.2712
 6310SOL     OW30565   1.516   1.063   4.960 -0.1039  0.2606  0.0396
 6310SOL    HW130566   1.452   1.017   4.907 -0.0871  0.3306 -0.0411
 6310SOL    HW230567   1.595   1.035   4.913 -0.5168  1.2009 -1.2175
 6311SOL     OW30568   3.344   0.673   6.368 -0.0228  0.3404 -0.0393
 6311SOL    HW130569   3.348   0.608   6.298  0.5461 -0.8030  1.0334
 6311SOL    HW230570   3.285   0.734   6.326  1.0750  0.1009 -1.9085
 6312SOL     OW30571   3.393   3.865   6.824 -0.1431 -0.4414  0.0851
 6312SOL    HW130572   3.435   3.936   6.776  2.0907 -1.5698  0.3947
 6312SOL    HW230573   3.310   3.853   6.777 -0.4828  1.6648  0.1787
 6313SOL     OW30574   0.980   0.366   8.700  0.4941  0.0814 -0.3723
 6313SOL    HW130575   0.985   0.461   8.692  1.1933  0.0305 -0.4707
 6313SOL    HW230576   0.893   0.347   8.664 -1.2615  1.7347  2.9222
 6314SOL     OW30577   3.750   2.445   9.987 -0.0740 -0.5307  0.1245
 6314SOL    HW130578   3.788   2.520  10.031 -0.3374 -0.5716  0.4247
 6314SOL    HW230579   3.717   2.398  10.064 -1.8057  0.0763 -0.2417
 6315SOL     OW30580   2.860   1.149  10.447  0.1329  0.2838 -0.1920
 6315SOL    HW130581   2.770   1.146  10.478 -0.3021 -1.8008 -1.6227
 6315SOL    HW230582   2.906   1.166  10.529 -1.8459  0.3906  0.8769
 6316SOL     OW30583   3.340   3.085   5.638  0.1521 -0.5805  0.3741
 6316SOL    HW130584   3.351   3.146   5.565  0.0660 -0.1417  0.7237
 6316SOL    HW230585   3.335   3.145   5.713  0.9105  1.9328 -1.6109
 6317SOL     OW30586   4.204   1.044   7.496  0.3094  0.2785 -0.3635
 6317SOL    HW130587   4.228   0.955   7.472  2.1309  0.6290  0.1347
 6317SOL    HW230588   4.115   1.052   7.461  0.2073  0.1156 -0.1358
 6318SOL     OW30589   1.165   2.985   5.821 -0.0886 -0.2965 -0.0657
 6318SOL    HW130590   1.185   2.983   5.728  1.8886  1.3720  0.3209
 6318SOL    HW230591   1.146   2.892   5.832  1.3251 -0.5140  0.5577
 6319SOL     OW30592   0.108   0.518  17.304  0.7795  0.4413 -0.0364
 6319SOL    HW130593   0.030   0.507  17.249  1.4660  1.9059 -1.3328
 6319SOL    HW230594   0.063   0.506  17.387  0.0891 -1.2716 -0.6703
 6320SOL     OW30595   4.723   2.140   5.049 -0.0712  0.6948 -0.3479
 6320SOL    HW130596   4.709   2.059   5.000  1.3781 -0.7316  1.5606
 6320SOL    HW230597   4.732   2.108   5.139  0.4837 -0.1036 -0.6848
 6321SOL     OW30598   3.255   0.230   6.535  0.1615  0.3864  0.2818
 6321SOL    HW130599   3.248   0.137   6.555  0.4379 -0.1210 -1.9067
 6321SOL    HW230600   3.224   0.266   6.618  0.7180  0.9356  0.2571
 6322SOL     OW30601   0.859   2.620   4.328 -0.1711  0.4568  0.1453
 6322SOL    HW130602   0.935   2.562   4.333  0.1322  0.8055 -0.4787
 6322SOL    HW230603   0.792   2.555   4.307  1.8880 -1.4948 -0.3532
 6323SOL     OW30604   0.685   0.269  16.823  0.2394  0.9571 -0.4757
 6323SOL    HW130605   0.600   0.227  16.810  0.0063  1.2872 -0.0279
 6323SOL    HW230606   0.684   0.260  16.919 -1.5043 -0.6916 -0.6655
 6324SOL     OW30607   4.019   0.109   2.138 -0.3465 -0.2346  0.3908
 6324SOL    HW130608   3.957   0.165   2.184 -1.6412 -1.2665 -0.1022
 6324SOL    HW230609   3.955   0.042   2.113  0.4544 -0.8703  0.0555
 6325SOL     OW30610   1.763   1.118   7.231  0.2289 -0.1940  0.1818
 6325SOL    HW130611   1.720   1.198   7.261 -0.3251 -0.7279  0.7984
 6325SOL    HW230612   1.691   1.056   7.242 -1.6445  2.1830  1.1989
 6326SOL     OW30613   3.888   0.183   8.347 -0.7994 -0.1114  0.0913
 6326SOL    HW130614   3.830   0.249   8.310 -2.1164 -0.8106  0.9066
 6326SOL    HW230615   3.888   0.114   8.280 -1.4546  1.5119 -1.5533
 6327SOL     OW30616   3.807   0.145   0.333  0.0234  0.0250 -0.3301
 6327SOL    HW130617   3.874   0.211   0.348  0.0592 -0.6344  2.4076
 6327SOL    HW230618   3.837   0.092   0.406 -0.6468 -0.7857 -0.6400
 6328SOL     OW30619   0.887   0.322   6.424 -0.2595 -0.0121  0.2876
 6328SOL    HW130620   0.813   0.337   6.484 -1.4154 -1.2525 -0.8212
 6328SOL    HW230621   0.849   0.352   6.341  1.7784  0.1106 -0.5916
 6329SOL     OW30622   2.781   3.288   8.757  0.3799 -0.2907 -0.1857
 6329SOL    HW130623   2.851   3.338   8.713 -0.4413  2.1681  1.3103
 6329SOL    HW230624   2.780   3.321   8.847 -0.1744  0.7886 -0.5873
 6330SOL     OW30625   2.164   3.700   3.317 -0.5249 -0.0742  0.1400
 6330SOL    HW130626   2.182   3.765   3.249  0.6722  0.8573  1.3551
 6330SOL    HW230627   2.158   3.625   3.258 -0.4960  0.0660 -0.0396
 6331SOL     OW30628   3.493   1.711   8.827 -0.2327 -0.3939 -0.0156
 6331SOL    HW130629   3.518   1.779   8.889 -1.3539  1.3300 -1.4596
 6331SOL    HW230630   3.436   1.755   8.764 -1.4779 -2.2188 -0.1597
 6332SOL     OW30631   3.937   0.393   0.364 -0.4675  0.0278 -0.4986
 6332SOL    HW130632   3.949   0.414   0.271 -2.6580  0.5226 -0.6781
 6332SOL    HW230633   4.010   0.445   0.397  0.8681 -1.7611 -0.6232
 6333SOL     OW30634   3.796   4.551   9.007 -0.0576  0.1169  0.0474
 6333SOL    HW130635   3.755   4.539   8.921  1.0441 -1.1984 -0.2907
 6333SOL    HW230636   3.821   4.464   9.037  0.5798  0.7814  1.4697
 6334SOL     OW30637   2.197   2.580   3.247 -0.2071  0.1358 -0.0818
 6334SOL    HW130638   2.143   2.555   3.172 -0.7996  0.7817  0.1291
 6334SOL    HW230639   2.251   2.503   3.265  0.8802  1.0005  0.2936
 6335SOL     OW30640   4.513   2.348   4.243  0.3657  0.0586 -0.2184
 6335SOL    HW130641   4.422   2.368   4.223  0.1020 -0.0571  0.8543
 6335SOL    HW230642   4.502   2.308   4.329 -0.6573  1.4107  0.2957
 6336SOL     OW30643   3.002   1.345   1.442 -0.1698  0.1399  0.5833
 6336SOL    HW130644   3.077   1.401   1.424  0.5096 -0.4677  1.5628
 6336SOL    HW230645   3.027   1.256   1.416 -1.5674 -0.3772  1.0308
 6337SOL     OW30646   2.664   1.297   7.079  0.0784  0.1698 -0.4673
 6337SOL    HW130647   2.677   1.204   7.099 -1.1076  0.3796  1.1812
 6337SOL    HW230648   2.579   1.312   7.119  0.4987  0.0848  0.4495
 6338SOL     OW30649   3.053   1.471   2.469 -0.3665 -0.4158 -0.7018
 6338SOL    HW130650   2.997   1.513   2.404  1.8496 -0.7879 -2.8807
 6338SOL    HW230651   3.113   1.540   2.499  0.9481 -1.1065 -1.7437
 6339SOL     OW30652   2.872   3.625  11.338 -0.6060  0.6680  0.1103
 6339SOL    HW130653   2.841   3.694  11.397 -1.0798  1.6746 -1.3319
 6339SOL    HW230654   2.921   3.670  11.269  2.7204  0.3783  2.3013
 6340SOL     OW30655   0.015   1.371   8.035 -0.0615  0.5281  0.4731
 6340SOL    HW130656   0.027   1.384   7.941  1.0946  1.5610  0.7647
 6340SOL    HW230657   4.658   1.353   8.030 -0.0777  0.5904  0.5454
 6341SOL     OW30658   2.994   0.395  15.177 -0.6949 -0.2849 -0.4025
 6341SOL    HW130659   2.953   0.312  15.154  1.3368 -2.0588  2.4550
 6341SOL    HW230660   3.062   0.403  15.111  0.4190 -0.7863  0.6857
 6342SOL     OW30661   2.144   1.586   7.812 -0.2589  0.0804  0.3130
 6342SOL    HW130662   2.114   1.504   7.772  1.9597 -0.3283 -0.5547
 6342SOL    HW230663   2.091   1.648   7.763  0.5698  0.1480 -0.5037
 6343SOL     OW30664   0.453   3.167   2.878  0.1465 -0.4209 -0.0759
 6343SOL    HW130665   0.434   3.085   2.832  2.7734 -1.4588  0.6986
 6343SOL    HW230666   0.404   3.162   2.961  0.6061  0.1133  0.2214
 6344SOL     OW30667   4.384   3.615   3.378 -0.1244 -0.3710 -0.0070
 6344SOL    HW130668   4.446   3.652   3.315 -0.6720 -0.1589 -0.4200
 6344SOL    HW230669   4.307   3.610   3.321 -0.8394  1.0089  0.8438
 6345SOL     OW30670   1.920   2.434   1.040  0.0213  0.0910  0.2052
 6345SOL    HW130671   1.883   2.502   1.096 -0.1189 -0.5457  0.8834
 6345SOL    HW230672   1.946   2.370   1.106 -1.2300 -0.9730 -0.3453
 6346SOL     OW30673   1.855   3.074  10.330 -0.1709  0.4482 -1.1060
 6346SOL    HW130674   1.821   2.997  10.376  3.5009  0.7981  2.1740
 6346SOL    HW230675   1.782   3.135  10.318 -1.1554 -0.2012  1.6627
 6347SOL     OW30676   0.362   4.600   7.885 -0.2694  0.3216  0.5712
 6347SOL    HW130677   0.404   4.529   7.836  1.6518  2.4660 -0.9017
 6347SOL    HW230678   0.432   4.664   7.872  0.0186  0.0779  0.9330
 6348SOL     OW30679   4.487   2.879   3.953  0.4246 -0.4939 -0.2712
 6348SOL    HW130680   4.546   2.804   3.946 -1.2279 -1.8199 -0.0018
 6348SOL    HW230681   4.423   2.841   4.013  3.3436 -0.3182  2.9112
 6349SOL     OW30682   3.946   4.511  15.841 -0.7663 -0.1097 -0.4260
 6349SOL    HW130683   3.851   4.505  15.851 -0.8028  0.1531 -0.6325
 6349SOL    HW230684   3.962   4.510  15.747  1.2486 -0.8802 -0.0931
 6350SOL     OW30685   1.648   2.235  14.646  0.4880 -0.3327 -0.1274
 6350SOL    HW130686   1.670   2.318  14.602 -0.3980  0.0739  0.1899
 6350SOL    HW230687   1.554   2.248  14.657  0.2372  0.6114 -3.3753
 6351SOL     OW30688   1.202   4.021   1.473 -0.1162  0.1603  0.0664
 6351SOL    HW130689   1.246   3.964   1.536 -1.4919 -2.9497 -1.7848
 6351SOL    HW230690   1.277   4.080   1.471  1.8797 -2.3706 -0.3629
 6352SOL     OW30691   4.416   0.909  11.304 -0.3559  0.5060  0.4018
 6352SOL    HW130692   4.394   0.846  11.236 -0.3922 -1.0680  1.8711
 6352SOL    HW230693   4.511   0.895  11.310 -0.5911 -1.4879 -0.4256
 6353SOL     OW30694   1.006   2.172   4.444 -0.2843 -0.1296 -0.0315
 6353SOL    HW130695   1.041   2.129   4.522  0.1539 -2.2442 -1.3785
 6353SOL    HW230696   0.974   2.094   4.399 -0.3093 -0.0491 -0.1541
 6354SOL     OW30697   2.708   3.015   6.289 -0.4119 -0.0254 -0.2444
 6354SOL    HW130698   2.666   2.941   6.246  0.7233 -0.4127 -0.6701
 6354SOL    HW230699   2.660   3.092   6.258  2.2323  0.2807 -3.6003
 6355SOL     OW30700   4.027   0.712   3.800 -0.8643 -0.2910  0.6393
 6355SOL    HW130701   4.112   0.674   3.778 -1.4721 -1.4184  0.2051
 6355SOL    HW230702   3.977   0.686   3.723 -1.3127  0.2487  0.7483
 6356SOL     OW30703   1.679   3.517   6.530  0.4127 -0.4910  0.0354
 6356SOL    HW130704   1.716   3.585   6.473 -3.2986 -0.1627 -1.9625
 6356SOL    HW230705   1.726   3.526   6.613  3.7081 -0.1924 -1.8629
 6357SOL     OW30706   3.882   0.432   5.697  0.2711  1.0775 -0.1070
 6357SOL    HW130707   3.794   0.430   5.659  0.6474 -1.4009 -0.8343
 6357SOL    HW230708   3.867   0.435   5.792 -0.5507  0.3375 -0.2134
 6358SOL     OW30709   1.048   0.901   5.603  0.3594  0.1866 -0.0615
 6358SOL    HW130710   1.074   0.935   5.517 -1.4345  0.8564 -0.3445
 6358SOL    HW230711   0.954   0.918   5.608  0.2053 -0.5430 -0.5105
 6359SOL     OW30712   3.380   3.623  12.143 -0.6133 -0.4760  0.1930
 6359SOL    HW130713   3.355   3.568  12.217  2.2769 -1.5740  0.3808
 6359SOL    HW230714   3.381   3.559  12.072  1.5936 -0.0685 -0.1657
 6360SOL     OW30715   2.435   2.535  15.976 -0.1254  0.0189 -0.1697
 6360SOL    HW130716   2.354   2.582  15.996  0.1692  0.6134 -0.3985
 6360SOL    HW230717   2.464   2.599  15.911  0.0986 -0.2782 -0.3646
 6361SOL     OW30718   4.138   1.786  17.695 -0.3156 -0.0848  0.1807
 6361SOL    HW130719   4.220   1.758  17.653  1.5741  1.7339  2.6495
 6361SOL    HW230720   4.101   1.843  17.628 -1.0436 -0.9782 -0.1865
 6362SOL     OW30721   1.612   2.246  11.023  0.2969 -0.3216 -0.7981
 6362SOL    HW130722   1.578   2.222  11.109 -0.6776 -0.6426 -1.2783
 6362SOL    HW230723   1.696   2.200  11.023  0.2463 -0.4019 -2.0204
 6363SOL     OW30724   2.289   3.187  16.935 -0.0108  0.4147 -0.1298
 6363SOL    HW130725   2.252   3.220  16.853  3.3478  0.1282 -1.7573
 6363SOL    HW230726   2.381   3.178  16.910  0.8536 -0.9251  3.5398
 6364SOL     OW30727   3.289   1.266   3.088 -0.3318  0.5470  0.0780
 6364SOL    HW130728   3.296   1.345   3.035 -0.5896  1.5213  1.5022
 6364SOL    HW230729   3.258   1.205   3.021  0.5824 -0.6738  0.7690
 6365SOL     OW30730   3.630   3.603  16.016 -0.3258 -0.4891  0.2356
 6365SOL    HW130731   3.597   3.660  16.086  0.9572  0.8733 -0.2484
 6365SOL    HW230732   3.719   3.586  16.049  0.7870  1.1267 -1.8713
 6366SOL     OW30733   1.099   4.004   2.351  0.0102  0.2271  0.1888
 6366SOL    HW130734   1.018   3.988   2.302 -1.7022 -0.3292  3.2458
 6366SOL    HW230735   1.078   4.090   2.388  2.0330  0.1921  1.4192
 6367SOL     OW30736   1.362   2.396  12.566 -0.3027  0.1064 -0.0656
 6367SOL    HW130737   1.334   2.328  12.628 -2.0892 -1.3683 -2.5100
 6367SOL    HW230738   1.310   2.473  12.588 -1.8003 -1.3335  1.3758
 6368SOL     OW30739   4.550   4.141   7.665 -0.1720  0.2738  0.2799
 6368SOL    HW130740   4.532   4.161   7.757  0.2978 -0.0438  0.4378
 6368SOL    HW230741   4.485   4.197   7.623 -0.6380 -0.4779  0.0101
 6369SOL     OW30742   0.833   1.668   5.269  0.2463 -1.2777  0.6230
 6369SOL    HW130743   0.898   1.644   5.335  0.4214 -1.4726  0.3775
 6369SOL    HW230744   0.874   1.740   5.221 -2.2429  0.9789  1.8817
 6370SOL     OW30745   0.515   3.445   1.427  0.1836 -0.3218  0.3654
 6370SOL    HW130746   0.569   3.471   1.501  0.9378 -0.3926 -0.1608
 6370SOL    HW230747   0.577   3.439   1.354 -1.6610  0.1859 -1.2444
 6371SOL     OW30748   4.173   3.381  13.583 -0.3564 -0.0705 -0.0994
 6371SOL    HW130749   4.122   3.307  13.615  0.6808 -0.7132  0.0363
 6371SOL    HW230750   4.188   3.434  13.662  2.6362 -0.5660 -0.3311
 6372SOL     OW30751   4.369   4.542   5.300  0.0133  0.4444  0.0926
 6372SOL    HW130752   4.317   4.505   5.229  1.2450 -1.4595  0.1726
 6372SOL    HW230753   4.342   4.485   5.372  0.5788 -1.9841 -1.6176
 6373SOL     OW30754   3.307   2.409   9.537 -0.4256 -0.0712  0.4311
 6373SOL    HW130755   3.399   2.403   9.562 -0.7912 -2.6362  1.1031
 6373SOL    HW230756   3.278   2.318   9.535  0.6729 -0.4230  0.3698
 6374SOL     OW30757   0.335   2.158   7.303  0.6457 -0.4149  0.4048
 6374SOL    HW130758   0.300   2.148   7.214 -2.0232  0.6732  1.3388
 6374SOL    HW230759   0.365   2.068   7.320  0.2157 -1.0987 -2.4807
 6375SOL     OW30760   3.513   1.097  16.255 -0.1847  0.0924  0.1071
 6375SOL    HW130761   3.566   1.058  16.185  1.4346 -1.0681  1.9971
 6375SOL    HW230762   3.572   1.170  16.274 -0.8101  0.8560 -0.8588
 6376SOL     OW30763   3.088   1.224   7.759  0.2641  0.8065  0.2531
 6376SOL    HW130764   2.995   1.233   7.741 -0.3126 -0.2785  2.6541
 6376SOL    HW230765   3.086   1.152   7.823  1.0942 -0.8979 -1.6371
 6377SOL     OW30766   3.469   2.080  17.270 -0.0782 -0.0289  0.0851
 6377SOL    HW130767   3.442   2.008  17.328 -1.0211 -0.1046 -0.4504
 6377SOL    HW230768   3.554   2.052  17.236  0.1245  1.4579 -0.6235
 6378SOL     OW30769   2.187   1.538   2.210  0.1040 -0.8849 -0.0922
 6378SOL    HW130770   2.222   1.598   2.144 -4.8277  2.2030  0.1260
 6378SOL    HW230771   2.243   1.552   2.286 -3.5312  0.8966  2.2636
 6379SOL     OW30772   2.679   2.582  16.249 -0.4259 -0.3259  0.0087
 6379SOL    HW130773   2.597   2.603  16.203 -0.8777  0.6597  1.2487
 6379SOL    HW230774   2.646   2.571  16.338  2.3633 -2.7818  0.7191
 6380SOL     OW30775   2.952   4.152  17.488  0.0645 -0.2790  0.1823
 6380SOL    HW130776   2.987   4.142  17.577 -0.2695  0.9853  0.4583
 6380SOL    HW230777   3.034   4.178  17.445 -1.5831  3.7145 -0.5317
 6381SOL     OW30778   0.127   0.784   5.998 -0.0116  0.1939 -0.6562
 6381SOL    HW130779   0.067   0.804   5.926 -0.4523  2.4163  0.3335
 6381SOL    HW230780   0.199   0.749   5.944 -0.5832 -1.2748 -0.4665
 6382SOL     OW30781   3.706   0.026  10.681 -0.2312  0.5064 -0.1630
 6382SOL    HW130782   3.657   0.104  10.655 -1.6784 -0.6707 -0.9819
 6382SOL    HW230783   3.633   4.714  10.720 -0.3321  0.6693 -0.1482
 6383SOL     OW30784   1.662   1.572   6.277  0.4511 -0.1719 -0.3076
 6383SOL    HW130785   1.623   1.634   6.216 -0.5054 -1.8616 -1.4213
 6383SOL    HW230786   1.617   1.590   6.360 -0.8772 -0.3784 -0.9808
 6384SOL     OW30787   0.232   1.720  11.694  1.0000  0.1697  0.2228
 6384SOL    HW130788   0.196   1.644  11.739  0.4445 -0.0146 -0.5361
 6384SOL    HW230789   0.177   1.740  11.617 -1.4085 -1.5012  1.5339
 6385SOL     OW30790   0.144   0.372  11.888 -0.1827  0.1716  0.1510
 6385SOL    HW130791   0.049   0.374  11.902 -0.2521 -1.1589 -0.1245
 6385SOL    HW230792   0.161   0.369  11.794 -0.8482  0.7890  0.0142
 6386SOL     OW30793   4.139   2.069   3.950 -0.1922 -0.2981 -0.7440
 6386SOL    HW130794   4.186   2.150   3.968 -0.2850 -0.2566 -0.6899
 6386SOL    HW230795   4.209   2.015   3.988  0.2023  2.0360  1.8779
 6387SOL     OW30796   2.904   2.770   4.263 -0.7430  0.2267 -0.0994
 6387SOL    HW130797   2.931   2.834   4.328 -0.1899 -2.3909  2.2722
 6387SOL    HW230798   2.978   2.709   4.258 -0.5547  0.5518 -1.0595
 6388SOL     OW30799   1.926   2.448   2.737  0.4417 -0.0674  0.2120
 6388SOL    HW130800   2.005   2.418   2.692 -0.1075 -0.5643 -0.4228
 6388SOL    HW230801   1.942   2.542   2.726  1.6288 -0.1538  1.2412
 6389SOL     OW30802   3.053   1.525  11.997 -0.0348  0.5310  0.4975
 6389SOL    HW130803   3.061   1.451  12.057 -2.6458  0.0287  0.2256
 6389SOL    HW230804   3.089   1.489  11.916 -0.4878  0.8631  0.1481
 6390SOL     OW30805   2.487   1.517   0.188 -0.1933 -0.3705 -0.4623
 6390SOL    HW130806   2.442   1.519   0.273  0.5631  1.5668 -0.1126
 6390SOL    HW230807   2.488   1.422   0.180 -1.2999 -0.4221 -0.0772
 6391SOL     OW30808   3.640   3.846   4.724  0.1007  0.2858  0.2758
 6391SOL    HW130809   3.582   3.921   4.716 -2.2651 -1.5672  0.2207
 6391SOL    HW230810   3.628   3.812   4.813 -1.7414  3.5461  1.2806
 6392SOL     OW30811   0.737   4.476   4.416  0.1207  0.2266 -0.2251
 6392SOL    HW130812   0.780   4.397   4.385  0.2247  0.7089 -1.3168
 6392SOL    HW230813   0.654   4.469   4.367  0.5184  1.9529 -1.1451
 6393SOL     OW30814   1.450   4.104  15.996  0.5610  0.2913  0.0425
 6393SOL    HW130815   1.430   4.087  16.088 -1.3735 -0.4349 -0.5110
 6393SOL    HW230816   1.461   4.198  16.008 -0.8842  0.5695 -0.8120
 6394SOL     OW30817   2.682   3.081   7.863 -0.5741 -0.4409 -0.2438
 6394SOL    HW130818   2.641   3.066   7.778  1.6882 -0.4752 -1.3182
 6394SOL    HW230819   2.609   3.058   7.921 -2.0303  3.7302 -0.3973
 6395SOL     OW30820   0.372   0.601  14.643 -0.2072  0.1037 -0.0251
 6395SOL    HW130821   0.401   0.560  14.561 -0.1620 -2.0103  1.0582
 6395SOL    HW230822   0.287   0.628  14.609 -0.5315 -0.2036  0.5470
 6396SOL     OW30823   0.690   1.754   6.887 -0.1125 -0.4058  0.0408
 6396SOL    HW130824   0.752   1.708   6.944 -0.9899 -0.2375  1.1380
 6396SOL    HW230825   0.735   1.741   6.803  1.2433 -0.2169  0.7413
 6397SOL     OW30826   1.454   0.035   1.860 -0.4989  0.1725 -0.5229
 6397SOL    HW130827   1.518   0.080   1.806 -0.0897 -0.8298 -0.8687
 6397SOL    HW230828   1.469   4.682   1.831 -1.1383  0.0390 -0.4353
 6398SOL     OW30829   3.408   0.639   8.739 -0.1427  0.5714 -0.2006
 6398SOL    HW130830   3.444   0.566   8.688 -0.1878 -0.2816  1.0042
 6398SOL    HW230831   3.346   0.595   8.796  1.4299  0.1298  1.1919
 6399SOL     OW30832   4.045   4.128   8.857  0.0747  0.2434  0.3094
 6399SOL    HW130833   3.994   4.072   8.800 -1.2751  0.4925  1.2729
 6399SOL    HW230834   4.072   4.191   8.790  0.0131 -0.4223 -0.3287
 6400SOL     OW30835   0.189   1.837   1.551 -0.3756 -0.3173 -0.5613
 6400SOL    HW130836   0.104   1.797   1.533 -1.3229  0.6177  1.9573
 6400SOL    HW230837   0.242   1.774   1.502  1.4104 -0.1110  1.1090
 6401SOL     OW30838   3.575   3.435  10.456  0.0432 -0.1928 -0.5484
 6401SOL    HW130839   3.575   3.426  10.361 -1.3711 -1.9366 -0.3909
 6401SOL    HW230840   3.490   3.474  10.477  0.2514  0.2159 -0.4771
 6402SOL     OW30841   0.805   2.943   7.429  0.0826  0.6572  0.6240
 6402SOL    HW130842   0.767   2.941   7.342  3.2715  0.9550 -0.7750
 6402SOL    HW230843   0.784   2.858   7.469 -2.0173  0.4726 -0.9292
 6403SOL     OW30844   0.932   1.922   4.395  0.3145 -0.5415 -0.4672
 6403SOL    HW130845   0.849   1.875   4.384 -0.5412  0.6575  0.7582
 6403SOL    HW230846   0.980   1.849   4.434 -0.0527  1.2524  3.3489
 6404SOL     OW30847   3.469   1.165   3.257 -0.1311  0.0651 -0.5909
 6404SOL    HW130848   3.460   1.225   3.331 -0.4153 -0.0732 -0.5149
 6404SOL    HW230849   3.391   1.198   3.212  0.8836 -0.0874 -2.4831
 6405SOL     OW30850   2.268   4.725  13.917 -0.2258  0.3035  0.0421
 6405SOL    HW130851   2.301   4.651  13.968  0.7118  0.5543 -0.2160
 6405SOL    HW230852   2.178   4.694  13.907 -0.5763  0.7265  1.9583
 6406SOL     OW30853   0.161   1.356  10.789 -0.5053 -0.4565  0.1126
 6406SOL    HW130854   0.228   1.306  10.743  2.0937  0.8603  2.4208
 6406SOL    HW230855   0.096   1.290  10.812 -1.0975 -0.0961 -0.5159
 6407SOL     OW30856   0.076   4.296   1.694 -0.1103  0.2479  0.3606
 6407SOL    HW130857   0.083   4.300   1.599  1.9588 -0.3197  0.4859
 6407SOL    HW230858   0.051   4.386   1.715 -1.1025  0.6606 -2.5647
 6408SOL     OW30859   4.691   4.404   2.069  0.3013  0.5598 -0.0862
 6408SOL    HW130860   4.730   4.441   2.149 -1.4317  1.1619  0.4921
 6408SOL    HW230861   4.598   4.412   2.088  0.4278  0.3171  0.6359
 6409SOL     OW30862   3.424   3.134   1.988  0.0538  0.3907  0.5141
 6409SOL    HW130863   3.421   3.121   2.082 -0.6346 -0.5441  0.3584
 6409SOL    HW230864   3.475   3.215   1.986  0.2576  0.3028  2.4285
 6410SOL     OW30865   4.254   1.487   8.010  0.2259 -0.3112  0.0902
 6410SOL    HW130866   4.187   1.495   7.943 -0.0075  0.5083  0.4270
 6410SOL    HW230867   4.240   1.568   8.059 -0.5064  1.1424 -2.5713
 6411SOL     OW30868   2.115   3.436   6.003  0.0418  0.2207  0.1398
 6411SOL    HW130869   2.111   3.455   5.910 -0.6350 -0.2721  0.0668
 6411SOL    HW230870   2.095   3.526   6.027 -1.5686  0.4310 -2.0231
 6412SOL     OW30871   1.960   4.244  15.362  0.1284  0.2726  0.0229
 6412SOL    HW130872   1.983   4.302  15.289  0.8447 -1.7981 -1.4028
 6412SOL    HW230873   2.045   4.230  15.404  0.2869 -3.2855 -1.4939
 6413SOL     OW30874   2.457   2.869   2.781 -0.1105  0.5876  0.7219
 6413SOL    HW130875   2.532   2.889   2.836  0.4449 -3.1227  1.2768
 6413SOL    HW230876   2.401   2.839   2.853 -2.1272  0.3700 -0.9213
 6414SOL     OW30877   0.718   1.198   9.475  0.1012  0.4536 -0.0441
 6414SOL    HW130878   0.737   1.285   9.511 -4.6213  2.0327 -1.3778
 6414SOL    HW230879   0.807   1.165   9.462 -0.1733 -0.0978 -0.5285
 6415SOL     OW30880   4.554   2.952   4.957  0.1261 -0.1686  0.0938
 6415SOL    HW130881   4.601   3.035   4.964  0.6137 -0.6096  2.0750
 6415SOL    HW230882   4.475   2.977   4.909 -1.0415 -2.6041  0.7306
 6416SOL     OW30883   4.280   1.850   7.340  0.3375  0.2125  0.1984
 6416SOL    HW130884   4.300   1.886   7.426  1.0525 -2.8414  1.3122
 6416SOL    HW230885   4.344   1.779   7.332  0.8928  1.0848 -2.9480
 6417SOL     OW30886   0.893   1.924  17.733  0.1196 -0.2183 -0.5690
 6417SOL    HW130887   0.965   1.978  17.698  0.5195 -1.5553 -1.8119
 6417SOL    HW230888   0.924   1.913   0.079 -0.4359 -1.8437 -0.5842
 6418SOL     OW30889   0.628   1.079   2.843 -0.1724  0.5546  0.3283
 6418SOL    HW130890   0.630   1.175   2.848 -0.7078  0.5438  0.8101
 6418SOL    HW230891   0.719   1.053   2.857 -0.2693 -1.0664 -1.9998
 6419SOL     OW30892   3.039   3.749  15.682  0.2190 -0.1010  0.7858
 6419SOL    HW130893   3.131   3.739  15.659 -0.3984 -0.1221 -1.6530
 6419SOL    HW230894   3.018   3.658  15.700  0.4394 -0.7569 -2.2424
 6420SOL     OW30895   0.334   4.688   5.745 -0.7123  0.1094 -0.2588
 6420SOL    HW130896   0.265   4.662   5.685 -0.4499 -3.5073  1.0175
 6420SOL    HW230897   0.373   4.611   5.787 -2.4773  0.2416  1.6008
 6421SOL     OW30898   3.864   2.169  13.592 -0.1239 -0.3748  0.2461
 6421SOL    HW130899   3.818   2.117  13.658  0.3940  0.7693  1.5039
 6421SOL    HW230900   3.790   2.203  13.542  0.8468  0.9483 -0.3055
 6422SOL     OW30901   1.752   3.142   9.451  0.4179 -0.6501  0.4991
 6422SOL    HW130902   1.792   3.172   9.532  0.0242 -1.3224  0.9475
 6422SOL    HW230903   1.706   3.068   9.492  0.9389  0.3621  2.8861
 6423SOL     OW30904   4.218   0.432  14.796 -0.0738  0.2885  0.1802
 6423SOL    HW130905   4.191   0.447  14.887  0.0939 -0.0545  0.2893
 6423SOL    HW230906   4.195   0.517  14.759  0.8573 -0.0135 -1.0862
 6424SOL     OW30907   3.294   4.091  11.905 -0.3649 -0.3595 -0.7109
 6424SOL    HW130908   3.302   4.184  11.928 -2.8236 -0.2385 -0.2702
 6424SOL    HW230909   3.201   4.080  11.883 -0.4529  2.1880 -1.6493
 6425SOL     OW30910   0.332   0.980  16.545  0.0924  0.1157  0.0193
 6425SOL    HW130911   0.339   1.023  16.631 -2.4068  0.5845 -0.0080
 6425SOL    HW230912   0.385   1.043  16.497  1.0239 -1.5610 -1.1123
 6426SOL     OW30913   2.581   2.009   0.339 -0.8487  0.1230  0.4083
 6426SOL    HW130914   2.537   2.080   0.293 -0.2273  1.5423  2.0338
 6426SOL    HW230915   2.621   1.966   0.263 -0.0488  0.7908  0.4530
 6427SOL     OW30916   2.100   0.968   5.692  0.6548 -0.4201 -0.2327
 6427SOL    HW130917   2.088   0.992   5.600 -1.3104  0.2425  0.1899
 6427SOL    HW230918   2.046   0.889   5.700  0.3886 -0.2083  0.1023
 6428SOL     OW30919   1.403   0.114   4.406 -0.2805 -0.0660  0.4119
 6428SOL    HW130920   1.387   0.052   4.335  3.1060  1.4403 -1.6858
 6428SOL    HW230921   1.351   0.064   4.468 -2.3800  1.7602  0.1403
 6429SOL     OW30922   4.200   2.923  15.749 -0.1712 -0.2271  0.0764
 6429SOL    HW130923   4.243   2.867  15.683 -1.3136  0.3165 -1.1248
 6429SOL    HW230924   4.118   2.874  15.758  0.1268 -1.0753 -1.7948
 6430SOL     OW30925   4.232   1.021  11.467  0.4829 -0.3080 -0.0089
 6430SOL    HW130926   4.303   0.971  11.427  0.8094 -1.5571  2.1716
 6430SOL    HW230927   4.246   1.110  11.435  0.1847 -0.5595 -0.8323
 6431SOL     OW30928   1.339   1.078   3.457 -0.1437 -0.6138  0.1653
 6431SOL    HW130929   1.317   1.073   3.364 -1.7665  2.2560  0.4047
 6431SOL    HW230930   1.397   1.002   3.465 -0.2766 -0.6564  0.7610
 6432SOL     OW30931   4.629   0.718  10.629 -0.4259 -0.1422 -0.0452
 6432SOL    HW130932   4.668   0.707  10.543 -1.3042  2.2854 -0.7617
 6432SOL    HW230933   4.677   0.659  10.687  0.9234  2.1245  1.1443
 6433SOL     OW30934   3.424   2.156   3.545 -0.2841  0.6353 -0.0558
 6433SOL    HW130935   3.379   2.132   3.464 -0.9813  1.4556  0.0972
 6433SOL    HW230936   3.350   2.176   3.602  0.2466  0.3340  0.7351
 6434SOL     OW30937   0.084   1.180   4.225 -0.2403 -0.2529 -0.5437
 6434SOL    HW130938   0.096   1.198   4.131  0.6704  1.1827 -0.1491
 6434SOL    HW230939   0.103   1.087   4.213 -1.7836 -0.5212 -0.9698
 6435SOL     OW30940   3.703   2.611  15.923 -0.1791 -0.1114 -0.4892
 6435SOL    HW130941   3.611   2.603  15.900 -0.6173 -0.1243  1.3148
 6435SOL    HW230942   3.731   2.523  15.899  0.2713  0.1008 -0.7637
 6436SOL     OW30943   4.445   4.513   7.072 -0.4375 -0.8353  0.3590
 6436SOL    HW130944   4.465   4.461   6.993  0.1727 -0.0279 -0.0105
 6436SOL    HW230945   4.351   4.494   7.070 -0.2431 -1.8079 -0.1953
 6437SOL     OW30946   3.720   4.505   4.826  0.3607  0.7943  0.7173
 6437SOL    HW130947   3.725   4.418   4.865 -2.6703  0.3380  0.1151
 6437SOL    HW230948   3.670   4.544   4.898 -1.3388 -1.3085  0.6678
 6438SOL     OW30949   3.632   0.482   5.600  0.5215  0.2539 -0.0048
 6438SOL    HW130950   3.684   0.537   5.542  0.7366 -0.2931 -0.3312
 6438SOL    HW230951   3.544   0.514   5.582 -0.0018 -0.8373  0.6460
 6439SOL     OW30952   3.481   0.816   7.015 -0.1459 -0.0880 -0.1683
 6439SOL    HW130953   3.451   0.873   7.085  0.3748  0.5077 -0.4329
 6439SOL    HW230954   3.450   0.869   6.941 -1.0445 -0.9986 -0.4399
 6440SOL     OW30955   2.255   0.728   1.481 -0.1867 -0.3825  0.2993
 6440SOL    HW130956   2.290   0.815   1.502 -1.1715  0.1087 -0.1302
 6440SOL    HW230957   2.332   0.677   1.508 -0.6276 -1.4090 -0.4078
 6441SOL     OW30958   4.363   1.949   6.685 -0.1433  0.0279  0.2367
 6441SOL    HW130959   4.280   1.934   6.731  0.3484 -0.9461  0.8157
 6441SOL    HW230960   4.374   1.861   6.649 -0.3175  0.2258 -0.2980
 6442SOL     OW30961   3.288   4.023   5.272 -0.2973  0.1290 -0.0009
 6442SOL    HW130962   3.333   4.009   5.356  0.5056  1.5504 -0.1927
 6442SOL    HW230963   3.198   4.025   5.306 -0.5742 -0.4711 -0.6994
 6443SOL     OW30964   1.057   0.784   1.417 -0.2015  0.1381 -0.0661
 6443SOL    HW130965   1.077   0.733   1.338  1.7900  1.2617 -0.3019
 6443SOL    HW230966   0.967   0.810   1.398  0.8528  3.2359 -0.8565
 6444SOL     OW30967   3.130   0.275  13.478 -0.5686  0.2509 -0.3699
 6444SOL    HW130968   3.186   0.221  13.534  0.2731 -0.0414 -1.4950
 6444SOL    HW230969   3.112   0.353  13.530  0.8155 -0.7295  1.5697
 6445SOL     OW30970   2.836   3.519   1.439  0.1456  0.7404  0.0452
 6445SOL    HW130971   2.792   3.547   1.519  2.1356  2.1191  0.6509
 6445SOL    HW230972   2.802   3.586   1.379  0.0736  1.0231  0.4028
 6446SOL     OW30973   2.087   4.015   1.371 -0.1267  0.0844 -0.0061
 6446SOL    HW130974   2.132   3.984   1.292 -0.7291  0.4796 -0.5120
 6446SOL    HW230975   2.167   4.040   1.416  1.1659 -1.0249 -1.6814
 6447SOL     OW30976   4.043   4.345  17.269  0.0372 -0.3110 -0.6492
 6447SOL    HW130977   4.101   4.336  17.193  0.6151 -1.8857 -0.0053
 6447SOL    HW230978   3.981   4.273  17.265 -0.0555 -0.1228 -2.8529
 6448SOL     OW30979   3.215   0.651   8.494 -0.1004 -0.0883  0.4134
 6448SOL    HW130980   3.234   0.567   8.537  1.3041 -0.1651 -0.3626
 6448SOL    HW230981   3.120   0.661   8.493 -0.0253  0.7738  2.1406
 6449SOL     OW30982   3.654   1.159   7.874  0.3306  0.2166 -0.5234
 6449SOL    HW130983   3.686   1.082   7.922  0.6688  2.6780  3.1551
 6449SOL    HW230984   3.616   1.210   7.945  3.7469  0.3218  1.2090
 6450SOL     OW30985   1.749   1.512   6.691 -0.4655 -0.0162 -0.1089
 6450SOL    HW130986   1.688   1.440   6.709  0.5571 -0.6765  0.7269
 6450SOL    HW230987   1.822   1.494   6.750 -1.2863  0.0504  0.9055
 6451SOL     OW30988   0.803   0.950   5.709  0.2712  0.1545  0.2206
 6451SOL    HW130989   0.724   0.897   5.715  0.4374 -0.4140 -2.3482
 6451SOL    HW230990   0.803   0.996   5.793  1.2428  0.4098  0.0857
 6452SOL     OW30991   0.046   3.285   3.620 -0.7645  0.3768 -0.2153
 6452SOL    HW130992   0.023   3.295   3.528 -0.3868 -0.2873 -0.3875
 6452SOL    HW230993   4.721   3.213   3.635 -0.1982  0.4168  2.4007
 6453SOL     OW30994   4.046   2.417   7.454  0.3127 -0.5146 -0.7587
 6453SOL    HW130995   4.017   2.441   7.543 -1.0942 -2.0306 -0.8162
 6453SOL    HW230996   4.028   2.324   7.467  1.6991 -0.6267  0.2977
 6454SOL     OW30997   2.813   4.566   5.396  0.0220  0.5558  0.5359
 6454SOL    HW130998   2.735   4.547   5.344  0.5220 -1.1453  0.4269
 6454SOL    HW230999   2.829   4.657   5.372  2.1565  0.9828  3.6641
 6455SOL     OW31000   0.544   1.862   8.666 -0.0076 -0.3173  0.0752
 6455SOL    HW131001   0.585   1.794   8.612  0.9619  0.5368 -0.2746
 6455SOL    HW231002   0.614   1.918   8.700  0.2373 -0.3958 -0.2984
 6456SOL     OW31003   1.228   1.402  16.814 -0.3541 -0.1853  0.4642
 6456SOL    HW131004   1.148   1.349  16.814 -0.1819 -0.4183 -2.5782
 6456SOL    HW231005   1.215   1.463  16.741 -0.3235 -0.6228  0.0969
 6457SOL     OW31006   3.139   0.036   5.042 -0.6582 -0.6152 -0.0347
 6457SOL    HW131007   3.115   4.683   5.065  0.1350 -0.6485  0.6518
 6457SOL    HW231008   3.201   0.006   4.976  1.3314  0.9653  1.1326
 6458SOL     OW31009   0.740   4.223  10.843 -0.2811  0.3628 -0.2587
 6458SOL    HW131010   0.725   4.317  10.831  0.7886  0.4580 -0.8373
 6458SOL    HW231011   0.653   4.191  10.819  0.0974 -1.1574  0.4052
 6459SOL     OW31012   3.789   0.480   1.992  0.1296  0.5009  0.0348
 6459SOL    HW131013   3.717   0.424   1.963  0.8957 -0.4545 -0.0721
 6459SOL    HW231014   3.759   0.543   2.057 -0.5899 -0.7868  0.9443
 6460SOL     OW31015   2.676   1.967   3.234 -0.0195  0.2784  0.6548
 6460SOL    HW131016   2.761   1.938   3.201 -0.3938  0.4706 -0.4729
 6460SOL    HW231017   2.606   1.930   3.180 -0.0194  1.5833 -0.2417
 6461SOL     OW31018   2.851   2.545  13.973 -0.4406  0.6114  0.3686
 6461SOL    HW131019   2.800   2.464  13.967 -1.1139  1.0426  0.2458
 6461SOL    HW231020   2.810   2.596  14.043  0.7910  1.8442  0.2012
 6462SOL     OW31021   2.454   2.238  13.511  0.0020  0.1580  0.0899
 6462SOL    HW131022   2.412   2.319  13.482  0.7899  0.4430 -0.2617
 6462SOL    HW231023   2.386   2.177  13.483  0.4636 -0.3344  0.0549
 6463SOL     OW31024   4.112   2.334   8.630  0.0774 -1.0805  0.4302
 6463SOL    HW131025   4.080   2.250   8.661  1.9220 -2.5965 -1.8250
 6463SOL    HW231026   4.160   2.375   8.702 -1.3583 -1.1428  1.4225
 6464SOL     OW31027   2.425   4.009   7.359 -0.1909  0.1883 -0.2812
 6464SOL    HW131028   2.416   3.998   7.453  1.0651 -1.4196 -0.3335
 6464SOL    HW231029   2.332   4.016   7.338 -0.2432 -0.7485 -0.3825
 6465SOL     OW31030   1.817   2.191  16.665 -0.1103  0.0722  0.6361
 6465SOL    HW131031   1.826   2.170  16.573  2.9279  0.6854  0.8135
 6465SOL    HW231032   1.799   2.285  16.673  3.2255  0.6887  0.6080
 6466SOL     OW31033   2.053   4.652   2.212 -0.1079  0.0558 -0.4770
 6466SOL    HW131034   2.095   4.726   2.257  0.3684  0.5410 -1.7245
 6466SOL    HW231035   2.008   4.606   2.284  1.4585  0.0588  0.5110
 6467SOL     OW31036   3.507   0.917   7.524 -0.3622  0.1712 -0.1699
 6467SOL    HW131037   3.496   0.994   7.579  1.2697  1.0349 -1.0225
 6467SOL    HW231038   3.576   0.872   7.574  1.2583 -0.4576 -2.9470
 6468SOL     OW31039   2.250   0.456   3.317 -0.6104 -0.4118  0.4446
 6468SOL    HW131040   2.273   0.442   3.226 -2.7149  1.3915 -0.3658
 6468SOL    HW231041   2.205   0.373   3.335 -1.9187  0.6206  2.0401
 6469SOL     OW31042   3.553   2.021   7.659 -0.3864 -0.1129  0.0846
 6469SOL    HW131043   3.489   2.076   7.705  1.2238  0.2117  1.9539
 6469SOL    HW231044   3.498   1.982   7.591 -2.0576  2.1639  0.0942
 6470SOL     OW31045   2.934   1.215  15.427 -0.3336 -0.5571  0.0455
 6470SOL    HW131046   2.839   1.218  15.416 -0.6595 -3.1506  2.1441
 6470SOL    HW231047   2.938   1.174  15.513  3.1300 -1.4764 -0.5444
 6471SOL     OW31048   3.370   2.503   7.348  0.1666 -0.7019 -0.0122
 6471SOL    HW131049   3.463   2.504   7.327  0.5460 -1.8159  1.6524
 6471SOL    HW231050   3.368   2.545   7.434  0.7864 -0.4688 -0.1137
 6472SOL     OW31051   3.026   0.994  17.532  0.2014  0.4163 -0.5012
 6472SOL    HW131052   2.969   1.060  17.570  1.2990 -0.1475  2.1441
 6472SOL    HW231053   3.072   0.967  17.611 -0.4146 -0.0838 -0.3138
 6473SOL     OW31054   0.753   0.115   4.470  0.1260 -0.6014 -0.3643
 6473SOL    HW131055   0.773   0.209   4.468  2.7353 -1.1460 -0.1140
 6473SOL    HW231056   0.710   0.116   4.385  1.5519 -1.0345 -1.1055
 6474SOL     OW31057   1.387   2.067   8.992 -0.1298  0.2457  0.2486
 6474SOL    HW131058   1.316   2.004   8.978 -1.3774  1.5036  0.8670
 6474SOL    HW231059   1.330   2.141   9.014 -0.4440 -0.3055  1.2632
 6475SOL     OW31060   0.909   0.963   2.933  0.0337  0.1132 -0.1449
 6475SOL    HW131061   0.866   0.933   3.013  2.2691 -2.8723 -0.0669
 6475SOL    HW231062   0.977   0.896   2.924  0.4430  0.2250  2.2362
 6476SOL     OW31063   1.848   2.808   2.299 -0.0631  0.1908  0.0377
 6476SOL    HW131064   1.754   2.796   2.313  0.0953  0.8489  1.7090
 6476SOL    HW231065   1.853   2.897   2.264 -0.9608  0.8567  1.5928
 6477SOL     OW31066   1.629   0.423   2.810 -0.0673  0.0685  0.2986
 6477SOL    HW131067   1.642   0.467   2.894  0.4123  0.8066 -0.1543
 6477SOL    HW231068   1.641   0.494   2.746 -1.9812  0.1840  0.0621
 6478SOL     OW31069   1.111   4.399   1.546  0.2203 -0.2691 -0.2575
 6478SOL    HW131070   1.179   4.346   1.586  0.9784  0.3893 -0.6548
 6478SOL    HW231071   1.037   4.396   1.607  0.2353 -0.6804 -0.2599
 6479SOL     OW31072   1.770   1.287   1.826  0.4412 -0.3213  0.0488
 6479SOL    HW131073   1.682   1.326   1.834  0.7703  0.1876  1.1787
 6479SOL    HW231074   1.760   1.215   1.888  0.1127 -3.2103 -3.3903
 6480SOL     OW31075   1.161   2.451   5.405  0.3189  0.1713  0.1536
 6480SOL    HW131076   1.074   2.410   5.402  0.2763  0.2492  0.2846
 6480SOL    HW231077   1.223   2.383   5.430 -0.6807 -1.2645 -1.2186
 6481SOL     OW31078   3.272   3.806   8.723 -0.9347  0.5693  0.2760
 6481SOL    HW131079   3.329   3.804   8.800 -2.0971 -0.3138  1.1047
 6481SOL    HW231080   3.217   3.883   8.737  0.6982  1.4756  1.7117
 6482SOL     OW31081   2.747   0.322  14.826  0.4549 -0.0115  0.3085
 6482SOL    HW131082   2.664   0.344  14.869  0.3989 -1.7936  1.1064
 6482SOL    HW231083   2.779   0.245  14.872  2.0275  1.1779  1.1857
 6483SOL     OW31084   1.817   0.858   2.668 -0.2609 -0.6338  0.0978
 6483SOL    HW131085   1.836   0.847   2.761 -2.7569 -0.2004  0.6590
 6483SOL    HW231086   1.854   0.946   2.660  2.7351 -1.8196  1.2706
 6484SOL     OW31087   3.779   2.202   3.100  0.3293 -0.2142 -0.1664
 6484SOL    HW131088   3.760   2.197   3.194  1.3325  1.3799  0.1213
 6484SOL    HW231089   3.829   2.125   3.074  0.4144 -0.2636  0.1454
 6485SOL     OW31090   1.133   4.318   5.820 -0.2996 -0.9859  0.1653
 6485SOL    HW131091   1.225   4.329   5.845 -0.4863  0.6199  0.1800
 6485SOL    HW231092   1.131   4.308   5.725 -2.4639  1.8143 -0.0834
 6486SOL     OW31093   2.092   2.514  15.834 -0.3671 -0.4555  0.3397
 6486SOL    HW131094   2.138   2.432  15.849 -1.2319 -1.3639 -1.9362
 6486SOL    HW231095   2.067   2.547  15.920  0.0437 -0.6041  0.5148
 6487SOL     OW31096   1.778   3.330   8.789  0.4758  0.5718  0.5071
 6487SOL    HW131097   1.690   3.348   8.756  0.9630  1.6638 -0.1904
 6487SOL    HW231098   1.828   3.405   8.757  2.3905 -1.2482 -0.8242
 6488SOL     OW31099   3.086   2.576   4.258 -0.5909  0.5424  0.1062
 6488SOL    HW131100   3.047   2.511   4.200 -0.1473 -0.1729  0.6043
 6488SOL    HW231101   3.124   2.514   4.320  1.1602  1.1030 -0.3912
 6489SOL     OW31102   3.151   3.479  11.264 -0.0802  0.3190 -0.2686
 6489SOL    HW131103   3.185   3.517  11.184  0.5472  1.4066  0.5204
 6489SOL    HW231104   3.156   3.558  11.317  1.2011 -0.8763  1.3808
 6490SOL     OW31105   2.024   3.292   4.547  0.4539 -0.1570  0.4908
 6490SOL    HW131106   1.966   3.349   4.496  3.2533  2.0120 -0.2371
 6490SOL    HW231107   2.079   3.256   4.478 -3.5500 -0.0721 -2.7299
 6491SOL     OW31108   0.993   3.219   8.801 -0.2089  0.2668 -0.3749
 6491SOL    HW131109   1.078   3.217   8.846 -0.5990 -0.7998  0.3284
 6491SOL    HW231110   0.940   3.264   8.866  0.3379  1.2326 -0.6039
 6492SOL     OW31111   2.520   0.492   6.721  0.4701 -0.3174 -0.3151
 6492SOL    HW131112   2.479   0.424   6.774 -0.2810 -0.2293 -0.7799
 6492SOL    HW231113   2.550   0.441   6.646  4.1214 -0.8121  1.4593
 6493SOL     OW31114   1.335   0.103   2.548 -0.8353  0.0802 -0.1872
 6493SOL    HW131115   1.357   0.157   2.473  0.7074 -0.0386  0.1910
 6493SOL    HW231116   1.319   0.023   2.497  0.4179 -0.3745  0.1432
 6494SOL     OW31117   3.347   1.600   8.267  0.2520  0.1400  0.2545
 6494SOL    HW131118   3.398   1.678   8.247 -1.3682  0.6753 -1.8272
 6494SOL    HW231119   3.305   1.576   8.184  2.1401 -0.8711 -0.4291
 6495SOL     OW31120   2.282   3.320   8.471  0.8085 -0.3588 -0.3234
 6495SOL    HW131121   2.201   3.279   8.440 -0.3307  1.1735  0.6598
 6495SOL    HW231122   2.245   3.353   8.553  0.5639  2.3233 -1.5398
 6496SOL     OW31123   1.764   4.401   6.199 -0.4972  0.7462 -0.2845
 6496SOL    HW131124   1.852   4.402   6.160  0.9976 -0.3719  3.1429
 6496SOL    HW231125   1.773   4.327   6.258 -1.2407  1.0924  0.2542
 6497SOL     OW31126   3.013   4.433   4.327 -0.3713 -0.2572  0.2532
 6497SOL    HW131127   2.951   4.360   4.334 -0.2951 -0.5858 -2.3826
 6497SOL    HW231128   2.956   4.506   4.303  1.0000  1.2042  1.3942
 6498SOL     OW31129   3.870   0.504  13.074  0.6262 -0.2532  0.0372
 6498SOL    HW131130   3.901   0.574  13.132 -2.3741  0.9001  0.2596
 6498SOL    HW231131   3.922   0.521  12.995 -1.0971  1.2625 -0.7731
 6499SOL     OW31132   3.287   3.825   6.313 -0.2969 -0.0786 -0.0306
 6499SOL    HW131133   3.254   3.889   6.376  0.6238 -0.3936  0.7501
 6499SOL    HW231134   3.324   3.882   6.246  0.1831  0.1972  0.4722
 6500SOL     OW31135   1.230   4.284   7.821  0.2244  0.5661  0.1045
 6500SOL    HW131136   1.142   4.280   7.858  0.0220  0.8626 -0.3457
 6500SOL    HW231137   1.277   4.306   7.902  0.0462  0.2400  0.2949
 6501SOL     OW31138   1.026   0.369   7.373 -0.1075 -0.0747 -0.4991
 6501SOL    HW131139   0.938   0.358   7.411  1.0407 -0.3335  2.1198
 6501SOL    HW231140   1.077   0.359   7.454 -0.9040 -0.7637 -0.0753
 6502SOL     OW31141   4.694   0.225   2.968 -0.2485  0.6042  0.3506
 6502SOL    HW131142   4.687   0.137   3.004 -0.5268  0.0603 -0.9954
 6502SOL    HW231143   0.040   0.224   2.919 -0.0582  1.4800  0.6551
 6503SOL     OW31144   3.736   0.677   2.763 -0.2673 -0.1003 -0.2360
 6503SOL    HW131145   3.641   0.668   2.755 -0.4167 -0.2093  1.8300
 6503SOL    HW231146   3.766   0.611   2.700 -0.9635 -1.6262  1.0404
 6504SOL     OW31147   4.078   0.480  13.366 -0.0578  0.7061  0.2812
 6504SOL    HW131148   4.123   0.509  13.446 -0.0476  0.1880  0.4628
 6504SOL    HW231149   4.033   0.560  13.340  0.5603  0.3780 -1.7581
 6505SOL     OW31150   2.908   3.629   5.752 -0.2988 -0.1717 -0.2106
 6505SOL    HW131151   2.929   3.594   5.666  2.4326  2.9971 -0.8071
 6505SOL    HW231152   2.994   3.604   5.784 -0.6670 -0.7888  0.3149
 6506SOL     OW31153   0.740   3.780   0.909 -0.0367  0.2906 -0.0574
 6506SOL    HW131154   0.684   3.742   0.976  0.1838 -1.4102 -0.8366
 6506SOL    HW231155   0.823   3.740   0.932 -0.2835  1.0019  2.0559
 6507SOL     OW31156   1.829   2.913  11.327 -0.0962 -0.1303  0.2941
 6507SOL    HW131157   1.853   3.006  11.323 -0.5261  0.0108  1.0181
 6507SOL    HW231158   1.871   2.886  11.245  0.0918 -1.0888  0.7039
 6508SOL     OW31159   4.291   1.183   7.903  0.3550 -0.4711  0.0635
 6508SOL    HW131160   4.265   1.098   7.868 -2.0772 -0.1439  1.0960
 6508SOL    HW231161   4.272   1.240   7.829 -1.6546  0.4125  1.2536
 6509SOL     OW31162   2.309   3.433   3.322  0.1763  0.0222 -0.2541
 6509SOL    HW131163   2.322   3.508   3.264 -0.0747 -0.2715 -0.6936
 6509SOL    HW231164   2.382   3.454   3.381 -1.0805  0.1275  1.2782
 6510SOL     OW31165   4.442   1.230  10.726 -0.1075  0.2415 -0.1861
 6510SOL    HW131166   4.372   1.178  10.765 -1.6857  2.3893 -0.1352
 6510SOL    HW231167   4.441   1.317  10.766 -3.3165 -0.1002  0.5022
 6511SOL     OW31168   3.858   4.060   9.223 -0.5737 -0.1859  0.8753
 6511SOL    HW131169   3.863   3.964   9.227  1.3061 -0.0303  2.2649
 6511SOL    HW231170   3.918   4.097   9.288  1.0797 -0.2966 -0.5913
 6512SOL     OW31171   2.887   0.284   3.520  0.1054  0.0263  0.0271
 6512SOL    HW131172   2.977   0.304   3.545  0.6529 -1.2709 -0.9237
 6512SOL    HW231173   2.901   0.195   3.488 -0.5395 -0.1255  0.1598
 6513SOL     OW31174   0.155   3.687   4.731  0.3986  0.3889  0.2409
 6513SOL    HW131175   0.241   3.729   4.736  1.0263 -0.8683  0.0964
 6513SOL    HW231176   0.108   3.767   4.752  0.3408 -0.2074  2.3878
 6514SOL     OW31177   0.113   1.373   6.294  0.0754 -0.0249  0.1622
 6514SOL    HW131178   0.202   1.384   6.258 -1.0631  2.8090 -1.8134
 6514SOL    HW231179   0.117   1.283   6.325  2.6311 -0.3952 -1.2113
 6515SOL     OW31180   4.451   2.711   7.216  0.1009  0.1503 -0.2193
 6515SOL    HW131181   4.522   2.660   7.177  2.7104  1.1429  3.2916
 6515SOL    HW231182   4.445   2.676   7.305  0.3083  1.6323  0.3765
 6516SOL     OW31183   4.339   1.974  12.747  0.1447  0.4055  0.1313
 6516SOL    HW131184   4.333   2.066  12.718 -0.7282  0.8818  1.8078
 6516SOL    HW231185   4.320   1.938  12.661 -0.9478 -0.7202  0.8513
 6517SOL     OW31186   3.404   4.002   5.538 -1.0627  0.3992  0.2873
 6517SOL    HW131187   3.393   3.911   5.565 -0.0415  0.0852 -0.3238
 6517SOL    HW231188   3.357   4.050   5.605 -3.0265 -0.5368 -0.4059
 6518SOL     OW31189   2.131   1.099   8.469 -0.5065  0.3004 -0.0683
 6518SOL    HW131190   2.061   1.034   8.468 -0.7680  0.5399  1.5842
 6518SOL    HW231191   2.148   1.109   8.376 -0.3998  0.6580 -0.0107
 6519SOL     OW31192   3.649   1.218   3.596  0.2330  0.1638 -0.4252
 6519SOL    HW131193   3.719   1.175   3.548  0.1834 -1.4283  0.9332
 6519SOL    HW231194   3.574   1.161   3.578 -0.1303  1.0874 -1.8410
 6520SOL     OW31195   0.452   4.270   5.533 -0.0403 -0.1963 -0.3236
 6520SOL    HW131196   0.407   4.310   5.607 -3.1332 -1.2939 -1.6053
 6520SOL    HW231197   0.531   4.229   5.570 -0.1740 -0.9444 -0.8515
 6521SOL     OW31198   3.853   2.319   5.695 -0.3915  0.4983  0.1627
 6521SOL    HW131199   3.773   2.336   5.646  0.0762 -3.6591 -2.0251
 6521SOL    HW231200   3.874   2.408   5.723  2.3269 -0.6261  1.6620
 6522SOL     OW31201   4.076   0.432   7.070  0.8094 -0.7115 -0.3077
 6522SOL    HW131202   4.124   0.416   6.989 -1.2364 -1.2355 -1.4219
 6522SOL    HW231203   4.008   0.495   7.048  0.8949 -0.9024 -1.1187
 6523SOL     OW31204   1.181   2.275   8.300  0.4044  0.2015 -0.1038
 6523SOL    HW131205   1.270   2.257   8.271 -0.2289 -2.3407 -0.5257
 6523SOL    HW231206   1.193   2.303   8.390  0.4138 -0.4596  0.1019
 6524SOL     OW31207   2.940   4.001   7.051 -0.7496 -0.5143 -0.4017
 6524SOL    HW131208   2.979   3.932   7.104  1.9075  0.0374 -1.6260
 6524SOL    HW231209   2.901   4.045   7.127 -0.6589 -1.8353  0.4161
 6525SOL     OW31210   3.851   0.199   0.727 -0.4384  0.5609  0.1113
 6525SOL    HW131211   3.847   0.104   0.722 -2.8478  0.6678  0.1432
 6525SOL    HW231212   3.918   0.212   0.795 -1.3294 -0.7552  1.2326
 6526SOL     OW31213   4.680   0.798   8.619 -0.3880  0.7465 -0.0742
 6526SOL    HW131214   4.672   0.811   8.714 -1.1719 -2.2683  0.2664
 6526SOL    HW231215   4.664   0.884   8.580  1.4195  0.5052 -1.3639
 6527SOL     OW31216   0.875   4.576   4.926  0.3063 -0.2425 -0.0551
 6527SOL    HW131217   0.944   4.538   4.873  1.1819  0.2756  0.7129
 6527SOL    HW231218   0.828   4.627   4.860  0.9245 -0.6174 -0.7818
 6528SOL     OW31219   2.517   4.719  17.697 -0.0075  1.0160 -0.3390
 6528SOL    HW131220   2.458   0.034  17.641 -1.2690 -0.1146 -0.0582
 6528SOL    HW231221   2.463   4.640  17.697 -0.8779  1.6158 -0.2593
 6529SOL     OW31222   3.036   2.376   7.442  0.3411 -0.5341  0.0953
 6529SOL    HW131223   2.974   2.355   7.512  0.6913 -0.5504  0.3990
 6529SOL    HW231224   3.067   2.458   7.478 -0.2223 -0.5388  0.5869
 6530SOL     OW31225   3.978   2.072  13.323  0.2470  0.2674 -0.1193
 6530SOL    HW131226   3.937   1.997  13.367 -0.5343  0.6147 -0.2447
 6530SOL    HW231227   3.910   2.089  13.257  0.6289 -0.2863 -0.6604
 6531SOL     OW31228   2.180   2.640   6.075  0.3394  0.0165 -0.4195
 6531SOL    HW131229   2.160   2.552   6.107  1.3388  0.0970  0.4243
 6531SOL    HW231230   2.275   2.636   6.061  0.0552 -0.9932 -2.1143
 6532SOL     OW31231   2.084   2.227  16.594  0.3261  0.3985 -0.8536
 6532SOL    HW131232   2.048   2.283  16.663 -2.0527  0.3370 -2.0468
 6532SOL    HW231233   2.118   2.157  16.650  0.8847  0.9148 -0.5455
 6533SOL     OW31234   1.042   1.372   5.636  0.2369  0.4998 -0.5337
 6533SOL    HW131235   1.061   1.338   5.723  2.7755 -2.6382 -2.3285
 6533SOL    HW231236   1.097   1.322   5.576 -1.2764  0.1196 -1.6209
 6534SOL     OW31237   3.648   3.266   8.090 -0.6822 -0.2069 -0.0244
 6534SOL    HW131238   3.743   3.272   8.082 -0.5563 -0.3010  1.5071
 6534SOL    HW231239   3.622   3.347   8.045 -1.4804 -0.5989 -0.2802
 6535SOL     OW31240   3.073   1.516   7.437 -0.0539 -0.0283  0.1578
 6535SOL    HW131241   3.164   1.537   7.417 -0.0393  0.5508  0.8152
 6535SOL    HW231242   3.077   1.519   7.533 -1.3119 -1.4699  0.2628
 6536SOL     OW31243   0.859   0.517   9.032 -0.1115  0.6322 -0.0180
 6536SOL    HW131244   0.809   0.585   9.077 -2.2843  0.8608 -2.8073
 6536SOL    HW231245   0.789   0.460   9.000  1.0878 -0.8216 -0.0757
 6537SOL     OW31246   3.494   0.920  12.307 -0.4141 -1.1216  0.2646
 6537SOL    HW131247   3.465   0.835  12.340 -2.5574 -1.4134 -2.4020
 6537SOL    HW231248   3.415   0.948  12.260  0.5164  0.1926 -0.5205
 6538SOL     OW31249   2.496   1.731   1.765 -0.1578 -0.1336 -0.0428
 6538SOL    HW131250   2.416   1.736   1.712 -0.9792 -2.4248  0.9949
 6538SOL    HW231251   2.557   1.741   1.692 -1.6461  2.1429 -0.9674
 6539SOL     OW31252   4.452   0.386  12.868 -0.0028 -0.6942  0.0027
 6539SOL    HW131253   4.520   0.397  12.801  1.4426 -2.3275  1.1871
 6539SOL    HW231254   4.476   0.461  12.922  2.3552 -2.1902  1.0162
 6540SOL     OW31255   2.826   4.021   5.786 -0.5382  0.2194 -0.0123
 6540SOL    HW131256   2.903   4.046   5.735  0.0092 -0.2617  0.5820
 6540SOL    HW231257   2.764   4.013   5.714 -0.5468  2.8630 -0.2841
 6541SOL     OW31258   0.788   2.987  11.626  0.1579  0.0458 -0.5989
 6541SOL    HW131259   0.722   2.943  11.680 -0.5108 -0.3629 -1.7529
 6541SOL    HW231260   0.819   2.914  11.572  1.0958 -0.7796  1.0567
 6542SOL     OW31261   1.495   0.564  13.142 -0.4985  0.0499 -0.1270
 6542SOL    HW131262   1.442   0.494  13.181  0.1021 -1.6153 -2.3261
 6542SOL    HW231263   1.451   0.567  13.057  0.4714  0.5528 -0.6086
 6543SOL     OW31264   2.432   1.689   1.470  0.0427  0.3105 -0.2622
 6543SOL    HW131265   2.341   1.699   1.499 -0.2586 -1.4668 -0.5951
 6543SOL    HW231266   2.420   1.620   1.404  0.8672  1.2396 -1.3910
 6544SOL     OW31267   4.201   1.880   5.761 -0.1511 -0.5161  0.3576
 6544SOL    HW131268   4.288   1.903   5.729  0.0206 -3.2834 -1.1544
 6544SOL    HW231269   4.168   1.965   5.790  0.7577 -0.4843  1.2761
 6545SOL     OW31270   4.089   1.814   0.453  0.0813 -0.2218 -0.5452
 6545SOL    HW131271   4.107   1.730   0.496  0.4772 -0.1738 -0.6200
 6545SOL    HW231272   4.176   1.853   0.457 -0.9026  1.7520  1.4067
 6546SOL     OW31273   0.511   3.374  17.231 -0.1899  0.3639  0.1015
 6546SOL    HW131274   0.548   3.452  17.272  0.3056 -1.5791  3.2974
 6546SOL    HW231275   0.488   3.319  17.305 -0.2508  0.9132  0.4950
 6547SOL     OW31276   2.563   2.320   4.681  0.5633 -0.4412 -0.0376
 6547SOL    HW131277   2.542   2.412   4.664  1.1417 -0.5248 -1.1972
 6547SOL    HW231278   2.517   2.308   4.764 -0.2560 -1.6223 -0.6725
 6548SOL     OW31279   0.504   2.235  15.082 -0.0929  0.1688 -0.5711
 6548SOL    HW131280   0.536   2.247  14.992 -0.2842 -1.5799 -0.8852
 6548SOL    HW231281   0.482   2.142  15.086 -1.3704  0.4927 -0.0039
 6549SOL     OW31282   1.932   2.065   8.173  0.0565  0.4059  0.4074
 6549SOL    HW131283   1.969   1.978   8.187  1.2474  0.7655 -0.4771
 6549SOL    HW231284   1.908   2.048   8.082  0.2258  0.8080  0.2868
 6550SOL     OW31285   4.218   4.594   1.796 -0.2924 -0.6338 -0.3323
 6550SOL    HW131286   4.282   4.529   1.768 -0.9016 -0.9409 -1.0011
 6550SOL    HW231287   4.279   4.662   1.826  0.3438 -0.9250 -0.9835
 6551SOL     OW31288   4.139   2.855   5.533 -0.2536  0.2636 -0.1693
 6551SOL    HW131289   4.140   2.890   5.444 -1.3956  1.8364  0.4476
 6551SOL    HW231290   4.130   2.941   5.573 -0.2634  0.0391  0.3200
 6552SOL     OW31291   1.939   2.730   5.941 -0.0778  0.2507 -0.9169
 6552SOL    HW131292   1.910   2.776   6.019  0.5597 -1.1169  0.1282
 6552SOL    HW231293   2.033   2.728   5.961 -0.0363 -2.0562 -1.2628
 6553SOL     OW31294   0.854   0.922   6.283  0.3384 -0.2763 -0.0233
 6553SOL    HW131295   0.783   0.952   6.226  0.6050 -1.4263 -0.9793
 6553SOL    HW231296   0.912   0.883   6.218  2.6834  1.7368  0.8942
 6554SOL     OW31297   2.604   3.458  17.598 -0.1248  0.2018  0.1926
 6554SOL    HW131298   2.696   3.434  17.586 -0.0233  1.5483 -1.8688
 6554SOL    HW231299   2.598   3.553  17.586  2.8522  0.4333  0.3857
 6555SOL     OW31300   1.805   0.735   0.907  0.2858 -0.2541 -0.7047
 6555SOL    HW131301   1.886   0.708   0.951 -0.2308 -2.3783 -1.0815
 6555SOL    HW231302   1.734   0.713   0.967  0.2179  2.4390  0.1935
 6556SOL     OW31303   0.191   0.413   3.471  0.0121 -0.0398  0.2298
 6556SOL    HW131304   0.287   0.415   3.477  0.0365 -1.2276  0.2015
 6556SOL    HW231305   0.169   0.366   3.552  0.0697  0.1804  0.3734
 6557SOL     OW31306   1.341   3.818   2.877  0.2032  0.1776 -0.6003
 6557SOL    HW131307   1.270   3.818   2.942  0.5754  0.4565 -0.1915
 6557SOL    HW231308   1.352   3.913   2.872 -0.2987  0.2079 -1.2329
 6558SOL     OW31309   1.336   1.285   6.374 -0.6377  0.6354 -0.0650
 6558SOL    HW131310   1.376   1.204   6.342  1.0787  0.8038  1.6194
 6558SOL    HW231311   1.244   1.273   6.350 -0.6255 -0.8241  0.6052
 6559SOL     OW31312   3.341   2.618   7.021  0.9275  0.5988 -0.2647
 6559SOL    HW131313   3.324   2.695   6.967 -1.5926  0.4231  0.2902
 6559SOL    HW231314   3.418   2.647   7.070  0.5935  1.6876 -0.4028
 6560SOL     OW31315   2.882   0.622  17.538  0.2406  0.0149  0.2058
 6560SOL    HW131316   2.939   0.627  17.461 -0.3457  1.6161 -0.1253
 6560SOL    HW231317   2.949   0.636  17.605  0.2454  2.9053 -0.4206
 6561SOL     OW31318   3.984   0.560  15.245  0.2396  0.0008 -0.1853
 6561SOL    HW131319   3.988   0.474  15.288  0.7011 -0.1843 -0.6038
 6561SOL    HW231320   3.895   0.583  15.274  0.1057  0.8296 -1.2703
 6562SOL     OW31321   0.041   2.363   8.713 -0.0173 -0.2695  0.2701
 6562SOL    HW131322   4.700   2.363   8.657 -1.7252  2.3659  2.6370
 6562SOL    HW231323   0.113   2.322   8.665 -1.1387 -0.8702 -0.9051
 6563SOL     OW31324   4.263   0.493   2.680 -0.4731  0.6466  0.5543
 6563SOL    HW131325   4.320   0.444   2.620  0.6471  0.5802  1.6934
 6563SOL    HW231326   4.230   0.565   2.626  2.6176  1.0209 -0.8318
 6564SOL     OW31327   1.336   0.063   3.443  0.1082  0.2913  0.6725
 6564SOL    HW131328   1.418   0.070   3.395  0.9084  1.6598  2.2390
 6564SOL    HW231329   1.322   0.149   3.483 -0.6697  1.0881 -1.3412
 6565SOL     OW31330   4.621   4.164   6.439  0.3507  0.1034  0.0236
 6565SOL    HW131331   4.612   4.068   6.441  0.8182  0.0471 -0.3206
 6565SOL    HW231332   4.702   4.177   6.389  0.1302 -0.2732 -0.4327
 6566SOL     OW31333   1.481   2.465   1.096  0.4240 -0.3743 -0.5175
 6566SOL    HW131334   1.514   2.412   1.168  1.0772  2.0935  1.0000
 6566SOL    HW231335   1.544   2.537   1.096  1.4355 -1.2496  1.0172
 6567SOL     OW31336   3.673   1.830   1.441 -0.4166 -0.3025 -0.2426
 6567SOL    HW131337   3.612   1.876   1.498 -1.2237  0.5256 -1.7899
 6567SOL    HW231338   3.636   1.851   1.356 -0.9746 -0.2071  0.0220
 6568SOL     OW31339   0.372   3.825   2.059 -0.0045  0.3785  0.4821
 6568SOL    HW131340   0.413   3.739   2.052  0.5391  0.6855 -0.0662
 6568SOL    HW231341   0.354   3.847   1.968 -0.3319 -0.1838  0.4094
 6569SOL     OW31342   2.493   2.729   2.560 -0.2226 -0.0509 -0.0440
 6569SOL    HW131343   2.423   2.664   2.568  0.4537 -0.6825  0.7138
 6569SOL    HW231344   2.476   2.795   2.627  0.0194 -0.1493  0.1151
 6570SOL     OW31345   4.702   3.303   2.283 -0.1396 -0.6312 -0.0227
 6570SOL    HW131346   4.726   3.385   2.326  1.3138 -0.2831 -1.4795
 6570SOL    HW231347   4.689   3.251   2.362 -0.4842 -1.4610 -0.6308
 6571SOL     OW31348   1.186   1.228   3.026 -0.3707 -0.3151 -0.0341
 6571SOL    HW131349   1.208   1.181   2.946  1.0924  1.2306 -0.5413
 6571SOL    HW231350   1.204   1.157   3.087 -1.6800  0.2357  1.0156
 6572SOL     OW31351   2.761   0.464  16.425  0.2097 -0.1314 -0.1248
 6572SOL    HW131352   2.716   0.483  16.507  2.0060 -0.3868  0.9384
 6572SOL    HW231353   2.826   0.535  16.422 -0.9237  1.0134  2.3120
 6573SOL     OW31354   0.299   0.567   2.345 -0.1232  0.2236  0.4389
 6573SOL    HW131355   0.385   0.606   2.361  0.2755 -0.2312 -0.5886
 6573SOL    HW231356   0.290   0.572   2.250 -4.4536 -0.8558  0.7823
 6574SOL     OW31357   0.499   0.204   2.298  0.3402 -0.6841  0.3068
 6574SOL    HW131358   0.483   0.205   2.392 -0.8781 -0.1723  0.0980
 6574SOL    HW231359   0.410   0.189   2.265  0.0936  0.0072  0.6664
 6575SOL     OW31360   3.303   3.690  15.662  0.1454  0.0005 -0.2506
 6575SOL    HW131361   3.330   3.687  15.570 -0.3048 -1.2065 -0.3468
 6575SOL    HW231362   3.371   3.743  15.702 -1.8965  2.0337  0.5319
 6576SOL     OW31363   0.150   3.699   3.804 -0.4878  0.1544 -0.1804
 6576SOL    HW131364   0.098   3.770   3.842  0.5119 -0.6024  2.6851
 6576SOL    HW231365   0.193   3.667   3.884 -0.0149  0.9108 -0.1337
 6577SOL     OW31366   2.118   4.092   2.112  0.4286  0.4774  0.1940
 6577SOL    HW131367   2.195   4.056   2.069  0.6854  1.4066 -0.1184
 6577SOL    HW231368   2.082   4.140   2.037  1.7776  2.2534  0.6783
 6578SOL     OW31369   2.379   1.388   6.771 -0.2516  0.1972 -0.0156
 6578SOL    HW131370   2.360   1.468   6.722 -0.4273 -1.4816 -2.6710
 6578SOL    HW231371   2.344   1.409   6.857  1.0173 -1.4212  0.8916
 6579SOL     OW31372   1.100   4.269   3.829  0.0173  0.2798 -0.2144
 6579SOL    HW131373   1.078   4.319   3.750 -0.3670 -1.5434 -1.2938
 6579SOL    HW231374   1.032   4.300   3.889  0.7391 -0.7846  1.1536
 6580SOL     OW31375   1.908   4.292   0.219 -0.2167  0.2208 -0.1374
 6580SOL    HW131376   1.987   4.323   0.177  1.1525 -0.1593  2.1710
 6580SOL    HW231377   1.905   4.373   0.269  0.3268  0.2329 -0.1341
 6581SOL     OW31378   1.352   3.181  12.495  0.2346  0.1497 -0.0384
 6581SOL    HW131379   1.323   3.109  12.440  2.0011 -1.5157  1.2170
 6581SOL    HW231380   1.443   3.193  12.468  0.4804 -0.2709  0.6060
 6582SOL     OW31381   1.464   0.468   4.128  0.6694  0.2605 -1.0913
 6582SOL    HW131382   1.373   0.439   4.127  0.3584  1.1587  2.6560
 6582SOL    HW231383   1.465   0.530   4.201  1.5198  0.5079 -1.3165
 6583SOL     OW31384   2.025   4.645   3.723 -0.1636  0.2546 -0.0068
 6583SOL    HW131385   1.930   4.635   3.730 -0.2277  0.9192  0.0170
 6583SOL    HW231386   2.061   4.593   3.796  1.8015  1.4784 -0.0931
 6584SOL     OW31387   2.842   4.619  17.370  0.0562  0.5086 -0.4931
 6584SOL    HW131388   2.799   4.535  17.355 -0.9179  0.7016  1.1068
 6584SOL    HW231389   2.773   4.684  17.353  0.7265  1.0269 -1.2123
 6585SOL     OW31390   3.861   1.642  15.903 -0.8826 -0.6199 -0.3614
 6585SOL    HW131391   3.806   1.565  15.916  0.3791 -1.5083 -0.2213
 6585SOL    HW231392   3.932   1.609  15.846  3.5801  4.4847  2.2793
 6586SOL     OW31393   1.863   0.541   0.563 -0.9905 -0.2544 -0.3516
 6586SOL    HW131394   1.818   0.570   0.483 -3.2391  2.3413  1.8528
 6586SOL    HW231395   1.937   0.489   0.530  0.5120  0.4086  1.9739
 6587SOL     OW31396   3.827   1.753   8.129 -0.1800  0.0958 -0.4697
 6587SOL    HW131397   3.906   1.805   8.118  0.1400 -0.0837  0.9218
 6587SOL    HW231398   3.761   1.815   8.098  1.0125  0.9499 -1.2954
 6588SOL     OW31399   1.293   3.715   5.229  0.1849 -0.5323 -0.0844
 6588SOL    HW131400   1.324   3.673   5.149 -0.2729 -0.9356 -0.0471
 6588SOL    HW231401   1.205   3.680   5.233 -0.9124  2.2482  0.2995
 6589SOL     OW31402   1.486   4.496   4.614 -0.1698  0.0072  0.3053
 6589SOL    HW131403   1.534   4.484   4.532  0.1654 -0.1808  0.5302
 6589SOL    HW231404   1.513   4.420   4.666  2.3068  0.2241 -0.7016
 6590SOL     OW31405   2.724   3.391  12.027 -0.3814 -0.0293  0.0777
 6590SOL    HW131406   2.786   3.355  11.964 -0.1075 -1.1634  0.9905
 6590SOL    HW231407   2.754   3.347  12.107  1.3633 -0.4535 -0.8310
 6591SOL     OW31408   1.512   0.909   6.766 -0.1778  0.1145 -0.1710
 6591SOL    HW131409   1.586   0.887   6.709 -1.5158 -2.1350 -1.0525
 6591SOL    HW231410   1.472   0.822   6.773  0.9606 -0.5537 -1.9135
 6592SOL     OW31411   0.410   4.258  10.452 -0.0383  0.1327  0.4669
 6592SOL    HW131412   0.468   4.199  10.499 -1.8557 -1.5138  0.6519
 6592SOL    HW231413   0.456   4.282  10.372 -0.5506  2.1180  0.7686
 6593SOL     OW31414   0.330   2.154   6.472  0.0103  0.9621 -0.4169
 6593SOL    HW131415   0.310   2.232   6.420  1.0011  1.7842  0.4381
 6593SOL    HW231416   0.285   2.096   6.410 -0.6043  3.2466 -2.1128
 6594SOL     OW31417   1.206   2.823   3.914 -0.0112 -0.1647  0.1971
 6594SOL    HW131418   1.200   2.852   3.823  1.5170 -4.0394 -1.1466
 6594SOL    HW231419   1.297   2.794   3.907  0.5583  1.6236  0.3698
 6595SOL     OW31420   3.070   1.992   6.723 -0.0877 -0.2760 -0.5135
 6595SOL    HW131421   3.039   1.902   6.714  1.2153 -0.9280  1.5531
 6595SOL    HW231422   3.004   2.015   6.788 -1.5939 -1.4073 -1.6422
 6596SOL     OW31423   4.512   0.947   6.504  0.0590  0.5526  0.0168
 6596SOL    HW131424   4.605   0.962   6.518  0.7125 -2.2119 -1.2930
 6596SOL    HW231425   4.462   1.029   6.508  0.5161  0.9138 -1.7238
 6597SOL     OW31426   3.141   2.946   1.219 -0.2929  0.3771 -0.1220
 6597SOL    HW131427   3.094   3.012   1.271 -2.2963 -0.4371 -0.8999
 6597SOL    HW231428   3.137   2.874   1.283 -0.0674  1.7797  1.4837
 6598SOL     OW31429   1.794   1.380   8.399 -0.1982 -0.0535  0.0736
 6598SOL    HW131430   1.741   1.302   8.378  1.7022 -1.1928 -0.4512
 6598SOL    HW231431   1.848   1.378   8.320 -0.3493 -1.6792  0.0080
 6599SOL     OW31432   2.274   4.648  15.639 -0.1043 -0.4576 -0.1371
 6599SOL    HW131433   2.239   4.642  15.728 -2.6893  2.6490 -0.9686
 6599SOL    HW231434   2.258   4.560  15.607 -0.7817 -0.8231  1.2240
 6600SOL     OW31435   2.480   1.409   8.409 -0.0397 -0.2470 -0.0479
 6600SOL    HW131436   2.452   1.449   8.327  1.9429  3.0936  0.9092
 6600SOL    HW231437   2.571   1.438   8.405 -0.5318  1.4168  0.8141
 6601SOL     OW31438   1.194   1.587   2.264  0.4320  0.3107 -0.6230
 6601SOL    HW131439   1.138   1.652   2.307  1.3752  0.4418  0.4098
 6601SOL    HW231440   1.161   1.598   2.175  0.1613 -0.7146 -0.6434
 6602SOL     OW31441   3.280   0.540   5.467 -0.8168  0.0523  0.2908
 6602SOL    HW131442   3.281   0.509   5.558 -0.4234  1.7537  0.8620
 6602SOL    HW231443   3.194   0.581   5.467 -1.0072 -0.3542 -2.7039
 6603SOL     OW31444   4.608   3.620  14.990  0.2642 -0.3704  0.0087
 6603SOL    HW131445   4.653   3.593  14.910  1.1324 -1.8930  1.0307
 6603SOL    HW231446   4.646   3.706  15.009  0.4486 -1.2904  3.7490
 6604SOL     OW31447   2.615   0.937   5.226 -0.2290 -0.4989  0.3769
 6604SOL    HW131448   2.632   0.868   5.162 -0.7291 -2.2713  2.1575
 6604SOL    HW231449   2.587   1.001   5.161 -0.8001 -0.7951  0.3270
 6605SOL     OW31450   0.962   1.500   2.079  0.4738  0.4561 -0.0940
 6605SOL    HW131451   0.906   1.468   2.008  0.9255  1.4583 -0.8922
 6605SOL    HW231452   0.897   1.532   2.142 -0.6921 -1.0119 -0.5455
 6606SOL     OW31453   0.089   3.161   8.193  0.5322 -0.3916  0.4246
 6606SOL    HW131454   0.127   3.247   8.177  0.7517 -0.5772 -0.0626
 6606SOL    HW231455   0.168   3.107   8.192  0.5848 -0.3105  0.1516
 6607SOL     OW31456   4.284   2.970   9.110  0.6183  0.1513 -0.0319
 6607SOL    HW131457   4.287   2.878   9.138  2.8007  0.4094  0.6086
 6607SOL    HW231458   4.355   2.976   9.046  1.7133 -0.3203  1.1261
 6608SOL     OW31459   3.874   3.247   3.179 -0.1321 -0.5792  0.0790
 6608SOL    HW131460   3.854   3.166   3.133  0.1885  0.6786 -2.2691
 6608SOL    HW231461   3.963   3.263   3.148  0.1956 -0.4695  1.0820
 6609SOL     OW31462   0.532   1.226   3.826  0.3071 -0.4630 -0.1833
 6609SOL    HW131463   0.624   1.232   3.799  0.1621 -1.7676 -1.0125
 6609SOL    HW231464   0.519   1.131   3.817  0.1042 -0.3044 -1.5033
 6610SOL     OW31465   0.832   4.343  11.268  0.2238 -0.0753  0.3441
 6610SOL    HW131466   0.739   4.351  11.246 -0.3661 -1.1046  2.4481
 6610SOL    HW231467   0.830   4.285  11.344 -0.3642 -0.9438 -0.3310
 6611SOL     OW31468   3.366   3.774   1.155  0.3356 -0.2605  0.1911
 6611SOL    HW131469   3.321   3.837   1.213  2.2193  0.4753  0.8559
 6611SOL    HW231470   3.445   3.822   1.129  0.2628 -0.5278 -0.5215
 6612SOL     OW31471   1.509   2.268   5.596  0.4117 -0.8422 -0.0968
 6612SOL    HW131472   1.513   2.203   5.665  2.0943 -0.4701  0.1561
 6612SOL    HW231473   1.515   2.344   5.654  1.2993 -1.2909  0.3934
 6613SOL     OW31474   4.481   0.758   8.025 -0.5266  0.0477  0.2459
 6613SOL    HW131475   4.468   0.728   8.115 -2.6701  0.3581  0.0276
 6613SOL    HW231476   4.466   0.679   7.973 -0.5703  0.1866  0.0441
 6614SOL     OW31477   4.257   2.311  17.497 -0.4456  1.0362  0.4574
 6614SOL    HW131478   4.328   2.365  17.463 -0.1568  0.3605 -0.0285
 6614SOL    HW231479   4.269   2.228  17.450 -1.3014  0.7747  0.6803
 6615SOL     OW31480   2.617   2.220   6.618  0.1458 -0.2968  0.2000
 6615SOL    HW131481   2.691   2.208   6.677 -0.2076 -0.0417  0.6952
 6615SOL    HW231482   2.598   2.126   6.608 -1.7340 -0.0382  1.3727
 6616SOL     OW31483   0.778   1.303   7.922  0.0837 -0.6090 -0.5092
 6616SOL    HW131484   0.733   1.273   7.843 -0.4717  0.9190 -0.7798
 6616SOL    HW231485   0.865   1.322   7.887  0.7214 -0.7652  0.9900
 6617SOL     OW31486   0.301   4.628  11.988  0.0708 -0.3076  0.3114
 6617SOL    HW131487   0.288   4.609  12.080  0.5759  1.6941  0.7997
 6617SOL    HW231488   0.222   4.591  11.949  0.0516  2.1731 -2.0418
 6618SOL     OW31489   3.302   4.257   8.519  0.0307  0.0596 -0.5278
 6618SOL    HW131490   3.344   4.172   8.508  0.6920  0.2851  0.2225
 6618SOL    HW231491   3.332   4.281   8.607  1.0937  0.9331 -1.1263
 6619SOL     OW31492   2.237   3.514  17.353  0.3732  0.0790  0.2076
 6619SOL    HW131493   2.209   3.604  17.370 -0.1443  0.2023 -1.3451
 6619SOL    HW231494   2.177   3.467  17.410  1.8287 -1.0024  0.8364
 6620SOL     OW31495   1.686   0.817   8.226  0.1266 -0.3992  0.1952
 6620SOL    HW131496   1.652   0.732   8.197 -2.1835  1.4080 -2.4043
 6620SOL    HW231497   1.671   0.810   8.320  0.6782 -1.6157  0.1909
 6621SOL     OW31498   4.112   0.095   7.824  0.0442  0.1413 -0.6186
 6621SOL    HW131499   4.111   0.071   7.917 -0.6336 -1.1799 -0.9693
 6621SOL    HW231500   4.047   0.032   7.793 -0.4871  0.3504  0.0809
 6622SOL     OW31501   3.250   2.131  16.880 -0.2713  0.2573  0.0124
 6622SOL    HW131502   3.229   2.085  16.961 -1.4886 -1.2821 -1.1502
 6622SOL    HW231503   3.216   2.063  16.821  0.0912  0.9515 -0.9964
 6623SOL     OW31504   4.723   3.356   4.661  0.1110 -0.0471 -1.0580
 6623SOL    HW131505   0.016   3.410   4.588 -1.9986 -0.7033 -2.4080
 6623SOL    HW231506   0.037   3.380   4.738 -1.0881  1.5095 -0.7500
 6624SOL     OW31507   2.313   2.385   8.555  0.0280  0.2658  0.1818
 6624SOL    HW131508   2.375   2.312   8.559  0.4975  0.7043  0.9276
 6624SOL    HW231509   2.340   2.438   8.630  1.6005 -0.8559  0.4202
 6625SOL     OW31510   3.945   1.137   7.454  0.1842  0.0289 -0.7533
 6625SOL    HW131511   3.934   1.139   7.549  0.9541  1.4984 -0.6957
 6625SOL    HW231512   3.855   1.143   7.421 -0.0604  0.7865  0.0541
 6626SOL     OW31513   1.355   4.386  15.058 -0.2793 -0.1990 -0.3244
 6626SOL    HW131514   1.364   4.382  15.153 -2.5048 -1.6275 -0.1784
 6626SOL    HW231515   1.444   4.378  15.022 -1.0098 -2.3482 -1.6953
 6627SOL     OW31516   3.443   3.816   9.258  0.2001  0.0515 -0.3383
 6627SOL    HW131517   3.511   3.749   9.264  0.7624  0.9047  2.6063
 6627SOL    HW231518   3.468   3.889   9.316  0.8222  1.1556 -1.9715
 6628SOL     OW31519   1.600   0.621  17.459  0.0771  0.3365  0.4481
 6628SOL    HW131520   1.505   0.612  17.470  0.2242 -0.9802  0.7382
 6628SOL    HW231521   1.637   0.564  17.527 -0.7591 -1.7354 -0.8341
 6629SOL     OW31522   3.054   3.591  10.372 -0.4464 -0.1971 -0.0190
 6629SOL    HW131523   2.959   3.584  10.376 -0.4682  0.0211 -0.1157
 6629SOL    HW231524   3.057   3.668  10.315 -2.2052 -0.6266 -0.6801
 6630SOL     OW31525   1.515   2.273   2.505  0.2327  0.7296 -0.3957
 6630SOL    HW131526   1.483   2.182   2.504 -0.9239  1.1489 -1.5849
 6630SOL    HW231527   1.445   2.309   2.559  0.2987  2.5856 -1.5718
 6631SOL     OW31528   2.616   1.852  12.391  0.2124  0.2697  0.4401
 6631SOL    HW131529   2.630   1.946  12.390  1.0654  0.1308 -0.0784
 6631SOL    HW231530   2.521   1.839  12.401  0.1137  0.1158 -0.7102
 6632SOL     OW31531   0.911   2.308   2.645 -0.0040 -0.6160 -0.5916
 6632SOL    HW131532   0.835   2.350   2.684  1.5396 -0.1953  1.9980
 6632SOL    HW231533   0.958   2.376   2.595 -0.5388 -0.4639 -0.8843
 6633SOL     OW31534   1.241   2.223  15.694 -0.0426 -0.5426 -0.1579
 6633SOL    HW131535   1.263   2.135  15.725  0.3600 -0.3021  0.2325
 6633SOL    HW231536   1.325   2.238  15.651 -0.3297 -2.1414 -1.2790
 6634SOL     OW31537   1.757   0.818   9.634  0.3974 -0.0202  0.6853
 6634SOL    HW131538   1.841   0.789   9.599  0.2453 -1.1083  1.2103
 6634SOL    HW231539   1.768   0.913   9.646  1.5710 -0.0554 -0.1514
 6635SOL     OW31540   2.081   1.233   1.998 -0.3792 -0.1659 -0.3119
 6635SOL    HW131541   2.139   1.267   1.929 -1.7939 -3.8671 -3.2933
 6635SOL    HW231542   1.996   1.253   1.961  0.2077 -1.9752 -2.6943
 6636SOL     OW31543   1.272   4.718   5.371  0.2497 -0.1442 -0.0202
 6636SOL    HW131544   1.216   4.733   5.295 -0.0607 -2.0608 -0.1682
 6636SOL    HW231545   1.210   4.728   5.444  0.0410 -1.1674 -0.0605
 6637SOL     OW31546   2.795   0.609   1.380 -0.3547  0.6795 -0.6633
 6637SOL    HW131547   2.834   0.631   1.296  0.1235  0.2431 -0.5584
 6637SOL    HW231548   2.812   0.686   1.435 -1.1665 -0.9938  1.9657
 6638SOL     OW31549   0.421   0.358  16.297 -0.1890  0.8553 -0.2659
 6638SOL    HW131550   0.360   0.432  16.301 -1.7265 -0.4475  0.1952
 6638SOL    HW231551   0.363   0.296  16.253 -0.5711  0.9641  0.0948
 6639SOL     OW31552   4.610   2.452   5.322 -0.1437 -0.3142  0.8522
 6639SOL    HW131553   4.705   2.454   5.335 -0.3295  0.6317  2.0294
 6639SOL    HW231554   4.592   2.537   5.363 -0.6173 -0.3697  0.7594
 6640SOL     OW31555   2.832   3.919   8.980  0.6007  0.0316 -0.2635
 6640SOL    HW131556   2.763   3.986   8.977  0.9734  0.3961 -0.6908
 6640SOL    HW231557   2.861   3.912   9.071 -1.0739  0.9987  0.3518
 6641SOL     OW31558   3.273   4.585   7.085 -1.0926 -0.4053 -1.0173
 6641SOL    HW131559   3.239   4.587   7.174  0.1566  0.1037 -0.5467
 6641SOL    HW231560   3.276   4.490   7.079  0.3316 -0.4497  0.2570
 6642SOL     OW31561   1.189   4.142   2.111 -0.4366  0.2830  0.1990
 6642SOL    HW131562   1.097   4.167   2.102 -0.6592 -0.4863  0.3290
 6642SOL    HW231563   1.189   4.095   2.195  0.5225 -1.2978 -0.6766
 6643SOL     OW31564   1.843   1.947   3.551 -0.6550  0.0901  0.3765
 6643SOL    HW131565   1.885   1.946   3.637 -0.7246 -0.1947  0.4086
 6643SOL    HW231566   1.762   1.997   3.566 -1.0490 -0.8579  1.4963
 6644SOL     OW31567   1.738   3.633  10.713  0.4193 -0.4364 -0.0105
 6644SOL    HW131568   1.783   3.654  10.631 -1.2792 -0.9202 -1.0583
 6644SOL    HW231569   1.809   3.656  10.772 -0.8976 -1.0381  1.8028
 6645SOL     OW31570   0.024   3.194   4.081  0.4138 -0.1324 -0.2595
 6645SOL    HW131571   0.119   3.212   4.080  0.6516 -1.3382  1.7541
 6645SOL    HW231572   4.731   3.283   4.100 -1.0527 -0.6031 -0.3598
 6646SOL     OW31573   1.369   3.129  11.710  0.5524  0.2212 -0.2874
 6646SOL    HW131574   1.416   3.156  11.631 -0.0190  1.8199 -0.0753
 6646SOL    HW231575   1.288   3.175  11.688  1.8357  1.9648 -1.2972
 6647SOL     OW31576   1.281   2.898   5.546 -0.1417  0.0899 -0.2105
 6647SOL    HW131577   1.373   2.924   5.537 -0.2194  0.1010 -0.9934
 6647SOL    HW231578   1.284   2.812   5.589 -1.9437  0.2475  0.2087
 6648SOL     OW31579   4.505   0.096   4.312  0.4833 -0.0679  0.1083
 6648SOL    HW131580   4.593   0.132   4.300  0.8176 -1.1900 -0.8443
 6648SOL    HW231581   4.497   0.105   4.407  0.9417  0.3372  0.1106
 6649SOL     OW31582   4.529   2.370   9.174  0.2236  0.0709 -0.3625
 6649SOL    HW131583   4.468   2.380   9.101 -0.3186 -1.2443 -0.0941
 6649SOL    HW231584   4.577   2.287   9.169  1.5160  0.8205 -0.2807
 6650SOL     OW31585   4.320   2.966   5.964 -0.0237 -0.3585 -0.6503
 6650SOL    HW131586   4.239   2.970   5.913  0.4979  1.8921 -1.3208
 6650SOL    HW231587   4.371   2.907   5.909 -0.1250 -0.4691 -0.6267
 6651SOL     OW31588   2.766   1.129   6.099 -0.2340  0.0672  0.2660
 6651SOL    HW131589   2.673   1.142   6.115  0.0629  1.9983  0.4592
 6651SOL    HW231590   2.793   1.091   6.183  0.3980  0.7828  0.3882
 6652SOL     OW31591   2.557   0.733   9.862  0.1250  0.5736  0.5155
 6652SOL    HW131592   2.495   0.661   9.853  0.9442 -0.0779  0.1280
 6652SOL    HW231593   2.493   0.787   9.814 -2.1102 -0.1782  2.6484
 6653SOL     OW31594   3.456   3.465   6.032 -0.1922 -0.1493  0.0573
 6653SOL    HW131595   3.444   3.558   6.012  2.2680  0.5304  1.7049
 6653SOL    HW231596   3.551   3.461   6.046 -0.2028  1.1592  0.5721
 6654SOL     OW31597   1.078   0.895   6.954  0.1833  0.0655  0.2261
 6654SOL    HW131598   1.074   0.838   7.030  0.0049 -1.4310 -0.9108
 6654SOL    HW231599   0.997   0.945   6.962  0.1851  0.1579 -0.3157
 6655SOL     OW31600   1.326   0.124   6.195  0.4224 -0.1283  0.2359
 6655SOL    HW131601   1.308   0.055   6.259 -0.2910  1.9538  2.2883
 6655SOL    HW231602   1.420   0.112   6.184  0.8927  1.7783  2.2452
 6656SOL     OW31603   2.513   4.220   5.826  0.0713 -0.1232  0.4899
 6656SOL    HW131604   2.496   4.128   5.845 -0.8870 -0.0686 -0.0885
 6656SOL    HW231605   2.541   4.253   5.912  0.7205 -0.4100  0.3898
 6657SOL     OW31606   1.960   1.372   5.026  0.1592 -0.2283 -0.8195
 6657SOL    HW131607   1.998   1.294   4.987 -0.8293 -0.7539 -0.7434
 6657SOL    HW231608   2.036   1.425   5.050  0.1390 -1.2983  1.6441
 6658SOL     OW31609   3.781   2.259   5.008 -0.1128  0.5195 -0.3382
 6658SOL    HW131610   3.832   2.178   5.002  1.0626  1.3688 -1.8367
 6658SOL    HW231611   3.719   2.254   4.935  0.8868  0.6871 -1.1925
 6659SOL     OW31612   0.545   3.448   5.656  0.2217 -0.0299 -0.4295
 6659SOL    HW131613   0.516   3.386   5.589 -1.2357 -0.2673  0.4249
 6659SOL    HW231614   0.629   3.472   5.615 -0.0422  2.5026  0.4841
 6660SOL     OW31615   1.676   2.433   6.128 -0.1701  0.5103 -0.5585
 6660SOL    HW131616   1.659   2.405   6.218  0.5932  0.5069 -0.4110
 6660SOL    HW231617   1.636   2.520   6.123 -2.3849 -0.4740  0.0958
 6661SOL     OW31618   2.048   3.892   6.425 -0.5345 -0.2326 -0.1378
 6661SOL    HW131619   2.059   3.837   6.347 -3.3346  1.5965 -1.8182
 6661SOL    HW231620   2.140   3.901   6.450 -0.6246  0.8531 -0.2073
 6662SOL     OW31621   3.304   1.765   0.179  0.0326  0.1259  0.1752
 6662SOL    HW131622   3.300   1.670   0.192 -3.1440  0.2736  0.4595
 6662SOL    HW231623   3.269   1.799   0.261 -1.0801 -1.4118  0.3547
 6663SOL     OW31624   1.879   1.390   9.248  0.0477  0.0765  0.1697
 6663SOL    HW131625   1.813   1.408   9.181  0.7479  2.0723 -0.0035
 6663SOL    HW231626   1.876   1.295   9.247 -3.0418  0.1671  0.0996
 6664SOL     OW31627   3.719   1.629   8.719 -0.1114  0.8025  0.5373
 6664SOL    HW131628   3.643   1.654   8.771 -0.8393 -2.1918  0.9550
 6664SOL    HW231629   3.698   1.536   8.709  2.8472  0.2568 -0.5278
 6665SOL     OW31630   4.326   4.564  15.810 -0.7199 -0.0279 -0.1519
 6665SOL    HW131631   4.331   4.562  15.906 -0.8000  0.1954 -0.1418
 6665SOL    HW231632   4.281   4.481  15.792  0.2582 -0.3561 -1.0479
 6666SOL     OW31633   3.305   0.855   8.969 -0.2288  0.2311  0.1443
 6666SOL    HW131634   3.210   0.847   8.957 -0.0553 -0.4022 -0.7748
 6666SOL    HW231635   3.308   0.942   9.008  0.9507  0.5174 -0.5789
 6667SOL     OW31636   1.790   3.451   4.700 -0.8865 -0.4039 -0.4516
 6667SOL    HW131637   1.742   3.369   4.692 -0.9595 -0.4725  0.5931
 6667SOL    HW231638   1.810   3.452   4.794 -1.5143  0.8089 -0.3279
 6668SOL     OW31639   2.181   2.516   7.486 -0.2240  0.3205  0.1528
 6668SOL    HW131640   2.115   2.550   7.545  1.6972 -0.0621  2.5615
 6668SOL    HW231641   2.263   2.553   7.519  0.8097 -1.3896 -0.4904
 6669SOL     OW31642   3.849   0.360  14.915  0.0541  0.0939  0.2152
 6669SOL    HW131643   3.756   0.352  14.937 -0.2047 -0.2892 -1.0047
 6669SOL    HW231644   3.855   0.449  14.881  0.0374 -1.0359 -2.7098
 6670SOL     OW31645   3.919   2.037  13.966 -0.6215 -0.6040 -0.1372
 6670SOL    HW131646   3.833   2.045  13.924  0.6777  3.4544 -1.9449
 6670SOL    HW231647   3.965   1.988  13.897  1.5970  1.0544  0.1830
 6671SOL     OW31648   1.000   2.903   1.657  0.1418 -0.1803  0.0450
 6671SOL    HW131649   1.082   2.878   1.700 -0.2981 -2.5264 -0.4934
 6671SOL    HW231650   0.993   2.845   1.581 -0.6136  0.4579 -0.3754
 6672SOL     OW31651   2.286   1.470   8.680 -0.4246 -0.3913 -0.2892
 6672SOL    HW131652   2.281   1.381   8.715  0.6581  0.2682  1.5517
 6672SOL    HW231653   2.306   1.473   8.587 -0.0031 -0.0506 -0.1867
 6673SOL     OW31654   3.729   4.612   0.957  0.5277 -0.3295  0.5946
 6673SOL    HW131655   3.751   4.611   0.863  5.1209 -0.4885  1.6874
 6673SOL    HW231656   3.721   4.708   0.961  0.1337 -0.2851 -0.9923
 6674SOL     OW31657   4.159   0.900   9.158 -0.0508 -0.6868 -0.4245
 6674SOL    HW131658   4.217   0.951   9.102  1.3655 -0.5705  1.1339
 6674SOL    HW231659   4.074   0.942   9.147 -0.1591 -0.7496  0.1496
 6675SOL     OW31660   0.344   0.345   4.256 -0.0794  0.2107  0.7236
 6675SOL    HW131661   0.430   0.349   4.298 -1.5649 -0.7850  3.9356
 6675SOL    HW231662   0.368   0.408   4.189 -0.4702 -1.2186 -0.7522
 6676SOL     OW31663   3.871   4.171   2.425 -0.1787 -0.1860 -0.0040
 6676SOL    HW131664   3.879   4.225   2.347  0.7701  0.3660  0.4728
 6676SOL    HW231665   3.796   4.117   2.403  0.7193 -1.3471 -0.2318
 6677SOL     OW31666   1.126   0.085   3.115  0.0913  0.4418 -0.0990
 6677SOL    HW131667   1.194   0.018   3.118 -0.5669 -0.1366  2.4210
 6677SOL    HW231668   1.178   0.163   3.133 -0.4865  0.1665  2.8414
 6678SOL     OW31669   3.773   4.226   8.544 -0.0785 -0.2091  0.4411
 6678SOL    HW131670   3.846   4.283   8.518 -0.5790  0.0166 -0.4753
 6678SOL    HW231671   3.713   4.244   8.471 -0.6507  0.6643  1.1212
 6679SOL     OW31672   2.332   2.243   9.005 -0.0120 -0.1561  0.1561
 6679SOL    HW131673   2.274   2.316   9.026  2.3477  1.8774 -0.4967
 6679SOL    HW231674   2.416   2.288   9.012  0.3253 -0.9338  1.2011
 6680SOL     OW31675   1.462   0.442   6.793  0.1892  0.3889  0.0095
 6680SOL    HW131676   1.553   0.414   6.804  0.0979  0.5923  1.2188
 6680SOL    HW231677   1.406   0.381   6.840 -0.2045  0.5831 -0.2128
 6681SOL     OW31678   0.056   1.503   6.055 -1.0563 -0.0462 -0.5581
 6681SOL    HW131679   0.064   1.440   6.127 -0.8121  1.3080  0.5961
 6681SOL    HW231680   0.002   1.457   5.990  0.7197 -0.3064 -1.8599
 6682SOL     OW31681   3.003   0.680   1.634 -0.0622  0.9312 -0.2117
 6682SOL    HW131682   2.923   0.630   1.653  0.4542  1.2375  2.7450
 6682SOL    HW231683   3.066   0.628   1.683 -0.9615 -0.3324 -0.4034
 6683SOL     OW31684   3.075   2.649   6.735 -0.3200  0.1478  0.4993
 6683SOL    HW131685   3.156   2.700   6.737 -0.8051  0.9800 -0.6400
 6683SOL    HW231686   3.020   2.721   6.767 -0.9502 -0.0166 -0.2157
 6684SOL     OW31687   1.233   1.668   4.452 -0.6540 -0.0284 -0.4386
 6684SOL    HW131688   1.304   1.605   4.467  0.5614  1.6852  0.9390
 6684SOL    HW231689   1.165   1.605   4.431 -1.6453  0.9209 -0.0545
 6685SOL     OW31690   0.748   3.971   4.597 -0.4396  0.0826  0.2206
 6685SOL    HW131691   0.729   4.014   4.514  1.6773  1.4080  0.4313
 6685SOL    HW231692   0.822   3.914   4.574  0.4903  1.9729 -1.4582
 6686SOL     OW31693   0.853   3.718   7.091 -0.5481 -0.2618  0.5428
 6686SOL    HW131694   0.766   3.686   7.116 -0.6797  0.5890  1.2162
 6686SOL    HW231695   0.841   3.704   6.997 -0.8948 -1.4939  0.7701
 6687SOL     OW31696   1.141   2.584   8.616  0.2327  0.7443 -0.0193
 6687SOL    HW131697   1.139   2.607   8.524  1.2781  0.1849 -0.1833
 6687SOL    HW231698   1.168   2.667   8.655  0.8157  0.3658  0.3968
 6688SOL     OW31699   4.474   2.550  12.973  0.0329  0.3243  0.0324
 6688SOL    HW131700   4.414   2.570  12.901 -0.0335  2.3278  0.6419
 6688SOL    HW231701   4.552   2.599  12.945 -0.9111  2.6394  1.4582
 6689SOL     OW31702   2.274   1.662   8.948  0.3244 -0.9966 -0.0167
 6689SOL    HW131703   2.328   1.585   8.966 -0.5270 -1.5565  0.1116
 6689SOL    HW231704   2.325   1.705   8.879  1.4789 -1.0778  0.7905
 6690SOL     OW31705   2.567   4.667  15.673 -0.4039 -0.0137  0.2742
 6690SOL    HW131706   2.597   4.667  15.582  1.8997 -0.0121  1.0381
 6690SOL    HW231707   2.474   4.656  15.656 -1.0549  0.6123  3.5994
 6691SOL     OW31708   3.955   4.117   5.641  0.0951 -0.2380 -0.6563
 6691SOL    HW131709   4.027   4.165   5.600  1.0490  0.5887  1.9826
 6691SOL    HW231710   3.961   4.144   5.732  4.5110  0.5214 -1.1293
 6692SOL     OW31711   0.013   4.736   7.467 -0.7732 -0.2544 -0.2879
 6692SOL    HW131712   0.083   4.715   7.405 -0.3110 -1.6824  0.7041
 6692SOL    HW231713   0.053   0.005   7.554 -0.5256  2.0071 -0.5583
 6693SOL     OW31714   2.648   2.150  17.010  0.2362 -0.0558 -0.2840
 6693SOL    HW131715   2.742   2.165  17.002  0.5418 -2.2549 -0.9973
 6693SOL    HW231716   2.612   2.220  17.064 -0.4438 -1.1193  0.6461
 6694SOL     OW31717   0.272   4.375   6.967  0.0771 -0.1047 -0.2379
 6694SOL    HW131718   0.310   4.446   7.019 -2.3282  1.1612 -0.1977
 6694SOL    HW231719   0.202   4.363   7.032 -0.6041  1.3374 -0.7024
 6695SOL     OW31720   1.639   3.470   5.839 -0.3419 -0.1215 -0.0835
 6695SOL    HW131721   1.599   3.386   5.815  2.7016 -2.0651  1.6078
 6695SOL    HW231722   1.598   3.482   5.924 -1.1491  1.4061 -0.6741
 6696SOL     OW31723   1.982   0.526   8.461  0.3690 -0.3453 -0.0075
 6696SOL    HW131724   1.916   0.569   8.515 -1.9865 -3.1822 -0.6149
 6696SOL    HW231725   1.939   0.442   8.446  0.6023  0.0525 -2.8947
 6697SOL     OW31726   0.248   0.784   9.252  0.0168  0.3362 -0.4702
 6697SOL    HW131727   0.282   0.849   9.313 -1.5834  1.4517 -0.7822
 6697SOL    HW231728   0.204   0.851   9.199  0.5270  0.6229 -0.5308
 6698SOL     OW31729   0.881   3.649   4.406  0.1502  0.2781 -1.5434
 6698SOL    HW131730   0.931   3.590   4.349 -0.8487 -1.0620 -1.0268
 6698SOL    HW231731   0.863   3.595   4.482 -0.9485 -0.7705 -2.5484
 6699SOL     OW31732   2.567   4.691   8.301  0.1295  0.0781  0.5555
 6699SOL    HW131733   2.635   4.624   8.313 -1.2356 -1.4093 -0.1139
 6699SOL    HW231734   2.505   4.642   8.248  0.1461  1.3689 -0.6762
 6700SOL     OW31735   1.116   0.626   5.657  0.6958  0.0150  0.3008
 6700SOL    HW131736   1.100   0.716   5.628  0.5494 -0.3815 -0.8444
 6700SOL    HW231737   1.183   0.634   5.725  0.4964  2.1042  0.2587
 6701SOL     OW31738   2.637   3.314  10.379  0.3200  0.1741  0.0004
 6701SOL    HW131739   2.591   3.380  10.431 -0.3408  0.1013 -0.4870
 6701SOL    HW231740   2.610   3.231  10.419 -2.0357  1.0078  0.1659
 6702SOL     OW31741   2.252   3.746   5.345 -0.1352  0.5272  0.8446
 6702SOL    HW131742   2.283   3.808   5.279  1.1763  2.3285  3.1741
 6702SOL    HW231743   2.268   3.659   5.307 -1.3786  0.6299  0.0857
 6703SOL     OW31744   1.461   1.609   0.737  0.8314 -0.2983  0.0781
 6703SOL    HW131745   1.434   1.700   0.739 -0.7971 -0.8242  2.1581
 6703SOL    HW231746   1.487   1.593   0.646  1.5038  3.4092 -0.3677
 6704SOL     OW31747   3.935   4.418  10.631  0.9841  0.1466  0.1529
 6704SOL    HW131748   3.890   4.476  10.693 -0.0196  0.2592 -0.6815
 6704SOL    HW231749   3.885   4.337  10.620  1.5162 -0.1142 -0.3246
 6705SOL     OW31750   2.214   4.494   6.871 -0.0173  0.4425  0.3022
 6705SOL    HW131751   2.177   4.583   6.869 -0.0173  0.4616  1.4455
 6705SOL    HW231752   2.143   4.451   6.822  0.5702 -0.7049  0.4740
 6706SOL     OW31753   3.790   4.124   6.143  0.2237  0.2258 -0.2913
 6706SOL    HW131754   3.861   4.165   6.192  0.1283 -1.1865  1.0241
 6706SOL    HW231755   3.721   4.190   6.136  0.1841  0.3319  1.2279
 6707SOL     OW31756   2.982   4.299   2.087 -0.2649 -0.0036  0.0029
 6707SOL    HW131757   2.936   4.268   2.166 -2.1285  0.2113 -1.0095
 6707SOL    HW231758   2.952   4.388   2.070  0.2471  0.8094  3.3641
 6708SOL     OW31759   4.228   2.491   8.843  0.7116  0.4609  0.3765
 6708SOL    HW131760   4.240   2.584   8.862  0.5608  0.2465  1.4997
 6708SOL    HW231761   4.236   2.434   8.919 -0.8550 -1.7230 -1.0653
 6709SOL     OW31762   3.970   1.787   6.555 -0.1777 -0.5771  0.2550
 6709SOL    HW131763   3.973   1.702   6.510 -1.8322 -1.3730  1.6520
 6709SOL    HW231764   4.022   1.840   6.495  0.2079 -0.6151  0.5517
 6710SOL     OW31765   3.200   1.811   3.166 -0.3682  0.1915 -0.4018
 6710SOL    HW131766   3.247   1.890   3.141 -0.3280  0.4257  0.4081
 6710SOL    HW231767   3.153   1.840   3.244  0.9389  1.1493  0.0319
 6711SOL     OW31768   2.671   0.119  13.758 -0.1625 -0.4517  0.2761
 6711SOL    HW131769   2.609   0.178  13.802 -0.9548 -0.9098 -0.2249
 6711SOL    HW231770   2.720   0.101  13.838 -0.3450  1.6249  0.8661
 6712SOL     OW31771   4.594   2.452  14.368  0.2954 -0.2425  0.5363
 6712SOL    HW131772   4.556   2.396  14.300 -0.4272  1.2014 -0.2444
 6712SOL    HW231773   4.688   2.437  14.371  0.7041  1.9583 -1.4904
 6713SOL     OW31774   0.419   3.017  11.149 -0.2570  0.4874  0.1676
 6713SOL    HW131775   0.426   2.956  11.223 -1.0449 -1.9667 -1.7708
 6713SOL    HW231776   0.349   2.970  11.105  1.0352  2.2249 -3.7512
 6714SOL     OW31777   2.583   4.551   7.584 -0.6866 -0.4439 -0.1639
 6714SOL    HW131778   2.677   4.532   7.587 -0.5068  0.2386 -1.5119
 6714SOL    HW231779   2.559   4.462   7.557 -1.6249 -0.1934 -0.1421
 6715SOL     OW31780   0.168   0.379   5.874 -0.5303  0.5200  0.2274
 6715SOL    HW131781   0.129   0.294   5.895  0.9405  0.3868  2.3320
 6715SOL    HW231782   0.187   0.416   5.960  0.5219 -0.4265  0.3965
 6716SOL     OW31783   2.656   4.083  17.551 -0.0994  0.0870 -0.3447
 6716SOL    HW131784   2.720   4.045  17.611 -0.5766  0.3204  0.3122
 6716SOL    HW231785   2.663   4.174  17.578  0.2985  0.3879 -1.4468
 6717SOL     OW31786   0.616   2.002   7.711  0.0011 -0.2840  0.4796
 6717SOL    HW131787   0.629   2.075   7.651  2.4137 -0.4140  0.8528
 6717SOL    HW231788   0.523   2.012   7.729 -0.5172 -2.1723 -1.1875
 6718SOL     OW31789   3.364   0.475   7.720 -0.7300 -0.3894 -0.2481
 6718SOL    HW131790   3.299   0.535   7.684 -0.6182  1.2565  2.2441
 6718SOL    HW231791   3.447   0.522   7.715 -0.8158 -0.1984  0.0989
 6719SOL     OW31792   1.075   0.670  15.671 -0.8597  0.1307  0.2138
 6719SOL    HW131793   1.042   0.658  15.760  0.9784  1.5419  1.0917
 6719SOL    HW231794   0.999   0.701  15.622 -1.0324  0.3191  0.6031
 6720SOL     OW31795   2.771   3.530   2.352  0.0654  0.2107  0.0886
 6720SOL    HW131796   2.700   3.561   2.408 -0.6132 -0.0643 -0.6107
 6720SOL    HW231797   2.735   3.446   2.326  1.6079 -1.0264  1.9184
 6721SOL     OW31798   0.467   1.143   4.857  0.9001  0.0834  0.0043
 6721SOL    HW131799   0.419   1.167   4.936  2.5199 -0.0091  1.0324
 6721SOL    HW231800   0.409   1.092   4.801  0.3703  1.3987 -0.6681
 6722SOL     OW31801   0.698   1.208   8.160 -0.2139 -0.5736  0.4132
 6722SOL    HW131802   0.708   1.219   8.065  0.2611 -0.0477  0.5245
 6722SOL    HW231803   0.608   1.177   8.173 -0.5261 -0.4305 -1.3250
 6723SOL     OW31804   1.046   2.760   0.933 -0.2449 -0.0256 -0.3296
 6723SOL    HW131805   1.128   2.750   0.884  1.1325  1.2578  1.7263
 6723SOL    HW231806   1.040   2.675   0.977  1.9568 -0.8685 -1.6607
 6724SOL     OW31807   1.335   2.040   3.960 -0.3386  0.1234 -0.0583
 6724SOL    HW131808   1.427   2.065   3.946  0.5724 -2.4941  1.0461
 6724SOL    HW231809   1.294   2.073   3.880 -1.5278  0.2291  0.5958
 6725SOL     OW31810   1.588   4.214   7.446 -0.0714  0.0116 -0.7239
 6725SOL    HW131811   1.567   4.256   7.363 -0.7820  1.9164  0.3929
 6725SOL    HW231812   1.507   4.231   7.495  0.8417  0.8513  0.5311
 6726SOL     OW31813   2.388   2.725   5.697 -0.1255 -0.1284 -0.0829
 6726SOL    HW131814   2.461   2.784   5.714 -0.5212  0.3192  0.0506
 6726SOL    HW231815   2.422   2.691   5.615  4.0131  0.1089  1.5269
 6727SOL     OW31816   0.429   3.630   8.305  0.3968 -0.6512  0.0261
 6727SOL    HW131817   0.498   3.573   8.339  0.5892  0.2010  1.0853
 6727SOL    HW231818   0.413   3.589   8.220 -0.7352  0.3742 -0.2530
 6728SOL     OW31819   0.136   1.128   7.519 -0.1244  0.5440  0.2899
 6728SOL    HW131820   0.129   1.111   7.613 -1.4245 -1.0425 -0.0902
 6728SOL    HW231821   0.048   1.165   7.508  0.8682  1.8483 -3.2831
 6729SOL     OW31822   1.035   4.000   8.747 -0.7731  1.0483  0.0977
 6729SOL    HW131823   0.973   4.070   8.725  0.3703  2.2107  0.5636
 6729SOL    HW231824   0.981   3.928   8.777 -1.8275  1.6013 -0.4692
 6730SOL     OW31825   3.959   1.091   3.144 -0.0711 -0.5387 -0.0800
 6730SOL    HW131826   3.874   1.132   3.125  0.7380  0.2192 -2.0983
 6730SOL    HW231827   3.951   0.996   3.148 -1.5504 -0.4337 -0.4077
 6731SOL     OW31828   2.410   0.439   2.178 -0.2576  0.3396 -0.0819
 6731SOL    HW131829   2.422   0.514   2.237 -2.7151  0.4725  0.2547
 6731SOL    HW231830   2.468   0.373   2.215 -1.0477  0.6921  1.8114
 6732SOL     OW31831   2.785   3.145   4.110 -0.5450  0.2760 -0.3374
 6732SOL    HW131832   2.740   3.060   4.112 -1.0559  0.5945  1.8166
 6732SOL    HW231833   2.876   3.120   4.096 -1.0942 -1.8168 -0.2891
 6733SOL     OW31834   0.283   1.124  14.458 -0.3777 -0.1652  0.1701
 6733SOL    HW131835   0.215   1.114  14.392  0.1254  2.8417 -0.8194
 6733SOL    HW231836   0.235   1.166  14.530 -0.2936 -0.1031  0.1907
 6734SOL     OW31837   4.659   4.027   8.575 -0.3964  0.1480  0.1537
 6734SOL    HW131838   4.688   4.105   8.622  0.6501 -1.9960  3.0258
 6734SOL    HW231839   4.727   4.016   8.509  0.3261 -0.7624  1.0521
 6735SOL     OW31840   4.209   0.416   8.088 -0.1755 -0.0702  0.1124
 6735SOL    HW131841   4.268   0.346   8.059 -0.2987 -0.4956  0.8834
 6735SOL    HW231842   4.131   0.366   8.113  0.7488 -1.5114  0.1358
 6736SOL     OW31843   0.426   0.544  11.883  0.5009 -0.3492  0.2640
 6736SOL    HW131844   0.446   0.555  11.976  3.9420  0.8805 -0.6400
 6736SOL    HW231845   0.339   0.584  11.876  1.6296  1.0996 -5.2716
 6737SOL     OW31846   3.337   1.996   3.984 -0.0015 -0.2005  0.2852
 6737SOL    HW131847   3.362   2.040   4.066 -0.6207  0.1940  0.2591
 6737SOL    HW231848   3.416   2.017   3.933 -0.7053 -0.6612 -0.9851
 6738SOL     OW31849   3.863   0.843   9.138 -0.7025  0.6073  0.6603
 6738SOL    HW131850   3.803   0.780   9.178  0.0311 -1.3819 -1.3605
 6738SOL    HW231851   3.866   0.910   9.206 -0.5086 -0.5330  1.7746
 6739SOL     OW31852   4.646   1.341   5.259  0.3511 -0.1584 -0.0329
 6739SOL    HW131853   4.623   1.340   5.166 -1.0374 -3.0760  0.3454
 6739SOL    HW231854   4.561   1.338   5.302  0.0633 -1.0360 -0.6762
 6740SOL     OW31855   1.116   3.378  13.155  0.0800  0.5707 -0.3301
 6740SOL    HW131856   1.038   3.326  13.135 -1.6376  2.8322  0.6231
 6740SOL    HW231857   1.094   3.467  13.129  0.3429  0.6690 -0.2165
 6741SOL     OW31858   4.528   3.515  13.311 -0.2517  1.0920  0.1903
 6741SOL    HW131859   4.520   3.433  13.360 -0.0055  1.9300  1.6348
 6741SOL    HW231860   4.462   3.568  13.355  0.1690  0.6795  1.3243
 6742SOL     OW31861   1.634   0.685   4.550  0.4382 -0.2386  0.5685
 6742SOL    HW131862   1.710   0.698   4.606 -0.0600  0.1448  1.1653
 6742SOL    HW231863   1.657   0.593   4.535 -1.5983 -0.1456 -3.2190
 6743SOL     OW31864   2.993   1.768   3.625 -0.1862  0.2745  0.1617
 6743SOL    HW131865   3.087   1.753   3.637 -0.4786  0.1348  2.2964
 6743SOL    HW231866   2.970   1.822   3.701  2.8846 -2.1169  2.8487
 6744SOL     OW31867   2.084   2.901  13.117  0.2688 -0.1196  0.0450
 6744SOL    HW131868   2.061   2.818  13.157  0.9066 -0.0345  0.5850
 6744SOL    HW231869   1.997   2.927  13.088  2.0725  1.9142 -3.6163
 6745SOL     OW31870   1.675   0.293   7.039 -0.4174 -0.2529 -0.1545
 6745SOL    HW131871   1.737   0.220   7.044  0.3561  0.3118 -1.3977
 6745SOL    HW231872   1.588   0.254   7.043 -0.4672 -0.1443 -0.1779
 6746SOL     OW31873   4.210   1.989   8.384 -0.1669  0.5941  0.3261
 6746SOL    HW131874   4.223   2.083   8.369  0.5293  0.0079 -2.8577
 6746SOL    HW231875   4.295   1.968   8.422  0.3058  1.9364  0.0402
 6747SOL     OW31876   3.939   3.574   5.620  0.0373 -0.9388 -0.0870
 6747SOL    HW131877   3.982   3.657   5.600  0.6661 -1.2043  0.1998
 6747SOL    HW231878   3.971   3.563   5.709 -0.4691  0.7199  0.3008
 6748SOL     OW31879   0.587   3.922   6.828 -0.6134  0.1244  0.2586
 6748SOL    HW131880   0.539   3.982   6.883  0.2775 -0.3300  1.5340
 6748SOL    HW231881   0.605   3.971   6.747 -0.6403  2.1132  1.4674
 6749SOL     OW31882   4.415   0.166  17.149  0.4977  0.3401 -0.3622
 6749SOL    HW131883   4.323   0.146  17.165  0.0639  1.2892 -1.6758
 6749SOL    HW231884   4.415   0.248  17.099  1.5880 -0.2504 -1.3334
 6750SOL     OW31885   0.964   3.763  16.678  0.5847  0.3859 -0.1121
 6750SOL    HW131886   0.969   3.794  16.768 -1.3223 -0.2308  0.2085
 6750SOL    HW231887   1.045   3.805  16.650 -0.3428  1.5901 -1.0028
 6751SOL     OW31888   3.191   2.355   7.224  0.2268 -0.0633 -0.0181
 6751SOL    HW131889   3.137   2.365   7.303  0.5206  1.0381  0.0306
 6751SOL    HW231890   3.263   2.410   7.253  1.7192 -1.3239 -1.3514
 6752SOL     OW31891   1.177   4.724  15.651  0.4129 -0.0558 -0.4176
 6752SOL    HW131892   1.163   4.704  15.743  0.2089  0.0012 -0.4358
 6752SOL    HW231893   1.084   4.729  15.630  0.6966  2.7354 -1.0822
 6753SOL     OW31894   4.525   2.965   7.163 -0.1669 -0.2611 -0.6453
 6753SOL    HW131895   4.521   2.877   7.201  0.3656 -0.9374 -2.1678
 6753SOL    HW231896   4.516   3.025   7.237  1.8851 -0.0487 -0.5636
 6754SOL     OW31897   1.089   0.718  17.390  0.1477 -0.2356  0.3481
 6754SOL    HW131898   1.019   0.656  17.370 -0.3947  0.4921  0.0057
 6754SOL    HW231899   1.041   0.773  17.452 -0.1878 -1.9606  1.6194
 6755SOL     OW31900   3.549   0.177   4.399  0.2132 -0.0909  0.4269
 6755SOL    HW131901   3.599   0.254   4.373 -0.4930 -0.0273 -0.7582
 6755SOL    HW231902   3.616   0.114   4.423 -0.2615  0.1373  2.3381
 6756SOL     OW31903   0.625   0.046   5.709 -0.1895  0.1369 -0.4789
 6756SOL    HW131904   0.565   4.721   5.751  1.0524 -0.7055  0.0848
 6756SOL    HW231905   0.569   0.083   5.641 -1.1719  1.7410  1.2068
 6757SOL     OW31906   1.733   3.118   8.439 -0.4300  0.3989 -0.0197
 6757SOL    HW131907   1.761   3.053   8.374 -1.8582  1.2486 -1.4882
 6757SOL    HW231908   1.663   3.069   8.483 -0.7219  1.1095  0.3031
 6758SOL     OW31909   4.097   3.967  11.471 -0.3589  0.0895 -0.4073
 6758SOL    HW131910   4.047   3.916  11.407 -1.3694  0.6258 -0.0383
 6758SOL    HW231911   4.177   3.915  11.475 -1.6965 -1.8058  1.4265
 6759SOL     OW31912   1.957   3.808   0.427 -0.7947  0.0170 -0.1326
 6759SOL    HW131913   1.940   3.894   0.467 -0.1817 -0.2388  0.6870
 6759SOL    HW231914   1.952   3.827   0.333 -0.4031  2.0416  0.2503
 6760SOL     OW31915   3.003   2.886   1.502 -0.4358  0.5218 -0.4798
 6760SOL    HW131916   2.931   2.865   1.442 -1.2096 -1.5654  1.1717
 6760SOL    HW231917   3.080   2.843   1.464 -0.4683 -0.0576  0.1166
 6761SOL     OW31918   1.138   2.874   7.056  0.3659  0.7768  0.0814
 6761SOL    HW131919   1.092   2.796   7.088  2.2293 -0.3356  0.0264
 6761SOL    HW231920   1.116   2.941   7.121  1.7480  0.7704  0.5456
 6762SOL     OW31921   2.862   2.403   4.389 -0.5063 -0.0500  0.0333
 6762SOL    HW131922   2.898   2.490   4.370 -1.9289  0.9190  1.7210
 6762SOL    HW231923   2.779   2.446   4.367 -0.5222  0.8134  1.6843
 6763SOL     OW31924   4.153   1.316  10.967  0.0046 -0.4613  0.0583
 6763SOL    HW131925   4.206   1.265  11.028  2.7151  0.2589 -1.7063
 6763SOL    HW231926   4.121   1.380  11.031  0.5240  1.1015 -1.2486
 6764SOL     OW31927   4.159   0.173   8.437  0.0354 -0.2983  0.5643
 6764SOL    HW131928   4.083   0.177   8.380 -0.3790  1.6829  1.2623
 6764SOL    HW231929   4.132   0.234   8.505  0.5188 -0.5167  0.9586
 6765SOL     OW31930   4.626   3.901   5.788  0.0573 -0.0170 -0.0588
 6765SOL    HW131931   4.718   3.892   5.813  0.5785  0.6815 -1.7987
 6765SOL    HW231932   4.632   3.842   5.713  0.3339 -0.4916  0.3351
 6766SOL     OW31933   2.770   1.907  17.435  0.0059  0.2322  0.3658
 6766SOL    HW131934   2.864   1.909  17.448  0.2005 -1.7191 -0.9029
 6766SOL    HW231935   2.760   1.991  17.389  1.9019  0.5056  0.4594
 6767SOL     OW31936   3.120   0.500   1.803 -0.1399  0.5832  0.2560
 6767SOL    HW131937   3.081   0.506   1.890 -2.6356  0.9915 -0.9014
 6767SOL    HW231938   3.075   0.419   1.779  1.8664 -0.0077 -1.5463
 6768SOL     OW31939   1.907   2.244   5.079  0.4946 -0.2566 -0.0651
 6768SOL    HW131940   1.857   2.319   5.047 -2.2960 -2.1508 -0.1141
 6768SOL    HW231941   1.831   2.185   5.078  1.1512 -1.0985 -0.4059
 6769SOL     OW31942   2.212   3.959  15.426 -0.2467  0.1244  0.3566
 6769SOL    HW131943   2.258   3.881  15.395 -0.8549  0.3001 -0.9825
 6769SOL    HW231944   2.234   3.949  15.518  1.1714  1.0848  0.1346
 6770SOL     OW31945   3.775   0.612   5.407  0.2096 -0.3027  0.3869
 6770SOL    HW131946   3.742   0.698   5.431 -0.6993 -0.5410 -0.0195
 6770SOL    HW231947   3.850   0.637   5.352 -0.9869 -1.7530 -1.9456
 6771SOL     OW31948   3.153   3.258  10.367 -0.2205  0.4983  0.3747
 6771SOL    HW131949   3.159   3.169  10.332 -1.4501  1.1890 -1.5853
 6771SOL    HW231950   3.080   3.287  10.313  0.1360 -0.2360 -0.5095
 6772SOL     OW31951   0.821   1.282   7.391  0.5732 -0.3428 -0.3690
 6772SOL    HW131952   0.779   1.366   7.371 -0.3364 -0.7159 -0.0031
 6772SOL    HW231953   0.763   1.221   7.346 -2.1091  1.0274  1.2851
 6773SOL     OW31954   1.855   1.517   6.039  0.4724 -0.4535  0.2477
 6773SOL    HW131955   1.766   1.505   6.072  0.3293 -2.4417 -0.8783
 6773SOL    HW231956   1.874   1.611   6.047 -3.1024  0.2121  0.8305
 6774SOL     OW31957   4.040   0.067  12.719  0.1786  0.1790  0.1910
 6774SOL    HW131958   4.100   0.141  12.725  0.2534  0.1673 -0.4003
 6774SOL    HW231959   4.093   4.724  12.726  2.4458  1.8965  2.4728
 6775SOL     OW31960   4.444   2.333   5.592 -0.0048  0.0802 -0.1338
 6775SOL    HW131961   4.424   2.250   5.548  1.2574 -0.3969  0.1859
 6775SOL    HW231962   4.502   2.360   5.521  0.4659  1.6590  0.8567
 6776SOL     OW31963   3.695   0.544  13.912 -0.0883 -0.1473  0.6765
 6776SOL    HW131964   3.740   0.493  13.980 -0.0628 -2.0557 -0.7578
 6776SOL    HW231965   3.767   0.586  13.865 -0.2141  0.5709  1.1298
 6777SOL     OW31966   3.364   2.913   0.020 -0.5641 -0.0327 -0.7732
 6777SOL    HW131967   3.276   2.883   0.041 -0.5531  0.5538  0.1112
 6777SOL    HW231968   3.411   2.839   0.057  2.3292  2.7309  1.0826
 6778SOL     OW31969   0.657   0.718   9.412  0.3572  0.1993 -0.5514
 6778SOL    HW131970   0.604   0.793   9.438 -1.1374 -0.8995 -0.4291
 6778SOL    HW231971   0.639   0.722   9.319 -1.1185  0.3179 -0.2507
 6779SOL     OW31972   2.753   3.904  10.847 -0.2172  0.0483 -0.3328
 6779SOL    HW131973   2.799   3.986  10.864  1.6989 -0.9249 -0.8270
 6779SOL    HW231974   2.687   3.933  10.783 -1.3162 -0.7703  0.4174
 6780SOL     OW31975   2.105   0.848   3.697  0.9219 -0.3289  0.3383
 6780SOL    HW131976   2.125   0.910   3.627  0.3677  1.8974  2.1462
 6780SOL    HW231977   2.135   0.762   3.670  3.9002  1.1546 -1.0718
 6781SOL     OW31978   0.487   3.156   1.767  0.5099 -0.2926 -0.7748
 6781SOL    HW131979   0.449   3.238   1.736 -0.3289  0.1831  1.5149
 6781SOL    HW231980   0.424   3.125   1.832  1.2244 -0.2457 -0.0542
 6782SOL     OW31981   1.162   2.232   9.293 -0.6021  0.3436 -0.7065
 6782SOL    HW131982   1.234   2.247   9.354  1.1525  0.6498 -2.8839
 6782SOL    HW231983   1.139   2.139   9.302  0.4421  0.1326 -0.2432
 6783SOL     OW31984   2.719   2.493   5.804 -0.1924  0.2882  0.3029
 6783SOL    HW131985   2.665   2.490   5.724 -0.1859  0.2281  0.3007
 6783SOL    HW231986   2.788   2.433   5.774 -0.6301  1.0326 -2.2221
 6784SOL     OW31987   3.257   2.805   6.840 -0.4559  0.4963  0.2150
 6784SOL    HW131988   3.280   2.880   6.786 -2.1147  1.0135  0.2332
 6784SOL    HW231989   3.248   2.847   6.926  0.2176  0.5361  0.2672
 6785SOL     OW31990   2.410   3.811   8.795 -0.0355  0.1231  0.0099
 6785SOL    HW131991   2.356   3.816   8.716 -1.0917  0.3281  0.7404
 6785SOL    HW231992   2.407   3.717   8.814 -1.5255  0.2143  0.2038
 6786SOL     OW31993   1.902   4.057   7.386 -0.0592  0.3563  0.1166
 6786SOL    HW131994   1.866   4.137   7.425 -0.8366  0.4663 -0.8255
 6786SOL    HW231995   1.903   3.988   7.452  1.3338  0.8568  0.6237
 6787SOL     OW31996   2.311   3.257   6.084 -0.1796 -0.1039 -0.0470
 6787SOL    HW131997   2.280   3.190   6.022  0.7288 -1.6743  1.2179
 6787SOL    HW231998   2.262   3.333   6.052 -0.9457 -1.0649 -1.1897
 6788SOL     OW31999   0.199   3.275   7.653 -0.1393  0.3389  0.4204
 6788SOL    HW132000   0.105   3.262   7.644  0.0243 -0.6392  0.0763
 6788SOL    HW232001   0.235   3.226   7.579 -1.2710  1.0499 -0.6155
 6789SOL     OW32002   0.631   0.055   1.897  0.3600  0.4051  0.1395
 6789SOL    HW132003   0.648   0.044   1.991  0.4628 -0.7003 -0.0113
 6789SOL    HW232004   0.718   0.089   1.874  1.0562 -0.7026  1.1181
 6790SOL     OW32005   2.153   2.275   3.635  0.3099  0.5062 -0.6606
 6790SOL    HW132006   2.182   2.273   3.543 -1.2861  1.2004 -1.1854
 6790SOL    HW232007   2.229   2.238   3.678 -0.2150  1.2312  0.8743
 6791SOL     OW32008   3.667   4.251  15.841 -0.3766  0.1108  0.0843
 6791SOL    HW132009   3.735   4.210  15.788 -2.2375  0.4277 -2.5450
 6791SOL    HW232010   3.619   4.307  15.780  1.2963  0.9506 -0.4739
 6792SOL     OW32011   1.809   3.462   4.981  0.1393  0.5089  0.1155
 6792SOL    HW132012   1.831   3.501   5.066 -0.7567  1.1273  0.0650
 6792SOL    HW232013   1.810   3.368   4.995 -1.1351  0.6146  0.9315
 6793SOL     OW32014   2.555   1.374   4.847  0.1335  0.1642 -0.0273
 6793SOL    HW132015   2.604   1.407   4.923  0.1444  0.0111  0.0310
 6793SOL    HW232016   2.620   1.316   4.807  0.8102  0.4313  0.6947
 6794SOL     OW32017   4.531   0.882  15.392 -0.3273  0.5851  0.3738
 6794SOL    HW132018   4.477   0.935  15.450  0.2923 -0.4856  1.8948
 6794SOL    HW232019   4.486   0.905  15.310 -0.1414  0.6134  0.2774
 6795SOL     OW32020   0.923   3.177   4.270 -0.3540 -0.6467  0.1349
 6795SOL    HW132021   0.923   3.143   4.181 -0.9495  1.3335 -0.6182
 6795SOL    HW232022   0.840   3.136   4.295 -1.3203  1.7446  0.8388
 6796SOL     OW32023   3.718   0.558  15.261 -0.1978  0.1802 -0.4558
 6796SOL    HW132024   3.693   0.526  15.348 -2.4445  1.2067 -0.7318
 6796SOL    HW232025   3.669   0.640  15.261  0.1028  0.3597 -2.8844
 6797SOL     OW32026   0.928   2.110   1.741 -0.5702 -0.0138 -0.1336
 6797SOL    HW132027   0.950   2.021   1.768 -0.1155  0.5719  1.4101
 6797SOL    HW232028   0.833   2.106   1.746 -0.5796  1.6560  1.1711
 6798SOL     OW32029   1.941   2.137   6.833 -0.3508 -0.1773 -0.1238
 6798SOL    HW132030   1.913   2.188   6.756 -0.6763 -1.0279 -0.5769
 6798SOL    HW232031   1.998   2.205   6.868  1.0652 -2.9342  2.8813
 6799SOL     OW32032   4.628   0.595   8.390  0.1250  0.4330  0.3972
 6799SOL    HW132033   4.622   0.682   8.429 -0.2584  1.2075 -1.4228
 6799SOL    HW232034   4.690   0.620   8.321 -1.3952  0.8650 -0.8138
 6800SOL     OW32035   3.910   4.263   7.284  0.2346  0.8731  0.1228
 6800SOL    HW132036   3.977   4.300   7.343 -0.3132  0.8182  0.7792
 6800SOL    HW232037   3.850   4.337   7.277 -0.6581  0.2888  1.7451
 6801SOL     OW32038   1.338   4.610   1.597 -0.3056 -0.1779 -0.2697
 6801SOL    HW132039   1.368   4.558   1.672  0.4726  0.2321 -0.2952
 6801SOL    HW232040   1.411   4.644   1.546  1.7673 -2.1601  1.3235
 6802SOL     OW32041   0.871   2.922   5.902 -0.1310 -0.4988 -0.6627
 6802SOL    HW132042   0.946   2.868   5.925 -1.2104 -0.5967  2.6541
 6802SOL    HW232043   0.885   2.930   5.808 -0.1905  1.9776 -0.4680
 6803SOL     OW32044   3.971   1.594   6.982 -0.3885 -0.1967  0.1739
 6803SOL    HW132045   4.061   1.599   6.952  0.3939 -1.6131  2.3400
 6803SOL    HW232046   3.966   1.670   7.041 -0.7692 -1.4416  1.7479
 6804SOL     OW32047   3.238   1.806   6.357  0.6871  0.7583 -1.0413
 6804SOL    HW132048   3.250   1.813   6.452  0.8292 -3.1837 -0.8024
 6804SOL    HW232049   3.169   1.741   6.364  0.9101  0.6153 -0.1823
 6805SOL     OW32050   1.606   0.730  11.696  0.5391  0.4597 -0.1381
 6805SOL    HW132051   1.637   0.807  11.743  1.7560 -0.3878  0.4496
 6805SOL    HW232052   1.542   0.769  11.637  0.3863  0.5522  0.0866
 6806SOL     OW32053   0.051   3.193  16.422  0.0346 -0.0356 -0.5546
 6806SOL    HW132054   4.718   3.144  16.380  0.3623 -0.4870 -0.5757
 6806SOL    HW232055   0.003   3.273  16.439 -0.9748 -0.6932 -0.3296
 6807SOL     OW32056   3.608   0.538   6.246 -0.3665  0.0794 -0.1722
 6807SOL    HW132057   3.604   0.493   6.330  0.0644 -0.7206 -0.5777
 6807SOL    HW232058   3.517   0.525   6.222 -0.4414 -1.4902  0.9649
 6808SOL     OW32059   1.840   2.478   6.374  0.3499 -0.1717 -0.7919
 6808SOL    HW132060   1.890   2.558   6.359 -0.7596  0.8662  1.0969
 6808SOL    HW232061   1.845   2.443   6.285  0.2462 -1.3554 -0.3315
 6809SOL     OW32062   2.038   4.308   6.730  0.0135 -0.1065  0.3017
 6809SOL    HW132063   2.098   4.241   6.764 -0.4918 -0.8648 -0.2781
 6809SOL    HW232064   2.025   4.270   6.642 -0.9419  0.6320  0.1250
 6810SOL     OW32065   0.636   4.214   8.970 -0.7485 -0.4052  0.1685
 6810SOL    HW132066   0.562   4.270   8.992 -3.1801 -3.0745 -1.3197
 6810SOL    HW232067   0.630   4.212   8.874  0.2771  0.4355  0.0793
 6811SOL     OW32068   3.050   0.359   7.281 -0.6537  0.3260  0.1933
 6811SOL    HW132069   2.986   0.424   7.253  0.2883  0.5280 -1.4911
 6811SOL    HW232070   2.998   0.314   7.348 -1.0032  2.1457  1.1378
 6812SOL     OW32071   0.459   0.270   3.166  0.1887 -0.3354 -0.7678
 6812SOL    HW132072   0.406   0.348   3.152  0.0278 -0.5895 -1.5931
 6812SOL    HW232073   0.391   0.210   3.193  1.3133 -1.0414  0.4818
 6813SOL     OW32074   2.535   2.990   7.667 -0.1655  0.2370  0.4861
 6813SOL    HW132075   2.498   2.911   7.628  1.7215 -0.5417  0.3299
 6813SOL    HW232076   2.467   3.053   7.640 -0.9554 -0.0779  1.7125
 6814SOL     OW32077   1.218   2.330   7.305  0.1155 -0.5370  0.0151
 6814SOL    HW132078   1.159   2.336   7.230 -2.1776 -0.5409  1.8367
 6814SOL    HW232079   1.161   2.360   7.376 -1.1287 -0.0768 -1.1856
 6815SOL     OW32080   2.549   3.572   5.938  0.2247 -0.0665  0.4565
 6815SOL    HW132081   2.613   3.642   5.953 -0.5201  1.1709 -2.1073
 6815SOL    HW232082   2.566   3.572   5.844  0.7535 -0.8932  0.5587
 6816SOL     OW32083   3.252   2.449   4.716  0.3349  0.2403 -0.5184
 6816SOL    HW132084   3.212   2.535   4.728 -0.7557 -0.2497 -0.6254
 6816SOL    HW232085   3.339   2.451   4.756 -0.0062 -1.7285  0.3078
 6817SOL     OW32086   2.146   4.201   7.058  0.3164 -0.3670  0.7991
 6817SOL    HW132087   2.095   4.140   7.005  1.5379 -1.2909  0.7032
 6817SOL    HW232088   2.156   4.152   7.139  0.1246  1.3267  1.8473
 6818SOL     OW32089   4.610   3.170   6.307 -0.8994  0.2861 -0.0487
 6818SOL    HW132090   4.614   3.131   6.395 -1.4802 -0.3790 -0.3243
 6818SOL    HW232091   4.538   3.121   6.268 -2.2466  0.2560  2.4792
 6819SOL     OW32092   3.492   1.371   2.798  0.2076  0.0797  0.2557
 6819SOL    HW132093   3.554   1.308   2.836  1.8819 -0.1343 -2.8299
 6819SOL    HW232094   3.543   1.450   2.783  0.5783 -0.3688 -0.8691
 6820SOL     OW32095   2.760   2.630  10.555  0.1465 -0.4756 -0.2857
 6820SOL    HW132096   2.789   2.703  10.611 -2.2010  0.0445  0.2713
 6820SOL    HW232097   2.714   2.677  10.486  1.4266  0.6321 -0.3812
 6821SOL     OW32098   1.460   0.887   1.996 -0.3512 -0.3248  0.6090
 6821SOL    HW132099   1.489   0.976   2.014  1.3345 -0.9427  0.9008
 6821SOL    HW232100   1.381   0.879   2.049 -0.2480 -2.0234  0.5258
 6822SOL     OW32101   0.171   1.598  10.875  0.1613  0.2462  0.2295
 6822SOL    HW132102   0.178   1.664  10.806  0.6292  0.3810  0.4070
 6822SOL    HW232103   0.187   1.519  10.824 -1.3613  1.0941 -1.5666
 6823SOL     OW32104   1.061   2.697   6.802  0.1355 -0.3050  0.2187
 6823SOL    HW132105   1.011   2.776   6.782 -0.2838 -1.1484 -2.1136
 6823SOL    HW232106   1.144   2.733   6.832 -0.0220 -0.0620  0.3630
 6824SOL     OW32107   0.352   0.502   8.352  0.2499  0.2158  0.4271
 6824SOL    HW132108   0.394   0.434   8.405  0.6464 -0.3391 -0.5916
 6824SOL    HW232109   0.414   0.503   8.279 -0.4791 -0.0909 -0.1991
 6825SOL     OW32110   1.148   1.211   4.487 -0.5243  0.3504 -0.1124
 6825SOL    HW132111   1.139   1.133   4.541 -0.9004 -0.5124 -1.4150
 6825SOL    HW232112   1.144   1.167   4.402  0.4883 -1.1190  0.5883
 6826SOL     OW32113   0.824   0.530   3.049 -0.8280 -0.2888 -0.1654
 6826SOL    HW132114   0.750   0.584   3.076 -0.9464 -0.5073 -0.0482
 6826SOL    HW232115   0.862   0.488   3.126 -0.1860 -0.9426 -0.8318
 6827SOL     OW32116   2.907   4.025   9.725  0.0247  0.4905 -0.5524
 6827SOL    HW132117   2.960   3.979   9.659  0.9422  2.2556 -1.0399
 6827SOL    HW232118   2.966   4.059   9.792 -1.2382 -2.5994  2.1254
 6828SOL     OW32119   3.330   0.491   5.726  0.0911  0.2493  0.4061
 6828SOL    HW132120   3.383   0.420   5.764  0.2702 -1.0215 -2.2102
 6828SOL    HW232121   3.262   0.504   5.792 -2.1981 -0.9865 -1.7045
 6829SOL     OW32122   4.709   0.593   8.905  0.0947 -0.4033  0.4757
 6829SOL    HW132123   0.059   0.628   8.882  0.6712 -1.0688  1.6865
 6829SOL    HW232124   4.656   0.664   8.868  0.7534  1.8315  3.8222
 6830SOL     OW32125   1.661   3.620   7.078  0.5384  0.6183 -0.1862
 6830SOL    HW132126   1.677   3.676   7.001 -0.6725 -0.9521 -1.5865
 6830SOL    HW232127   1.733   3.650   7.133  0.4719  1.6289 -0.6447
 6831SOL     OW32128   2.011   0.863   8.769  0.5268 -0.3131  0.2544
 6831SOL    HW132129   1.991   0.769   8.777  2.1436 -0.7062 -0.4633
 6831SOL    HW232130   1.979   0.890   8.683  0.5643  2.0523  0.9744
 6832SOL     OW32131   1.053   1.553   6.406  0.0343 -0.5591  0.2039
 6832SOL    HW132132   0.982   1.489   6.417  0.0853 -0.7223 -0.4351
 6832SOL    HW232133   1.116   1.518   6.468  0.4177 -1.6781 -0.8122
 6833SOL     OW32134   1.244   0.882  12.714  0.2260  0.0545 -0.2694
 6833SOL    HW132135   1.336   0.903  12.703  0.4080 -1.6381 -1.8728
 6833SOL    HW232136   1.227   0.912  12.803 -1.0309  1.4215 -0.9657
 6834SOL     OW32137   1.358   2.094   5.007  0.7779 -1.1714 -0.0272
 6834SOL    HW132138   1.339   2.106   4.914 -0.1893  0.3924  0.3566
 6834SOL    HW232139   1.290   2.156   5.034 -0.9082 -2.9918 -0.1094
 6835SOL     OW32140   1.948   3.178   6.054 -0.4902 -0.3523  0.7555
 6835SOL    HW132141   2.017   3.244   6.045 -0.1066 -0.6380  1.5656
 6835SOL    HW232142   1.887   3.196   5.983  0.9233 -1.8245 -0.8489
 6836SOL     OW32143   2.007   0.083   6.988  0.4989  0.2291  0.3687
 6836SOL    HW132144   1.924   0.043   7.013  0.6949 -0.9783 -0.9152
 6836SOL    HW232145   2.054   0.074   7.072  3.5929 -1.3924 -1.5079
 6837SOL     OW32146   3.050   4.177   5.080  0.6814 -0.2584  0.1117
 6837SOL    HW132147   3.068   4.234   5.005  0.3329  0.8487  0.8585
 6837SOL    HW232148   3.103   4.218   5.148 -0.3143  1.5710 -0.1991
 6838SOL     OW32149   3.172   2.022   2.880 -0.0258  0.2763  0.4209
 6838SOL    HW132150   3.192   1.930   2.864 -0.5023  0.0090  1.3554
 6838SOL    HW232151   3.218   2.060   2.805  2.0665  0.0132  1.5810
 6839SOL     OW32152   1.826   4.024   0.623  0.6789  0.6856  0.4709
 6839SOL    HW132153   1.888   4.070   0.567 -1.9471  2.8358 -0.6930
 6839SOL    HW232154   1.749   4.079   0.603  0.0691 -0.5253 -0.4616
 6840SOL     OW32155   4.370   3.286   5.682 -0.0075  0.6207  0.2329
 6840SOL    HW132156   4.384   3.197   5.651 -0.4633  0.1562  1.3491
 6840SOL    HW232157   4.325   3.329   5.609  0.2568 -1.8536 -1.3761
 6841SOL     OW32158   2.225   0.577   6.622 -0.3719  0.3512 -0.1065
 6841SOL    HW132159   2.258   0.534   6.701  0.1544  0.7235 -0.1243
 6841SOL    HW232160   2.148   0.612   6.665 -1.1589  1.6129 -2.5150
 6842SOL     OW32161   3.969   1.880   2.493 -0.1965  0.8064 -0.2099
 6842SOL    HW132162   4.058   1.869   2.526 -0.6466 -1.3237  0.3551
 6842SOL    HW232163   3.921   1.806   2.532  0.3307  0.7948  0.4223
 6843SOL     OW32164   2.947   4.730   8.259  0.3875 -0.5019 -0.4125
 6843SOL    HW132165   3.016   4.704   8.198  0.3122  0.2464 -0.8142
 6843SOL    HW232166   2.897   4.648   8.265  1.3076 -0.9408  1.3776
 6844SOL     OW32167   3.431   2.960   6.595  0.6225 -0.2295 -0.2991
 6844SOL    HW132168   3.374   2.883   6.588  0.1192  0.0077  1.1976
 6844SOL    HW232169   3.514   2.920   6.571  0.9002 -0.2702  0.7334
 6845SOL     OW32170   0.739   2.932  16.657  0.4204 -0.7718 -0.3630
 6845SOL    HW132171   0.695   3.012  16.632 -0.7282 -1.4383 -0.4569
 6845SOL    HW232172   0.707   2.867  16.594  0.8147 -0.3435 -1.0010
 6846SOL     OW32173   4.276   0.650   3.109 -0.1815  0.0695 -0.1251
 6846SOL    HW132174   4.303   0.694   3.028 -0.2120  1.2880  0.5320
 6846SOL    HW232175   4.364   0.642   3.147 -0.2636  0.1752  0.0864
 6847SOL     OW32176   2.426   2.723   4.400 -0.6539  0.4338 -0.7960
 6847SOL    HW132177   2.382   2.803   4.428  2.6715  1.7030  0.7058
 6847SOL    HW232178   2.360   2.697   4.336  1.3482 -2.8358 -1.5442
 6848SOL     OW32179   0.336   3.970   0.438  0.2812  0.2041  0.7369
 6848SOL    HW132180   0.335   3.991   0.344  0.5453  1.8808  1.1142
 6848SOL    HW232181   0.348   3.875   0.446  0.3843  0.0386 -1.3324
 6849SOL     OW32182   2.819   4.016   3.012  0.5386  0.3551  0.6631
 6849SOL    HW132183   2.845   4.026   2.921 -1.3235 -1.8851 -0.1082
 6849SOL    HW232184   2.806   3.921   3.018  0.4473  0.2523 -1.3544
 6850SOL     OW32185   3.422   4.496  14.262  0.0208  0.0468  0.9068
 6850SOL    HW132186   3.405   4.549  14.185 -1.9362  1.9600  2.6629
 6850SOL    HW232187   3.356   4.427  14.260 -1.0368  0.9953  3.1641
 6851SOL     OW32188   2.517   3.687  11.463  0.4635 -0.6097 -0.1581
 6851SOL    HW132189   2.602   3.716  11.496 -0.4638  0.7413  1.0220
 6851SOL    HW232190   2.519   3.591  11.465 -1.4141 -0.6377  0.5341
 6852SOL     OW32191   0.109   0.901  10.713  0.2548 -0.0390  0.1561
 6852SOL    HW132192   0.026   0.863  10.742  0.9562 -0.9773  0.9606
 6852SOL    HW232193   0.160   0.821  10.699  1.8392  1.4122 -2.2151
 6853SOL     OW32194   4.125   1.635   3.362  0.3842  0.6081 -0.1387
 6853SOL    HW132195   4.065   1.563   3.382 -0.9634  1.3309 -1.6050
 6853SOL    HW232196   4.067   1.704   3.392 -1.5067 -1.0121 -0.0241
 6854SOL     OW32197   1.564   3.954   8.251  0.0481  0.1238 -0.0095
 6854SOL    HW132198   1.473   3.982   8.240 -0.4019 -1.1845  0.4360
 6854SOL    HW232199   1.573   3.954   8.346  0.3695 -0.4261 -0.0396
 6855SOL     OW32200   0.292   1.293   3.334 -0.1547  0.4672 -0.1521
 6855SOL    HW132201   0.380   1.280   3.300  0.1395  0.9567  0.4515
 6855SOL    HW232202   0.243   1.225   3.285  1.4140 -1.0072  0.3375
 6856SOL     OW32203   4.518   3.351   7.211  0.1063  0.5316 -0.1222
 6856SOL    HW132204   4.563   3.393   7.284  1.0633 -0.1389 -0.3351
 6856SOL    HW232205   4.546   3.261   7.224  0.3692  0.3332 -2.0526
 6857SOL     OW32206   3.906   2.991   6.132  0.0172 -0.2373 -0.1048
 6857SOL    HW132207   3.873   2.918   6.079 -2.3969 -0.7627  2.0917
 6857SOL    HW232208   3.839   2.991   6.201  0.5507  1.9223  0.4176
 6858SOL     OW32209   4.380   1.887   4.609 -0.0434 -0.3005 -0.3391
 6858SOL    HW132210   4.400   1.844   4.692 -0.7774  1.8741  0.9753
 6858SOL    HW232211   4.440   1.962   4.605 -0.8645  0.4249  0.8671
 6859SOL     OW32212   1.949   4.351  14.910  0.0322 -0.0225 -0.3688
 6859SOL    HW132213   1.906   4.403  14.842  0.1721  1.8380  0.9673
 6859SOL    HW232214   1.996   4.280  14.867  3.5400  0.1991  3.1117
 6860SOL     OW32215   1.083   3.592   6.182  0.3937  0.0405 -0.5012
 6860SOL    HW132216   1.122   3.637   6.107 -0.8495  1.9018 -0.0373
 6860SOL    HW232217   1.095   3.502   6.155 -0.8969  0.0455 -1.0943
 6861SOL     OW32218   1.400   0.754   3.976 -0.0847 -0.1146 -0.4952
 6861SOL    HW132219   1.361   0.668   3.960 -1.0238  0.3583 -0.6819
 6861SOL    HW232220   1.482   0.723   4.017 -0.1383  0.1252 -0.2084
 6862SOL     OW32221   1.961   1.091   2.406  0.2823 -0.5442 -0.3072
 6862SOL    HW132222   2.022   1.157   2.374  1.5069 -2.0121 -0.9987
 6862SOL    HW232223   2.005   1.010   2.379  1.7561  0.6785 -1.6240
 6863SOL     OW32224   4.134   1.198   0.175  0.7452 -0.8922 -0.1555
 6863SOL    HW132225   4.209   1.188   0.116  1.4030  3.1814  0.0026
 6863SOL    HW232226   4.138   1.285   0.214  0.0517 -0.1142 -1.8225
 6864SOL     OW32227   3.493   2.190   1.389 -0.2219  0.1110 -0.3471
 6864SOL    HW132228   3.501   2.139   1.309 -1.9987  0.2316 -0.5879
 6864SOL    HW232229   3.398   2.201   1.390 -0.2706 -0.3137 -0.4038
 6865SOL     OW32230   0.765   0.022  11.039  0.2710 -0.3947 -0.4821
 6865SOL    HW132231   0.820   4.692  11.080 -0.3962 -1.3993 -1.2123
 6865SOL    HW232232   0.797   0.036  10.950  0.0519 -0.5932 -0.5925
 6866SOL     OW32233   1.135   1.156  12.061  0.6357  0.0424 -0.1317
 6866SOL    HW132234   1.150   1.119  12.148  1.2022  1.8800  0.5540
 6866SOL    HW232235   1.200   1.105  12.013  1.6825 -0.4133  1.7696
 6867SOL     OW32236   4.607   1.367   3.590  0.6529  0.1656 -0.0658
 6867SOL    HW132237   4.531   1.344   3.536  1.4656 -0.0581 -1.1202
 6867SOL    HW232238   4.668   1.408   3.529  0.3749 -1.3761 -1.3911
 6868SOL     OW32239   3.079   2.821  11.515 -0.8401 -0.7712  0.0800
 6868SOL    HW132240   3.087   2.871  11.596 -1.3234  0.5961 -0.7175
 6868SOL    HW232241   3.071   2.728  11.534 -1.4720 -0.3187  1.9806
 6869SOL     OW32242   3.530   0.368  17.287  0.4179  0.0774 -0.4736
 6869SOL    HW132243   3.496   0.452  17.256  0.3520  0.0622 -0.4438
 6869SOL    HW232244   3.601   0.366  17.223  1.6549  1.2949  0.8325
 6870SOL     OW32245   0.087   3.839   0.533 -0.2222 -0.5478 -0.3796
 6870SOL    HW132246   0.146   3.860   0.461  0.7591  0.2615  0.6664
 6870SOL    HW232247   0.019   3.905   0.525 -0.9489 -1.2518 -0.0873
 6871SOL     OW32248   4.096   0.560   7.886  0.2557 -0.2044  0.5088
 6871SOL    HW132249   4.156   0.514   7.945  1.8948  2.7110  1.1116
 6871SOL    HW232250   4.043   0.484   7.861 -0.7546 -0.1504  2.4593
 6872SOL     OW32251   1.982   4.670   8.093  0.5052  0.3064 -0.2774
 6872SOL    HW132252   1.886   4.676   8.095  0.5021  0.1925 -0.1402
 6872SOL    HW232253   2.001   4.577   8.082 -1.4486 -0.0283 -0.8549
 6873SOL     OW32254   2.111   2.375   6.926 -0.1638  0.1438  0.3514
 6873SOL    HW132255   2.184   2.369   6.865 -1.0265  0.7010 -0.7425
 6873SOL    HW232256   2.059   2.437   6.874  1.5096 -0.2323 -1.7562
 6874SOL     OW32257   0.747   1.708  13.649  0.0561  0.1830 -0.1764
 6874SOL    HW132258   0.727   1.727  13.558 -0.7653  0.0972 -0.0083
 6874SOL    HW232259   0.811   1.778  13.661 -0.2551  0.6803 -1.5115
 6875SOL     OW32260   3.743   0.855   5.546  0.0012 -0.0298 -0.3625
 6875SOL    HW132261   3.835   0.842   5.568 -0.6326 -1.7217  1.3387
 6875SOL    HW232262   3.737   0.949   5.561 -1.1226  0.0243 -1.1815
 6876SOL     OW32263   0.369   2.906   9.813  0.4112  0.0561 -0.1687
 6876SOL    HW132264   0.366   2.951   9.729  0.1886 -1.4776 -0.9763
 6876SOL    HW232265   0.432   2.965   9.854 -0.1927  0.4267  0.2450
 6877SOL     OW32266   0.101   3.425  17.360 -0.7246  0.3149 -0.1016
 6877SOL    HW132267   0.025   3.420  17.418 -0.1822  2.2803  0.7517
 6877SOL    HW232268   0.053   3.442  17.279  1.3700  0.2028 -1.3768
 6878SOL     OW32269   3.322   1.865   6.632  0.5657  0.0604  0.0231
 6878SOL    HW132270   3.251   1.927   6.648  0.7865 -0.4283  2.8535
 6878SOL    HW232271   3.324   1.810   6.710 -0.2414 -0.4114 -0.2822
 6879SOL     OW32272   3.224   0.146   7.216 -0.3314  0.0765  0.7505
 6879SOL    HW132273   3.181   0.078   7.268 -0.0289 -0.5360  0.2104
 6879SOL    HW232274   3.168   0.217   7.247 -1.3970  0.0195 -1.0030
 6880SOL     OW32275   2.034   4.603   2.710  0.3480 -0.5051  0.5054
 6880SOL    HW132276   2.007   4.603   2.802 -1.3907  1.1559 -0.0059
 6880SOL    HW232277   2.108   4.542   2.708  0.3171 -0.4852 -1.0967
 6881SOL     OW32278   4.653   4.158   2.499 -0.2560 -1.2113 -0.6036
 6881SOL    HW132279   4.619   4.183   2.413 -0.7182 -0.5547 -0.2324
 6881SOL    HW232280   4.580   4.109   2.536 -0.6029  0.5803  1.1428
 6882SOL     OW32281   3.180   1.124   3.390 -0.1353  0.0958 -0.0472
 6882SOL    HW132282   3.113   1.156   3.330 -0.7934 -2.9651 -0.9592
 6882SOL    HW232283   3.176   1.198   3.451  1.8019  0.9500 -0.9891
 6883SOL     OW32284   1.297   4.652   8.520 -0.4918 -0.0771 -0.7433
 6883SOL    HW132285   1.213   4.659   8.566  0.0576 -3.1605  0.7005
 6883SOL    HW232286   1.362   4.645   8.590 -1.6409  0.2253  0.3675
 6884SOL     OW32287   1.167   2.573  12.667 -0.1181  0.0331  0.1933
 6884SOL    HW132288   1.099   2.507  12.657  1.0188 -1.0411 -0.5065
 6884SOL    HW232289   1.161   2.623  12.585 -0.9141 -2.2875 -1.1496
 6885SOL     OW32290   1.177   0.826   6.363  0.4804 -0.8242 -0.3273
 6885SOL    HW132291   1.262   0.796   6.396  2.7012  2.4220 -3.0968
 6885SOL    HW232292   1.174   0.907   6.414  1.3796 -1.8717  1.3853
 6886SOL     OW32293   0.655   3.484   3.464 -0.1364 -0.3787  0.3055
 6886SOL    HW132294   0.625   3.523   3.546 -1.4865 -1.8284  0.5035
 6886SOL    HW232295   0.750   3.482   3.475  0.0565  1.2838 -1.0657
 6887SOL     OW32296   3.569   1.331  12.652  0.3641 -0.1571  0.0822
 6887SOL    HW132297   3.658   1.365  12.657  0.4951 -0.3724 -0.8565
 6887SOL    HW232298   3.562   1.280  12.733  1.3238 -2.9074 -1.5986
 6888SOL     OW32299   0.299   1.663  12.490  0.7538  0.0480 -0.0837
 6888SOL    HW132300   0.325   1.709  12.411  3.4538 -1.9580 -0.3612
 6888SOL    HW232301   0.376   1.609  12.505  0.2118 -0.9006 -0.6925
 6889SOL     OW32302   0.539   3.648   6.516 -0.5932  0.2505  0.3884
 6889SOL    HW132303   0.569   3.566   6.556 -2.0978 -1.6701 -2.4410
 6889SOL    HW232304   0.624   3.691   6.521 -0.5282 -0.0079  1.5734
 6890SOL     OW32305   1.096   2.925   2.320 -0.1821 -0.5608  0.2217
 6890SOL    HW132306   1.156   2.887   2.257  0.5219  0.4341  0.2887
 6890SOL    HW232307   1.104   2.866   2.395 -0.8725 -2.2723 -1.0452
 6891SOL     OW32308   1.951   3.270   1.253  0.5015 -0.4474 -0.1688
 6891SOL    HW132309   1.909   3.343   1.208  2.0652  0.1128 -0.7239
 6891SOL    HW232310   2.031   3.312   1.283 -1.0051  2.6940 -0.5962
 6892SOL     OW32311   2.550   3.971   2.218 -0.1067 -0.9001 -0.2085
 6892SOL    HW132312   2.630   3.919   2.210 -0.3134 -0.9893 -1.7074
 6892SOL    HW232313   2.584   4.051   2.257 -0.2900 -1.1563  0.4851
 6893SOL     OW32314   1.666   2.493   6.878 -0.3287 -0.7067 -0.3084
 6893SOL    HW132315   1.747   2.496   6.828 -0.6215 -0.2884 -0.7627
 6893SOL    HW232316   1.662   2.404   6.912  2.0666 -0.1219  1.4955
 6894SOL     OW32317   3.630   4.661   3.449  0.3712  0.2522 -0.1608
 6894SOL    HW132318   3.563   4.611   3.403  1.2095 -1.7921  0.8720
 6894SOL    HW232319   3.603   4.667   3.540  1.5200 -0.3798  0.2299
 6895SOL     OW32320   3.537   2.084   2.493  0.4409  0.2381  0.0033
 6895SOL    HW132321   3.633   2.080   2.484  0.4736 -0.0400  0.4896
 6895SOL    HW232322   3.515   2.053   2.405 -0.5172 -0.4020  0.4714
 6896SOL     OW32323   0.600   3.466   8.419 -0.0254  0.3337 -0.0948
 6896SOL    HW132324   0.592   3.431   8.508 -0.9816  0.5202 -0.1043
 6896SOL    HW232325   0.691   3.495   8.413  0.3389 -0.5070  1.2512
 6897SOL     OW32326   2.995   2.493   6.512 -0.7330 -0.2561 -0.3154
 6897SOL    HW132327   2.989   2.405   6.548  1.0856 -0.9313 -1.7007
 6897SOL    HW232328   3.019   2.541   6.590  1.1060 -0.0651 -1.0130
 6898SOL     OW32329   1.513   0.114   5.344  0.0803  0.3343  0.8459
 6898SOL    HW132330   1.527   0.190   5.399 -1.1549  1.7770 -0.8279
 6898SOL    HW232331   1.419   0.098   5.355  0.4612 -1.8071  1.0693
 6899SOL     OW32332   3.587   2.980   7.474  0.4730  0.1308 -0.2679
 6899SOL    HW132333   3.503   2.971   7.520  0.8447 -1.7708  0.0272
 6899SOL    HW232334   3.591   3.076   7.466 -1.0595 -0.0011 -2.7933
 6900SOL     OW32335   2.494   1.635   3.926  0.5056 -0.2121 -0.2820
 6900SOL    HW132336   2.425   1.604   3.986 -2.0742  1.7983 -2.2298
 6900SOL    HW232337   2.525   1.549   3.895 -1.1349 -1.7421  2.2826
 6901SOL     OW32338   3.671   0.215  14.567 -0.1470  0.3734  0.4711
 6901SOL    HW132339   3.638   0.207  14.656  0.3511  0.8258  0.6924
 6901SOL    HW232340   3.646   0.126  14.539  0.1944  0.6909 -0.8333
 6902SOL     OW32341   0.929   3.606  16.348 -0.3070 -0.1167  0.0067
 6902SOL    HW132342   0.997   3.540  16.355 -2.1720 -2.1167 -0.7031
 6902SOL    HW232343   0.864   3.578  16.413  0.6591 -1.7457  0.2529
 6903SOL     OW32344   0.309   3.817  16.393 -0.3952  0.3233  0.1885
 6903SOL    HW132345   0.360   3.829  16.313 -1.4544  0.9786 -0.4025
 6903SOL    HW232346   0.331   3.728  16.421 -1.7546 -0.1533 -0.2537
 6904SOL     OW32347   4.099   2.126   1.063  0.3656  0.2856  0.5035
 6904SOL    HW132348   4.091   2.219   1.086  3.0616 -0.1307  3.1227
 6904SOL    HW232349   4.127   2.130   0.972  0.6649 -0.7414  0.5496
 6905SOL     OW32350   0.650   4.126   4.333 -0.3598  0.1781  0.3977
 6905SOL    HW132351   0.634   4.073   4.255 -0.0133 -1.4608  1.4469
 6905SOL    HW232352   0.564   4.167   4.345  0.3287  1.8239 -0.1993
 6906SOL     OW32353   0.930   0.252   5.823  0.0325 -0.0298  0.6511
 6906SOL    HW132354   0.982   0.195   5.880  0.8507  0.3873  0.3043
 6906SOL    HW232355   0.988   0.250   5.748  1.2541 -0.3902  1.6070
 6907SOL     OW32356   0.668   0.533   6.951  0.1296  0.0495  0.1996
 6907SOL    HW132357   0.743   0.536   6.891 -1.1556  1.0425 -1.3409
 6907SOL    HW232358   0.709   0.517   7.036  1.6346  2.7441 -0.0207
 6908SOL     OW32359   4.346   0.346   0.986  0.0340 -0.5253  0.4853
 6908SOL    HW132360   4.381   0.425   1.027  4.0286 -1.7925 -0.4754
 6908SOL    HW232361   4.300   0.296   1.054 -2.3048  1.8956  0.6814
 6909SOL     OW32362   1.075   4.092   4.496 -0.1256 -0.2252 -0.3197
 6909SOL    HW132363   1.064   3.997   4.487 -2.6119 -0.1138  1.5819
 6909SOL    HW232364   1.163   4.095   4.458 -0.1172 -0.1298 -0.2914
 6910SOL     OW32365   1.129   2.854   8.706 -0.1221  0.2083  0.4970
 6910SOL    HW132366   1.185   2.924   8.672  0.6028  0.3761  2.0374
 6910SOL    HW232367   1.129   2.873   8.800  0.5269 -0.1115  0.5645
 6911SOL     OW32368   3.679   2.750   6.822 -0.2643 -0.0348  0.0986
 6911SOL    HW132369   3.651   2.662   6.800  2.3516 -1.2916  1.7480
 6911SOL    HW232370   3.659   2.744   6.915 -1.2668  1.3121 -0.0188
 6912SOL     OW32371   0.080   1.829  12.841  0.0750 -0.1450 -0.1506
 6912SOL    HW132372   0.001   1.884  12.836 -0.4270 -0.9468 -1.1755
 6912SOL    HW232373   0.065   1.763  12.774 -0.4512 -1.2721  1.0864
 6913SOL     OW32374   4.298   1.986  10.653  0.4398  0.3000  0.2610
 6913SOL    HW132375   4.233   2.022  10.714  1.7389  1.8244  0.7343
 6913SOL    HW232376   4.314   1.897  10.686  1.7028 -0.4326 -2.3173
 6914SOL     OW32377   2.587   0.122  14.669  0.3409 -0.1696  0.1619
 6914SOL    HW132378   2.510   0.130  14.613  0.3934  1.3496  0.3175
 6914SOL    HW232379   2.603   0.211  14.701 -2.8936  1.9086 -4.0183
 6915SOL     OW32380   0.498   0.073   7.525 -0.3671 -0.0857  0.8871
 6915SOL    HW132381   0.563   0.062   7.455 -0.7248 -0.3690  0.6008
 6915SOL    HW232382   0.439   0.133   7.478 -1.9844 -2.8885 -0.6508
 6916SOL     OW32383   3.769   0.172  14.026 -0.3031  0.0740 -0.5115
 6916SOL    HW132384   3.849   0.206  13.985  0.3164 -1.5048 -0.6464
 6916SOL    HW232385   3.739   0.250  14.071 -0.0822  0.3115 -0.7730
 6917SOL     OW32386   4.726   2.510  17.134  0.1765 -0.0559 -0.1665
 6917SOL    HW132387   4.719   2.515  17.039  0.2653  1.1544 -0.1059
 6917SOL    HW232388   4.653   2.560  17.171  0.1043 -0.0335 -0.3429
 6918SOL     OW32389   0.816   1.941   5.558  0.2640 -0.0088  0.0021
 6918SOL    HW132390   0.814   1.858   5.604 -0.1529  0.8572  1.5474
 6918SOL    HW232391   0.726   1.972   5.569  0.8505  1.6797  0.0359
 6919SOL     OW32392   3.422   1.758   7.635 -0.1149  0.3596 -0.3238
 6919SOL    HW132393   3.368   1.796   7.703  0.8893  0.2376  0.5561
 6919SOL    HW232394   3.362   1.765   7.561  1.7093 -1.3463 -2.0127
 6920SOL     OW32395   2.616   0.720   5.057  0.7272  0.1798  0.7385
 6920SOL    HW132396   2.656   0.635   5.074  0.2594  0.2221  2.0261
 6920SOL    HW232397   2.682   0.746   4.993 -1.0740  0.5691 -0.9651
 6921SOL     OW32398   2.584   2.604   2.977  0.0800 -0.7786 -0.7985
 6921SOL    HW132399   2.582   2.532   2.914 -1.1621 -0.8014 -0.7360
 6921SOL    HW232400   2.673   2.638   2.964  0.4409 -0.7807  1.7669
 6922SOL     OW32401   3.548   2.972   8.975 -0.2911 -0.1211  0.2595
 6922SOL    HW132402   3.561   2.917   9.053  1.3767  0.1311  0.1584
 6922SOL    HW232403   3.563   2.906   8.908  1.3234 -0.5879  1.0696
 6923SOL     OW32404   2.111   2.706   2.218 -0.1174  0.4618  0.0907
 6923SOL    HW132405   2.032   2.757   2.235  0.5866  0.6267  2.9376
 6923SOL    HW232406   2.176   2.763   2.176  0.7583 -0.6468 -0.0323
 6924SOL     OW32407   3.681   1.388   1.421  0.5746  0.5969 -0.5490
 6924SOL    HW132408   3.728   1.446   1.481  0.6194  0.5630 -0.5510
 6924SOL    HW232409   3.743   1.317   1.401  0.7468  0.0145  2.0737
 6925SOL     OW32410   2.994   2.412   2.888 -0.0527  0.1712  0.3413
 6925SOL    HW132411   2.917   2.463   2.914 -1.2376  0.1463 -3.0348
 6925SOL    HW232412   2.951   2.354   2.825 -0.1971  1.0071 -0.3208
 6926SOL     OW32413   2.062   1.894   1.319 -0.5552  0.1776 -0.1600
 6926SOL    HW132414   1.968   1.905   1.308 -0.7345 -0.4261  0.7438
 6926SOL    HW232415   2.084   1.869   1.229 -2.3160 -1.3154 -0.1650
 6927SOL     OW32416   0.709   2.057  17.360  0.5024 -0.0121  0.3293
 6927SOL    HW132417   0.754   2.101  17.432  1.8215 -2.1057  0.8046
 6927SOL    HW232418   0.689   1.975  17.405 -0.0263 -0.1706 -0.2022
 6928SOL     OW32419   0.624   0.554   5.179 -0.1135 -0.5511  0.3592
 6928SOL    HW132420   0.719   0.554   5.171 -0.3432  0.1084 -2.3591
 6928SOL    HW232421   0.622   0.520   5.268 -1.2035  0.1013  0.5949
 6929SOL     OW32422   3.576   1.148  14.292  0.4714  0.1841  0.4445
 6929SOL    HW132423   3.503   1.122  14.349  0.4828 -0.1648  0.3020
 6929SOL    HW232424   3.581   1.072  14.234 -1.3353  0.1940  0.2719
 6930SOL     OW32425   1.751   3.095   8.952  0.6534  0.1501 -0.5859
 6930SOL    HW132426   1.840   3.062   8.946  1.0352  0.5986  2.6091
 6930SOL    HW232427   1.757   3.171   8.894 -1.4938  0.7034 -0.0987
 6931SOL     OW32428   1.890   1.720   0.987 -0.3798 -0.2001 -0.1408
 6931SOL    HW132429   1.963   1.693   0.932  0.8074  0.3237  1.1806
 6931SOL    HW232430   1.846   1.637   1.007  0.0812 -0.4403 -0.1259
 6932SOL     OW32431   3.716   2.184  16.239 -0.0519  0.6945  0.0799
 6932SOL    HW132432   3.727   2.099  16.198  1.3470  1.6883 -1.5621
 6932SOL    HW232433   3.782   2.180  16.309  1.4730 -0.0592 -1.4167
 6933SOL     OW32434   1.076   0.251   5.311  0.3169 -0.6117  0.2169
 6933SOL    HW132435   1.055   0.167   5.351 -1.4044 -1.1231 -1.7783
 6933SOL    HW232436   1.087   0.305   5.390  0.4988 -0.2068 -0.0842
 6934SOL     OW32437   0.812   3.940   2.241 -0.0969 -0.3850  0.6840
 6934SOL    HW132438   0.776   4.016   2.195  0.4141  0.3981  1.5767
 6934SOL    HW232439   0.810   3.874   2.171  2.8353 -0.7326  0.9379
 6935SOL     OW32440   0.455   1.549   7.526  0.8237  0.0530  0.3964
 6935SOL    HW132441   0.452   1.520   7.618 -0.1024  2.3885  1.1052
 6935SOL    HW232442   0.412   1.480   7.475  3.4003 -1.1311 -0.1464
 6936SOL     OW32443   3.317   1.071  17.024 -0.5636  0.4971 -0.1647
 6936SOL    HW132444   3.370   1.120  16.962 -1.8779  2.6873  0.4344
 6936SOL    HW232445   3.290   1.136  17.089 -1.1506  0.2674 -0.1820
 6937SOL     OW32446   2.740   0.286   2.045 -0.0638 -0.5501  0.8962
 6937SOL    HW132447   2.699   0.337   2.115 -0.3916 -0.0664  0.3468
 6937SOL    HW232448   2.710   0.195   2.055 -3.9892  0.5038 -1.3402
 6938SOL     OW32449   3.712   4.113  11.334 -0.1864  0.6981  0.4690
 6938SOL    HW132450   3.767   4.146  11.263  0.5690  0.8790  1.1445
 6938SOL    HW232451   3.680   4.027  11.306  0.4749  0.1234  1.4913
 6939SOL     OW32452   2.686   4.656   6.014 -0.2161 -0.6627  0.2557
 6939SOL    HW132453   2.642   4.662   6.099  0.5278  0.7531  0.5431
 6939SOL    HW232454   2.758   4.602   6.045  0.9145  1.3025  1.0387
 6940SOL     OW32455   4.509   1.728   2.315  0.2798  0.1025  0.2951
 6940SOL    HW132456   4.484   1.817   2.340  0.3775 -0.6405  3.0428
 6940SOL    HW232457   4.527   1.735   2.222  1.6373  0.4034  0.5754
 6941SOL     OW32458   2.521   3.394  11.693 -0.2400 -0.0851 -0.9172
 6941SOL    HW132459   2.552   3.441  11.769 -0.0269 -1.9386  0.1476
 6941SOL    HW232460   2.599   3.390  11.638 -0.0891 -3.5875 -0.4941
 6942SOL     OW32461   3.387   2.359   3.168 -0.3942 -0.8107 -0.2065
 6942SOL    HW132462   3.476   2.377   3.136 -0.8703  0.6154 -0.7306
 6942SOL    HW232463   3.341   2.413   3.104  0.9359 -0.2287 -0.6717
 6943SOL     OW32464   2.354   1.056   4.867  0.1666  0.4045  0.5986
 6943SOL    HW132465   2.275   1.008   4.890 -0.0430  0.1019 -0.7884
 6943SOL    HW232466   2.318   1.144   4.875 -2.8646 -0.7677 -0.4200
 6944SOL     OW32467   0.852   0.423   6.166  0.2741  0.4655  0.1727
 6944SOL    HW132468   0.871   0.514   6.188 -0.7039  0.6457  0.3102
 6944SOL    HW232469   0.914   0.408   6.096 -0.7074  0.9043 -0.7966
 6945SOL     OW32470   1.137   3.416   6.777 -1.0874 -0.6101  0.6177
 6945SOL    HW132471   1.047   3.403   6.805 -1.3751 -2.0001 -0.9272
 6945SOL    HW232472   1.175   3.441   6.862 -0.0845  1.9771 -0.6023
 6946SOL     OW32473   0.289   1.425   9.049  0.5624 -0.0830 -0.1307
 6946SOL    HW132474   0.361   1.383   9.002 -0.0309  1.0546 -2.0684
 6946SOL    HW232475   0.335   1.484   9.109  1.2340  0.2471 -0.9505
 6947SOL     OW32476   0.479   1.857   7.931 -0.0093  0.1977 -0.1867
 6947SOL    HW132477   0.458   1.950   7.925  0.1503  0.4058  2.1537
 6947SOL    HW232478   0.488   1.830   7.840  0.6520  0.1380 -0.1082
 6948SOL     OW32479   4.288   2.042  17.434  0.3300  0.0351 -0.2991
 6948SOL    HW132480   4.332   1.987  17.368  1.0523  0.3183 -0.0544
 6948SOL    HW232481   4.241   1.973  17.481 -0.9806  0.2194 -1.3184
 6949SOL     OW32482   4.349   2.681   4.125 -0.1693 -0.3183 -0.0995
 6949SOL    HW132483   4.347   2.587   4.146 -0.3814  0.1893  2.1337
 6949SOL    HW232484   4.342   2.725   4.210 -2.5956 -1.0280  0.0507
 6950SOL     OW32485   3.645   1.605   2.771 -0.3825 -0.1365 -0.0849
 6950SOL    HW132486   3.723   1.597   2.716 -0.0290  1.6713  0.1576
 6950SOL    HW232487   3.673   1.685   2.815  0.7041  1.4859 -3.8326
 6951SOL     OW32488   2.904   4.321   0.862 -0.4604  0.3606  0.4208
 6951SOL    HW132489   2.963   4.294   0.792  1.0054 -0.5989  2.0283
 6951SOL    HW232490   2.969   4.335   0.932 -2.1549  1.0986  1.8508
 6952SOL     OW32491   3.734   0.588  13.417  0.0434  0.3133 -0.1330
 6952SOL    HW132492   3.661   0.535  13.386  0.1255 -0.8063  1.6200
 6952SOL    HW232493   3.728   0.665  13.359 -1.5452  0.9331  0.8516
 6953SOL     OW32494   2.703   2.022   4.775  0.1293  0.1319 -0.1466
 6953SOL    HW132495   2.615   2.048   4.745 -0.4653 -0.5737  0.9670
 6953SOL    HW232496   2.705   1.931   4.745  0.6220 -0.3902  1.4959
 6954SOL     OW32497   1.635   2.295  12.582  0.0192  0.5391 -0.2484
 6954SOL    HW132498   1.545   2.327  12.586 -0.1981  0.0921 -1.7812
 6954SOL    HW232499   1.639   2.240  12.505  1.9097  1.7413 -0.9958
 6955SOL     OW32500   1.735   2.597   3.965  0.2456  0.5181  0.2498
 6955SOL    HW132501   1.767   2.687   3.963  2.1062 -0.1383  0.5291
 6955SOL    HW232502   1.643   2.607   3.990  0.2130 -0.8636  0.6420
 6956SOL     OW32503   1.990   0.673   3.304  0.0759 -0.3648  0.2846
 6956SOL    HW132504   2.074   0.641   3.337  1.1420 -0.7335 -2.7685
 6956SOL    HW232505   2.000   0.768   3.304 -0.1402 -0.3341 -1.5374
 6957SOL     OW32506   4.593   3.048  16.238  0.1645  0.4485  0.5706
 6957SOL    HW132507   4.503   3.065  16.264  0.5599  1.3511  1.3522
 6957SOL    HW232508   4.592   3.083  16.149  0.1920 -1.2134 -0.0844
 6958SOL     OW32509   0.039   4.651   9.174  0.2061  0.3756  0.3046
 6958SOL    HW132510   4.711   4.613   9.113 -0.0331  1.3457 -0.0426
 6958SOL    HW232511   4.729   4.733   9.188 -1.7707 -0.4431 -1.4110
 6959SOL     OW32512   0.016   0.110   1.785 -0.1148 -0.2473 -0.0895
 6959SOL    HW132513   0.053   0.162   1.714 -0.5843  0.0553 -0.1118
 6959SOL    HW232514   4.690   0.169   1.827 -0.0872 -0.3470  0.0934
 6960SOL     OW32515   0.758   0.318   4.001 -0.6215 -0.1254  0.1093
 6960SOL    HW132516   0.668   0.295   3.976 -1.0994  2.0313 -0.2220
 6960SOL    HW232517   0.739   0.407   4.033  1.9451  0.1106  0.9930
 6961SOL     OW32518   1.866   1.330   1.313 -0.7555 -0.7793 -0.3270
 6961SOL    HW132519   1.844   1.297   1.400  1.9366 -1.7588  0.0030
 6961SOL    HW232520   1.778   1.346   1.279 -1.1200 -0.6710  0.6807
 6962SOL     OW32521   4.587   3.095   8.355  0.0895 -0.1507  0.7050
 6962SOL    HW132522   4.644   3.061   8.425 -0.0659  0.4270  1.1102
 6962SOL    HW232523   4.652   3.111   8.287 -0.4501 -2.1715 -0.2907
 6963SOL     OW32524   0.154   2.806  17.246 -0.0708 -0.3235 -0.5451
 6963SOL    HW132525   0.183   2.802  17.155  0.9649 -0.1307 -0.2151
 6963SOL    HW232526   0.175   2.718  17.278  0.8549 -0.4338 -1.4626
 6964SOL     OW32527   1.847   0.035  13.868 -0.2042 -0.2067  0.6921
 6964SOL    HW132528   1.868   0.127  13.883  0.5161 -0.5281  1.6309
 6964SOL    HW232529   1.932   4.729  13.881  0.6650  1.7898  1.5562
 6965SOL     OW32530   3.780   0.039   3.761  0.3015 -0.6552 -0.2288
 6965SOL    HW132531   3.718   0.108   3.784  1.0606  0.3216 -1.1389
 6965SOL    HW232532   3.719   4.707   3.732 -1.4262  1.2431 -1.0668
 6966SOL     OW32533   2.876   4.453   7.588  0.9230 -0.5486 -0.6288
 6966SOL    HW132534   2.891   4.363   7.617  0.9174 -0.7919 -1.3702
 6966SOL    HW232535   2.919   4.500   7.659  0.1889 -1.8424  0.6652
 6967SOL     OW32536   0.744   0.575  13.983 -0.6122  0.2058  0.4970
 6967SOL    HW132537   0.756   0.582  13.888  0.8032  1.3943  0.7702
 6967SOL    HW232538   0.810   0.638  14.012 -0.8364 -0.0992  1.6733
 6968SOL     OW32539   4.616   0.995   7.993 -0.2045  0.0722  0.1131
 6968SOL    HW132540   4.590   0.903   7.988  0.7017  0.0010 -2.9981
 6968SOL    HW232541   4.530   1.036   7.998 -0.6421 -0.8806  0.5919
 6969SOL     OW32542   2.044   0.624   2.013 -0.0431  0.2320 -0.0124
 6969SOL    HW132543   2.097   0.551   2.044  0.0600  0.7364  0.9861
 6969SOL    HW232544   2.051   0.679   2.091 -1.1912 -0.8815  0.8829
 6970SOL     OW32545   0.516   2.907   3.495  0.4012 -0.1196 -0.0843
 6970SOL    HW132546   0.466   2.829   3.473 -0.7626  0.4782  0.4314
 6970SOL    HW232547   0.594   2.870   3.538  1.6128  2.3592 -0.1063
 6971SOL     OW32548   0.943   2.516   1.005 -0.3251 -0.9533 -0.4341
 6971SOL    HW132549   0.872   2.580   0.993  1.3635  0.8956 -0.6269
 6971SOL    HW232550   0.947   2.475   0.919 -1.1726 -0.8055 -0.5489
 6972SOL     OW32551   1.937   2.710   7.507  0.8527 -0.1698  0.3494
 6972SOL    HW132552   1.872   2.761   7.459  0.3347 -2.0218 -0.8713
 6972SOL    HW232553   1.887   2.689   7.586 -0.2299  0.3279 -0.2204
 6973SOL     OW32554   0.789   2.620   5.776  0.1447  0.1212  0.6468
 6973SOL    HW132555   0.844   2.607   5.854  0.4946 -1.9219  0.0499
 6973SOL    HW232556   0.853   2.647   5.710  1.3955 -0.8686  1.4587
 6974SOL     OW32557   2.508   1.538   3.550  0.1387 -0.1098 -0.5722
 6974SOL    HW132558   2.592   1.563   3.588 -0.8181 -1.5082  2.4799
 6974SOL    HW232559   2.486   1.622   3.510 -0.0087  0.2288  0.2184
 6975SOL     OW32560   2.367   3.533   7.638 -0.8365  0.3210 -0.0743
 6975SOL    HW132561   2.320   3.499   7.561 -1.1007 -1.4465  0.8620
 6975SOL    HW232562   2.341   3.466   7.701  1.9028 -1.7465 -1.1656
 6976SOL     OW32563   2.821   0.988   5.395 -0.0105 -0.3601  0.4601
 6976SOL    HW132564   2.883   0.943   5.337 -0.3527  2.3973 -2.0774
 6976SOL    HW232565   2.741   0.995   5.344  1.2671 -1.0158 -1.6472
 6977SOL     OW32566   4.293   2.499   2.585  0.4472  0.3719 -0.7071
 6977SOL    HW132567   4.242   2.557   2.641 -0.8730 -1.0329 -0.4420
 6977SOL    HW232568   4.343   2.563   2.535 -0.6938  0.8781 -1.2000
 6978SOL     OW32569   0.524   4.679   4.461 -0.1566 -0.0167  0.9392
 6978SOL    HW132570   0.506   4.627   4.539  0.2119 -0.4839  0.7102
 6978SOL    HW232571   0.605   4.723   4.487  1.0357 -1.6293 -0.0615
 6979SOL     OW32572   3.447   2.038  13.964 -0.8287 -0.0396 -0.1283
 6979SOL    HW132573   3.384   2.104  13.934  0.9967  0.8743 -1.9926
 6979SOL    HW232574   3.452   2.063  14.056  2.4412 -0.2001 -0.2638
 6980SOL     OW32575   3.094   1.056   6.341  0.2319  0.1959  0.5912
 6980SOL    HW132576   3.185   1.043   6.365 -0.0629 -1.5341  0.8010
 6980SOL    HW232577   3.099   1.141   6.297 -0.1976 -0.2344 -0.3085
 6981SOL     OW32578   3.873   4.452   8.442 -0.4548 -0.1403 -0.2728
 6981SOL    HW132579   3.950   4.505   8.422 -1.2875  1.1284 -0.1679
 6981SOL    HW232580   3.794   4.505   8.448  0.3221  1.0064 -0.1792
 6982SOL     OW32581   1.768   1.639   8.089  0.2101  0.6529 -0.4719
 6982SOL    HW132582   1.709   1.714   8.076 -2.4521 -1.4931 -0.8070
 6982SOL    HW232583   1.749   1.631   8.182  2.0045  3.3455  0.1240
 6983SOL     OW32584   2.366   2.043   9.196 -0.2999  0.5989  0.0504
 6983SOL    HW132585   2.396   1.995   9.119 -0.1777  1.2486 -0.3107
 6983SOL    HW232586   2.376   2.137   9.180  2.0691  0.6889  1.9842
 6984SOL     OW32587   0.154   1.851   5.266 -0.0320 -0.3450 -0.2139
 6984SOL    HW132588   0.088   1.783   5.277  0.5380 -1.1605 -1.7752
 6984SOL    HW232589   0.116   1.936   5.288  0.4716 -0.3908  0.8570
 6985SOL     OW32590   1.822   2.263  14.846  0.8668  0.2289  0.1511
 6985SOL    HW132591   1.747   2.255  14.786  0.9389 -0.1328  0.1138
 6985SOL    HW232592   1.863   2.339  14.803 -0.0896  0.0238 -1.1390
 6986SOL     OW32593   3.174   2.888  14.698 -0.2977  0.2011  0.6691
 6986SOL    HW132594   3.197   2.825  14.766  2.5363  1.6859  1.0554
 6986SOL    HW232595   3.110   2.840  14.645 -0.1685  1.0674 -0.2645
 6987SOL     OW32596   0.307   3.204   4.130  0.1044  0.4193  0.3416
 6987SOL    HW132597   0.323   3.179   4.039  0.4518  1.8038  0.0278
 6987SOL    HW232598   0.355   3.134   4.175 -0.0541  0.4366  0.5403
 6988SOL     OW32599   0.156   4.068  16.217  0.6376 -0.3000 -0.5453
 6988SOL    HW132600   0.168   4.063  16.312  0.3449  0.4321 -0.4720
 6988SOL    HW232601   0.120   3.983  16.194 -0.9544  0.2250  0.0338
 6989SOL     OW32602   0.661   0.228   3.342 -0.1978  0.0251 -0.2105
 6989SOL    HW132603   0.737   0.197   3.292  1.2902  1.3179  1.2661
 6989SOL    HW232604   0.603   0.262   3.274  1.0341  0.7249 -0.9166
 6990SOL     OW32605   2.621   1.541  13.088  0.1536 -0.2411  0.1582
 6990SOL    HW132606   2.670   1.460  13.077 -0.3651 -0.1168 -2.9510
 6990SOL    HW232607   2.531   1.514  13.074  1.1932 -3.1011 -0.9866
 6991SOL     OW32608   1.790   2.876  17.611  0.2196  0.1208 -0.6019
 6991SOL    HW132609   1.771   2.783  17.626  2.2466  0.1969  2.5795
 6991SOL    HW232610   1.868   2.880  17.667  1.7402  2.2042 -2.8447
 6992SOL     OW32611   0.766   4.367  16.473  0.4839  0.3233 -0.6169
 6992SOL    HW132612   0.745   4.286  16.521  4.0671  0.6308  1.4616
 6992SOL    HW232613   0.689   4.372  16.415 -0.5147  1.3358  0.8007
 6993SOL     OW32614   1.971   3.434  11.282  0.1292  0.0438  0.1332
 6993SOL    HW132615   2.059   3.430  11.243  0.5025 -1.2616  1.0936
 6993SOL    HW232616   1.904   3.448  11.216  0.1406  0.4862  0.2175
 6994SOL     OW32617   1.032   1.375   7.854 -0.4730 -0.5281  0.2258
 6994SOL    HW132618   1.121   1.339   7.861  0.8886  2.4512 -1.8579
 6994SOL    HW232619   1.040   1.470   7.850 -0.2480 -0.5591 -0.1149
 6995SOL     OW32620   3.313   1.315  14.369  0.7469  0.4074 -0.2855
 6995SOL    HW132621   3.274   1.255  14.305  0.1291 -1.0017  1.4167
 6995SOL    HW232622   3.254   1.292  14.440  0.0429 -0.8111 -1.2650
 6996SOL     OW32623   1.136   3.768   3.150 -0.3322 -0.1103 -0.0481
 6996SOL    HW132624   1.143   3.841   3.211  1.5747 -0.5680  0.2919
 6996SOL    HW232625   1.095   3.707   3.211 -1.7046  1.7011  0.8179
 6997SOL     OW32626   4.321   2.159   6.879 -0.0531  0.0011 -0.4362
 6997SOL    HW132627   4.285   2.113   6.955  3.3904 -1.0308  0.5755
 6997SOL    HW232628   4.282   2.098   6.816 -0.3804 -0.4446  0.1974
 6998SOL     OW32629   1.005   0.309   0.654 -0.1641 -0.0346 -0.5389
 6998SOL    HW132630   0.988   0.260   0.734  0.0201 -0.8839 -1.0138
 6998SOL    HW232631   1.021   0.233   0.598  1.1007 -0.1459 -0.0334
 6999SOL     OW32632   3.317   2.001   5.836  0.2857 -0.9120 -0.1872
 6999SOL    HW132633   3.317   1.922   5.782  1.4570  0.8879 -2.8212
 6999SOL    HW232634   3.256   1.975   5.905  1.3071  2.7059  2.1100
 7000SOL     OW32635   3.124   0.751   7.787 -0.0617  0.1854  0.0583
 7000SOL    HW132636   3.145   0.703   7.707 -0.9714  0.5038 -0.3738
 7000SOL    HW232637   3.184   0.826   7.791 -0.7799  0.8376 -1.3167
 7001SOL     OW32638   4.060   2.970  16.799  0.7621 -0.3117  0.7627
 7001SOL    HW132639   4.146   2.964  16.756 -1.2268  1.6232 -3.4457
 7001SOL    HW232640   4.017   3.038  16.748  0.4602  1.4061  3.2795
 7002SOL     OW32641   0.092   4.185   4.311 -0.0289 -0.3968  0.1733
 7002SOL    HW132642   0.114   4.182   4.218 -0.9483 -0.6399 -0.0366
 7002SOL    HW232643   0.001   4.155   4.317  0.1469 -1.3565 -2.1184
 7003SOL     OW32644   2.293   1.427  16.096 -0.6109  0.4870 -0.5055
 7003SOL    HW132645   2.276   1.460  16.008  1.0396  1.1769 -0.5742
 7003SOL    HW232646   2.386   1.404  16.092 -1.1085 -1.6602 -0.0639
 7004SOL     OW32647   4.411   3.893   0.932 -0.1488  0.4083  0.4029
 7004SOL    HW132648   4.432   3.849   0.849 -0.4517  0.2171  0.4301
 7004SOL    HW232649   4.393   3.978   0.893 -0.6840  1.2118  2.4390
 7005SOL     OW32650   0.031   3.822   3.452 -0.6406 -0.4719 -0.0694
 7005SOL    HW132651   0.111   3.844   3.501 -1.7353  1.9134  0.6736
 7005SOL    HW232652   4.694   3.861   3.499 -0.3234 -1.0700  0.9302
 7006SOL     OW32653   4.246   2.531  13.837  0.1646 -0.3319 -0.3621
 7006SOL    HW132654   4.196   2.459  13.799  0.4094 -0.6561 -0.0664
 7006SOL    HW232655   4.190   2.606  13.813  1.7370  1.2094  0.7991
 7007SOL     OW32656   1.179   0.566   9.245  0.1376  0.0809  0.4800
 7007SOL    HW132657   1.139   0.638   9.197 -0.1121 -0.0948  0.4208
 7007SOL    HW232658   1.222   0.617   9.312  2.0662 -0.7298 -0.1403
 7008SOL     OW32659   3.032   3.218   2.833 -0.4757  0.1280 -0.4982
 7008SOL    HW132660   3.050   3.124   2.839  0.6442  0.2409 -1.8955
 7008SOL    HW232661   3.091   3.253   2.900 -1.3118  0.9857 -0.2177
 7009SOL     OW32662   2.702   4.508   6.842 -0.5495 -0.5882  0.0984
 7009SOL    HW132663   2.768   4.560   6.888  0.3349 -1.7515  0.1519
 7009SOL    HW232664   2.624   4.536   6.890 -0.2544  0.0738  0.1870
 7010SOL     OW32665   4.104   0.788  10.960 -0.1206  0.0415  0.5811
 7010SOL    HW132666   4.009   0.776  10.960  0.0007 -0.9049  0.8978
 7010SOL    HW232667   4.122   0.824  10.873 -0.3771 -0.7202  0.2167
 7011SOL     OW32668   3.251   4.125   9.690  0.2064  0.0904  0.0589
 7011SOL    HW132669   3.207   4.185   9.629  0.6212  0.0411 -0.2951
 7011SOL    HW232670   3.257   4.044   9.639  0.2427  0.2720 -0.2285
 7012SOL     OW32671   2.811   4.630   4.290 -1.0154 -0.6344  0.2810
 7012SOL    HW132672   2.859   4.698   4.337  0.1900 -0.0761 -1.7509
 7012SOL    HW232673   2.738   4.683   4.258 -0.2096  0.4899  0.3153
 7013SOL     OW32674   0.672   3.879  15.905 -0.2114 -0.0895 -0.1151
 7013SOL    HW132675   0.727   3.875  15.827  0.6464 -0.5022  0.5171
 7013SOL    HW232676   0.662   3.784  15.909 -1.1225  0.0243  0.2780
 7014SOL     OW32677   2.741   2.018   2.364  0.4072  0.0206 -0.2890
 7014SOL    HW132678   2.699   1.958   2.302 -0.7710  1.2528 -0.6842
 7014SOL    HW232679   2.678   2.029   2.435  1.6977 -1.0427  1.0107
 7015SOL     OW32680   3.938   3.180   3.922  0.4063 -0.1084  0.4503
 7015SOL    HW132681   3.876   3.196   3.993  2.2247  1.2273  1.7616
 7015SOL    HW232682   3.940   3.084   3.919 -2.8579 -0.2138  1.9294
 7016SOL     OW32683   3.147   4.389  17.378 -0.5057  0.0657  0.0635
 7016SOL    HW132684   3.156   4.440  17.297 -0.3709 -1.0422 -0.6295
 7016SOL    HW232685   3.132   4.452  17.448  1.4298  0.2159  0.3284
 7017SOL     OW32686   0.558   1.201  11.155  0.1541 -0.4557  0.3020
 7017SOL    HW132687   0.529   1.167  11.240 -1.3190 -1.6909 -0.6796
 7017SOL    HW232688   0.538   1.127  11.098  1.1663  0.4112 -1.1802
 7018SOL     OW32689   1.198   0.938  14.719  0.1432 -0.0537  0.3043
 7018SOL    HW132690   1.283   0.895  14.714  0.1237 -0.0939  0.3142
 7018SOL    HW232691   1.217   1.023  14.679  0.4330 -0.4074 -0.3073
 7019SOL     OW32692   3.374   0.991   2.150  0.0730 -0.0565 -0.2804
 7019SOL    HW132693   3.409   0.979   2.238 -1.1008  1.4828  0.3923
 7019SOL    HW232694   3.291   1.034   2.169  0.7942  1.1366  0.1932
 7020SOL     OW32695   3.353   2.322   3.947  0.7709  0.1816  0.1945
 7020SOL    HW132696   3.262   2.300   3.925  0.5611  1.0437  0.2144
 7020SOL    HW232697   3.351   2.404   3.898  0.6849  0.4451  0.6414
 7021SOL     OW32698   0.090   0.207   3.649  0.1096  0.0373 -0.3838
 7021SOL    HW132699   0.183   0.184   3.647  0.2350  0.2317  3.1718
 7021SOL    HW232700   0.060   0.176   3.734 -0.5512 -0.8077 -0.9251
 7022SOL     OW32701   0.430   0.554   5.479 -0.0355  0.2328  0.3282
 7022SOL    HW132702   0.379   0.626   5.517  1.0720 -0.1673  2.5968
 7022SOL    HW232703   0.360   0.491   5.496 -1.3894  1.4055 -0.8410
 7023SOL     OW32704   3.497   1.808   6.231 -0.8912 -0.6203 -0.6158
 7023SOL    HW132705   3.405   1.827   6.252  0.3639  3.8962  0.7349
 7023SOL    HW232706   3.501   1.719   6.266  0.6301 -0.9236 -1.5442
 7024SOL     OW32707   0.182   2.769   4.844 -0.3774  0.1686 -0.5862
 7024SOL    HW132708   0.217   2.715   4.773  0.9226  1.5216 -0.9719
 7024SOL    HW232709   0.246   2.839   4.854  2.3403 -2.5333  0.9810
 7025SOL     OW32710   0.456   0.238   5.976  0.0420  0.2267  0.1676
 7025SOL    HW132711   0.521   0.258   5.909 -0.7386 -1.2101 -1.0156
 7025SOL    HW232712   0.469   0.144   5.992  0.5616  0.4725  1.1461
 7026SOL     OW32713   1.531   2.300  11.321  0.2363  0.0869 -0.3075
 7026SOL    HW132714   1.589   2.334  11.389  1.6726 -0.2219 -1.3755
 7026SOL    HW232715   1.533   2.378  11.267  1.0772 -0.6446 -1.3444
 7027SOL     OW32716   1.111   0.004  10.717 -0.6167  0.4072  0.0842
 7027SOL    HW132717   1.198   4.724  10.752 -0.1737  1.3315 -0.6183
 7027SOL    HW232718   1.080   0.076  10.773  2.6519  2.2309 -0.4849
 7028SOL     OW32719   0.457   1.231   4.206 -0.1910 -0.4673 -0.2950
 7028SOL    HW132720   0.541   1.221   4.163 -1.2997 -0.2691 -2.5018
 7028SOL    HW232721   0.430   1.314   4.166 -2.6614 -0.0831  2.0957
 7029SOL     OW32722   1.222   4.524  11.848  0.2870  0.4509 -0.5771
 7029SOL    HW132723   1.186   4.538  11.936  1.2532  1.8805 -0.4148
 7029SOL    HW232724   1.286   4.454  11.855  0.5120  0.4386 -2.7257
 7030SOL     OW32725   3.876   1.277   8.559 -0.2666 -0.2918 -0.1595
 7030SOL    HW132726   3.790   1.311   8.582 -1.0931 -0.7873 -2.6156
 7030SOL    HW232727   3.921   1.361   8.554 -0.5450 -0.0074  1.9341
 7031SOL     OW32728   4.565   4.195   6.954 -0.3771  0.8046 -0.3835
 7031SOL    HW132729   4.519   4.212   6.871 -0.1883 -0.6716 -0.7907
 7031SOL    HW232730   4.512   4.138   7.010  0.8182  0.4600  0.3744
 7032SOL     OW32731   3.090   1.758   8.924  0.2077 -0.4135 -0.1049
 7032SOL    HW132732   3.156   1.688   8.923  1.2446  0.5718 -0.8134
 7032SOL    HW232733   3.140   1.836   8.901 -0.9707 -0.2680 -2.2129
 7033SOL     OW32734   2.074   4.381  15.154  0.3643 -0.7268 -0.1237
 7033SOL    HW132735   2.143   4.315  15.159  0.1982 -0.9694 -1.1425
 7033SOL    HW232736   2.046   4.381  15.062 -0.1977  1.0608  0.0539
 7034SOL     OW32737   4.211   0.174   1.165 -0.4991 -0.3063  0.1558
 7034SOL    HW132738   4.254   0.088   1.162 -0.5314 -0.2738 -1.3633
 7034SOL    HW232739   4.131   0.163   1.216 -0.8688 -0.5221 -0.4741
 7035SOL     OW32740   3.733   3.297  17.630 -0.0269 -0.1090  0.4119
 7035SOL    HW132741   3.669   3.249  17.577  0.2883  0.5812 -0.5861
 7035SOL    HW232742   3.745   3.240  17.706  1.1901  1.8633  1.6945
 7036SOL     OW32743   0.328   4.277   3.233 -0.4323 -0.4002 -0.0588
 7036SOL    HW132744   0.302   4.276   3.325  1.0563 -1.3868  0.3498
 7036SOL    HW232745   0.263   4.225   3.185 -1.8651  1.8343 -0.5086
 7037SOL     OW32746   1.584   1.474  11.970  0.4007 -0.5521  0.2954
 7037SOL    HW132747   1.489   1.463  11.966 -0.0413  2.3582  2.6261
 7037SOL    HW232748   1.613   1.383  11.981  3.0274 -0.0626 -2.5873
 7038SOL     OW32749   0.880   2.677   9.133 -0.4957  1.0206  0.2439
 7038SOL    HW132750   0.893   2.588   9.167  0.1037 -0.6065 -4.3401
 7038SOL    HW232751   0.969   2.712   9.136 -0.2683  0.4258  0.2958
 7039SOL     OW32752   1.182   4.077  11.378 -0.0729  0.1669 -0.5215
 7039SOL    HW132753   1.222   4.092  11.292  1.0507  1.9242  0.2969
 7039SOL    HW232754   1.087   4.073  11.366 -0.0923 -1.4908  0.2136
 7040SOL     OW32755   3.981   2.256   8.249 -0.5685  0.1820  0.3875
 7040SOL    HW132756   3.946   2.244   8.338 -0.3543 -1.3181  0.2689
 7040SOL    HW232757   3.900   2.286   8.208  1.7123  3.8313 -1.3746
 7041SOL     OW32758   0.991   2.213   6.434 -0.2687  0.0685 -0.3759
 7041SOL    HW132759   1.082   2.236   6.452 -0.5030  0.1001  0.7688
 7041SOL    HW232760   0.947   2.206   6.519  1.2853  1.0332  0.5026
 7042SOL     OW32761   4.557   3.439  16.229 -0.4130 -0.1719  0.0856
 7042SOL    HW132762   4.571   3.441  16.134 -1.3556  1.4966 -0.0108
 7042SOL    HW232763   4.645   3.445  16.265 -0.9199  1.0985  1.1148
 7043SOL     OW32764   2.961   2.626   3.250 -0.8109 -0.3356  0.7035
 7043SOL    HW132765   2.980   2.705   3.300 -0.5204 -0.3814  0.6689
 7043SOL    HW232766   3.051   2.608   3.221 -1.7158 -2.4194 -0.7751
 7044SOL     OW32767   0.090   1.731   6.259  0.0307  0.4904  0.7501
 7044SOL    HW132768   0.043   1.698   6.184  0.4368 -0.1239  0.7682
 7044SOL    HW232769   0.151   1.659   6.272 -1.1332 -0.6284 -0.0802
 7045SOL     OW32770   4.019   4.125  17.031  0.6455 -0.0684  0.6549
 7045SOL    HW132771   4.036   4.194  16.968  1.5768 -0.9820 -0.1063
 7045SOL    HW232772   3.980   4.061  16.971  3.0132 -1.1352  0.2457
 7046SOL     OW32773   1.110   4.315   7.462  0.3974 -0.0880  0.1154
 7046SOL    HW132774   1.180   4.378   7.451 -0.0705  0.3691 -0.2262
 7046SOL    HW232775   1.085   4.299   7.371  1.0920 -2.2719  0.2897
 7047SOL     OW32776   3.660   2.399   3.689 -0.1947 -0.3689 -0.0668
 7047SOL    HW132777   3.616   2.315   3.706 -1.2403  0.4365  1.1305
 7047SOL    HW232778   3.717   2.403   3.766 -1.2898  3.6694  0.4912
 7048SOL     OW32779   3.928   4.132   6.998  0.3500 -0.0074  0.1122
 7048SOL    HW132780   3.939   4.144   7.092  1.5686 -0.9394  0.0855
 7048SOL    HW232781   3.950   4.220   6.968 -2.8566  0.5196 -0.7077
 7049SOL     OW32782   0.603   4.577  17.643  0.0866 -0.2295  0.1560
 7049SOL    HW132783   0.584   4.582  17.550 -2.9388  0.1367  0.7766
 7049SOL    HW232784   0.525   4.531  17.674  0.5589  0.1096  1.8917
 7050SOL     OW32785   2.835   0.895   1.003  0.4501 -0.2727 -0.3322
 7050SOL    HW132786   2.901   0.926   0.941  1.7025 -1.7237  0.3042
 7050SOL    HW232787   2.783   0.829   0.957  2.1124 -0.3836 -2.0241
 7051SOL     OW32788   2.301   4.128   6.387 -0.2024 -0.0846  0.5723
 7051SOL    HW132789   2.397   4.130   6.383 -0.2168 -0.7735 -0.2993
 7051SOL    HW232790   2.298   4.033   6.398 -0.7180  0.1770  2.6866
 7052SOL     OW32791   3.124   4.194   9.907 -0.5749 -0.2405  0.0576
 7052SOL    HW132792   3.156   4.171   9.820 -0.2325  0.4792 -0.0090
 7052SOL    HW232793   3.205   4.181   9.956  0.3070  1.2374 -1.0021
 7053SOL     OW32794   4.146   0.151  12.271 -0.4773  0.0026 -0.9532
 7053SOL    HW132795   4.077   0.129  12.334  1.8824  0.1691  1.6841
 7053SOL    HW232796   4.204   0.205  12.325 -0.6293 -0.4039 -0.3858
 7054SOL     OW32797   0.306   2.465   4.220 -0.2681 -0.0631  0.0250
 7054SOL    HW132798   0.212   2.447   4.222 -0.6628  2.0364  0.3346
 7054SOL    HW232799   0.334   2.443   4.309  2.5964  1.1851 -0.5700
 7055SOL     OW32800   1.693   3.671   8.714 -0.0647  0.5330  0.5246
 7055SOL    HW132801   1.619   3.685   8.656  0.0109 -0.6019  0.1544
 7055SOL    HW232802   1.654   3.628   8.790  0.2578  0.6986  0.7865
 7056SOL     OW32803   4.166   2.167  13.468  0.2454 -0.2384 -0.3867
 7056SOL    HW132804   4.221   2.090  13.451 -0.5462 -1.0056  0.4902
 7056SOL    HW232805   4.085   2.157  13.417 -0.1032  0.1018  0.1029
 7057SOL     OW32806   0.608   1.887   4.085 -0.6193  0.1421 -0.0552
 7057SOL    HW132807   0.629   1.862   4.175  0.2616 -1.4756 -0.7328
 7057SOL    HW232808   0.523   1.846   4.068 -0.2193  0.0391 -1.8087
 7058SOL     OW32809   3.821   2.034   6.602  0.6619  0.4392 -0.3053
 7058SOL    HW132810   3.736   2.000   6.630  0.0756  0.9498 -1.4532
 7058SOL    HW232811   3.860   1.952   6.571 -1.1735 -1.3511  2.0797
 7059SOL     OW32812   2.648   0.729   6.827  0.6528 -0.5402 -0.1691
 7059SOL    HW132813   2.611   0.641   6.822  0.8462 -0.6052 -0.4352
 7059SOL    HW232814   2.725   0.720   6.771  2.1657  3.0007  1.3383
 7060SOL     OW32815   0.005   1.514   0.278 -0.3381 -0.5205  0.4073
 7060SOL    HW132816   0.031   1.607   0.275  0.0224 -0.6151  0.5660
 7060SOL    HW232817   4.724   1.500   0.185 -1.8756  0.5337  0.5424
 7061SOL     OW32818   0.795   1.040   9.240 -0.1343 -0.0281 -0.6955
 7061SOL    HW132819   0.745   1.082   9.310 -1.8253 -0.5234 -1.6240
 7061SOL    HW232820   0.869   1.100   9.232 -0.7173  0.4486 -2.4489
 7062SOL     OW32821   4.415   1.334   4.074  0.0020  0.1601  0.2440
 7062SOL    HW132822   4.474   1.335   3.999  0.9631  3.3770  1.0401
 7062SOL    HW232823   4.331   1.335   4.029  0.0083  2.2124  0.2454
 7063SOL     OW32824   0.174   0.447  10.959 -0.1997 -0.5150  0.1917
 7063SOL    HW132825   0.149   0.366  10.915 -1.3760  0.4318 -0.8891
 7063SOL    HW232826   0.265   0.437  10.987 -0.2999  0.8662  1.0152
 7064SOL     OW32827   0.239   3.963  15.389  0.4884  0.5382  0.2485
 7064SOL    HW132828   0.310   3.981  15.451  1.1425 -0.2728 -0.2545
 7064SOL    HW232829   0.270   3.876  15.361  0.8106  0.7753 -0.1315
 7065SOL     OW32830   4.226   4.675  16.887 -0.2938  0.4885  0.2073
 7065SOL    HW132831   4.131   4.674  16.877 -0.2548  2.0185 -0.3630
 7065SOL    HW232832   4.227   4.715  16.974  1.5237  1.6904 -0.3685
 7066SOL     OW32833   1.740   4.366  12.120  0.1357  0.5839 -0.2873
 7066SOL    HW132834   1.798   4.412  12.059 -0.0741 -0.6448 -1.4046
 7066SOL    HW232835   1.712   4.289  12.070  1.0660  0.1229 -0.0892
 7067SOL     OW32836   0.947   1.041   2.484  0.2400 -0.4115 -0.2282
 7067SOL    HW132837   1.043   1.042   2.482  0.2608 -3.3767 -0.3179
 7067SOL    HW232838   0.941   1.077   2.572 -1.6944 -3.1420  0.7487
 7068SOL     OW32839   2.712   0.202   1.043  0.0418  0.0421 -0.0423
 7068SOL    HW132840   2.657   0.260   1.096 -0.5523 -1.1243  0.6129
 7068SOL    HW232841   2.699   0.117   1.085 -0.2159  0.8049  1.4159
 7069SOL     OW32842   4.455   3.419   3.093  0.4265 -0.1115 -0.1275
 7069SOL    HW132843   4.501   3.502   3.086  0.4637 -0.0868  0.4478
 7069SOL    HW232844   4.484   3.403   3.183  0.4585  3.8346  0.5564
 7070SOL     OW32845   3.486   1.422  14.220  0.3092  0.2698  0.2712
 7070SOL    HW132846   3.531   1.338  14.232 -1.2484 -0.4874  0.7326
 7070SOL    HW232847   3.427   1.407  14.294 -0.7786 -3.0133 -1.2224
 7071SOL     OW32848   2.727   0.646   5.665  0.7772  0.3323 -0.7833
 7071SOL    HW132849   2.758   0.597   5.590 -0.6322  0.3113 -1.3523
 7071SOL    HW232850   2.674   0.577   5.706  2.4402 -0.2392  0.4148
 7072SOL     OW32851   0.295   2.718   7.844  0.8141 -1.0077 -0.1122
 7072SOL    HW132852   0.249   2.748   7.923  0.5669  0.0551 -0.6615
 7072SOL    HW232853   0.369   2.670   7.881  1.2849 -0.6366 -0.5795
 7073SOL     OW32854   3.773   0.486  16.278  0.3043 -0.2178 -0.6209
 7073SOL    HW132855   3.690   0.441  16.262 -0.3243  0.1633  1.5078
 7073SOL    HW232856   3.811   0.472  16.191 -0.6400  2.0508 -1.3761
 7074SOL     OW32857   2.500   4.674  11.145 -0.4255  0.1503 -0.2345
 7074SOL    HW132858   2.545   4.693  11.063  0.6769  0.5624  0.4693
 7074SOL    HW232859   2.511   4.579  11.152  1.2789  0.4168  0.5713
 7075SOL     OW32860   1.145   3.572  16.574 -1.1116  0.1171  0.0944
 7075SOL    HW132861   1.088   3.505  16.536 -1.0907  1.0267 -1.5294
 7075SOL    HW232862   1.077   3.635  16.596 -2.4343 -0.9247 -1.0109
 7076SOL     OW32863   3.596   3.383   4.263 -0.2229 -0.3917 -0.2552
 7076SOL    HW132864   3.515   3.333   4.267 -0.2258 -0.0972  3.9757
 7076SOL    HW232865   3.573   3.458   4.207  0.5083 -0.8158 -1.1232
 7077SOL     OW32866   3.813   0.667   3.987 -0.0332 -0.2247 -0.3057
 7077SOL    HW132867   3.772   0.719   3.918  1.4595 -0.8808 -1.7017
 7077SOL    HW232868   3.895   0.664   3.937 -0.9109  1.5434 -1.8494
 7078SOL     OW32869   0.356   1.312   5.895 -0.0993 -0.4325  0.1517
 7078SOL    HW132870   0.450   1.331   5.889 -0.1436 -0.4273 -0.4948
 7078SOL    HW232871   0.330   1.368   5.822  2.1426  0.6510  0.1777
 7079SOL     OW32872   4.230   4.490   7.792  0.0209 -0.1234 -0.0252
 7079SOL    HW132873   4.232   4.554   7.864  0.0239  1.2713 -1.2678
 7079SOL    HW232874   4.149   4.523   7.752  0.5653  0.4199 -0.6607
 7080SOL     OW32875   4.420   4.377   5.591  0.0011 -0.4487  0.4324
 7080SOL    HW132876   4.486   4.310   5.570  0.0024 -0.6960  1.2366
 7080SOL    HW232877   4.449   4.399   5.679 -0.0789 -2.0913  0.8716
 7081SOL     OW32878   4.415   2.478  12.483  0.0919 -0.1576 -0.0742
 7081SOL    HW132879   4.346   2.544  12.480 -0.3887 -0.7520 -1.9484
 7081SOL    HW232880   4.486   2.531  12.447  0.6190 -1.1095 -0.4203
 7082SOL     OW32881   1.361   4.309   2.303  0.1883  0.0353  0.1248
 7082SOL    HW132882   1.370   4.251   2.379 -0.7555 -2.3608 -1.6059
 7082SOL    HW232883   1.270   4.338   2.312  0.0564 -0.0652 -0.9305
 7083SOL     OW32884   1.806   3.594   6.761 -0.7040 -0.0686  0.6663
 7083SOL    HW132885   1.747   3.655   6.805 -1.4291 -1.8569  2.1783
 7083SOL    HW232886   1.874   3.658   6.740  0.4307  0.1443  4.9658
 7084SOL     OW32887   0.932   2.321   3.494  0.1862  0.3127 -0.1406
 7084SOL    HW132888   0.966   2.279   3.415  3.0881  1.7686  0.3431
 7084SOL    HW232889   0.946   2.257   3.564 -4.1480 -1.5892 -1.0246
 7085SOL     OW32890   0.879   0.782  12.669 -0.6105 -0.2018 -0.4167
 7085SOL    HW132891   0.820   0.810  12.739 -0.5634  2.4743 -1.4358
 7085SOL    HW232892   0.831   0.800  12.588 -3.1370 -0.5146  1.0061
 7086SOL     OW32893   3.803   1.398   8.143 -0.0404 -0.1687  0.0890
 7086SOL    HW132894   3.848   1.351   8.073 -1.0113  0.1613 -0.7636
 7086SOL    HW232895   3.719   1.397   8.097  1.1040 -0.0359 -2.0161
 7087SOL     OW32896   0.190   4.418  13.542  0.0069 -0.0983 -0.2576
 7087SOL    HW132897   0.267   4.363  13.553  0.8285  1.4898  2.0581
 7087SOL    HW232898   0.166   4.403  13.451 -0.8580 -1.4127  0.1857
 7088SOL     OW32899   1.568   2.886   8.843  0.5706 -0.1892  0.2726
 7088SOL    HW132900   1.634   2.949   8.870 -0.0567  0.0761  1.2060
 7088SOL    HW232901   1.556   2.893   8.748  2.7146 -1.3271 -0.0737
 7089SOL     OW32902   0.578   1.702   8.301 -0.3576  0.6421 -0.2175
 7089SOL    HW132903   0.572   1.615   8.261  0.1679  0.1424  0.7790
 7089SOL    HW232904   0.634   1.679   8.376 -1.9923 -1.9713  0.2013
 7090SOL     OW32905   3.578   0.004  14.116  0.0415 -0.5411  0.1758
 7090SOL    HW132906   3.508   0.067  14.096  0.9860  0.6155  0.4775
 7090SOL    HW232907   3.654   0.047  14.076  0.4887 -0.7654  0.7802
 7091SOL     OW32908   3.483   0.966  17.458 -0.2287 -0.2356 -0.4112
 7091SOL    HW132909   3.543   0.967  17.384 -0.5956 -0.1348 -0.7074
 7091SOL    HW232910   3.515   1.039  17.512 -0.9313 -1.0017  1.0454
 7092SOL     OW32911   4.524   0.536   5.918  0.0892  0.7260 -0.7431
 7092SOL    HW132912   4.559   0.457   5.877 -0.9154 -1.1389  1.9282
 7092SOL    HW232913   4.579   0.543   5.996 -0.1333 -3.6822 -0.1847
 7093SOL     OW32914   1.872   2.922   7.071 -0.5513  0.1878 -0.0355
 7093SOL    HW132915   1.799   2.879   7.025  0.0044 -0.0581 -0.6899
 7093SOL    HW232916   1.945   2.862   7.056  1.4660  2.2682  1.5197
 7094SOL     OW32917   4.475   3.190   9.354 -0.0114  0.0567 -0.1694
 7094SOL    HW132918   4.569   3.178   9.340  0.1623 -0.9060  1.8994
 7094SOL    HW232919   4.465   3.214   9.446  2.3442  0.9661 -0.1572
 7095SOL     OW32920   1.324   2.080  16.016  0.1310  0.3067 -0.3698
 7095SOL    HW132921   1.407   2.054  16.055 -1.0544 -0.9847  1.2892
 7095SOL    HW232922   1.322   2.176  16.014 -1.1524  0.2251 -2.8918
 7096SOL     OW32923   3.921   0.070  16.927 -0.1399  0.1656 -0.0827
 7096SOL    HW132924   3.829   0.092  16.921 -0.6580 -2.1277 -0.4776
 7096SOL    HW232925   3.931   4.719  16.890 -2.4471 -1.1720  2.4108
 7097SOL     OW32926   0.123   4.186  15.252 -0.2929  0.3222 -0.0597
 7097SOL    HW132927   0.150   4.264  15.300 -2.6081  0.8386  0.4064
 7097SOL    HW232928   0.162   4.114  15.301  0.3347  0.5687 -0.1937
 7098SOL     OW32929   4.294   2.390   3.253 -0.0040  0.4517  0.2078
 7098SOL    HW132930   4.379   2.401   3.211  0.1134  0.6039  0.4879
 7098SOL    HW232931   4.316   2.390   3.346  2.1505 -1.5856 -0.3066
 7099SOL     OW32932   3.047   1.785  10.026 -0.5033  0.2619  0.0538
 7099SOL    HW132933   3.116   1.776   9.960  0.4664  0.6441  1.0159
 7099SOL    HW232934   3.030   1.693  10.047  1.0812  0.0914  0.5992
 7100SOL     OW32935   0.622   2.104   1.773  0.0213 -0.6668  0.7365
 7100SOL    HW132936   0.585   2.086   1.687  2.8703 -1.2500 -0.3764
 7100SOL    HW232937   0.610   2.198   1.787  3.6008  0.4167 -3.4887
 7101SOL     OW32938   3.484   1.582   3.042 -0.6707  0.4068  1.1859
 7101SOL    HW132939   3.388   1.576   3.041 -0.6086 -0.2975 -0.2975
 7101SOL    HW232940   3.521   1.523   2.976  0.2615  0.6230  1.5200
 7102SOL     OW32941   4.624   1.152   5.600  0.1381  0.0547  0.0425
 7102SOL    HW132942   4.530   1.139   5.604 -0.0949  2.0980  1.3663
 7102SOL    HW232943   4.642   1.115   5.514  0.2684  1.6460 -0.6225
 7103SOL     OW32944   4.490   0.593   1.134  0.3505 -0.5104  0.2434
 7103SOL    HW132945   4.436   0.649   1.189  1.3577 -0.2036  0.9180
 7103SOL    HW232946   4.564   0.610   1.191  0.0038 -1.9440  1.1186
 7104SOL     OW32947   4.252   3.861   8.399  0.3670 -0.3829  0.0243
 7104SOL    HW132948   4.306   3.907   8.334 -0.6164  0.6380 -0.0590
 7104SOL    HW232949   4.166   3.899   8.380  0.2985  0.1251  1.3479
 7105SOL     OW32950   2.801   0.567   6.612  0.5819  0.2116 -0.5325
 7105SOL    HW132951   2.773   0.498   6.673 -0.6021  0.8295 -0.3748
 7105SOL    HW232952   2.798   0.513   6.533 -0.7842  1.3752 -1.2798
 7106SOL     OW32953   3.484   4.081  17.320 -0.3671  0.2889  0.2589
 7106SOL    HW132954   3.549   4.015  17.346  0.4907  1.8240  2.0177
 7106SOL    HW232955   3.532   4.157  17.288 -0.6116  0.2748 -0.1432
 7107SOL     OW32956   1.161   1.424   1.159  0.0744  0.8724 -0.2370
 7107SOL    HW132957   1.144   1.344   1.110 -1.2718  1.1114 -0.1609
 7107SOL    HW232958   1.171   1.396   1.250  1.0452  0.4850 -0.4656
 7108SOL     OW32959   2.914   2.309   7.197 -0.2149  0.0778  0.3087
 7108SOL    HW132960   2.956   2.294   7.281 -0.7694 -0.7209  0.4395
 7108SOL    HW232961   2.889   2.401   7.209 -0.9729  0.2364 -2.3959
 7109SOL     OW32962   1.336   1.644   2.904 -0.9829 -0.1109  0.7113
 7109SOL    HW132963   1.316   1.550   2.907  0.0987 -0.3589 -0.3660
 7109SOL    HW232964   1.392   1.649   2.827 -1.0237 -0.3107  0.6687
 7110SOL     OW32965   1.519   1.659   3.187 -0.5179 -0.3139 -0.5951
 7110SOL    HW132966   1.488   1.626   3.102 -1.4857  1.3443 -0.8941
 7110SOL    HW232967   1.536   1.750   3.162 -2.0545  0.4661  1.2558
 7111SOL     OW32968   0.714   4.611  12.154 -1.5066 -0.1054  0.1585
 7111SOL    HW132969   0.787   4.575  12.205 -0.1349  1.3837 -0.7290
 7111SOL    HW232970   0.767   4.638  12.078  0.3386 -2.3839  0.6437
 7112SOL     OW32971   1.997   3.030   1.899 -0.2752  0.4729 -0.5498
 7112SOL    HW132972   1.938   3.036   1.974 -1.0711 -1.5867 -0.9964
 7112SOL    HW232973   1.973   2.946   1.860 -3.2266  1.3132 -0.5571
 7113SOL     OW32974   3.420   4.598   1.442  0.2514 -0.3308 -0.0390
 7113SOL    HW132975   3.485   4.597   1.372 -0.3615  1.2161 -0.6214
 7113SOL    HW232976   3.345   4.559   1.399 -1.6287  0.9403  2.0357
 7114SOL     OW32977   2.772   2.052  10.914 -0.1265 -0.1004 -0.8599
 7114SOL    HW132978   2.835   2.116  10.882 -0.0300 -0.0904 -0.6437
 7114SOL    HW232979   2.749   1.998  10.838 -1.4159 -0.9036  0.0997
 7115SOL     OW32980   1.197   0.517   3.227 -0.9227 -0.4002 -0.1534
 7115SOL    HW132981   1.106   0.491   3.239 -0.5645 -1.9520 -0.7403
 7115SOL    HW232982   1.248   0.436   3.227  1.9503  1.3825 -2.6428
 7116SOL     OW32983   3.654   0.252   1.867 -0.1483 -0.1069 -0.2958
 7116SOL    HW132984   3.597   0.196   1.814  2.6550 -1.4049 -1.9658
 7116SOL    HW232985   3.741   0.227   1.837  0.5770 -0.3723  2.0857
 7117SOL     OW32986   0.061   3.829  15.770 -0.4462 -0.2839 -0.8213
 7117SOL    HW132987   0.108   3.911  15.777 -0.5982 -0.2221 -0.4846
 7117SOL    HW232988   0.010   3.850  15.692 -2.6868  0.6845  0.9092
 7118SOL     OW32989   1.387   4.079   2.608  0.2399 -0.2349  0.0116
 7118SOL    HW132990   1.407   3.994   2.569  0.6444  0.0002 -0.2907
 7118SOL    HW232991   1.318   4.065   2.673  1.4687 -0.8451  1.1872
 7119SOL     OW32992   0.961   2.973  10.984  0.3270  0.4506 -0.1400
 7119SOL    HW132993   1.006   3.032  10.924  1.3659 -0.5619 -0.3605
 7119SOL    HW232994   1.027   2.907  11.004  0.1259  0.3860  0.3156
 7120SOL     OW32995   1.432   2.422   0.284  0.1562  0.1061  0.2535
 7120SOL    HW132996   1.523   2.402   0.303  0.9744  1.4194 -2.3460
 7120SOL    HW232997   1.428   2.398   0.191  1.7181 -1.5318  0.6120
 7121SOL     OW32998   1.493   0.123  11.577  0.0814  0.1437  0.0309
 7121SOL    HW132999   1.427   0.055  11.568  0.0341  0.0971  0.7005
 7121SOL    HW233000   1.494   0.166  11.492 -2.3106 -2.6885 -1.4399
 7122SOL     OW33001   3.749   2.230   7.667 -0.4447 -0.5355  0.1752
 7122SOL    HW133002   3.677   2.167   7.657 -1.5007  0.5099  1.1718
 7122SOL    HW233003   3.822   2.197   7.614 -0.3732 -1.6885  1.0018
 7123SOL     OW33004   2.806   2.078   0.722  0.3617 -0.5658 -0.1652
 7123SOL    HW133005   2.775   2.162   0.755 -2.9534 -1.5482 -0.8340
 7123SOL    HW233006   2.805   2.107   0.631 -1.1663 -3.5423 -1.1003
 7124SOL     OW33007   4.577   4.284   6.653  0.4382 -0.4263 -0.0317
 7124SOL    HW133008   4.599   4.246   6.568 -0.9440 -1.4335  0.0612
 7124SOL    HW233009   4.662   4.290   6.696  0.1799 -1.7635  0.6611
 7125SOL     OW33010   1.192   2.940   4.341  0.2869 -0.3871  0.0155
 7125SOL    HW133011   1.242   3.018   4.315  0.3744 -0.8751 -1.2975
 7125SOL    HW233012   1.264   2.878   4.326  0.3302 -0.0961 -0.9749
 7126SOL     OW33013   2.287   3.468   5.522  0.2484  0.4147 -0.3641
 7126SOL    HW133014   2.283   3.374   5.535 -0.3810  0.4170 -0.5368
 7126SOL    HW233015   2.330   3.486   5.438 -0.7986 -0.4647 -1.0945
 7127SOL     OW33016   0.809   4.662  13.508  0.0078  0.6235 -0.1809
 7127SOL    HW133017   0.853   4.715  13.442 -2.2587  0.3683 -1.9134
 7127SOL    HW233018   0.734   4.719  13.527 -1.0493 -2.0467  3.7307
 7128SOL     OW33019   3.391   2.165  13.064 -0.2676 -0.2682  0.5246
 7128SOL    HW133020   3.304   2.149  13.099 -1.1931  0.2287 -1.5195
 7128SOL    HW233021   3.386   2.135  12.973  0.6671  1.8143 -0.2239
 7129SOL     OW33022   3.863   4.433   6.101  0.2786  0.3505 -0.5356
 7129SOL    HW133023   3.956   4.433   6.125  0.3797 -0.3249 -0.9278
 7129SOL    HW233024   3.825   4.421   6.188  0.7851  0.7946 -0.2523
 7130SOL     OW33025   0.215   1.999   1.759 -0.2736 -0.0025 -0.4821
 7130SOL    HW133026   0.122   1.975   1.756 -1.0449  2.8610  0.6374
 7130SOL    HW233027   0.242   1.953   1.679  0.3532  2.1547 -1.4888
 7131SOL     OW33028   3.899   0.042   0.090 -0.1383  0.4224 -0.3006
 7131SOL    HW133029   3.888   0.114   0.028 -0.2090  0.9181  0.2826
 7131SOL    HW233030   3.853   0.073   0.168 -0.7460 -1.8270  0.2461
 7132SOL     OW33031   0.908   4.426   5.436  0.0680 -0.5378 -0.0031
 7132SOL    HW133032   0.839   4.414   5.501 -0.8710  1.0403 -0.7167
 7132SOL    HW233033   0.853   4.458   5.365 -0.1198 -0.6779  0.0810
 7133SOL     OW33034   1.775   1.025   6.428 -0.2156 -0.1920 -0.4502
 7133SOL    HW133035   1.842   1.009   6.362  0.8046  1.5415  0.1616
 7133SOL    HW233036   1.759   1.116   6.402  0.6919 -0.2622 -1.2402
 7134SOL     OW33037   0.045   1.285   8.877  0.1477  0.3607 -0.0713
 7134SOL    HW133038   0.113   1.352   8.880  0.4748  0.0676 -0.8211
 7134SOL    HW233039   4.711   1.350   8.874 -1.2296 -1.0945  0.8790
 7135SOL     OW33040   0.581   1.960   1.997 -0.1697  0.2460  0.6184
 7135SOL    HW133041   0.587   1.972   1.902  0.6576  0.5800  0.7120
 7135SOL    HW233042   0.656   2.015   2.019 -1.6128  1.6576  1.9062
 7136SOL     OW33043   2.817   0.371  16.172 -0.2442  0.0057 -0.1429
 7136SOL    HW133044   2.802   0.463  16.150 -1.9946  0.0828  1.3578
 7136SOL    HW233045   2.779   0.371  16.260 -0.1364  1.1274 -0.1008
 7137SOL     OW33046   2.628   3.347   2.632  0.3802 -0.0365 -0.3049
 7137SOL    HW133047   2.619   3.369   2.540 -0.8049  2.4754  0.4305
 7137SOL    HW233048   2.710   3.297   2.629 -0.8245 -1.9362 -1.6089
 7138SOL     OW33049   0.191   4.112  12.197  0.6036  0.5468 -0.4853
 7138SOL    HW133050   0.231   4.025  12.206 -1.1949 -0.1906  0.5603
 7138SOL    HW233051   0.263   4.174  12.203  1.6353 -0.3942 -2.7465
 7139SOL     OW33052   2.875   1.354   3.632 -0.2592  0.2341  0.4813
 7139SOL    HW133053   2.851   1.414   3.702 -1.2395 -0.8871  1.0950
 7139SOL    HW233054   2.836   1.386   3.551  1.8966 -0.2609 -0.7614
 7140SOL     OW33055   4.671   1.636  11.320  0.0530 -0.3600  0.0738
 7140SOL    HW133056   4.583   1.602  11.338 -0.6534  0.3570 -1.9839
 7140SOL    HW233057   4.674   1.597  11.233  0.2136 -1.0365  0.3805
 7141SOL     OW33058   4.692   1.588  15.265  0.5035  0.5225  0.4700
 7141SOL    HW133059   4.621   1.646  15.235 -2.0219 -1.7812  2.0212
 7141SOL    HW233060   4.649   1.540  15.335 -1.2772 -0.4217 -1.2555
 7142SOL     OW33061   0.237   2.705   5.158  0.2027 -0.6892  0.5517
 7142SOL    HW133062   0.223   2.647   5.233 -0.7855 -0.2655  0.6899
 7142SOL    HW233063   0.154   2.689   5.113  0.2488 -1.6898  0.8134
 7143SOL     OW33064   2.805   1.423   3.350  0.1497  0.4778 -0.4110
 7143SOL    HW133065   2.725   1.371   3.360 -0.8018  1.5057 -2.6945
 7143SOL    HW233066   2.779   1.469   3.270  1.7449  2.0354 -0.0352
 7144SOL     OW33067   1.610   1.200   5.240  0.0895 -0.2813  0.2933
 7144SOL    HW133068   1.669   1.160   5.176  0.6495  1.4420 -0.2590
 7144SOL    HW233069   1.649   1.287   5.242  1.9745 -1.1526  1.3144
 7145SOL     OW33070   0.958   4.444   7.849 -0.1905  0.3720  0.1137
 7145SOL    HW133071   1.009   4.471   7.925 -0.5368  1.7695 -0.1405
 7145SOL    HW233072   0.881   4.397   7.881 -0.5984  2.4828  2.2643
 7146SOL     OW33073   3.313   2.449   2.739 -0.3562 -0.0121 -0.7282
 7146SOL    HW133074   3.384   2.384   2.743  2.8664  3.6251  0.9894
 7146SOL    HW233075   3.258   2.387   2.691 -2.0288  0.3336  0.7167
 7147SOL     OW33076   0.588   4.300   3.142 -0.4964  0.2008  0.4382
 7147SOL    HW133077   0.509   4.278   3.192 -1.4900  1.2684 -0.6387
 7147SOL    HW233078   0.578   4.395   3.133  0.4762  0.4058  1.5498
 7148SOL     OW33079   4.222   1.552   3.736 -0.5043  0.1272  0.1748
 7148SOL    HW133080   4.194   1.511   3.655 -0.1239 -1.9385  1.0987
 7148SOL    HW233081   4.152   1.509   3.785  0.4990  0.2080  1.6870
 7149SOL     OW33082   3.394   1.719   0.603 -0.0527  0.4109  0.2174
 7149SOL    HW133083   3.353   1.655   0.544  0.4816 -0.4257  0.7466
 7149SOL    HW233084   3.412   1.648   0.665 -2.1888  0.1545  0.5624
 7150SOL     OW33085   4.333   4.241   3.366  0.0096  0.3426 -0.0372
 7150SOL    HW133086   4.277   4.306   3.409 -0.4333 -0.2737  0.3304
 7150SOL    HW233087   4.309   4.258   3.275  2.8072 -1.0022 -1.0120
 7151SOL     OW33088   1.538   1.140  11.828 -0.1186 -0.7506  0.4009
 7151SOL    HW133089   1.603   1.070  11.823  2.0155  1.4807 -3.0710
 7151SOL    HW233090   1.591   1.197  11.883 -0.8867  1.2772 -0.9756
 7152SOL     OW33091   2.334   0.415   6.892  0.5428 -0.1040 -0.3494
 7152SOL    HW133092   2.241   0.404   6.871 -0.0994  4.0238  0.4636
 7152SOL    HW233093   2.335   0.351   6.964 -0.0539  0.8294  0.4995
 7153SOL     OW33094   3.808   0.259   1.485  0.2314 -0.4114  0.1812
 7153SOL    HW133095   3.816   0.257   1.580  0.9492  0.5730  0.1395
 7153SOL    HW233096   3.714   0.242   1.483  0.8487 -3.9146  0.8543
 7154SOL     OW33097   0.508   0.056  15.196  0.5526 -0.2308  0.4565
 7154SOL    HW133098   0.496   4.732  15.123  2.8302 -1.4617  1.1043
 7154SOL    HW233099   0.541   0.125  15.138  1.5424  0.7338  2.1662
 7155SOL     OW33100   1.297   1.973   9.425 -0.2409  0.0746  0.3955
 7155SOL    HW133101   1.253   1.954   9.508 -0.9258 -0.8275 -0.1579
 7155SOL    HW233102   1.374   2.020   9.457  0.7495 -0.7255 -0.7983
 7156SOL     OW33103   3.817   4.149  17.279  0.1692 -0.0719 -0.3190
 7156SOL    HW133104   3.749   4.215  17.266 -1.0966 -1.5660 -1.3287
 7156SOL    HW233105   3.837   4.125  17.188  0.5440 -0.4999 -0.1244
 7157SOL     OW33106   0.530   1.229   5.322 -0.0337  0.0665  0.0108
 7157SOL    HW133107   0.567   1.303   5.274 -2.5169  1.2151 -0.1495
 7157SOL    HW233108   0.601   1.235   5.386  0.7292 -1.9486 -0.6475
 7158SOL     OW33109   3.768   1.369  17.638  0.2186 -0.3600 -0.1729
 7158SOL    HW133110   3.771   1.384  17.732  1.7781  1.3407 -0.5008
 7158SOL    HW233111   3.686   1.322  17.624 -0.9108  0.9242  2.0767
 7159SOL     OW33112   4.178   0.489   5.353 -0.1017  0.1613  0.4171
 7159SOL    HW133113   4.168   0.481   5.258 -0.6426 -0.5341  0.5406
 7159SOL    HW233114   4.265   0.460   5.380 -0.5657 -1.2624  0.3750
 7160SOL     OW33115   3.001   1.716   6.670 -0.2939  0.5223  0.3491
 7160SOL    HW133116   2.996   1.670   6.586 -1.7801 -0.3224  0.9003
 7160SOL    HW233117   3.064   1.663   6.719  0.6724  0.1557 -1.2999
 7161SOL     OW33118   1.597   3.206   7.012  0.6067 -0.0311  0.5678
 7161SOL    HW133119   1.512   3.165   6.998  0.8886 -0.1875 -0.6390
 7161SOL    HW233120   1.633   3.209   6.923  0.1424 -1.9372  0.3196
 7162SOL     OW33121   2.279   0.138   2.898  0.1933 -0.1001  0.2214
 7162SOL    HW133122   2.315   0.053   2.925 -0.4499 -0.6669 -0.6916
 7162SOL    HW233123   2.185   0.127   2.911  0.2541 -0.5618  0.2727
 7163SOL     OW33124   4.366   2.259  13.622 -0.4906 -0.3881  0.1366
 7163SOL    HW133125   4.310   2.197  13.667  0.9152 -2.0614 -0.4364
 7163SOL    HW233126   4.296   2.306  13.576  1.6578  2.1988 -0.5117
 7164SOL     OW33127   3.118   0.201   5.385  0.3645 -0.3644 -0.7232
 7164SOL    HW133128   3.133   0.194   5.479  2.0134 -0.0266 -0.9696
 7164SOL    HW233129   3.199   0.171   5.344 -0.3776 -2.0544 -0.9555
 7165SOL     OW33130   1.093   1.672   1.879 -0.2411  0.2780  0.4813
 7165SOL    HW133131   1.052   1.623   1.951 -0.6993  2.3516  1.6377
 7165SOL    HW233132   1.134   1.740   1.932  2.6245  1.3735 -3.1546
 7166SOL     OW33133   0.873   4.541   5.958 -0.0704 -0.6167  0.1538
 7166SOL    HW133134   0.899   4.573   5.872 -0.2831 -1.8434 -0.3771
 7166SOL    HW233135   0.839   4.454   5.938  0.9191 -0.9371 -0.1430
 7167SOL     OW33136   2.343   4.123   1.181 -0.2361  0.1789 -0.7651
 7167SOL    HW133137   2.343   4.163   1.268 -1.0927 -0.9945 -0.2271
 7167SOL    HW233138   2.274   4.169   1.132 -1.3672  0.1842  0.8481
 7168SOL     OW33139   4.235   3.855  10.666 -0.8819 -0.1096  0.3677
 7168SOL    HW133140   4.330   3.865  10.669 -0.7518 -0.1759 -3.0967
 7168SOL    HW233141   4.226   3.796  10.741 -0.2632 -1.3658 -0.5389
 7169SOL     OW33142   3.304   2.478  11.325 -0.2373 -0.1874 -0.4242
 7169SOL    HW133143   3.333   2.535  11.396 -1.2559  1.1992 -1.1286
 7169SOL    HW233144   3.293   2.390  11.362 -0.1334 -0.6053 -1.3897
 7170SOL     OW33145   4.650   4.553   0.770 -0.5406  0.0261 -0.4849
 7170SOL    HW133146   4.589   4.536   0.698  0.3866  0.4989 -1.3855
 7170SOL    HW233147   4.585   4.590   0.830  0.3162 -1.1323  1.1512
 7171SOL     OW33148   0.518   0.006   3.841 -0.7598 -0.1520 -0.5333
 7171SOL    HW133149   0.531   0.094   3.878  0.5754 -0.8377  0.6048
 7171SOL    HW233150   0.425   4.720   3.846 -0.8759  0.5173  0.3533
 7172SOL     OW33151   2.573   2.373   9.079 -0.6613 -0.7278 -0.4691
 7172SOL    HW133152   2.658   2.375   9.123 -0.7748 -1.3758 -0.2288
 7172SOL    HW233153   2.590   2.442   9.014  1.2177  0.0274  0.8382
 7173SOL     OW33154   1.355   4.674  10.774 -0.8646 -0.0171  0.5728
 7173SOL    HW133155   1.416   4.601  10.767  1.3559  1.8022  1.1938
 7173SOL    HW233156   1.415   0.007  10.802 -1.8411  1.1199 -0.1380
 7174SOL     OW33157   0.327   4.021  13.160 -0.1009  0.1118  0.1617
 7174SOL    HW133158   0.328   4.116  13.160  0.5022  0.1034  0.2482
 7174SOL    HW233159   0.282   4.010  13.244  1.3036  0.1785  0.9189
 7175SOL     OW33160   1.082   0.040   3.545  0.4678 -0.3975  0.4141
 7175SOL    HW133161   1.053   4.726   3.470 -1.1637 -0.9109  1.4009
 7175SOL    HW233162   1.175   0.033   3.524  0.0539  1.3755 -1.9792
 7176SOL     OW33163   2.869   2.221   9.825  0.9732  0.3897 -0.0446
 7176SOL    HW133164   2.799   2.185   9.771  2.1228  0.4111 -1.5179
 7176SOL    HW233165   2.929   2.146   9.824  0.8559  0.3150 -1.1780
 7177SOL     OW33166   3.631   3.477   0.091  0.2969  0.6126 -0.7213
 7177SOL    HW133167   3.553   3.501   0.041 -0.0134  2.5902  0.7346
 7177SOL    HW233168   3.669   3.412   0.032 -2.2388 -0.9505 -0.6471
 7178SOL     OW33169   0.512   3.151   8.981 -0.4220 -0.8896 -0.8233
 7178SOL    HW133170   0.488   3.156   8.888 -0.7458 -1.2877 -0.7586
 7178SOL    HW233171   0.440   3.195   9.025  0.6297 -0.9549  0.9635
 7179SOL     OW33172   2.280   1.753   6.294  0.6154  0.1649  0.1884
 7179SOL    HW133173   2.260   1.661   6.311 -1.3642  0.3979 -0.8797
 7179SOL    HW233174   2.208   1.784   6.238 -1.4893 -2.1472  1.6447
 7180SOL     OW33175   3.085   2.703   7.080  0.0693  0.0067 -0.1121
 7180SOL    HW133176   3.132   2.787   7.085 -2.4885  1.4799 -1.0075
 7180SOL    HW233177   3.140   2.628   7.057 -0.4066 -0.3137 -0.2142
 7181SOL     OW33178   1.829   2.660   8.516 -0.4703  0.1728 -0.0338
 7181SOL    HW133179   1.911   2.651   8.466  0.0019 -1.1996  0.9820
 7181SOL    HW233180   1.777   2.589   8.478  1.0262 -0.8109 -0.2607
 7182SOL     OW33181   3.098   2.209   3.902 -0.5183 -0.4858 -0.2344
 7182SOL    HW133182   3.024   2.165   3.945 -0.7559 -0.0351 -0.1794
 7182SOL    HW233183   3.132   2.139   3.847  0.3861 -1.4012  1.4876
 7183SOL     OW33184   4.536   3.469  16.707  0.0385  0.2073  0.3678
 7183SOL    HW133185   4.484   3.393  16.681 -1.0032  0.3068  2.1401
 7183SOL    HW233186   4.551   3.440  16.797 -0.0152  1.4969  0.7995
 7184SOL     OW33187   1.568   3.387   8.614 -0.0352  0.2072  0.2646
 7184SOL    HW133188   1.498   3.406   8.677  0.6861  0.7782  0.8914
 7184SOL    HW233189   1.533   3.418   8.531  1.2535 -1.1423 -0.7877
 7185SOL     OW33190   3.031   3.481   1.733 -0.2944  0.5025  0.0261
 7185SOL    HW133191   3.124   3.467   1.715 -0.6738 -2.7435  0.4836
 7185SOL    HW233192   3.011   3.549   1.669 -1.6976  0.8271  0.8065
 7186SOL     OW33193   1.066   3.207   7.022 -0.8137 -0.5607  0.0998
 7186SOL    HW133194   1.110   3.292   7.011 -0.7278 -0.3365  2.2221
 7186SOL    HW233195   0.988   3.221   6.968 -0.4758  1.5342  0.1318
 7187SOL     OW33196   1.002   1.269   7.183 -0.6027 -0.4112  0.1674
 7187SOL    HW133197   0.924   1.288   7.236 -0.2901 -0.6765  0.7316
 7187SOL    HW233198   0.973   1.181   7.160 -1.1374 -0.0765 -0.4150
 7188SOL     OW33199   3.412   2.753   9.233 -0.4452 -0.2524  0.1068
 7188SOL    HW133200   3.368   2.668   9.230  1.1275 -1.0025 -1.7906
 7188SOL    HW233201   3.436   2.754   9.325  0.2455 -3.9649 -0.0467
 7189SOL     OW33202   0.203   3.887   5.689  0.6437  0.3998  0.1237
 7189SOL    HW133203   0.183   3.863   5.780 -1.3812  1.1633 -0.1206
 7189SOL    HW233204   0.280   3.943   5.702 -0.5095  1.3506  3.0585
 7190SOL     OW33205   3.341   0.074   3.865 -0.0392 -0.4518 -0.2714
 7190SOL    HW133206   3.320   0.166   3.846  0.0749 -0.2800  0.4561
 7190SOL    HW233207   3.399   0.082   3.940 -1.2708 -1.2830  0.7713
 7191SOL     OW33208   1.851   3.238   6.311 -0.3682 -0.3677  0.1788
 7191SOL    HW133209   1.893   3.232   6.225 -0.3595 -1.6717  0.2734
 7191SOL    HW233210   1.916   3.191   6.363 -0.5189 -1.0697 -0.2711
 7192SOL     OW33211   2.116   0.474   2.400  0.3315 -0.4047  0.1379
 7192SOL    HW133212   2.200   0.442   2.435  2.5018  2.6568 -2.2104
 7192SOL    HW233213   2.113   0.424   2.318 -0.3288  0.1264 -0.1527
 7193SOL     OW33214   4.641   1.871   5.855  0.3582 -0.4136  0.2511
 7193SOL    HW133215   4.589   1.936   5.809 -0.5362 -0.0120  1.8270
 7193SOL    HW233216   4.659   1.811   5.783  1.5621  2.2744 -1.7042
 7194SOL     OW33217   0.860   1.298   4.293  0.1283  0.0369  0.4265
 7194SOL    HW133218   0.941   1.266   4.333 -0.8134 -0.8968  1.5552
 7194SOL    HW233219   0.794   1.312   4.360 -0.4769 -0.5046 -0.0639
 7195SOL     OW33220   1.627   3.190  15.345 -0.2799 -0.2615  0.7199
 7195SOL    HW133221   1.706   3.184  15.400  0.3725  1.2339 -0.0561
 7195SOL    HW233222   1.607   3.283  15.356 -0.7051 -0.6066  2.9697
 7196SOL     OW33223   1.824   2.979   7.836  0.4396  0.0902  0.2208
 7196SOL    HW133224   1.782   2.908   7.788 -0.3526  2.5434 -2.7373
 7196SOL    HW233225   1.870   3.023   7.764  1.9335 -0.5822  0.7569
 7197SOL     OW33226   4.366   0.657  13.852  0.3308  0.4659 -0.1426
 7197SOL    HW133227   4.416   0.689  13.777  0.1381  1.2079  0.0401
 7197SOL    HW233228   4.422   0.584  13.879 -0.4229  0.0599  0.3352
 7198SOL     OW33229   3.665   4.431   7.193  0.6735 -0.8722 -0.1053
 7198SOL    HW133230   3.704   4.501   7.140 -0.6429  0.5495  0.7943
 7198SOL    HW233231   3.639   4.489   7.265 -0.2607 -0.2416 -0.9519
 7199SOL     OW33232   0.867   3.794   3.051 -0.3168 -0.1770 -0.1263
 7199SOL    HW133233   0.839   3.860   3.115  0.6977 -1.3530  1.5417
 7199SOL    HW233234   0.955   3.777   3.085  0.4466  0.8510 -1.6082
 7200SOL     OW33235   1.191   0.009   4.556 -0.3785 -0.0189 -0.0922
 7200SOL    HW133236   1.205   0.017   4.651 -0.0929  2.0124 -0.3043
 7200SOL    HW233237   1.132   4.670   4.556  1.1739 -1.2339 -1.2126
 7201SOL     OW33238   3.724   1.864   7.797 -0.2316  0.6118 -0.7283
 7201SOL    HW133239   3.684   1.904   7.874  0.1765 -1.9032  0.7973
 7201SOL    HW233240   3.646   1.884   7.745 -0.0570  1.6348 -0.5995
 7202SOL     OW33241   0.695   2.816   3.672 -0.2237  0.3332 -0.0060
 7202SOL    HW133242   0.754   2.891   3.673 -1.1732  1.0935 -0.5921
 7202SOL    HW233243   0.750   2.746   3.708  0.3307  1.7823  1.9402
 7203SOL     OW33244   3.557   4.676   5.550 -0.1960 -0.2865 -0.4282
 7203SOL    HW133245   3.610   4.678   5.629 -0.0627 -1.2877 -0.4830
 7203SOL    HW233246   3.472   4.676   5.593  0.4265  1.9436  0.7805
 7204SOL     OW33247   2.059   1.017   5.444 -0.2244 -0.1835 -0.0493
 7204SOL    HW133248   1.992   1.085   5.442  0.6215  0.6349 -0.6778
 7204SOL    HW233249   2.102   1.031   5.360 -0.3493 -0.8203 -0.2236
 7205SOL     OW33250   2.292   4.093   3.643 -0.0934 -0.6818  0.1149
 7205SOL    HW133251   2.229   4.159   3.613  0.2866 -0.9782 -1.3388
 7205SOL    HW233252   2.356   4.152   3.684 -1.2952  0.3636  0.4710
 7206SOL     OW33253   4.554   3.926  17.310  0.2099  0.1264  0.3774
 7206SOL    HW133254   4.552   4.012  17.351 -0.4755 -0.8745  2.4600
 7206SOL    HW233255   4.482   3.937  17.248  2.1723  1.1525 -1.7180
 7207SOL     OW33256   3.720   0.265   7.625  0.6120 -0.1750 -0.3536
 7207SOL    HW133257   3.701   0.343   7.678  0.2802 -1.2438  1.0881
 7207SOL    HW233258   3.639   0.250   7.576  1.3686 -2.9580 -0.7412
 7208SOL     OW33259   1.563   2.140   2.153  0.3991 -0.4897  0.6227
 7208SOL    HW133260   1.640   2.133   2.097 -0.2321  1.4593 -0.4709
 7208SOL    HW233261   1.564   2.234   2.170 -0.6721 -0.6414  1.5059
 7209SOL     OW33262   2.229   2.210   3.003  0.9712  0.1080 -0.4055
 7209SOL    HW133263   2.194   2.216   3.092  0.4296  0.6816 -0.6557
 7209SOL    HW233264   2.205   2.120   2.980  1.1598 -0.0059 -0.1586
 7210SOL     OW33265   1.512   3.763   6.097 -0.4217  0.4674  0.4644
 7210SOL    HW133266   1.596   3.717   6.103 -1.0604 -0.4402  2.2077
 7210SOL    HW233267   1.536   3.856   6.087 -0.2300  0.4794  1.0564
 7211SOL     OW33268   1.495   0.686  16.058  0.3401 -0.1236  0.1249
 7211SOL    HW133269   1.500   0.774  16.020  1.1141  0.6391  1.9637
 7211SOL    HW233270   1.586   0.659  16.066  0.4982  0.2722 -0.3542
 7212SOL     OW33271   3.431   0.893   8.681  0.1165  0.5009 -0.0290
 7212SOL    HW133272   3.477   0.901   8.764 -1.8648  0.3781  1.0666
 7212SOL    HW233273   3.411   0.799   8.682  1.1861  0.2728  0.6103
 7213SOL     OW33274   3.487   3.683   7.340 -0.2252  0.5724  0.8102
 7213SOL    HW133275   3.579   3.710   7.332 -1.3469  4.7597  2.2738
 7213SOL    HW233276   3.459   3.684   7.249 -2.0081  0.2640  1.3520
 7214SOL     OW33277   2.410   3.164   2.995 -0.0367 -0.4129 -0.7152
 7214SOL    HW133278   2.480   3.220   2.962 -0.8278  0.3345 -1.1555
 7214SOL    HW233279   2.438   3.080   2.959 -0.9501 -1.8810  2.0092
 7215SOL     OW33280   1.694   4.071   7.669 -0.2525 -0.4297  0.4238
 7215SOL    HW133281   1.656   4.102   7.587 -0.5144 -0.1518  0.6516
 7215SOL    HW233282   1.632   4.106   7.733  0.2210  1.2144 -0.0162
 7216SOL     OW33283   1.364   0.418  14.728 -0.1871  0.0577 -0.3372
 7216SOL    HW133284   1.370   0.385  14.638  2.1685 -1.2759  0.3138
 7216SOL    HW233285   1.278   0.459  14.742 -0.2938 -0.6791  1.0661
 7217SOL     OW33286   0.614   1.484   1.547 -0.6092 -0.5508 -0.1199
 7217SOL    HW133287   0.601   1.469   1.453  1.3767  0.9854 -0.6478
 7217SOL    HW233288   0.614   1.397   1.586  0.9874 -0.0514  0.9587
 7218SOL     OW33289   2.844   1.309   9.353  0.6746 -0.1870 -0.2276
 7218SOL    HW133290   2.783   1.238   9.373  0.5230 -0.2112 -0.7692
 7218SOL    HW233291   2.914   1.265   9.305  1.4199 -0.9326  1.5466
 7219SOL     OW33292   2.966   3.089  12.533 -0.2594 -0.4398 -0.3978
 7219SOL    HW133293   2.925   3.020  12.585  0.9941 -1.7873 -1.1913
 7219SOL    HW233294   2.946   3.152  12.602  0.7567  1.1074 -1.5137
 7220SOL     OW33295   1.301   0.843  15.745 -0.4343 -0.0819 -0.0372
 7220SOL    HW133296   1.257   0.901  15.806  1.9748  0.4006  1.2267
 7220SOL    HW233297   1.234   0.775  15.738  1.0461 -1.3939 -1.5432
 7221SOL     OW33298   0.843   2.175  17.563 -0.0971  0.1109  0.1280
 7221SOL    HW133299   0.882   2.258  17.535 -1.1906  0.3929 -0.5302
 7221SOL    HW233300   0.818   2.192  17.654  2.3464  0.2516  0.7791
 7222SOL     OW33301   1.044   1.486   8.487 -0.3334  0.1396  0.2835
 7222SOL    HW133302   1.038   1.572   8.446 -2.0847  0.4365  1.1263
 7222SOL    HW233303   0.967   1.450   8.443 -0.9487 -0.5846  1.9302
 7223SOL     OW33304   4.165   4.362   5.184 -0.3021  0.1181  0.1441
 7223SOL    HW133305   4.080   4.338   5.220 -0.4615 -1.3751 -1.2301
 7223SOL    HW233306   4.166   4.293   5.117  0.5696 -0.5431  0.8398
 7224SOL     OW33307   4.727   0.775   3.269 -0.1842  0.3547 -0.2570
 7224SOL    HW133308   4.701   0.810   3.184 -0.7933  0.4099 -0.0463
 7224SOL    HW233309   4.722   0.851   3.328  1.0492  0.4368 -0.2551
 7225SOL     OW33310   4.227   3.913   3.578  0.1197  0.4107 -0.3911
 7225SOL    HW133311   4.222   3.848   3.647 -1.0655  0.2047 -0.6640
 7225SOL    HW233312   4.181   3.989   3.615 -1.9755 -2.0539  2.0424
 7226SOL     OW33313   2.429   3.600  14.165  0.2215  0.3021 -0.1625
 7226SOL    HW133314   2.494   3.670  14.178  0.3630  0.2170 -0.4298
 7226SOL    HW233315   2.393   3.589  14.254 -1.3174 -1.0167 -0.9572
 7227SOL     OW33316   4.151   1.301  14.480 -0.1893  0.5206  0.6355
 7227SOL    HW133317   4.150   1.372  14.544 -2.2678  0.8844  0.1829
 7227SOL    HW233318   4.109   1.347  14.407  0.0352 -0.0553  0.1509
 7228SOL     OW33319   0.971   0.173   3.958  0.3351  0.0590  0.5250
 7228SOL    HW133320   1.018   0.248   3.922 -1.3778  0.3515 -1.0682
 7228SOL    HW233321   0.892   0.224   3.976  0.3829  0.9977 -1.9619
 7229SOL     OW33322   1.257   1.611   7.723  0.1185 -0.0010  0.5589
 7229SOL    HW133323   1.222   1.630   7.636  1.2393  0.8739  0.2988
 7229SOL    HW233324   1.203   1.664   7.782 -1.7227 -1.5308  0.2582
 7230SOL     OW33325   0.245   4.561  17.701 -0.0546  0.6250  0.1218
 7230SOL    HW133326   0.286   4.592   0.038 -0.9208  0.0854  0.7612
 7230SOL    HW233327   0.285   4.624  17.641  0.1181 -0.3345 -0.7634
 7231SOL     OW33328   4.701   3.018   9.764 -0.8118 -0.2843  0.1533
 7231SOL    HW133329   0.015   2.936   9.761  0.9085  0.8139 -1.2735
 7231SOL    HW233330   4.627   2.981   9.811 -0.2479  1.3425  2.3281
 7232SOL     OW33331   3.509   1.612  13.409  0.2299 -0.6401 -0.2539
 7232SOL    HW133332   3.519   1.696  13.453 -0.5852  0.0656 -1.4361
 7232SOL    HW233333   3.441   1.623  13.342  0.0349  0.4374  0.1218
 7233SOL     OW33334   0.923   2.189   5.642  0.1933 -0.4842 -0.1490
 7233SOL    HW133335   0.888   2.113   5.596 -2.1000  0.1585  0.5278
 7233SOL    HW233336   1.009   2.158   5.669 -0.7401  0.3968  3.7540
 7234SOL     OW33337   3.020   2.909   4.898  0.4231 -0.1070 -0.1485
 7234SOL    HW133338   2.957   2.978   4.878 -0.0415 -0.3455  0.4685
 7234SOL    HW233339   2.980   2.874   4.978  0.6358 -0.8526 -0.3686
 7235SOL     OW33340   1.521   2.029   1.204 -0.2137 -0.3674  0.1097
 7235SOL    HW133341   1.523   1.986   1.119 -0.8192  0.6102 -0.4064
 7235SOL    HW233342   1.572   1.967   1.255 -2.0356  0.2788  2.7167
 7236SOL     OW33343   3.819   1.540   1.611 -0.0166  0.1622 -0.0821
 7236SOL    HW133344   3.900   1.488   1.614 -0.2777 -0.1338  1.8954
 7236SOL    HW233345   3.764   1.484   1.666  1.0937 -1.6399 -0.7957
 7237SOL     OW33346   0.941   3.464   3.499 -0.2864  0.3557 -0.0768
 7237SOL    HW133347   1.037   3.472   3.502 -0.2188  0.2598 -1.5850
 7237SOL    HW233348   0.920   3.402   3.568  1.2770 -2.3511 -2.0291
 7238SOL     OW33349   1.385   1.087   6.616  0.3622 -0.4558 -0.5806
 7238SOL    HW133350   1.435   1.075   6.535  0.2815 -2.1760 -0.3923
 7238SOL    HW233351   1.402   1.008   6.667  2.2646 -0.7385 -1.6502
 7239SOL     OW33352   4.246   4.456   0.863 -0.3711 -0.3861  0.4206
 7239SOL    HW133353   4.208   4.533   0.821 -1.5542 -1.0523  0.2766
 7239SOL    HW233354   4.173   4.441   0.924 -0.8135  0.8042  0.1895
 7240SOL     OW33355   1.076   3.633   3.729  0.1447 -0.1164 -0.3365
 7240SOL    HW133356   1.062   3.634   3.823  1.0374 -0.0356 -0.2121
 7240SOL    HW233357   1.170   3.618   3.721  0.0853  0.6210 -2.4539
 7241SOL     OW33358   0.645   0.554   6.543 -0.0912  0.1004 -0.0345
 7241SOL    HW133359   0.585   0.624   6.569 -0.6384  0.0615 -1.1953
 7241SOL    HW233360   0.698   0.600   6.478  0.6720 -1.2393 -0.3521
 7242SOL     OW33361   1.554   4.222   6.063 -0.4119 -0.1968 -0.0807
 7242SOL    HW133362   1.623   4.281   6.092  0.8041 -1.3525 -0.6478
 7242SOL    HW233363   1.495   4.224   6.139 -4.5306 -0.0841 -3.2598
 7243SOL     OW33364   3.959   0.005   2.791  0.2428  0.0733  0.0674
 7243SOL    HW133365   4.007   4.694   2.723 -2.0225 -0.1983 -1.3536
 7243SOL    HW233366   3.890   0.050   2.742 -1.1699 -1.9647  0.1965
 7244SOL     OW33367   2.137   2.897  15.917 -0.4474  0.4569  0.2443
 7244SOL    HW133368   2.132   2.943  15.834  0.8143  0.5556  0.2172
 7244SOL    HW233369   2.175   2.967  15.971  2.0883 -0.4855 -0.3224
 7245SOL     OW33370   1.671   3.317  13.989  0.0164 -0.4778  0.3721
 7245SOL    HW133371   1.612   3.349  14.057  0.9042  0.6749  0.6164
 7245SOL    HW233372   1.608   3.320  13.917 -0.5418 -1.9560  0.8041
 7246SOL     OW33373   4.298   2.166  16.854  0.2449 -0.0119  0.7577
 7246SOL    HW133374   4.271   2.077  16.878 -0.4767 -0.0929 -0.3363
 7246SOL    HW233375   4.262   2.162  16.765  1.9825  1.7111 -0.0290
 7247SOL     OW33376   3.018   0.402   5.218  0.1487 -0.2713 -0.6386
 7247SOL    HW133377   3.041   0.355   5.298 -0.2230  2.6291  1.1426
 7247SOL    HW233378   3.101   0.438   5.187  0.6527 -0.2477  0.7288
 7248SOL     OW33379   2.198   1.655   1.772 -0.2046  0.6349 -0.4367
 7248SOL    HW133380   2.179   1.706   1.693 -1.1748  0.8908 -0.0286
 7248SOL    HW233381   2.132   1.586   1.767  0.2802 -0.0325  2.3934
 7249SOL     OW33382   0.905   0.926   1.021  0.6282  0.1594 -0.1217
 7249SOL    HW133383   0.904   0.830   1.016  0.3463  0.2444 -1.8087
 7249SOL    HW233384   0.810   0.935   1.022  0.5922  0.2871 -3.7298
 7250SOL     OW33385   0.391   1.966   2.924  0.0385  0.2015 -0.0029
 7250SOL    HW133386   0.400   1.940   3.016  0.5181 -0.1701 -0.1517
 7250SOL    HW233387   0.414   2.059   2.921 -2.1902  0.7876  0.7533
 7251SOL     OW33388   4.035   0.048  10.220 -0.4796  0.0588  0.0804
 7251SOL    HW133389   3.968   0.032  10.153  1.3931 -1.2893 -1.4486
 7251SOL    HW233390   3.980   0.070  10.295 -0.4303 -0.9194  0.4042
 7252SOL     OW33391   0.623   1.279  13.666  0.3062  0.2278 -0.1246
 7252SOL    HW133392   0.550   1.305  13.723  0.2157  1.2368 -0.7052
 7252SOL    HW233393   0.697   1.311  13.718 -0.8315 -0.1028  1.7331
 7253SOL     OW33394   3.691   0.496   7.749  0.0549  0.0939  0.4194
 7253SOL    HW133395   3.756   0.542   7.696  0.6589 -0.8346  0.3494
 7253SOL    HW233396   3.728   0.534   7.829  0.9874 -0.2955  0.1719
 7254SOL     OW33397   4.000   0.876   5.656 -0.2449 -0.4819  0.1544
 7254SOL    HW133398   3.983   0.893   5.748  0.0776 -1.5255  0.4024
 7254SOL    HW233399   4.036   0.788   5.661 -1.3826 -0.8636  1.5813
 7255SOL     OW33400   0.429   1.674   3.049  0.8012  0.0847  0.4856
 7255SOL    HW133401   0.507   1.656   2.996  0.5231 -0.3485  0.2180
 7255SOL    HW233402   0.451   1.761   3.082  1.9083 -0.2059  0.5018
 7256SOL     OW33403   2.874   4.590   7.327  0.3992  0.0596  0.6394
 7256SOL    HW133404   2.845   4.548   7.408  3.7016 -0.9968  1.2827
 7256SOL    HW233405   2.795   4.631   7.293  0.8447 -1.7092 -2.5251
 7257SOL     OW33406   2.029   0.011  12.963 -0.6876 -0.2863  0.1827
 7257SOL    HW133407   1.963   4.732  13.030 -0.9279 -0.6160 -0.1272
 7257SOL    HW233408   2.082   4.668  12.967  0.5144  0.6092  1.7128
 7258SOL     OW33409   2.704   3.606   1.206  0.1004 -0.8432  0.2234
 7258SOL    HW133410   2.729   3.690   1.168  1.6703 -0.5677  1.8516
 7258SOL    HW233411   2.789   3.564   1.199  1.1367  1.0871  1.1926
 7259SOL     OW33412   0.451   1.860   5.629 -0.0042 -0.3925  0.0177
 7259SOL    HW133413   0.422   1.816   5.549 -0.7385  1.1162 -0.5565
 7259SOL    HW233414   0.499   1.935   5.593  1.5389 -1.0956  0.6248
 7260SOL     OW33415   0.152   2.557   5.901  0.1365 -0.0681 -0.1113
 7260SOL    HW133416   0.221   2.598   5.952 -0.4741  1.4907 -0.5485
 7260SOL    HW233417   0.070   2.584   5.942 -0.9095 -3.3502 -0.0362
 7261SOL     OW33418   3.898   2.282   6.646 -0.4180 -0.2073  0.3474
 7261SOL    HW133419   3.877   2.304   6.737  1.6519 -0.3583  0.8584
 7261SOL    HW233420   3.858   2.197   6.629  0.4469 -0.7121  0.8187
 7262SOL     OW33421   0.222   0.825  16.369  0.2292  0.1646  0.1632
 7262SOL    HW133422   0.302   0.825  16.317 -1.1461 -0.4673 -1.9407
 7262SOL    HW233423   0.255   0.862  16.451 -0.6457  0.9282  0.1719
 7263SOL     OW33424   1.462   0.591  16.674 -0.1701 -0.2532 -0.0588
 7263SOL    HW133425   1.376   0.611  16.711 -1.7852 -1.6818 -3.0133
 7263SOL    HW233426   1.515   0.581  16.753  0.3330 -0.7749 -0.4659
 7264SOL     OW33427   0.784   3.776   9.988  0.0893  0.1956  0.0359
 7264SOL    HW133428   0.786   3.785  10.084  0.8195 -0.8005  0.1117
 7264SOL    HW233429   0.703   3.825   9.977  0.5148  0.9208  0.1245
 7265SOL     OW33430   3.727   3.302  10.213 -0.0705 -0.1035  0.3794
 7265SOL    HW133431   3.664   3.366  10.179 -0.2314 -0.1105  0.6670
 7265SOL    HW233432   3.740   3.264  10.126  1.1853  1.8868 -0.2892
 7266SOL     OW33433   2.979   0.820   2.169  0.2234 -0.2543  0.1786
 7266SOL    HW133434   2.987   0.791   2.078  1.5769 -2.8819  1.1400
 7266SOL    HW233435   3.004   0.913   2.166  0.1565 -0.1887  1.5260
 7267SOL     OW33436   4.037   4.087   8.034 -0.2683 -0.2366 -0.3446
 7267SOL    HW133437   4.060   4.140   7.957  0.2717  1.3469  0.9006
 7267SOL    HW233438   4.066   4.138   8.109  1.9469  0.7988 -1.9003
 7268SOL     OW33439   2.758   2.163   0.480 -0.0816 -0.0341  0.4175
 7268SOL    HW133440   2.686   2.104   0.459  0.1380  0.1120 -0.7615
 7268SOL    HW233441   2.804   2.160   0.396  1.8257  1.0370  1.4207
 7269SOL     OW33442   1.344   2.184  13.506  0.4358  0.1858  0.2717
 7269SOL    HW133443   1.340   2.150  13.416 -1.8277 -2.1776  1.2723
 7269SOL    HW233444   1.341   2.280  13.507 -2.3341  0.0863  0.1022
 7270SOL     OW33445   1.078   4.624   3.797  0.3239  0.1823 -0.4387
 7270SOL    HW133446   1.098   4.679   3.722  0.7141  0.6780  0.0281
 7270SOL    HW233447   0.987   4.653   3.807  0.7571  1.7426 -0.9466
 7271SOL     OW33448   2.289   3.909   3.188 -0.0670  0.5214  0.2148
 7271SOL    HW133449   2.348   3.855   3.134 -0.5633  1.9126 -1.6979
 7271SOL    HW233450   2.345   3.947   3.256 -0.6629  3.3497 -0.8967
 7272SOL     OW33451   0.991   2.576   6.577  0.4070 -0.2938  0.0178
 7272SOL    HW133452   0.898   2.559   6.588 -0.4946  3.0379 -2.5758
 7272SOL    HW233453   1.009   2.620   6.660 -0.2880 -1.0644  0.5725
 7273SOL     OW33454   0.997   1.701   8.991 -0.3989  0.4670  0.2304
 7273SOL    HW133455   0.965   1.661   8.910 -0.1635 -1.5743  1.1565
 7273SOL    HW233456   1.089   1.713   8.968 -0.5143  0.9932  0.0466
 7274SOL     OW33457   2.345   3.236  14.308 -0.7084  0.3023  0.1891
 7274SOL    HW133458   2.383   3.217  14.222  0.1297  1.8946  0.1979
 7274SOL    HW233459   2.403   3.306  14.338 -2.0393  0.9717  1.2253
 7275SOL     OW33460   1.085   4.184  16.437 -0.1415 -0.4475 -0.2286
 7275SOL    HW133461   1.047   4.098  16.452 -1.0099 -0.0627 -0.2337
 7275SOL    HW233462   1.021   4.213  16.372  0.3607 -0.2726 -0.6431
 7276SOL     OW33463   1.868   0.152   0.843 -0.0003  0.0800 -0.2996
 7276SOL    HW133464   1.906   0.162   0.756 -2.5254  0.0367 -1.3989
 7276SOL    HW233465   1.848   0.246   0.849 -0.7549 -0.1577  0.9806
 7277SOL     OW33466   3.703   2.706   3.032 -0.0146  0.3387  0.2595
 7277SOL    HW133467   3.758   2.782   3.054  0.7445  0.6757 -2.8127
 7277SOL    HW233468   3.621   2.717   3.080  0.3199  1.1943  0.6411
 7278SOL     OW33469   2.166   3.941   9.626  0.3209  0.1757 -0.2621
 7278SOL    HW133470   2.169   3.847   9.608 -0.6076 -0.2304  1.6679
 7278SOL    HW233471   2.224   3.941   9.702  2.1942  1.4774 -1.6817
 7279SOL     OW33472   0.447   0.380   6.859 -0.1748  0.0398 -0.2668
 7279SOL    HW133473   0.527   0.424   6.887  0.6514 -1.0519 -0.9011
 7279SOL    HW233474   0.419   0.439   6.789  0.5254 -0.0457 -0.6263
 7280SOL     OW33475   3.249   0.629   1.057  0.9573  0.5361  0.1512
 7280SOL    HW133476   3.295   0.579   0.989  1.0382  0.0254  0.5779
 7280SOL    HW233477   3.190   0.566   1.099  2.2466  0.4642  1.8877
 7281SOL     OW33478   2.949   1.730   2.730 -0.2092 -0.2904 -0.2118
 7281SOL    HW133479   3.015   1.728   2.799  2.1993 -0.7772 -2.5245
 7281SOL    HW233480   2.997   1.762   2.654  1.8454 -2.6433  0.1188
 7282SOL     OW33481   3.397   2.776   6.328  0.5180 -0.3940 -0.2523
 7282SOL    HW133482   3.315   2.811   6.363  1.1960 -0.6784  1.5978
 7282SOL    HW233483   3.380   2.775   6.234  0.5948  0.7294 -0.2826
 7283SOL     OW33484   4.489   3.942   3.572  0.6671  0.1186  0.8435
 7283SOL    HW133485   4.524   3.979   3.491 -0.3700  1.0505  0.8144
 7283SOL    HW233486   4.396   3.924   3.555  0.4348  0.3991  1.8123
 7284SOL     OW33487   4.322   1.152   6.484 -0.7436  0.1458  0.6893
 7284SOL    HW133488   4.233   1.120   6.491  0.1101 -1.8483  2.4021
 7284SOL    HW233489   4.322   1.227   6.543 -0.8051 -0.3697  1.3444
 7285SOL     OW33490   3.985   4.393   1.010 -0.2789 -0.6598  0.0581
 7285SOL    HW133491   3.950   4.323   1.065  1.4041 -0.3182  1.5727
 7285SOL    HW233492   3.944   4.381   0.925  0.6416  2.6657 -0.8409
 7286SOL     OW33493   1.718   2.595  17.632  0.1535  0.3102 -0.2354
 7286SOL    HW133494   1.777   2.542  17.578  1.1194  0.6213  0.5237
 7286SOL    HW233495   1.640   2.605  17.578  1.0256  2.1789 -1.1640
 7287SOL     OW33496   0.339   1.960   3.861 -0.1570  0.0372  0.3666
 7287SOL    HW133497   0.256   1.987   3.899 -0.7979 -0.1178 -0.9360
 7287SOL    HW233498   0.315   1.897   3.792  2.4361 -1.1821  0.5428
 7288SOL     OW33499   3.201   0.917   4.434 -0.4508 -0.4844  0.0986
 7288SOL    HW133500   3.283   0.967   4.439  0.5526 -2.3570  2.1035
 7288SOL    HW233501   3.193   0.880   4.521 -0.3366 -2.1643 -0.6113
 7289SOL     OW33502   2.665   1.918   1.410 -0.1732 -0.4852 -0.2665
 7289SOL    HW133503   2.662   1.870   1.493  0.3235 -0.7463 -0.4030
 7289SOL    HW233504   2.620   1.860   1.349 -0.9031 -0.5785  0.3489
 7290SOL     OW33505   4.014   0.306   5.455 -0.2409 -0.3784 -0.2293
 7290SOL    HW133506   4.084   0.367   5.432  1.8063 -1.5837  2.7456
 7290SOL    HW233507   3.961   0.351   5.521 -2.0181 -0.8757 -1.3013
 7291SOL     OW33508   0.294   0.137   8.943  0.6198 -0.3034 -0.2960
 7291SOL    HW133509   0.223   0.197   8.967  2.0757  1.1861  0.2513
 7291SOL    HW233510   0.258   0.114   8.857  3.0218  0.1408 -1.4249
 7292SOL     OW33511   0.634   0.137   4.225 -0.0438  0.3278 -0.0311
 7292SOL    HW133512   0.632   0.217   4.173  0.6951  0.6428  0.4273
 7292SOL    HW233513   0.675   0.080   4.160  2.2150  1.9855 -0.0433
 7293SOL     OW33514   3.679   1.937   4.132  0.1250 -0.7629  0.3646
 7293SOL    HW133515   3.597   1.987   4.131  0.7978  0.3820  2.2510
 7293SOL    HW233516   3.710   1.967   4.047 -0.7291  0.1419  0.3695
 7294SOL     OW33517   0.582   0.736   5.988  0.2273  0.4491 -0.6433
 7294SOL    HW133518   0.611   0.822   6.020  0.8445 -0.4293  1.1791
 7294SOL    HW233519   0.545   0.759   5.903  0.6165 -1.6848 -1.3934
 7295SOL     OW33520   2.414   0.229   4.391 -0.4614  0.3092 -0.4022
 7295SOL    HW133521   2.499   0.194   4.367  0.5098  1.3484  1.4883
 7295SOL    HW233522   2.409   0.294   4.320  2.4370  0.5949 -0.3360
 7296SOL     OW33523   0.156   3.329   3.012 -0.8125 -0.2851 -0.5012
 7296SOL    HW133524   0.240   3.290   3.035 -0.6190  0.0765 -0.5930
 7296SOL    HW233525   0.091   3.260   3.027 -1.4245  0.5579  0.7188
 7297SOL     OW33526   4.564   0.915   6.976 -0.1775  0.0122  0.0681
 7297SOL    HW133527   4.644   0.957   7.010 -0.2858  1.0501 -0.9520
 7297SOL    HW233528   4.493   0.962   7.019  1.2897 -0.1793  2.7208
 7298SOL     OW33529   0.524   3.548   5.045 -0.0464  0.1432  0.3958
 7298SOL    HW133530   0.462   3.615   5.076  1.5060  1.5322  0.4978
 7298SOL    HW233531   0.579   3.599   4.985 -0.4104  0.5121  0.3671
 7299SOL     OW33532   0.039   1.485   6.549 -0.2183  0.6381 -0.1626
 7299SOL    HW133533   0.077   1.445   6.471  1.3417 -0.7439  1.3103
 7299SOL    HW233534   4.712   1.418   6.572  0.4759 -0.3976 -1.2846
 7300SOL     OW33535   4.376   0.813   6.701  0.0500 -0.9137 -0.1531
 7300SOL    HW133536   4.297   0.811   6.646  0.0639  0.2699 -0.2086
 7300SOL    HW233537   4.429   0.850   6.630  0.3401 -0.0869  0.5025
 7301SOL     OW33538   0.962   2.162   8.747  0.0987 -0.0737  0.3330
 7301SOL    HW133539   0.935   2.245   8.786  1.5939  0.6045 -0.0940
 7301SOL    HW233540   1.007   2.114   8.817  1.3099  0.5325 -0.0356
 7302SOL     OW33541   0.045   1.652  12.617  0.1106 -0.0266  0.4937
 7302SOL    HW133542   0.132   1.642  12.577  1.3140  1.9824  2.6074
 7302SOL    HW233543   0.015   1.564  12.595  2.3619 -0.9271  1.0286
 7303SOL     OW33544   2.843   0.491   7.635 -0.9734 -0.2088  0.1573
 7303SOL    HW133545   2.825   0.474   7.728  0.7470  0.0929  0.5524
 7303SOL    HW233546   2.850   0.587   7.633 -1.0810 -0.2331 -1.3800
 7304SOL     OW33547   4.345   0.681   2.245 -0.1998  0.5793 -0.1286
 7304SOL    HW133548   4.338   0.749   2.178  0.3041  0.0018 -0.7657
 7304SOL    HW233549   4.439   0.693   2.262 -0.3400 -0.6357  1.5811
 7305SOL     OW33550   4.279   3.701   6.208  0.2292  0.1010 -0.0761
 7305SOL    HW133551   4.309   3.614   6.236  1.6992  0.9216  0.8692
 7305SOL    HW233552   4.361   3.742   6.179 -0.1479 -0.0255 -1.3300
 7306SOL     OW33553   1.552   2.239   9.807 -0.0361  0.9937 -0.8384
 7306SOL    HW133554   1.577   2.220   9.897  1.5669 -2.5440 -2.0071
 7306SOL    HW233555   1.476   2.181   9.799 -0.6330  1.3395  2.3521
 7307SOL     OW33556   1.262   2.105   5.739  0.3571 -0.0010 -0.1698
 7307SOL    HW133557   1.271   2.122   5.645  0.7079  1.4073  0.1120
 7307SOL    HW233558   1.266   2.189   5.786 -0.0599  1.6297 -3.0447
 7308SOL     OW33559   0.029   3.358   3.297  0.3649 -0.1265  0.1308
 7308SOL    HW133560   0.095   3.391   3.237  0.7455 -1.6957 -0.3324
 7308SOL    HW233561   0.014   3.433   3.355  1.8935 -0.8712  1.5005
 7309SOL     OW33562   3.278   4.070   2.526  0.0007  0.2542 -0.2720
 7309SOL    HW133563   3.297   4.005   2.458  2.1141  0.5055  0.0563
 7309SOL    HW233564   3.232   4.013   2.588  0.9790  2.1206  2.1861
 7310SOL     OW33565   1.315   3.872   7.036  0.5313  0.0007 -0.4015
 7310SOL    HW133566   1.353   3.842   6.954  3.4916 -1.1045  1.3465
 7310SOL    HW233567   1.248   3.804   7.046 -0.0010  0.6864  0.8205
 7311SOL     OW33568   2.488   3.001   2.265  0.0482  0.6442 -0.3796
 7311SOL    HW133569   2.429   2.978   2.337  0.4595  3.7489  0.9443
 7311SOL    HW233570   2.566   2.989   2.318 -0.3434  0.1810  0.0891
 7312SOL     OW33571   3.975   0.008   4.577  0.8573  0.8011 -0.4138
 7312SOL    HW133572   3.984   0.101   4.596  1.9293  1.1224 -2.4966
 7312SOL    HW233573   4.048   4.709   4.628  0.0334 -0.4008 -0.0555
 7313SOL     OW33574   2.962   2.146   5.691 -0.4959 -0.0974  0.4549
 7313SOL    HW133575   3.056   2.138   5.704 -0.2014  0.9677 -1.0179
 7313SOL    HW233576   2.952   2.241   5.677 -1.1762 -0.1665  0.4632
 7314SOL     OW33577   1.834   1.086   5.100 -0.1144  0.4737 -0.8155
 7314SOL    HW133578   1.884   1.096   5.181 -1.3463  0.0603 -0.0028
 7314SOL    HW233579   1.903   1.068   5.036  0.8614 -1.5817  0.8379
 7315SOL     OW33580   2.039   1.360   1.096  0.0837 -0.4942 -0.2168
 7315SOL    HW133581   1.983   1.347   1.173 -1.8855  1.6987 -1.3062
 7315SOL    HW233582   2.077   1.446   1.114 -1.4424  0.0815  0.2561
 7316SOL     OW33583   2.618   0.041   2.053  0.3190 -0.5456  0.7144
 7316SOL    HW133584   2.564   0.035   2.132  1.0189  0.3148  1.2670
 7316SOL    HW233585   2.547   0.027   1.990  2.4795 -2.3023 -1.3350
 7317SOL     OW33586   4.400   4.118   8.651  0.4538  0.2711  0.1249
 7317SOL    HW133587   4.334   4.055   8.678 -0.6975  1.4023 -0.0123
 7317SOL    HW233588   4.472   4.067   8.615  0.1860 -0.7483  1.0617
 7318SOL     OW33589   3.846   3.468   9.363 -0.1896  0.2656 -0.0187
 7318SOL    HW133590   3.857   3.480   9.457 -1.8426 -0.5588  0.2853
 7318SOL    HW233591   3.921   3.412   9.342 -0.2259 -0.4658  1.8115
 7319SOL     OW33592   2.386   1.943  15.392  0.6026  0.4791  0.2414
 7319SOL    HW133593   2.409   2.012  15.454  1.3510  0.2176  0.2567
 7319SOL    HW233594   2.476   1.920  15.370  0.8894  0.0895  1.7856
 7320SOL     OW33595   1.101   2.814   4.563 -0.2539  0.1085 -0.2545
 7320SOL    HW133596   1.157   2.738   4.554 -0.3693 -0.0987  0.7816
 7320SOL    HW233597   1.134   2.862   4.487 -1.0897  0.6452 -0.2842
 7321SOL     OW33598   0.668   0.424   2.298  0.2551  0.0391 -1.0016
 7321SOL    HW133599   0.627   0.338   2.306  0.4795 -0.0115 -0.3383
 7321SOL    HW233600   0.747   0.400   2.250  1.1643 -0.6814  0.8546
 7322SOL     OW33601   3.387   3.087  12.451  0.2027 -0.0873  0.1099
 7322SOL    HW133602   3.416   3.052  12.366 -2.2775 -2.3364  0.1800
 7322SOL    HW233603   3.458   3.151  12.456  0.6205 -0.4022 -1.6547
 7323SOL     OW33604   2.220   2.587   4.261  0.9921  0.1978 -0.0949
 7323SOL    HW133605   2.159   2.588   4.335 -0.2435  0.3710 -1.1048
 7323SOL    HW233606   2.159   2.594   4.188 -0.6627 -0.1521  1.2464
 7324SOL     OW33607   3.681   2.589   8.667  0.2178 -0.4461 -0.1695
 7324SOL    HW133608   3.748   2.584   8.600 -0.1053  0.5914 -0.5628
 7324SOL    HW233609   3.730   2.593   8.749  0.6940 -0.2451 -0.4667
 7325SOL     OW33610   4.492   1.480  14.347 -0.0342 -0.0042 -0.5186
 7325SOL    HW133611   4.561   1.482  14.280  0.2070  2.1717 -0.2192
 7325SOL    HW233612   4.461   1.570  14.338 -1.9984 -0.4327  2.2721
 7326SOL     OW33613   2.765   3.634  14.350 -0.3396  0.4126  0.7932
 7326SOL    HW133614   2.711   3.676  14.283 -0.1659  2.1962  1.7711
 7326SOL    HW233615   2.851   3.673  14.339 -0.5490 -0.0457 -2.6010
 7327SOL     OW33616   0.526   1.170   5.600  0.5691  0.0183  0.1809
 7327SOL    HW133617   0.572   1.225   5.664  1.5607  1.0949 -1.4537
 7327SOL    HW233618   0.449   1.225   5.589  1.5628  1.5810  0.9634
 7328SOL     OW33619   3.260   3.463   9.504 -0.3252 -0.0045  0.0231
 7328SOL    HW133620   3.215   3.393   9.554 -0.8461 -0.4174 -1.0309
 7328SOL    HW233621   3.292   3.414   9.428  0.1192  2.4386 -1.3411
 7329SOL     OW33622   1.952   3.824   7.529  0.1125  0.5753  0.4905
 7329SOL    HW133623   1.907   3.808   7.612 -1.3752  2.1930 -0.0286
 7329SOL    HW233624   1.990   3.737   7.516  0.7277  0.7819  0.8968
 7330SOL     OW33625   0.369   4.319   8.079 -0.2634  0.4460  0.0967
 7330SOL    HW133626   0.409   4.325   7.993  0.8326  0.1470  0.5817
 7330SOL    HW233627   0.277   4.338   8.062  0.1549  1.1244 -1.3954
 7331SOL     OW33628   0.090   1.314   4.939  0.2936  0.4480  0.3981
 7331SOL    HW133629   0.123   1.293   4.852 -0.2456 -0.3577  0.3951
 7331SOL    HW233630   0.147   1.278   5.007  1.5886 -0.5645 -1.2431
 7332SOL     OW33631   4.510   1.435  14.700  0.4698  0.1500 -0.3612
 7332SOL    HW133632   4.485   1.349  14.667  1.4194 -0.1023 -0.4178
 7332SOL    HW233633   4.576   1.402  14.760  1.7237 -1.4483 -2.6425
 7333SOL     OW33634   0.415   0.311   5.713  0.2626 -0.7783 -0.4272
 7333SOL    HW133635   0.366   0.328   5.633 -1.8398 -1.2196  0.7913
 7333SOL    HW233636   0.353   0.282   5.779  1.2552 -0.5489  0.6043
 7334SOL     OW33637   2.173   1.099   8.127 -0.2025 -0.4217 -0.2068
 7334SOL    HW133638   2.256   1.064   8.159 -0.5083 -3.4075 -2.6009
 7334SOL    HW233639   2.103   1.034   8.134 -1.7397  1.2629  0.1926
 7335SOL     OW33640   0.891   4.009   7.973  0.5491  0.4746 -0.1760
 7335SOL    HW133641   0.981   3.978   7.977  0.2095 -0.6308 -1.2716
 7335SOL    HW233642   0.893   3.992   8.067 -1.0272 -0.2937 -0.2830
 7336SOL     OW33643   4.241   3.830   1.287 -0.5867  0.2214 -0.6565
 7336SOL    HW133644   4.287   3.747   1.272  1.7694  1.4312  0.0171
 7336SOL    HW233645   4.310   3.895   1.299 -0.0118 -0.5921  0.5521
 7337SOL     OW33646   0.005   0.279  13.633 -0.5312  0.2604 -0.4743
 7337SOL    HW133647   0.075   0.220  13.661  0.1698  0.9370 -0.8242
 7337SOL    HW233648   4.672   0.213  13.627  0.4678 -0.6887 -1.6350
 7338SOL     OW33649   4.033   0.242  14.751  0.1239  0.4380  0.0870
 7338SOL    HW133650   3.975   0.290  14.811  1.4056  1.0389  0.8530
 7338SOL    HW233651   4.112   0.273  14.795  0.5959 -1.7949  0.8167
 7339SOL     OW33652   0.202   1.270   3.970  0.0847  0.1887 -0.2550
 7339SOL    HW133653   0.259   1.346   3.987 -0.9914  0.5389  1.8254
 7339SOL    HW233654   0.224   1.256   3.878 -0.6704  1.1842 -0.5901
 7340SOL     OW33655   2.507   4.438   6.303  0.2113 -0.5097  0.2916
 7340SOL    HW133656   2.578   4.479   6.352 -0.1097 -1.3656  1.4878
 7340SOL    HW233657   2.435   4.476   6.354 -0.9454 -1.9625 -0.2598
 7341SOL     OW33658   4.553   2.590   4.371 -0.2869 -0.1237 -0.2745
 7341SOL    HW133659   4.583   2.504   4.338  0.4412 -0.8887  2.3640
 7341SOL    HW233660   4.458   2.581   4.375 -0.2831 -0.4514 -0.9561
 7342SOL     OW33661   0.148   4.723   7.699  0.3955  0.5654  0.2010
 7342SOL    HW133662   0.133   4.669   7.777 -1.5647 -0.0172 -0.5929
 7342SOL    HW233663   0.244   4.714   7.701  0.3827 -0.2005 -1.9959
 7343SOL     OW33664   1.877   4.727   4.577 -0.1618  0.4060 -0.4492
 7343SOL    HW133665   1.838   0.070   4.613 -0.2320  0.4076 -0.5285
 7343SOL    HW233666   1.964   0.010   4.612 -0.0659  0.0374 -0.4793
 7344SOL     OW33667   2.097   2.685   8.706 -0.1557  0.5145  0.4209
 7344SOL    HW133668   2.087   2.590   8.692  2.2124  0.3344 -0.0448
 7344SOL    HW233669   2.106   2.686   8.801 -3.2751 -0.6869  0.7360
 7345SOL     OW33670   2.236   1.612   6.929 -0.5194  0.1762  0.0272
 7345SOL    HW133671   2.161   1.653   6.887  0.9438  1.4504 -1.3207
 7345SOL    HW233672   2.207   1.525   6.956 -1.5444 -0.2066 -2.2581
 7346SOL     OW33673   2.369   1.917   6.854 -0.3880 -0.2771  0.0830
 7346SOL    HW133674   2.453   1.964   6.859  0.7406 -2.4445  1.5677
 7346SOL    HW233675   2.381   1.850   6.921  0.6267  0.2229  0.4127
 7347SOL     OW33676   2.260   4.403   3.175  0.0556  0.0598  0.1436
 7347SOL    HW133677   2.353   4.387   3.188  0.8823  3.2125 -1.8804
 7347SOL    HW233678   2.271   4.497   3.163 -0.6744 -0.1870 -2.2714
 7348SOL     OW33679   3.906   0.183   1.738 -0.0855  0.3400 -0.7439
 7348SOL    HW133680   3.952   0.100   1.723 -1.1079  0.1070 -2.6227
 7348SOL    HW233681   3.948   0.216   1.817 -0.3261  0.7149 -0.7719
 7349SOL     OW33682   2.186   2.907   4.210  0.1416 -0.5931 -0.0346
 7349SOL    HW133683   2.243   2.950   4.273 -1.3748 -0.8072  1.4715
 7349SOL    HW233684   2.142   2.843   4.267  0.4350 -1.4906 -0.8080
 7350SOL     OW33685   3.382   0.234   2.680 -0.4334  0.7560 -0.1498
 7350SOL    HW133686   3.329   0.279   2.746 -0.1008  0.9183  0.0092
 7350SOL    HW233687   3.332   0.153   2.670 -0.0998  0.6604 -1.0686
 7351SOL     OW33688   0.648   2.485   5.541 -0.0110 -0.1462 -0.2445
 7351SOL    HW133689   0.651   2.551   5.610 -4.2917  0.5087 -0.7159
 7351SOL    HW233690   0.658   2.401   5.586  0.7401  0.8636  1.4759
 7352SOL     OW33691   4.206   0.503   1.440 -0.4217  0.4924  0.5379
 7352SOL    HW133692   4.250   0.422   1.415 -0.5862  0.7731 -0.6690
 7352SOL    HW233693   4.197   0.487   1.534 -2.8269  0.9011  0.3830
 7353SOL     OW33694   1.488   0.162  11.295 -0.6945 -0.1713 -0.3071
 7353SOL    HW133695   1.401   0.127  11.311 -0.8013  1.0190  1.6679
 7353SOL    HW233696   1.521   0.114  11.219 -0.0459 -2.7776  1.6354
 7354SOL     OW33697   0.298   3.310   6.191  0.3838  0.1937 -0.3846
 7354SOL    HW133698   0.212   3.308   6.148  0.7809 -1.4243 -1.0998
 7354SOL    HW233699   0.344   3.263   6.122  2.0780  1.6780 -0.2469
 7355SOL     OW33700   1.451   0.474   6.204 -0.3721 -0.3361 -0.1401
 7355SOL    HW133701   1.366   0.472   6.247 -0.0688  1.7147  0.5602
 7355SOL    HW233702   1.503   0.491   6.282 -1.2396 -0.3400  0.4432
 7356SOL     OW33703   1.872   1.654   6.478 -0.3461  0.2249  0.4475
 7356SOL    HW133704   1.823   1.602   6.415 -1.1814  3.0150 -1.2023
 7356SOL    HW233705   1.851   1.606   6.557 -1.7807  1.7697  0.9974
 7357SOL     OW33706   0.235   3.616   7.404  0.7681 -0.2385 -0.3815
 7357SOL    HW133707   0.155   3.571   7.432  0.0803  1.3099  0.1131
 7357SOL    HW233708   0.206   3.695   7.358  0.9511  0.3065  0.4412
 7358SOL     OW33709   0.797   3.925  12.262  0.1691  0.0124  0.0365
 7358SOL    HW133710   0.891   3.929  12.244 -0.1576 -0.0104 -1.6374
 7358SOL    HW233711   0.763   3.926  12.173 -0.3667 -2.0556  0.2142
 7359SOL     OW33712   0.760   1.436   5.171  0.2787  0.5287 -0.0676
 7359SOL    HW133713   0.809   1.457   5.091  1.2314 -1.1028  0.1052
 7359SOL    HW233714   0.769   1.521   5.214  1.0433  0.4470 -0.0673
 7360SOL     OW33715   0.785   1.974  13.139 -0.1669 -0.7274 -0.0775
 7360SOL    HW133716   0.710   1.983  13.081  0.4565 -0.2811 -0.8150
 7360SOL    HW233717   0.857   2.003  13.083 -1.2591 -0.3002 -1.2562
 7361SOL     OW33718   0.305   2.034   4.238  0.1207  0.4400  0.0068
 7361SOL    HW133719   0.396   2.045   4.263  0.5915 -1.2007 -0.9850
 7361SOL    HW233720   0.290   1.939   4.236 -0.0465  0.4916 -1.0396
 7362SOL     OW33721   4.426   0.343   5.340 -0.0152  0.3896  0.3220
 7362SOL    HW133722   4.389   0.271   5.290 -0.4503  0.5852  0.3629
 7362SOL    HW233723   4.450   0.405   5.271  0.0566  2.0704  1.8409
 7363SOL     OW33724   3.625   0.449  14.455 -0.1487 -0.1110 -0.9704
 7363SOL    HW133725   3.682   0.502  14.511 -1.1886  0.1287 -0.1375
 7363SOL    HW233726   3.629   0.360  14.492  0.8005 -0.2228 -1.3345
 7364SOL     OW33727   4.498   4.557  12.240  0.2746 -0.2363  0.3186
 7364SOL    HW133728   4.587   4.583  12.262  0.3605 -1.1587  1.1133
 7364SOL    HW233729   4.462   4.643  12.219  0.1976 -0.3517 -0.0150
 7365SOL     OW33730   3.996   4.602   7.761 -0.2858  0.6770 -0.1749
 7365SOL    HW133731   3.931   4.631   7.696 -2.6224 -2.5563  0.7033
 7365SOL    HW233732   3.927   4.570   7.820  1.2984 -0.6752  0.9387
 7366SOL     OW33733   2.736   3.990   3.395 -1.0744  0.6948 -0.2589
 7366SOL    HW133734   2.783   3.930   3.336 -2.0822  0.4391 -0.7878
 7366SOL    HW233735   2.784   3.972   3.476 -1.0879  1.4986 -0.0787
 7367SOL     OW33736   4.557   4.185  17.381  0.2797 -0.2609  0.0948
 7367SOL    HW133737   4.503   4.250  17.336 -1.5368 -0.7007  1.6499
 7367SOL    HW233738   4.546   4.203  17.474 -2.2171  0.5102 -0.3610
 7368SOL     OW33739   2.072   0.031   6.562  0.3959 -0.2041  0.5228
 7368SOL    HW133740   2.009   4.722   6.618 -0.6569 -0.5699 -0.9773
 7368SOL    HW233741   2.110   4.693   6.516  0.7325  0.0984  0.3079
 7369SOL     OW33742   3.144   3.198  14.685  0.0603  0.4163  0.1624
 7369SOL    HW133743   3.132   3.103  14.689 -2.9527  0.8529  1.2660
 7369SOL    HW233744   3.199   3.196  14.606 -1.7904 -0.3013 -1.0960
 7370SOL     OW33745   1.367   3.207   6.200 -0.1802  0.2467 -0.3008
 7370SOL    HW133746   1.327   3.293   6.184 -2.1341 -0.4713  0.7242
 7370SOL    HW233747   1.444   3.235   6.251 -0.7244  1.5482 -0.1967
 7371SOL     OW33748   3.529   1.669   4.686 -0.1735  0.1348 -0.0720
 7371SOL    HW133749   3.598   1.603   4.675  1.8488  2.1492  0.6101
 7371SOL    HW233750   3.545   1.713   4.770 -1.3203  0.1592  0.1393
 7372SOL     OW33751   0.272   3.286   9.018  0.4598  0.1321  0.2113
 7372SOL    HW133752   0.181   3.316   9.022  0.7435  0.7203  1.9782
 7372SOL    HW233753   0.321   3.367   9.005  0.4365 -0.0204 -0.8321
 7373SOL     OW33754   2.248   1.445   2.469 -0.2330 -0.1877  0.4109
 7373SOL    HW133755   2.228   1.352   2.471  0.6891 -0.3962 -0.0657
 7373SOL    HW233756   2.187   1.474   2.538 -0.7703  1.8130 -0.8960
 7374SOL     OW33757   4.721   2.175   9.142  0.1021 -0.0580 -0.0423
 7374SOL    HW133758   0.069   2.219   9.144  0.1312 -0.1429  0.5366
 7374SOL    HW233759   4.718   2.116   9.066  2.8159 -0.9201  0.5133
 7375SOL     OW33760   2.552   0.196  12.773  0.4111 -0.2260 -0.5822
 7375SOL    HW133761   2.626   0.176  12.830 -0.6327 -0.8829  0.5225
 7375SOL    HW233762   2.500   0.116  12.766 -1.0170  0.5201  1.4536
 7376SOL     OW33763   1.758   3.466  13.063  0.4110  0.0012  0.6307
 7376SOL    HW133764   1.718   3.496  12.981  3.0320 -0.9955 -1.0414
 7376SOL    HW233765   1.691   3.407  13.098  0.7498 -1.7255 -1.6187
 7377SOL     OW33766   2.955   3.198   3.751  0.0417 -0.2136 -0.1655
 7377SOL    HW133767   2.947   3.292   3.733 -0.2954  0.0003  1.0377
 7377SOL    HW233768   3.048   3.187   3.768 -0.4304 -2.7289  0.7668
 7378SOL     OW33769   3.357   3.873   5.058  0.0229 -0.2777 -0.0818
 7378SOL    HW133770   3.327   3.926   5.132 -0.5841  0.0090 -0.5278
 7378SOL    HW233771   3.450   3.893   5.064 -0.1633  0.1573  1.2894
 7379SOL     OW33772   3.750   1.465   9.715 -0.1262 -0.3894  0.2814
 7379SOL    HW133773   3.699   1.480   9.794 -0.2046  0.9102 -0.0149
 7379SOL    HW233774   3.826   1.425   9.758  0.0836  0.2732  0.5215
 7380SOL     OW33775   2.697   0.754   4.192 -0.2676  0.0927 -0.0162
 7380SOL    HW133776   2.704   0.672   4.144 -2.1597 -0.7020  1.0825
 7380SOL    HW233777   2.638   0.731   4.263 -0.4070  0.4810 -0.0055
 7381SOL     OW33778   4.358   2.021   2.951  0.2840  0.0953 -0.4447
 7381SOL    HW133779   4.445   2.003   2.988 -0.7974 -0.7054  1.7159
 7381SOL    HW233780   4.384   2.036   2.860 -1.2895 -0.4312 -0.9777
 7382SOL     OW33781   0.893   1.681   5.863  0.1284  0.0935 -0.6246
 7382SOL    HW133782   0.842   1.692   5.783  0.5738 -2.0782 -1.1963
 7382SOL    HW233783   0.965   1.739   5.838 -0.4714  1.0586 -0.1185
 7383SOL     OW33784   1.921   3.446  12.763  0.4359 -0.0820  0.0963
 7383SOL    HW133785   1.837   3.467  12.805  0.5402  1.4071 -0.4121
 7383SOL    HW233786   1.948   3.536  12.744  0.1461  0.3216  1.5998
 7384SOL     OW33787   3.906   3.146   9.398 -0.5567  0.0067  0.2145
 7384SOL    HW133788   3.954   3.214   9.351 -1.6573 -0.1814 -1.1667
 7384SOL    HW233789   3.949   3.064   9.376 -0.8954  0.4259 -2.0425
 7385SOL     OW33790   1.287   1.046   6.097  0.1640  0.6957 -0.3486
 7385SOL    HW133791   1.310   1.100   6.021 -0.5478 -2.2072 -2.6430
 7385SOL    HW233792   1.255   0.968   6.052 -0.9516  0.0214  1.6296
 7386SOL     OW33793   1.300   0.131   7.325 -0.2575  0.5724 -0.3843
 7386SOL    HW133794   1.297   0.215   7.280  0.7123  0.7303 -0.1593
 7386SOL    HW233795   1.378   0.131   7.380  0.6252  0.0838 -1.6618
 7387SOL     OW33796   0.582   4.530   3.671 -0.3503  0.3748 -0.4751
 7387SOL    HW133797   0.531   4.601   3.712 -1.3003 -0.1734 -0.7071
 7387SOL    HW233798   0.655   4.587   3.647  0.1519  0.8683  2.2092
 7388SOL     OW33799   2.725   3.831  11.836  0.0758  1.0912  0.4525
 7388SOL    HW133800   2.711   3.737  11.842  0.2633  0.9685 -1.1159
 7388SOL    HW233801   2.819   3.835  11.854  0.3196 -0.3736 -0.4880
 7389SOL     OW33802   0.656   1.136  17.673  0.0320 -0.3330 -0.3821
 7389SOL    HW133803   0.689   1.178   0.008  1.3933 -2.3917  0.1439
 7389SOL    HW233804   0.587   1.197  17.646  0.3780  0.3234  0.2402
 7390SOL     OW33805   0.893   0.875   2.280  0.5664  0.1224 -0.2835
 7390SOL    HW133806   0.888   0.788   2.320 -2.4631  0.9126  1.0260
 7390SOL    HW233807   0.910   0.919   2.363 -1.0096  1.3968 -0.6442
 7391SOL     OW33808   0.176   2.129   6.783 -0.0821 -0.2254 -0.2477
 7391SOL    HW133809   0.105   2.066   6.770 -0.3990 -0.2020  1.2899
 7391SOL    HW233810   0.236   2.108   6.712  0.9678  1.4537  0.1369
 7392SOL     OW33811   0.390   1.429   4.522  0.1567 -0.1502 -0.3597
 7392SOL    HW133812   0.477   1.398   4.547  0.0016 -1.9194 -2.0888
 7392SOL    HW233813   0.345   1.354   4.483  1.1750 -0.4878 -0.8761
 7393SOL     OW33814   0.019   2.355   7.004 -0.2580  0.0456  0.3724
 7393SOL    HW133815   0.084   2.286   7.014 -0.6885  0.0138  3.0654
 7393SOL    HW233816   4.687   2.308   6.956 -1.1160  0.8061  0.8414
 7394SOL     OW33817   2.461   0.432  15.918  0.1474  0.0522  0.6392
 7394SOL    HW133818   2.365   0.431  15.914  0.1670  0.9449  0.0554
 7394SOL    HW233819   2.484   0.419  15.827  0.0109 -0.3768  0.6669
 7395SOL     OW33820   1.438   1.132   5.867  0.0961  0.6516  0.0231
 7395SOL    HW133821   1.451   1.215   5.821  1.0235 -0.3481 -1.5011
 7395SOL    HW233822   1.430   1.073   5.792  2.3197 -0.8435  0.9834
 7396SOL     OW33823   1.157   2.392   4.036 -0.1185  1.2444 -0.5440
 7396SOL    HW133824   1.148   2.457   3.966  0.5667  0.3716 -1.4277
 7396SOL    HW233825   1.082   2.333   4.029  2.4067 -2.0724  0.3142
 7397SOL     OW33826   1.253   2.821   1.895 -0.1323 -0.6233 -0.2644
 7397SOL    HW133827   1.175   2.821   1.951  0.1737 -1.6739  0.1530
 7397SOL    HW233828   1.282   2.908   1.922 -1.0263 -0.3083 -0.2955
 7398SOL     OW33829   0.498   0.154   4.715  0.3028 -0.4387  0.8211
 7398SOL    HW133830   0.567   0.211   4.684 -1.9654  1.8677  0.0182
 7398SOL    HW233831   0.551   0.081   4.748  0.9794 -0.5753 -0.5946
 7399SOL     OW33832   3.917   1.577   6.412 -0.3674 -0.1980 -0.0121
 7399SOL    HW133833   3.988   1.519   6.384  0.0583 -0.0995  0.8923
 7399SOL    HW233834   3.888   1.620   6.331 -1.8594 -0.6502  0.2836
 7400SOL     OW33835   3.374   0.707  12.417 -0.1319 -0.0272  0.3978
 7400SOL    HW133836   3.377   0.698  12.513  1.6203 -1.6392  0.1921
 7400SOL    HW233837   3.416   0.623  12.398 -0.9648 -0.7021  1.4632
 7401SOL     OW33838   4.162   3.136   4.847 -0.4550 -0.2685  0.1701
 7401SOL    HW133839   4.252   3.166   4.859 -0.6299  0.4860 -0.4075
 7401SOL    HW233840   4.177   3.043   4.829 -0.3579 -0.4699  1.3314
 7402SOL     OW33841   0.052   4.051   1.610 -0.5488 -0.1848  0.3066
 7402SOL    HW133842   0.111   4.068   1.537 -0.7739 -0.6686  0.0085
 7402SOL    HW233843   0.067   4.133   1.657  0.6560 -0.0079 -0.3947
 7403SOL     OW33844   2.895   0.934   3.069 -0.1181  0.3733  0.5259
 7403SOL    HW133845   2.878   1.024   3.040  0.3504 -0.5596 -2.5701
 7403SOL    HW233846   2.986   0.931   3.099 -0.0578 -1.4152  0.1319
 7404SOL     OW33847   4.724   3.263   9.637  0.1489  0.6887  0.7076
 7404SOL    HW133848   4.636   3.256   9.600  0.5017  3.0866 -0.5544
 7404SOL    HW233849   4.733   3.178   9.681  3.4478  1.5547  1.6928
 7405SOL     OW33850   1.557   3.932   4.110  0.3914 -0.1780 -0.2908
 7405SOL    HW133851   1.505   3.958   4.186  0.6479  0.6788 -0.4147
 7405SOL    HW233852   1.612   4.006   4.084 -0.1111  1.1524  2.4358
 7406SOL     OW33853   1.799   0.175   8.668 -0.2726 -0.0557  0.2944
 7406SOL    HW133854   1.777   0.202   8.758  1.9359 -1.0538  1.1333
 7406SOL    HW233855   1.709   0.185   8.636 -0.0946 -0.2138 -0.2423
 7407SOL     OW33856   0.904   3.293   2.651  0.5122 -0.0903 -0.2938
 7407SOL    HW133857   0.864   3.241   2.581  1.2244 -0.7408 -0.2149
 7407SOL    HW233858   0.825   3.340   2.678 -0.4160 -0.5635 -2.1754
 7408SOL     OW33859   1.114   3.397   7.762  0.0382 -0.5318 -0.5271
 7408SOL    HW133860   1.149   3.376   7.675  1.7047  0.8979 -0.1995
 7408SOL    HW233861   1.137   3.488   7.780  0.6888 -0.4231 -1.8949
 7409SOL     OW33862   2.041   3.143   6.475  0.2791  0.3604 -0.0413
 7409SOL    HW133863   2.083   3.068   6.516 -0.1777  0.1305  0.0068
 7409SOL    HW233864   2.117   3.182   6.432  0.2354 -0.1635 -0.5936
 7410SOL     OW33865   2.984   3.459   6.039  0.0080  0.1238 -0.3650
 7410SOL    HW133866   3.013   3.464   5.947 -1.3250  2.0126 -0.6580
 7410SOL    HW233867   3.042   3.522   6.082  1.6672 -1.9301  0.4510
 7411SOL     OW33868   3.678   2.823   4.926 -0.2042 -0.9552 -0.3721
 7411SOL    HW133869   3.694   2.756   4.859  1.0139 -1.8019  0.7948
 7411SOL    HW233870   3.730   2.792   4.999  0.7405 -1.1163 -1.1159
 7412SOL     OW33871   1.537   3.019   5.525 -0.1590 -0.3983 -0.6575
 7412SOL    HW133872   1.589   3.086   5.480  0.6676 -0.8741 -0.4042
 7412SOL    HW233873   1.592   3.019   5.603  0.0735  0.0853 -0.8201
 7413SOL     OW33874   4.133   3.673  15.610  0.3745 -0.3853 -0.1985
 7413SOL    HW133875   4.196   3.655  15.540 -0.8479 -1.7108 -0.9722
 7413SOL    HW233876   4.048   3.643  15.580 -0.1967 -1.0250  2.0585
 7414SOL     OW33877   3.606   3.998   8.276 -0.2583  0.1872  0.1280
 7414SOL    HW133878   3.523   3.995   8.228  0.7407  0.7226 -1.6438
 7414SOL    HW233879   3.609   3.911   8.316  2.7721  0.3892  0.3260
 7415SOL     OW33880   1.335   2.447   3.377 -0.3150  0.1992 -0.4768
 7415SOL    HW133881   1.353   2.523   3.321  0.1256  0.5168  0.1035
 7415SOL    HW233882   1.304   2.388   3.307  1.6333 -0.9358 -0.3864
 7416SOL     OW33883   2.914   3.105  16.961 -0.0232 -0.3087 -0.5538
 7416SOL    HW133884   2.976   3.118  17.033  1.0282 -0.5241 -1.4211
 7416SOL    HW233885   2.884   3.015  16.976 -0.3211 -0.3878 -1.6479
 7417SOL     OW33886   1.406   2.864  14.688  0.4780  0.6148 -0.4859
 7417SOL    HW133887   1.482   2.810  14.711  2.3799  1.7666 -3.9415
 7417SOL    HW233888   1.389   2.903  14.774 -0.0749 -0.8328  0.0568
 7418SOL     OW33889   3.155   1.673   0.846  0.5808 -0.2482 -0.5105
 7418SOL    HW133890   3.106   1.658   0.765 -3.3978  0.3937  1.7546
 7418SOL    HW233891   3.114   1.757   0.868  0.9052 -0.3471  0.4483
 7419SOL     OW33892   0.978   2.194   7.489  0.6204  0.0319 -0.2974
 7419SOL    HW133893   1.050   2.138   7.517  1.2890  0.7803 -0.5119
 7419SOL    HW233894   1.029   2.275   7.481  2.7953 -1.3002  0.1247
 7420SOL     OW33895   1.295   3.804   5.504 -0.0677 -0.0104 -0.4498
 7420SOL    HW133896   1.303   3.884   5.452  0.9505 -0.2597 -0.6815
 7420SOL    HW233897   1.311   3.752   5.426 -2.0361 -0.2795 -0.6630
 7421SOL     OW33898   3.908   1.727  10.029 -0.0115 -0.5156 -0.6204
 7421SOL    HW133899   3.914   1.697  10.120  0.9579  2.6819  0.3594
 7421SOL    HW233900   3.928   1.819  10.041  1.8386 -0.7966 -1.4848
 7422SOL     OW33901   1.302   3.008   2.868 -0.4776  0.2078 -0.8077
 7422SOL    HW133902   1.231   2.980   2.926  1.1575 -0.7673  0.7317
 7422SOL    HW233903   1.337   2.928   2.830 -0.6268 -0.3983  0.3498
 7423SOL     OW33904   0.302   0.200   7.005 -0.9879 -0.0336 -0.3490
 7423SOL    HW133905   0.353   0.274   6.973 -3.6151  0.7914 -2.5485
 7423SOL    HW233906   0.298   0.150   6.923  2.5099  0.3998 -0.7744
 7424SOL     OW33907   3.567   0.056   6.170 -0.1707 -0.4458 -0.2211
 7424SOL    HW133908   3.527   0.049   6.084  0.3301  1.6068 -0.6208
 7424SOL    HW233909   3.511   0.122   6.210  0.1540 -0.9549  1.0749
 7425SOL     OW33910   4.249   2.983  15.472 -0.1685  0.5330  0.5885
 7425SOL    HW133911   4.237   3.019  15.560  0.1455  0.8901  0.4871
 7425SOL    HW233912   4.156   2.973  15.455 -0.0102  0.1317 -0.0510
 7426SOL     OW33913   3.714   2.228  12.823 -0.3000  0.4980 -0.5312
 7426SOL    HW133914   3.712   2.145  12.871 -0.0460 -1.0090 -3.1552
 7426SOL    HW233915   3.803   2.250  12.795  0.1497 -1.4935 -0.6356
 7427SOL     OW33916   3.622   1.005   5.850  0.1415  0.0777 -0.0935
 7427SOL    HW133917   3.542   0.962   5.880 -0.8470  1.4798 -0.7172
 7427SOL    HW233918   3.575   1.072   5.800  0.8035 -0.6336 -1.6783
 7428SOL     OW33919   1.342   4.475   7.395 -0.7791  0.1846  0.5124
 7428SOL    HW133920   1.355   4.458   7.488 -2.7736 -0.7537  0.6185
 7428SOL    HW233921   1.404   4.543   7.366  2.3253 -2.3609  1.1782
 7429SOL     OW33922   2.210   3.550   1.136 -0.0239 -0.2283  0.1611
 7429SOL    HW133923   2.186   3.496   1.211 -0.7345 -0.5391 -0.2922
 7429SOL    HW233924   2.276   3.609   1.173 -0.6337 -0.1875  1.1731
 7430SOL     OW33925   3.987   3.451  11.919  0.0965  0.1686  0.2574
 7430SOL    HW133926   4.049   3.410  11.858  0.0195 -0.0984  0.3591
 7430SOL    HW233927   4.016   3.542  11.914  0.7434  0.0479  1.7253
 7431SOL     OW33928   2.076   4.395  16.199 -0.2059  0.1859  0.0260
 7431SOL    HW133929   2.125   4.391  16.281 -2.1902  0.8992  1.2228
 7431SOL    HW233930   2.099   4.484  16.172  0.8951  0.1720  0.9278
 7432SOL     OW33931   3.673   1.965   0.457 -0.0434 -0.1478  0.1336
 7432SOL    HW133932   3.587   1.991   0.423  0.1692 -1.1571 -1.1954
 7432SOL    HW233933   3.694   1.885   0.408  0.3295  0.6920 -1.0692
 7433SOL     OW33934   3.645   3.266   9.436  0.4540  0.0602 -0.3887
 7433SOL    HW133935   3.733   3.233   9.420  1.4648  3.0391 -1.1244
 7433SOL    HW233936   3.660   3.360   9.447  1.2465 -0.4123  2.6469
 7434SOL     OW33937   2.794   1.467   7.250  0.1608 -0.7756 -0.1558
 7434SOL    HW133938   2.822   1.537   7.190  0.6122  0.3450  1.3465
 7434SOL    HW233939   2.764   1.409   7.180 -0.6056 -0.6212  0.0533
 7435SOL     OW33940   4.614   0.345  11.898 -0.2404 -0.2539  0.4945
 7435SOL    HW133941   4.577   0.327  11.985  0.7478 -2.7658  0.3823
 7435SOL    HW233942   4.569   0.283  11.841 -1.0464  0.0526  0.7948
 7436SOL     OW33943   2.387   3.823   7.145  0.3862 -0.3293  0.5314
 7436SOL    HW133944   2.405   3.900   7.198 -0.6786 -1.1890  2.1389
 7436SOL    HW233945   2.377   3.761   7.217 -3.0143  0.1722  0.4888
 7437SOL     OW33946   1.934   0.899  15.984 -0.2090 -0.4783  0.8639
 7437SOL    HW133947   1.948   0.820  15.931 -0.2471  1.2291 -1.6599
 7437SOL    HW233948   1.999   0.962  15.955 -1.2961  0.6367  0.8324
 7438SOL     OW33949   0.899   3.486  10.367 -0.1694 -0.0453  0.1562
 7438SOL    HW133950   0.856   3.486  10.282 -0.8032  1.7417  0.4723
 7438SOL    HW233951   0.828   3.531  10.413 -0.3326  0.7137 -0.8501
 7439SOL     OW33952   3.105   2.578   7.590 -0.3653 -0.0057  0.4208
 7439SOL    HW133953   3.078   2.591   7.681  1.0168  0.6398  0.7372
 7439SOL    HW233954   3.198   2.600   7.594 -0.1951 -0.7173  0.4056
 7440SOL     OW33955   2.619   0.490   8.575  0.2915  0.1451  0.2977
 7440SOL    HW133956   2.669   0.435   8.514  1.3806 -1.2117  2.4054
 7440SOL    HW233957   2.534   0.448   8.565 -2.0302  4.9799 -0.0416
 7441SOL     OW33958   4.004   3.936   8.654 -0.2703 -0.7218 -0.0433
 7441SOL    HW133959   4.090   3.911   8.688  0.5330 -0.3396 -1.8024
 7441SOL    HW233960   4.013   3.951   8.560  1.7937  1.6596  0.5390
 7442SOL     OW33961   0.571   3.784   5.891 -0.0727 -0.1726  0.6618
 7442SOL    HW133962   0.506   3.824   5.948  0.3607  1.4555  0.0004
 7442SOL    HW233963   0.562   3.692   5.917  2.2097 -0.9402 -1.2935
 7443SOL     OW33964   0.735   2.232  13.679 -0.1535 -0.7713 -0.2936
 7443SOL    HW133965   0.767   2.218  13.590 -1.4062 -0.5580 -0.7840
 7443SOL    HW233966   0.644   2.261  13.668  0.6478  0.7326 -3.2496
 7444SOL     OW33967   0.493   0.681  10.855 -0.5521  0.3953 -0.1469
 7444SOL    HW133968   0.531   0.767  10.868  0.6803 -0.4307  1.7166
 7444SOL    HW233969   0.530   0.643  10.775 -2.4008  3.2668 -2.3848
 7445SOL     OW33970   2.369   3.196   9.721 -0.0502 -0.9341 -0.1393
 7445SOL    HW133971   2.428   3.171   9.792  1.6533  0.9923 -0.8861
 7445SOL    HW233972   2.393   3.145   9.644 -0.8201  1.2807 -1.8328
 7446SOL     OW33973   0.634   2.487   4.305 -0.2008 -0.0526  0.1375
 7446SOL    HW133974   0.586   2.565   4.279 -1.0433 -0.2156  1.2234
 7446SOL    HW233975   0.570   2.431   4.348 -0.3989  0.3219  0.3272
 7447SOL     OW33976   4.305   0.630   7.313 -0.5718 -0.4190  0.8459
 7447SOL    HW133977   4.293   0.569   7.387 -1.6916 -0.0043  1.0030
 7447SOL    HW233978   4.392   0.598   7.287 -0.3020  0.3376  0.8242
 7448SOL     OW33979   1.464   4.667  16.785 -0.0838  0.0048 -0.2518
 7448SOL    HW133980   1.499   4.704  16.866  1.3347  0.8289 -1.2430
 7448SOL    HW233981   1.465   0.009  16.730 -0.3470  1.1453  1.3590
 7449SOL     OW33982   4.547   2.289   3.086  0.1877  0.5353 -0.1572
 7449SOL    HW133983   4.591   2.350   3.028 -2.0899  1.0601 -1.3349
 7449SOL    HW233984   4.580   2.204   3.058 -0.8993 -0.1518  0.6417
 7450SOL     OW33985   3.429   2.905  15.409 -0.2902  0.1374 -0.0939
 7450SOL    HW133986   3.338   2.902  15.438 -0.0272  0.9096  0.8100
 7450SOL    HW233987   3.435   3.000  15.415 -0.4990  0.3050 -2.4943
 7451SOL     OW33988   4.524   4.419   8.318  0.7845  0.8881  0.0480
 7451SOL    HW133989   4.618   4.425   8.335  1.3883 -2.4772 -2.0910
 7451SOL    HW233990   4.511   4.509   8.287 -0.0098  0.0109 -2.1941
 7452SOL     OW33991   3.153   0.170   8.010 -0.3065  0.5013 -0.5489
 7452SOL    HW133992   3.094   0.243   7.991 -2.0055 -0.5051  0.7953
 7452SOL    HW233993   3.232   0.209   7.973 -0.1271  0.8149  0.1771
 7453SOL     OW33994   0.229   0.686   8.918  0.1577  0.0112 -0.3582
 7453SOL    HW133995   0.205   0.679   9.010 -1.3480  0.9141 -0.6785
 7453SOL    HW233996   0.267   0.773   8.911 -1.5087  0.8104  0.4284
 7454SOL     OW33997   1.584   3.510   8.037  0.3844  0.1661  0.4053
 7454SOL    HW133998   1.610   3.420   8.018  0.7586 -0.0810  2.0661
 7454SOL    HW233999   1.523   3.528   7.966  0.4485 -0.2653  0.2402
 7455SOL     OW34000   1.918   0.779   4.925  0.4380  0.0987 -0.2689
 7455SOL    HW134001   1.943   0.744   4.840 -1.8386  0.6600 -1.1907
 7455SOL    HW234002   1.866   0.703   4.951 -0.7983  0.1189 -2.6287
 7456SOL     OW34003   0.010   3.941   1.307  0.1516 -0.5581  0.1331
 7456SOL    HW134004   0.039   3.941   1.215 -1.6341  0.8975 -0.4432
 7456SOL    HW234005   0.061   4.015   1.342 -0.7483  0.6320 -1.0347
 7457SOL     OW34006   3.783   2.252   8.464 -0.1246  0.2202 -0.0940
 7457SOL    HW134007   3.800   2.205   8.545  1.7387 -0.4725 -0.8729
 7457SOL    HW234008   3.697   2.293   8.473  0.9541  2.2136  1.0251
 7458SOL     OW34009   0.283   1.902  12.618 -0.1450  0.3073 -0.1985
 7458SOL    HW134010   0.212   1.853  12.658  1.6215 -1.0264  1.2910
 7458SOL    HW234011   0.315   1.830  12.564  1.4683 -0.4850  1.8184
 7459SOL     OW34012   3.397   4.633   0.257  0.5611  0.9515  0.0655
 7459SOL    HW134013   3.365   4.595   0.175 -0.5426 -0.5018  1.1662
 7459SOL    HW234014   3.351   4.716   0.250 -0.7642  0.1543 -0.8996
 7460SOL     OW34015   0.959   4.143   1.437 -0.4206 -0.0874  0.5889
 7460SOL    HW134016   0.974   4.202   1.363  1.3055  2.2022  2.7537
 7460SOL    HW234017   1.045   4.102   1.447  0.0944  0.9526  0.4249
 7461SOL     OW34018   4.187   4.693   3.109 -0.1283 -0.4293  0.9127
 7461SOL    HW134019   4.097   4.689   3.079  0.2112  2.0334 -0.4876
 7461SOL    HW234020   4.223   0.036   3.070  1.0549  0.2009  3.3122
 7462SOL     OW34021   2.320   2.825   3.236 -0.0003 -0.1257 -0.2002
 7462SOL    HW134022   2.263   2.753   3.263 -0.6983  0.5355  0.0737
 7462SOL    HW234023   2.346   2.796   3.148  0.0958  1.5298 -0.7118
 7463SOL     OW34024   2.144   0.284   5.204  0.2931  0.1644  0.2572
 7463SOL    HW134025   2.226   0.323   5.173  1.6806 -1.1354  2.3317
 7463SOL    HW234026   2.110   0.347   5.267 -0.3656  0.8937 -0.8310
 7464SOL     OW34027   1.402   1.399  15.097 -0.2873  0.3123  1.0384
 7464SOL    HW134028   1.441   1.312  15.100 -1.3466 -0.1309  1.7777
 7464SOL    HW234029   1.474   1.459  15.116 -0.6352  0.9769  0.2960
 7465SOL     OW34030   4.425   1.591   1.799  0.3660 -0.4114  0.2812
 7465SOL    HW134031   4.519   1.581   1.788  0.6801 -0.3628  2.9804
 7465SOL    HW234032   4.387   1.510   1.764 -0.2236  0.1184 -0.3170
 7466SOL     OW34033   4.714   3.137   3.031 -0.6071 -0.1589  0.1915
 7466SOL    HW134034   4.628   3.142   3.072 -1.2839  2.2274 -1.5310
 7466SOL    HW234035   4.689   3.121   2.941 -0.4975  0.9917 -0.0520
 7467SOL     OW34036   2.899   4.050   4.864  0.1145 -0.4900 -0.1585
 7467SOL    HW134037   2.938   4.106   4.931  0.5975  1.0489 -1.7287
 7467SOL    HW234038   2.914   4.121   4.802 -0.8757 -0.5441 -0.4696
 7468SOL     OW34039   4.167   2.079   0.803  0.4050 -0.3222 -0.3396
 7468SOL    HW134040   4.244   2.023   0.788  2.5646  2.0458  2.1909
 7468SOL    HW234041   4.098   2.044   0.747  2.1405 -3.9246 -0.2436
 7469SOL     OW34042   3.173   4.143  14.765 -0.4801  0.2873  0.0430
 7469SOL    HW134043   3.183   4.170  14.673  2.8535  0.2915  0.4215
 7469SOL    HW234044   3.080   4.126  14.780 -0.3759 -0.9348 -0.6813
 7470SOL     OW34045   0.400   1.363  10.257 -0.3614  0.3468  0.3708
 7470SOL    HW134046   0.421   1.270  10.244 -0.7134  0.1363  1.3131
 7470SOL    HW234047   0.315   1.364  10.301 -0.6289 -1.5468 -0.0939
 7471SOL     OW34048   2.911   4.670   6.912 -0.2010  0.6796  0.5314
 7471SOL    HW134049   2.990   4.718   6.886 -0.3319  1.4282  1.5508
 7471SOL    HW234050   2.865   0.003   6.957 -2.1751 -0.1792 -0.1807
 7472SOL     OW34051   4.724   0.171   5.608  0.0002  0.0602 -0.2595
 7472SOL    HW134052   0.017   0.194   5.519  0.5205  2.9165  0.6603
 7472SOL    HW234053   4.648   0.229   5.616  0.4110  0.7250 -1.0811
 7473SOL     OW34054   2.822   0.167   1.810 -0.5060 -0.2652  0.6108
 7473SOL    HW134055   2.804   0.210   1.893 -0.5603 -1.3994  1.1790
 7473SOL    HW234056   2.753   0.209   1.758 -0.0507  1.1812  1.1775
 7474SOL     OW34057   1.775   2.010   4.839 -0.3728 -0.5666 -0.3736
 7474SOL    HW134058   1.822   1.935   4.873 -0.5925 -0.2283  0.6562
 7474SOL    HW234059   1.813   2.028   4.752 -1.9076 -0.9199 -1.1272
 7475SOL     OW34060   2.561   0.825   9.079 -0.2103  1.0618  0.0332
 7475SOL    HW134061   2.487   0.825   9.018  1.4380  0.1581 -1.9504
 7475SOL    HW234062   2.526   0.874   9.153 -0.4750 -0.5688  1.0006
 7476SOL     OW34063   2.028   3.211  15.854 -0.0241 -0.2691  0.1401
 7476SOL    HW134064   1.942   3.173  15.870 -0.3407  0.1492 -0.5684
 7476SOL    HW234065   2.071   3.140  15.805 -1.9411 -0.6028 -1.0643
 7477SOL     OW34066   3.148   0.477  11.732 -0.2877  0.2646  0.2662
 7477SOL    HW134067   3.075   0.434  11.688 -0.5688  0.6705  0.3305
 7477SOL    HW234068   3.219   0.414  11.720 -0.6168 -0.0414 -0.0504
 7478SOL     OW34069   1.498   2.648   8.747 -0.7652  0.1280  0.6760
 7478SOL    HW134070   1.453   2.591   8.810  2.1526 -2.4560  0.4631
 7478SOL    HW234071   1.519   2.723   8.803  2.1852 -2.0469  2.5115
 7479SOL     OW34072   2.700   2.247   3.055 -0.5553  0.3713 -0.1518
 7479SOL    HW134073   2.777   2.204   3.018  0.1135  1.0764  0.4365
 7479SOL    HW234074   2.734   2.302   3.125 -3.3477  2.4869 -0.4420
 7480SOL     OW34075   3.051   0.744   0.857 -0.6874  0.3137 -0.1784
 7480SOL    HW134076   3.100   0.680   0.804  0.0891  0.1099  0.7912
 7480SOL    HW234077   3.109   0.753   0.932 -1.6818  0.5056  0.5620
 7481SOL     OW34078   2.830   3.809  11.538  0.2488  0.6305 -0.3982
 7481SOL    HW134079   2.840   3.896  11.577 -1.9520 -0.4191  2.5174
 7481SOL    HW234080   2.833   3.760  11.620  1.4194  0.3499 -0.6114
 7482SOL     OW34081   2.439   0.654   3.784 -0.5604 -0.3580 -0.0410
 7482SOL    HW134082   2.445   0.665   3.689 -1.6837  1.7675  0.1386
 7482SOL    HW234083   2.363   0.597   3.799 -0.6611 -0.7504 -2.1261
 7483SOL     OW34084   1.305   3.474   5.088 -0.2253  0.2025  0.1619
 7483SOL    HW134085   1.341   3.394   5.050 -0.5496  1.2623 -2.3807
 7483SOL    HW234086   1.332   3.542   5.025  1.6923 -0.5485  0.1742
 7484SOL     OW34087   2.603   1.185   3.941  0.0626  0.6867  0.2699
 7484SOL    HW134088   2.617   1.094   3.968 -1.2458  0.0092 -1.3736
 7484SOL    HW234089   2.541   1.212   4.009  0.3842  0.0746  0.8040
 7485SOL     OW34090   1.957   2.255  17.262  0.2173 -0.4679  0.2496
 7485SOL    HW134091   1.881   2.234  17.207  0.8242  0.6371 -1.0086
 7485SOL    HW234092   2.022   2.190  17.239 -1.1088 -2.0974  1.1282
 7486SOL     OW34093   4.306   2.137  17.159 -0.4370 -0.0043  0.2412
 7486SOL    HW134094   4.254   2.118  17.237 -3.1713 -0.2771 -1.6495
 7486SOL    HW234095   4.293   2.059  17.106 -0.4803  0.4186 -0.3730
 7487SOL     OW34096   4.124   0.515   4.320 -0.1051 -0.0564  0.3003
 7487SOL    HW134097   4.062   0.540   4.388 -0.0393 -0.3486  0.4681
 7487SOL    HW234098   4.127   0.578   4.248 -1.5376 -1.8298 -1.3045
 7488SOL     OW34099   0.127   1.807  13.115 -0.0968 -0.8796 -0.6127
 7488SOL    HW134100   0.077   1.811  13.033 -1.7744  1.4564  0.5086
 7488SOL    HW234101   0.089   1.882  13.160 -0.4761 -0.9169 -0.8703
 7489SOL     OW34102   0.638   1.590  17.451  0.2989  0.2217 -0.1040
 7489SOL    HW134103   0.628   1.604  17.357  0.2856 -3.5586 -0.6536
 7489SOL    HW234104   0.682   1.669  17.482  0.6834  0.4545 -1.2427
 7490SOL     OW34105   3.248   2.655   8.362  0.2257  0.2555 -0.3894
 7490SOL    HW134106   3.265   2.562   8.344  0.4024  0.4424 -1.1504
 7490SOL    HW234107   3.331   2.702   8.361  0.9401 -1.0055 -0.3205
 7491SOL     OW34108   2.081   0.806  10.463 -0.2609  0.4936 -0.6740
 7491SOL    HW134109   2.151   0.810  10.397  0.3315  0.1423 -0.0664
 7491SOL    HW234110   2.136   0.804  10.541 -0.4469 -0.7291 -0.5762
 7492SOL     OW34111   3.287   0.245  13.720  0.0857 -0.5200 -0.3311
 7492SOL    HW134112   3.284   0.327  13.769  0.5705 -0.4862 -0.3558
 7492SOL    HW234113   3.382   0.235  13.728 -0.1871 -2.2805  0.8132
 7493SOL     OW34114   1.097   0.978   6.630 -0.5298  0.4677 -0.6455
 7493SOL    HW134115   1.015   0.940   6.660 -0.6090  0.8161 -0.4125
 7493SOL    HW234116   1.147   0.946   6.705 -1.3289 -1.5428 -0.9821
 7494SOL     OW34117   1.486   3.097   8.585 -0.1048  0.2503  0.3421
 7494SOL    HW134118   1.514   3.186   8.563  0.0976  0.5952  1.9406
 7494SOL    HW234119   1.399   3.106   8.546 -1.7508 -2.7513  3.3078
 7495SOL     OW34120   4.546   0.347   2.296  0.4144  0.1647 -0.2436
 7495SOL    HW134121   4.493   0.344   2.376 -0.2525 -0.6600 -0.7131
 7495SOL    HW234122   4.561   0.253   2.288 -0.4261  0.1030 -1.0870
 7496SOL     OW34123   3.043   2.200   6.546 -0.3930 -0.0469  0.5590
 7496SOL    HW134124   3.076   2.157   6.467 -0.1534  1.6823 -0.2762
 7496SOL    HW234125   3.023   2.120   6.594  2.1334 -1.9237 -1.5209
 7497SOL     OW34126   3.436   4.395   7.820 -1.1081 -0.3768 -0.3481
 7497SOL    HW134127   3.369   4.354   7.766 -1.5975  1.7707 -1.3849
 7497SOL    HW234128   3.492   4.325   7.852  0.1683  0.2876 -1.1528
 7498SOL     OW34129   1.342   2.176   4.732  0.4799 -0.1672  0.4168
 7498SOL    HW134130   1.401   2.129   4.673 -0.6246 -1.8986  0.7069
 7498SOL    HW234131   1.379   2.263   4.720  0.3624  0.2599  3.2068
 7499SOL     OW34132   2.737   4.509  11.769  0.2799  0.2775  0.2330
 7499SOL    HW134133   2.732   4.558  11.851  0.4613  1.3277 -0.3753
 7499SOL    HW234134   2.695   4.573  11.711 -0.4963  1.2389  1.8398
 7500SOL     OW34135   4.024   0.812   7.537  0.0183  0.0721 -0.8123
 7500SOL    HW134136   4.010   0.835   7.445 -0.2327  2.2108 -0.2519
 7500SOL    HW234137   3.936   0.777   7.556 -1.0438  2.5623 -1.1171
 7501SOL     OW34138   1.566   2.089   9.487 -0.0295 -0.7354 -0.1116
 7501SOL    HW134139   1.622   2.088   9.409  0.6811  0.7903  0.3836
 7501SOL    HW234140   1.526   2.176   9.481  1.1771 -0.0858  1.3694
 7502SOL     OW34141   2.961   0.549   7.900 -0.3132  0.0071  0.1981
 7502SOL    HW134142   3.006   0.623   7.860  0.5605 -0.7485 -0.2198
 7502SOL    HW234143   3.033   0.489   7.918 -0.5650 -0.8986 -1.7812
 7503SOL     OW34144   3.987   0.609   4.985  0.0847  0.6531  0.0413
 7503SOL    HW134145   3.954   0.699   4.982  1.9849  1.3686  1.1893
 7503SOL    HW234146   4.078   0.621   5.010 -0.0237 -0.2371  0.8430
 7504SOL     OW34147   1.971   2.684   3.446  0.0702 -0.7180 -0.6065
 7504SOL    HW134148   1.909   2.737   3.396  0.1958 -1.0740 -1.1349
 7504SOL    HW234149   2.027   2.648   3.377  1.6993 -1.5302  1.1443
 7505SOL     OW34150   3.971   2.813  13.352 -0.3869  0.3119 -0.4566
 7505SOL    HW134151   4.033   2.765  13.408 -0.1762 -0.3599 -1.2662
 7505SOL    HW234152   4.018   2.820  13.269  0.1211 -2.2917 -0.3863
 7506SOL     OW34153   1.846   4.707   5.170  0.5083  0.0309 -0.2578
 7506SOL    HW134154   1.865   0.047   5.116  1.1030  0.5902  0.7490
 7506SOL    HW234155   1.751   4.691   5.169  0.5706 -0.2473 -1.8248
 7507SOL     OW34156   0.058   2.689   0.577 -0.5414  0.1236  0.0235
 7507SOL    HW134157   0.088   2.642   0.655  2.3181  2.0328  0.0456
 7507SOL    HW234158   4.719   2.745   0.596  1.6555  1.7673  3.8634
 7508SOL     OW34159   3.471   3.413   7.770  0.1566  0.1101 -0.3876
 7508SOL    HW134160   3.403   3.360   7.811 -0.6031 -0.2898 -2.1370
 7508SOL    HW234161   3.420   3.434   7.691 -2.0458  0.8879  1.2263
 7509SOL     OW34162   4.401   0.866   5.215 -0.1371 -0.2390 -0.3087
 7509SOL    HW134163   4.426   0.841   5.126  0.5660 -0.2011 -0.1208
 7509SOL    HW234164   4.434   0.789   5.263  0.4253  0.2372  0.0588
 7510SOL     OW34165   3.476   0.847   2.711  0.5284 -0.3079 -0.3132
 7510SOL    HW134166   3.432   0.765   2.730 -1.1768  0.5354 -0.5826
 7510SOL    HW234167   3.404   0.910   2.717  1.3619  0.7491 -1.3307
 7511SOL     OW34168   4.428   3.375  14.768  0.3001 -0.3213  0.1362
 7511SOL    HW134169   4.403   3.467  14.756  1.8657 -0.1686 -2.0196
 7511SOL    HW234170   4.431   3.372  14.864 -1.0595  0.3621  0.1954
 7512SOL     OW34171   3.287   0.714  14.818 -0.0438  0.2623  0.0174
 7512SOL    HW134172   3.255   0.637  14.772 -1.9967  1.1235 -0.0585
 7512SOL    HW234173   3.236   0.715  14.899 -1.4798 -0.1695 -0.8874
 7513SOL     OW34174   3.193   3.028  11.377 -0.1635  0.0696  0.8523
 7513SOL    HW134175   3.111   2.979  11.382  0.0054 -0.0579  2.4142
 7513SOL    HW234176   3.223   3.020  11.286  1.8223  0.6931  1.4611
 7514SOL     OW34177   4.468   0.903   3.296  0.0279 -0.3826 -0.2359
 7514SOL    HW134178   4.379   0.929   3.274  0.3287 -0.0392 -1.0550
 7514SOL    HW234179   4.515   0.959   3.235 -0.4544  0.0697 -0.1925
 7515SOL     OW34180   3.234   1.828   7.426  0.3595 -0.4340 -0.3900
 7515SOL    HW134181   3.253   1.892   7.358 -2.2382  3.4589  2.5957
 7515SOL    HW234182   3.151   1.859   7.461  0.4569 -1.1432  0.4671
 7516SOL     OW34183   2.249   0.974  16.944 -0.3285 -0.5783 -0.0577
 7516SOL    HW134184   2.202   1.032  17.003  2.2209 -0.2089  1.5959
 7516SOL    HW234185   2.181   0.969  16.877  0.6844  3.6185 -1.4513
 7517SOL     OW34186   1.060   4.354  17.515 -0.2375 -0.3172 -0.6029
 7517SOL    HW134187   1.025   4.436  17.480 -0.5068 -0.5425 -0.8653
 7517SOL    HW234188   1.064   4.372  17.609  0.8357 -2.0703 -0.3098
 7518SOL     OW34189   0.089   0.139   6.287  0.3043 -0.7003  0.3162
 7518SOL    HW134190   0.141   0.128   6.367  2.7859  2.2084 -0.8976
 7518SOL    HW234191   4.735   0.138   6.317 -0.8355 -0.7911 -3.1453
 7519SOL     OW34192   0.756   2.045   3.555 -0.2796 -0.4247 -0.6878
 7519SOL    HW134193   0.725   1.987   3.625  0.6771 -0.3150 -0.1808
 7519SOL    HW234194   0.834   2.077   3.601 -1.6898 -0.0725  1.4501
 7520SOL     OW34195   1.106   1.165   3.808 -0.1371  0.5559  0.5751
 7520SOL    HW134196   1.165   1.223   3.759  1.2370 -0.0845  1.4772
 7520SOL    HW234197   1.168   1.137   3.875 -1.2577 -0.9017  1.0124
 7521SOL     OW34198   0.090   4.110   7.927  0.3699 -0.2941 -0.4533
 7521SOL    HW134199   0.148   4.093   7.852  0.0053 -0.4503 -0.7021
 7521SOL    HW234200   0.108   4.038   7.987  1.0821 -0.0109 -0.3362
 7522SOL     OW34201   0.278   1.302  13.151  0.0671  0.0631  0.3457
 7522SOL    HW134202   0.277   1.227  13.210 -1.2145 -1.0224 -1.0683
 7522SOL    HW234203   0.369   1.332  13.146  0.6730 -2.0543 -1.3095
 7523SOL     OW34204   1.720   4.609   2.216  0.5072 -0.4687 -0.0580
 7523SOL    HW134205   1.749   4.665   2.288  0.0203 -1.9043  1.2424
 7523SOL    HW234206   1.730   4.521   2.253  0.6048  0.7605  2.8649
 7524SOL     OW34207   1.920   0.392   7.664 -0.1038 -0.3895 -0.2175
 7524SOL    HW134208   1.892   0.302   7.648 -3.0006  0.4399  0.1008
 7524SOL    HW234209   1.841   0.415   7.713  0.5591 -0.9312  1.1153
 7525SOL     OW34210   3.262   3.369  11.500 -0.0154  0.2779 -0.5206
 7525SOL    HW134211   3.226   3.367  11.412  1.8279  1.0823 -1.2817
 7525SOL    HW234212   3.201   3.307  11.541  0.0649  0.4374 -0.1552
 7526SOL     OW34213   0.742   2.457  11.240 -0.3339 -0.0288  0.2083
 7526SOL    HW134214   0.771   2.387  11.299 -1.8244 -1.3472 -0.6117
 7526SOL    HW234215   0.817   2.458  11.181  0.3451 -1.5666  1.0373
 7527SOL     OW34216   3.249   4.197  17.514  0.2012 -0.0474  0.1188
 7527SOL    HW134217   3.316   4.152  17.463 -0.6444  0.5292 -1.5023
 7527SOL    HW234218   3.229   4.269  17.454 -2.0726 -0.2092  0.6862
 7528SOL     OW34219   3.187   2.317   4.244  0.4609 -0.0078 -0.5993
 7528SOL    HW134220   3.271   2.292   4.207  0.1449 -1.2020 -0.4896
 7528SOL    HW234221   3.177   2.260   4.321  0.9214  2.1610  1.0771
 7529SOL     OW34222   0.518   4.221   2.854 -0.5138 -0.1678  0.3834
 7529SOL    HW134223   0.428   4.189   2.850 -0.3854 -0.4507 -0.3391
 7529SOL    HW234224   0.534   4.238   2.947 -1.4140  2.4270  0.0522
 7530SOL     OW34225   0.246   0.505   2.781  0.0668  0.2939  0.9176
 7530SOL    HW134226   0.177   0.555   2.736  0.7736  0.8310  0.4326
 7530SOL    HW234227   0.297   0.468   2.710  2.7246  1.3037  2.2992
 7531SOL     OW34228   4.092   2.412  10.670  0.3587 -0.5095  0.8620
 7531SOL    HW134229   4.082   2.506  10.681 -1.8387 -0.4052 -2.1417
 7531SOL    HW234230   4.121   2.392  10.759 -1.3432 -0.8272  1.3336
 7532SOL     OW34231   0.651   4.074  15.603  0.2205 -0.1195 -0.8754
 7532SOL    HW134232   0.730   4.031  15.636 -0.5094 -0.0295  1.0228
 7532SOL    HW234233   0.671   4.167  15.597 -2.3363  0.6040  1.7536
 7533SOL     OW34234   0.673   2.862  12.971 -0.2039 -0.2829 -0.3858
 7533SOL    HW134235   0.666   2.866  12.875 -0.3034  1.8016 -0.2747
 7533SOL    HW234236   0.581   2.847  12.995  0.6573  0.3275  3.2725
 7534SOL     OW34237   0.892   1.416   1.067  0.1627  0.2983 -0.4218
 7534SOL    HW134238   0.865   1.352   1.133 -0.3780  0.6672 -0.2858
 7534SOL    HW234239   0.966   1.459   1.109  1.2195 -0.1889 -1.7919
 7535SOL     OW34240   2.692   4.142   3.821  0.2338  0.8141 -0.0117
 7535SOL    HW134241   2.686   4.066   3.763 -2.3898  0.6742  0.4583
 7535SOL    HW234242   2.614   4.120   3.872  0.3330 -0.0161 -0.2286
 7536SOL     OW34243   2.627   1.639   6.674  0.4008  0.6165  0.1479
 7536SOL    HW134244   2.611   1.651   6.767  2.7353  0.7702  0.5392
 7536SOL    HW234245   2.537   1.611   6.654  0.4209  1.4921 -1.1363
 7537SOL     OW34246   1.453   2.840   0.613 -0.1000 -0.0611  0.5891
 7537SOL    HW134247   1.447   2.923   0.565 -0.1459  0.5940  1.7373
 7537SOL    HW234248   1.412   2.778   0.552 -0.4036  0.5999  0.1256
 7538SOL     OW34249   3.841   1.022   8.041  0.2903  0.2496 -0.0833
 7538SOL    HW134250   3.770   0.975   8.084  0.2427  0.8615  0.5132
 7538SOL    HW234251   3.913   0.959   8.041 -0.5411 -0.7175 -0.1570
 7539SOL     OW34252   3.778   0.510   7.414  0.1669 -0.9561  1.2361
 7539SOL    HW134253   3.710   0.442   7.416 -0.2534 -0.5745 -0.1946
 7539SOL    HW234254   3.858   0.456   7.411 -0.2696 -1.4937 -0.5822
 7540SOL     OW34255   0.511   0.882   5.669  0.1303 -0.0874 -0.0960
 7540SOL    HW134256   0.523   0.862   5.576 -1.0384  0.3902 -0.3442
 7540SOL    HW234257   0.456   0.960   5.660  0.8688  0.2785 -1.4619
 7541SOL     OW34258   1.219   3.228   4.005  0.0449 -0.2263 -0.4749
 7541SOL    HW134259   1.157   3.156   4.017 -0.6112  0.4473  0.2201
 7541SOL    HW234260   1.171   3.303   3.969  0.6375  1.7362  2.7640
 7542SOL     OW34261   2.173   1.737   2.829 -0.1561  0.3038  0.5664
 7542SOL    HW134262   2.107   1.672   2.806 -0.5021  0.3624  1.3747
 7542SOL    HW234263   2.233   1.681   2.878  0.0763 -0.7261 -0.8992
 7543SOL     OW34264   0.900   3.229  13.356  0.2096  0.1271  0.4549
 7543SOL    HW134265   0.887   3.134  13.354  0.9841  0.0653 -1.9031
 7543SOL    HW234266   0.879   3.245  13.263  3.2170  0.6741 -0.1288
 7544SOL     OW34267   1.256   3.711   8.403  0.1746 -0.0338  0.2923
 7544SOL    HW134268   1.229   3.709   8.311 -0.5201  3.7389  0.4087
 7544SOL    HW234269   1.351   3.714   8.390  0.2139  3.0971  1.4341
 7545SOL     OW34270   1.805   1.767   5.725 -0.3470 -0.0526 -0.4802
 7545SOL    HW134271   1.817   1.829   5.653  2.2708 -0.3653 -0.2971
 7545SOL    HW234272   1.896   1.764   5.755 -1.1432  1.3072  2.0556
 7546SOL     OW34273   1.029   0.792   9.198 -0.0852  0.8787 -0.8011
 7546SOL    HW134274   1.038   0.884   9.174  0.0618  1.0335 -0.1245
 7546SOL    HW234275   0.985   0.798   9.282  1.6179 -2.1666  0.3058
 7547SOL     OW34276   0.507   4.130   3.537 -0.4293 -0.7081  0.7821
 7547SOL    HW134277   0.515   4.036   3.520 -0.0358 -0.8759  1.8561
 7547SOL    HW234278   0.413   4.139   3.528 -0.5710  0.6543  3.6945
 7548SOL     OW34279   3.215   1.949   5.267  0.5658 -0.2661  0.1782
 7548SOL    HW134280   3.182   1.861   5.285 -1.5135  0.4820 -0.0973
 7548SOL    HW234281   3.239   1.938   5.175  1.1598  0.9491  0.1861
 7549SOL     OW34282   1.560   4.010   3.326  0.6453  0.4899 -0.1583
 7549SOL    HW134283   1.633   4.043   3.379 -0.3050  2.8937 -0.3249
 7549SOL    HW234284   1.597   4.018   3.238 -3.1648  0.7747 -1.7543
 7550SOL     OW34285   3.436   1.902  12.164 -0.1535  0.1810 -0.0217
 7550SOL    HW134286   3.414   1.959  12.237  1.5146  0.2400  0.4435
 7550SOL    HW234287   3.504   1.952  12.117  2.9619 -3.4855  0.5926
 7551SOL     OW34288   1.184   0.731   3.495  0.0554 -0.1382 -0.1297
 7551SOL    HW134289   1.165   0.794   3.564 -1.5570 -1.2849  0.4723
 7551SOL    HW234290   1.101   0.731   3.447  0.6515  0.6068 -1.1669
 7552SOL     OW34291   1.651   0.334   2.177 -0.1475 -0.5677  0.5842
 7552SOL    HW134292   1.707   0.399   2.134  1.0510 -1.6405  0.5351
 7552SOL    HW234293   1.704   0.259   2.151  1.5830  0.2725  1.6879
 7553SOL     OW34294   1.527   2.600  14.324 -0.5138 -0.0356  0.6107
 7553SOL    HW134295   1.492   2.681  14.362 -0.6813  0.2099 -0.0815
 7553SOL    HW234296   1.578   2.556  14.393  2.9431  3.2194  0.1250
 7554SOL     OW34297   1.793   1.565   4.903 -0.4783 -0.6641  0.2390
 7554SOL    HW134298   1.724   1.501   4.885 -2.2170  1.0438  0.7426
 7554SOL    HW234299   1.859   1.511   4.946  1.2832 -0.8703 -2.6925
 7555SOL     OW34300   0.047   0.641   2.648 -0.5338 -0.2442  0.3140
 7555SOL    HW134301   4.726   0.716   2.663 -0.1531  0.0349  0.3419
 7555SOL    HW234302   0.086   0.675   2.568 -1.2206 -0.2739 -0.0424
 7556SOL     OW34303   2.219   0.112   4.930  0.1306 -0.5878  0.7856
 7556SOL    HW134304   2.273   0.181   4.968 -0.4515 -0.0612  0.6507
 7556SOL    HW234305   2.254   0.042   4.985 -1.3801 -1.2224  0.9511
 7557SOL     OW34306   1.225   3.012  17.418  0.6708 -0.1669 -0.0005
 7557SOL    HW134307   1.206   2.947  17.351 -0.0417  0.9964 -0.9463
 7557SOL    HW234308   1.298   2.970  17.463  0.5573 -1.6365 -1.2310
 7558SOL     OW34309   3.640   2.319   8.806 -0.5146  0.1986 -0.3914
 7558SOL    HW134310   3.731   2.320   8.837 -0.3794 -0.5993 -0.7723
 7558SOL    HW234311   3.596   2.379   8.866 -0.9977  1.8835 -2.4283
 7559SOL     OW34312   3.388   3.234   5.434  0.0537 -0.0322  0.0730
 7559SOL    HW134313   3.483   3.235   5.442  0.2699  0.9540 -2.5622
 7559SOL    HW234314   3.377   3.235   5.339 -0.2755 -2.1695  0.0868
 7560SOL     OW34315   2.968   4.382   2.546  0.2041  0.1037  0.3178
 7560SOL    HW134316   3.044   4.440   2.542  2.8803 -3.2503  2.8000
 7560SOL    HW234317   2.931   4.407   2.461 -1.2062  0.2686  0.9749
 7561SOL     OW34318   4.258   0.229   6.618 -0.6585 -0.1154  0.4250
 7561SOL    HW134319   4.299   0.260   6.699 -0.5415 -0.0960  0.3595
 7561SOL    HW234320   4.237   0.311   6.572  2.4961 -0.5063 -1.6938
 7562SOL     OW34321   3.554   0.313  13.778  0.2327 -0.2129 -0.7040
 7562SOL    HW134322   3.593   0.390  13.819  1.6108 -0.9211 -0.6772
 7562SOL    HW234323   3.604   0.302  13.697  0.4854  0.8540 -0.6934
 7563SOL     OW34324   1.438   0.707  15.540  0.0322  0.2711 -0.4708
 7563SOL    HW134325   1.389   0.693  15.459 -1.0508  0.8650  0.0841
 7563SOL    HW234326   1.393   0.774  15.591 -0.6627 -0.1249 -0.5577
 7564SOL     OW34327   1.791   2.390   3.138  0.3327 -0.3351  0.5885
 7564SOL    HW134328   1.751   2.328   3.199  2.0246 -2.1394 -0.1444
 7564SOL    HW234329   1.774   2.335   3.061 -2.5490  0.4995  0.6393
 7565SOL     OW34330   2.654   1.886   8.905 -0.0418 -0.4644  0.3385
 7565SOL    HW134331   2.583   1.828   8.933 -0.3353 -1.4680 -2.5119
 7565SOL    HW234332   2.708   1.832   8.847  1.4666 -0.7431  2.0051
 7566SOL     OW34333   3.353   3.816   2.353 -0.2536  0.2635  0.4216
 7566SOL    HW134334   3.390   3.745   2.301  1.6860  0.2530  1.8207
 7566SOL    HW234335   3.302   3.859   2.284  0.4688  3.0473  1.6085
 7567SOL     OW34336   0.478   0.843   1.662  0.0021 -0.0298  0.1685
 7567SOL    HW134337   0.412   0.776   1.681 -0.7820  1.0380  1.2329
 7567SOL    HW234338   0.501   0.833   1.570  1.4244 -2.2324  0.7680
 7568SOL     OW34339   4.056   2.505   2.885  0.2258 -0.5773 -0.1808
 7568SOL    HW134340   4.065   2.491   2.979 -1.2712 -4.1176 -0.5421
 7568SOL    HW234341   4.030   2.597   2.878 -0.6177 -0.8635 -0.8306
 7569SOL     OW34342   3.243   3.526  11.924 -0.3769  0.4027  0.0158
 7569SOL    HW134343   3.296   3.605  11.911  0.1223  0.0387 -0.1707
 7569SOL    HW234344   3.227   3.502  11.832  1.6737  0.5814 -0.3889
 7570SOL     OW34345   2.723   3.953   4.656 -0.8725 -0.3492  0.2518
 7570SOL    HW134346   2.791   3.966   4.722  0.6180  1.3651 -1.6059
 7570SOL    HW234347   2.694   3.865   4.679  1.7026 -1.2292  0.1432
 7571SOL     OW34348   4.456   1.098   9.303  0.1771  0.1113  0.5513
 7571SOL    HW134349   4.457   1.049   9.385 -0.3375 -0.5251  0.1862
 7571SOL    HW234350   4.363   1.109   9.284  0.0306 -0.0827  1.1590
 7572SOL     OW34351   2.911   0.416   2.450 -0.1456  0.0364 -0.0743
 7572SOL    HW134352   2.849   0.409   2.523  1.3030 -1.2914  1.0183
 7572SOL    HW234353   2.895   0.509   2.434 -1.2919 -0.3219 -1.0254
 7573SOL     OW34354   1.006   2.190  13.525  0.0617  0.2089 -0.4525
 7573SOL    HW134355   1.032   2.210  13.615  0.1652 -0.6458 -0.2925
 7573SOL    HW234356   1.031   2.276  13.493 -1.5349  0.4043 -1.2069
 7574SOL     OW34357   3.012   4.461   2.801 -0.1344  0.1267  0.2720
 7574SOL    HW134358   2.956   4.537   2.818 -0.0229  0.1500  0.5438
 7574SOL    HW234359   2.970   4.404   2.738  2.2039 -0.9655 -0.3194
 7575SOL     OW34360   2.065   1.770   5.427 -0.3635 -0.1643  0.1110
 7575SOL    HW134361   2.095   1.816   5.505  0.8695 -0.8470  0.0344
 7575SOL    HW234362   2.152   1.742   5.398 -1.0040 -1.7513 -0.2580
 7576SOL     OW34363   0.743   3.456   6.015  0.4187  0.3040 -0.5351
 7576SOL    HW134364   0.661   3.499   5.991  0.0830 -0.3439 -0.5307
 7576SOL    HW234365   0.776   3.508   6.089 -1.7172  0.2547  0.4402
 7577SOL     OW34366   2.186   3.427   7.466 -0.0911 -0.1674 -0.2152
 7577SOL    HW134367   2.195   3.359   7.532  0.0829 -1.3602 -1.4710
 7577SOL    HW234368   2.112   3.471   7.507  0.5844  0.4267  0.3742
 7578SOL     OW34369   2.692   2.532   8.912  0.0033  0.1887 -0.1760
 7578SOL    HW134370   2.778   2.549   8.952  0.5770 -1.4932 -0.7087
 7578SOL    HW234371   2.707   2.522   8.818 -1.4238 -0.6916 -0.3099
 7579SOL     OW34372   2.524   1.267  11.032 -1.1896 -1.1790  0.2320
 7579SOL    HW134373   2.511   1.355  10.997  1.3153 -1.1659 -0.6380
 7579SOL    HW234374   2.432   1.239  11.028 -0.7115 -2.1552 -3.7140
 7580SOL     OW34375   1.554   1.308   6.713  0.1626 -0.4999  0.7988
 7580SOL    HW134376   1.489   1.253   6.668 -1.1134  1.9311 -0.3088
 7580SOL    HW234377   1.496   1.357   6.771  0.1824  0.2768  0.1558
 7581SOL     OW34378   0.150   2.517   0.377  0.0311 -0.0012  0.1398
 7581SOL    HW134379   0.228   2.573   0.377  1.2049 -1.6209  0.3731
 7581SOL    HW234380   0.105   2.552   0.454  3.3456  0.2065  2.0309
 7582SOL     OW34381   2.941   4.512  17.130 -0.0868  0.1303 -0.2094
 7582SOL    HW134382   2.873   4.549  17.074  1.4693 -0.2122 -2.3109
 7582SOL    HW234383   2.917   4.552  17.214 -0.3452  1.4231 -0.8898
 7583SOL     OW34384   4.237   0.645   4.584  0.0882 -0.1130  0.5544
 7583SOL    HW134385   4.149   0.678   4.562 -0.0554  0.5401  2.1272
 7583SOL    HW234386   4.206   0.579   4.646 -2.0690 -0.4215 -0.8188
 7584SOL     OW34387   2.075   0.273   6.398  0.1780 -0.1458 -0.1876
 7584SOL    HW134388   1.981   0.289   6.392  0.5519  1.4046 -1.7259
 7584SOL    HW234389   2.071   0.191   6.447 -0.6591  0.1771  0.2949
 7585SOL     OW34390   4.029   4.494   5.434  0.2384  0.0407 -0.2254
 7585SOL    HW134391   4.086   4.570   5.449 -0.1179 -0.1865  2.2144
 7585SOL    HW234392   3.975   4.519   5.359 -1.5890 -0.7933  0.8025
 7586SOL     OW34393   2.048   3.131   8.714 -0.0785  1.1581  0.2281
 7586SOL    HW134394   2.050   3.131   8.809  0.4429 -0.9897  0.2185
 7586SOL    HW234395   1.989   3.057   8.701 -0.0835  1.2206 -0.1098
 7587SOL     OW34396   2.726   0.242   0.754 -0.0856 -0.3673 -0.2393
 7587SOL    HW134397   2.725   0.201   0.841  1.9649  0.4953  0.1934
 7587SOL    HW234398   2.746   0.336   0.761  1.0380 -0.5471 -1.0940
 7588SOL     OW34399   1.376   0.996   5.588  0.1901 -0.1777 -0.0954
 7588SOL    HW134400   1.456   0.954   5.618  0.3399  1.2416  1.4692
 7588SOL    HW234401   1.348   0.928   5.527  0.1608 -1.8992  1.8380
 7589SOL     OW34402   1.308   1.171   1.197 -0.1128 -0.0622  0.1718
 7589SOL    HW134403   1.220   1.133   1.193 -0.2970  0.2054  1.4701
 7589SOL    HW234404   1.338   1.106   1.261  2.5987  0.9468 -0.0831
 7590SOL     OW34405   1.499   2.983   1.541 -0.0327  0.1857 -0.2136
 7590SOL    HW134406   1.412   3.023   1.553  0.6856  1.3469  1.0883
 7590SOL    HW234407   1.482   2.906   1.594 -0.6583  0.6975  0.3397
 7591SOL     OW34408   1.177   1.355   1.972 -0.0640 -0.4336  0.0387
 7591SOL    HW134409   1.098   1.347   1.919 -1.2313 -0.9318  1.8785
 7591SOL    HW234410   1.131   1.380   2.051 -0.1265  0.7611 -0.3699
 7592SOL     OW34411   1.665   2.097   5.773 -0.1688 -0.5377  0.3048
 7592SOL    HW134412   1.686   2.036   5.703  2.2161  1.3804 -0.6693
 7592SOL    HW234413   1.754   2.102   5.809  0.1796  3.5582 -1.1255
 7593SOL     OW34414   0.386   3.475  10.540 -0.0159 -0.0014 -0.3780
 7593SOL    HW134415   0.411   3.383  10.543 -3.0805 -0.7848  1.4699
 7593SOL    HW234416   0.404   3.491  10.632  0.4839 -0.3535 -0.4151
 7594SOL     OW34417   4.052   0.586  12.889 -0.1678  0.0472  0.0842
 7594SOL    HW134418   4.114   0.656  12.912  0.5933 -1.0309  1.2912
 7594SOL    HW234419   4.105   0.557  12.816 -2.0991 -1.0039 -0.8960
 7595SOL     OW34420   1.894   1.378   4.324  0.3408 -0.6652  0.2040
 7595SOL    HW134421   1.988   1.395   4.326  0.5589 -1.8142 -0.4116
 7595SOL    HW234422   1.875   1.367   4.418 -3.0018  0.4479 -0.3347
 7596SOL     OW34423   2.098   2.312   7.928  0.7934 -0.1993  0.2095
 7596SOL    HW134424   2.114   2.389   7.983 -0.7841 -0.4065  0.9718
 7596SOL    HW234425   2.162   2.253   7.966  0.7493  1.9936  3.6701
 7597SOL     OW34426   2.999   3.665   5.209  0.5399 -0.2966  0.0182
 7597SOL    HW134427   3.000   3.708   5.123  1.7885  0.5825  0.4740
 7597SOL    HW234428   2.929   3.718   5.247  0.0831 -1.0551  0.2330
 7598SOL     OW34429   2.114   1.450   5.914  0.2977  0.0814 -0.0540
 7598SOL    HW134430   2.033   1.457   5.964  1.0279  1.7590  0.8864
 7598SOL    HW234431   2.127   1.355   5.907 -0.8538  0.0161 -1.3148
 7599SOL     OW34432   4.604   3.485  17.192  0.3220 -0.7481  0.1255
 7599SOL    HW134433   4.580   3.560  17.247 -1.9059 -1.0592 -0.4083
 7599SOL    HW234434   4.545   3.422  17.233 -1.2986  1.3300  0.9951
 7600SOL     OW34435   2.899   1.333  14.826  0.1824 -0.0488 -0.8402
 7600SOL    HW134436   2.817   1.294  14.793 -0.2856 -2.0655  2.6894
 7600SOL    HW234437   2.940   1.352  14.742  1.4468 -0.0912 -0.2249
 7601SOL     OW34438   4.120   1.124   2.825 -0.5101 -0.1081 -0.6182
 7601SOL    HW134439   4.060   1.060   2.863 -0.2510 -0.2920 -0.5161
 7601SOL    HW234440   4.082   1.133   2.737 -2.8563  2.6363  0.7083
 7602SOL     OW34441   2.109   0.694  15.499  0.6381 -0.2069  0.2820
 7602SOL    HW134442   2.152   0.755  15.439 -0.9624 -1.7086 -2.3926
 7602SOL    HW234443   2.042   0.648  15.448 -1.5294  0.3031  2.6183
 7603SOL     OW34444   1.339   4.501   7.651  0.1347  0.1371 -0.3111
 7603SOL    HW134445   1.308   4.430   7.708  3.0626 -0.3797  0.6511
 7603SOL    HW234446   1.293   4.578   7.684 -2.4254 -1.5038 -0.0520
 7604SOL     OW34447   0.286   1.937   9.443 -0.1050  0.4578  0.3710
 7604SOL    HW134448   0.194   1.939   9.418  0.0142  0.9961 -0.0187
 7604SOL    HW234449   0.295   2.004   9.510 -0.1788  1.0403 -0.1993
 7605SOL     OW34450   4.390   4.481  12.507 -0.0632  0.0732  0.0024
 7605SOL    HW134451   4.410   4.495  12.415  1.4051 -0.1489  0.2890
 7605SOL    HW234452   4.468   4.436  12.540 -2.1720 -3.3364  0.3539
 7606SOL     OW34453   0.251   4.420   3.509 -0.1361  0.4989  0.3615
 7606SOL    HW134454   0.167   4.458   3.534 -0.0453  2.1153 -1.7696
 7606SOL    HW234455   0.250   4.330   3.542 -0.9588  0.4015  0.0874
 7607SOL     OW34456   4.619   2.822   7.864  0.0158  0.1008 -0.0103
 7607SOL    HW134457   4.552   2.845   7.800  0.3885 -2.2239 -1.2447
 7607SOL    HW234458   4.620   2.901   7.918 -3.1595 -0.4419  0.8362
 7608SOL     OW34459   0.038   2.926   7.030 -0.1038  0.7135 -0.0597
 7608SOL    HW134460   4.712   2.957   7.095 -0.0206  1.0157 -0.1245
 7608SOL    HW234461   0.009   2.962   6.946 -0.6853 -1.4935 -0.8091
 7609SOL     OW34462   4.258   1.528   4.957 -0.2248  0.2582  0.2788
 7609SOL    HW134463   4.175   1.527   4.909  0.5715 -0.6874 -1.0984
 7609SOL    HW234464   4.228   1.495   5.042  2.5539 -0.2835  1.0373
 7610SOL     OW34465   0.865   0.616   2.397 -0.4024  0.0235  0.4204
 7610SOL    HW134466   0.805   0.630   2.471  1.4675 -2.1545  2.3510
 7610SOL    HW234467   0.811   0.545   2.364  1.6116 -0.6492 -1.4498
 7611SOL     OW34468   4.454   4.158   7.346  0.8178 -0.2873  0.0957
 7611SOL    HW134469   4.486   4.248   7.344  0.3833 -0.1135  0.8465
 7611SOL    HW234470   4.392   4.154   7.419 -0.7335  2.0576 -1.0969
 7612SOL     OW34471   4.583   1.773   3.131 -0.2297  0.3346 -0.4684
 7612SOL    HW134472   4.504   1.737   3.170  1.1197 -0.9293  1.0727
 7612SOL    HW234473   4.611   1.823   3.208  0.6745 -2.3817  0.9694
 7613SOL     OW34474   3.265   1.110  15.019 -0.1732  0.3875 -0.2585
 7613SOL    HW134475   3.182   1.157  15.026  0.7004  2.2923 -2.6419
 7613SOL    HW234476   3.272   1.106  14.924  1.8936  0.6892 -0.1233
 7614SOL     OW34477   4.215   1.733   7.026 -0.9509 -0.0643 -0.2917
 7614SOL    HW134478   4.285   1.798   7.024 -0.6846 -0.3290  1.2810
 7614SOL    HW234479   4.138   1.782   7.056 -2.4703 -2.4427 -0.2687
 7615SOL     OW34480   1.712   3.643   7.576 -0.3550 -0.7119  0.3416
 7615SOL    HW134481   1.616   3.647   7.579 -0.4535 -2.9951  0.2854
 7615SOL    HW234482   1.732   3.721   7.628 -0.0892 -1.1055  0.8333
 7616SOL     OW34483   0.599   3.902   2.860 -0.2882  0.0340  0.1511
 7616SOL    HW134484   0.527   3.899   2.924  0.8440 -0.5429  1.3920
 7616SOL    HW234485   0.666   3.870   2.920  1.1226  1.5099 -0.6221
 7617SOL     OW34486   0.756   1.467   9.546 -0.0293 -0.1588  0.0289
 7617SOL    HW134487   0.720   1.555   9.533 -3.7106 -1.6401  0.1402
 7617SOL    HW234488   0.777   1.471   9.639 -0.9904 -0.5578  0.2527
 7618SOL     OW34489   2.884   4.692  14.149 -1.0135 -0.1256  0.1222
 7618SOL    HW134490   2.954   4.699  14.084  0.1285 -1.4760  1.2071
 7618SOL    HW234491   2.897   4.602  14.178 -0.3939 -0.0284  0.1372
 7619SOL     OW34492   2.068   1.853   8.997 -0.0596 -0.5535  0.4684
 7619SOL    HW134493   2.112   1.768   9.007  2.3366  0.8324  1.8344
 7619SOL    HW234494   2.105   1.892   8.918  2.1437 -1.4863  1.0176
 7620SOL     OW34495   0.590   4.223  11.166 -0.7215 -0.1196  0.3622
 7620SOL    HW134496   0.564   4.138  11.129 -0.7495  0.5664 -1.1881
 7620SOL    HW234497   0.517   4.280  11.143  0.6755  0.2009 -3.2299
 7621SOL     OW34498   2.466   3.165  14.090  0.1470 -0.4897  0.7912
 7621SOL    HW134499   2.437   3.094  14.034 -0.0396  0.5342 -0.3974
 7621SOL    HW234500   2.515   3.220  14.029 -0.0660 -2.1107 -0.8161
 7622SOL     OW34501   1.458   0.865   0.925 -0.4832 -0.0921 -0.3774
 7622SOL    HW134502   1.364   0.861   0.942 -0.5638 -1.3038 -1.0805
 7622SOL    HW234503   1.486   0.800   0.990  0.2858  0.3018 -0.3234
 7623SOL     OW34504   4.365   2.315   2.282 -0.5078  0.3778  0.4447
 7623SOL    HW134505   4.312   2.235   2.288  1.0653 -0.4874  3.0241
 7623SOL    HW234506   4.294   2.380   2.283 -0.3188  0.5839  0.6311
 7624SOL     OW34507   1.591   2.286   1.253  0.3466 -0.5563 -0.1498
 7624SOL    HW134508   1.559   2.202   1.221 -0.2004 -0.3892 -0.0566
 7624SOL    HW234509   1.679   2.258   1.277  1.2232  0.7654 -1.8694
 7625SOL     OW34510   1.428   1.182  14.783  0.1844  0.1181 -0.1338
 7625SOL    HW134511   1.501   1.243  14.789  0.1272  0.3359 -1.5519
 7625SOL    HW234512   1.434   1.159  14.690 -1.6886  0.1881 -0.2721
 7626SOL     OW34513   1.033   3.668   5.146  0.0571  0.2353  0.2212
 7626SOL    HW134514   1.055   3.632   5.060  0.1903  1.3043 -0.1973
 7626SOL    HW234515   0.983   3.597   5.186  1.1163 -1.5197 -1.5224
 7627SOL     OW34516   1.259   1.776   1.555 -0.1826  0.4633  0.1649
 7627SOL    HW134517   1.289   1.756   1.467  0.6897 -2.7967  1.2172
 7627SOL    HW234518   1.305   1.859   1.568  0.4358 -0.1369  1.7662
 7628SOL     OW34519   1.904   3.476   8.048 -0.1773  0.1710  0.4724
 7628SOL    HW134520   1.934   3.567   8.051 -1.9976  0.7985 -0.2429
 7628SOL    HW234521   1.808   3.478   8.049 -0.1377  1.6927  2.4336
 7629SOL     OW34522   2.958   0.250   5.010  0.0060 -0.3123  0.1862
 7629SOL    HW134523   2.994   0.304   5.080  0.8344 -0.4373 -0.1346
 7629SOL    HW234524   3.023   0.180   5.008 -0.7898 -1.0218 -1.3398
 7630SOL     OW34525   3.045   1.305   4.373 -0.1759 -0.2322 -0.3621
 7630SOL    HW134526   3.064   1.392   4.408  1.0256 -1.9761  3.2566
 7630SOL    HW234527   3.128   1.278   4.333  1.8301 -0.9705  4.3652
 7631SOL     OW34528   3.463   3.949  10.360 -0.0020 -0.0338 -0.3507
 7631SOL    HW134529   3.439   3.866  10.318  0.0275  0.5118 -1.4362
 7631SOL    HW234530   3.510   4.001  10.295 -1.8003  3.4424  1.1605
 7632SOL     OW34531   2.173   2.070   6.718 -1.0455 -0.0028 -0.0306
 7632SOL    HW134532   2.104   2.097   6.778  0.4290 -1.8653  2.4929
 7632SOL    HW234533   2.218   2.012   6.779 -0.1001 -1.3508 -2.0295
 7633SOL     OW34534   3.536   1.342   8.059  0.0919 -0.0493 -0.5036
 7633SOL    HW134535   3.460   1.306   8.104 -0.4281  3.3046  1.3065
 7633SOL    HW234536   3.486   1.414   8.020  0.6002 -0.0180 -1.1045
 7634SOL     OW34537   0.377   1.074   2.119 -0.4262 -0.1487 -0.3978
 7634SOL    HW134538   0.290   1.065   2.157 -0.2495  1.9425  0.5221
 7634SOL    HW234539   0.361   1.067   2.025  0.1527 -0.2515 -0.4882
 7635SOL     OW34540   1.329   4.500   5.080  0.3046  0.1664  0.7136
 7635SOL    HW134541   1.313   4.595   5.080 -1.1392 -0.0809  1.9135
 7635SOL    HW234542   1.317   4.475   5.172 -0.5215  0.5273  0.7044
 7636SOL     OW34543   0.214   1.790  16.868  0.4961 -0.0075  0.4804
 7636SOL    HW134544   0.222   1.704  16.910 -1.7998  0.2589  1.4682
 7636SOL    HW234545   0.136   1.829  16.908  0.3354  0.1898 -0.0253
 7637SOL     OW34546   3.453   2.201   4.161 -0.0819 -0.3250  0.0168
 7637SOL    HW134547   3.526   2.262   4.172 -0.5237  0.1399  0.3643
 7637SOL    HW234548   3.414   2.232   4.080 -3.1265 -0.5375  1.3936
 7638SOL     OW34549   2.860   4.563  15.021  0.8870  0.0496 -0.3046
 7638SOL    HW134550   2.932   4.520  15.068  0.0015 -0.0967  0.9142
 7638SOL    HW234551   2.789   4.554  15.084  1.2496 -0.4347  0.0397
 7639SOL     OW34552   3.326   3.622   4.201  0.2967 -0.1186  0.2567
 7639SOL    HW134553   3.404   3.606   4.149 -0.0324 -1.3774  0.1357
 7639SOL    HW234554   3.362   3.667   4.277 -1.9232  0.0118  1.2403
 7640SOL     OW34555   4.727   0.914   2.714  0.0107  0.5815  0.6519
 7640SOL    HW134556   4.676   0.942   2.638  1.0707 -0.0339 -0.2792
 7640SOL    HW234557   4.675   0.951   2.785 -1.1348 -0.3186  0.2814
 7641SOL     OW34558   0.598   2.956   4.090  0.2708  0.2538  0.1846
 7641SOL    HW134559   0.551   2.919   4.015  0.8222  3.9297 -1.9960
 7641SOL    HW234560   0.665   2.888   4.102  0.7405  0.4815 -1.1298
 7642SOL     OW34561   0.250   4.128   6.563 -0.2944  0.7306 -0.2071
 7642SOL    HW134562   0.305   4.073   6.507  0.1271  0.9913 -0.0490
 7642SOL    HW234563   0.253   4.213   6.521 -0.0960  1.0263  0.4076
 7643SOL     OW34564   4.480   3.471   0.117 -0.3112 -0.9167  0.6697
 7643SOL    HW134565   4.523   3.388   0.134 -0.8323 -1.0057  1.5664
 7643SOL    HW234566   4.416   3.467   0.189 -1.7062 -1.9083 -0.6291
 7644SOL     OW34567   1.682   0.565   6.351 -0.4786 -0.3451 -0.6790
 7644SOL    HW134568   1.750   0.585   6.415 -1.8532  1.1549  0.2976
 7644SOL    HW234569   1.731   0.486   6.327  0.5701 -0.0040  0.4010
 7645SOL     OW34570   3.284   4.078   1.871 -0.5196  0.2921 -0.0485
 7645SOL    HW134571   3.376   4.077   1.896 -0.8069  1.8123  1.1015
 7645SOL    HW234572   3.240   4.079   1.956 -1.7493 -0.1705 -0.6823
 7646SOL     OW34573   1.513   0.123   8.002  0.1871 -0.1063  0.7211
 7646SOL    HW134574   1.500   0.155   7.913  0.8986  0.9729  1.0091
 7646SOL    HW234575   1.426   0.087   8.020  0.2371 -0.7714 -0.3929
 7647SOL     OW34576   1.314   0.709   9.432 -0.1557 -0.0184 -0.1584
 7647SOL    HW134577   1.282   0.798   9.422 -1.7080 -0.5378  0.1013
 7647SOL    HW234578   1.383   0.713   9.499  1.0626  0.8833 -1.4824
 7648SOL     OW34579   1.095   1.214   5.057  1.0347 -0.1951  0.1082
 7648SOL    HW134580   1.154   1.188   5.127  0.5111 -0.3500  0.4898
 7648SOL    HW234581   1.103   1.310   5.063 -1.8729  0.0523 -0.0004
 7649SOL     OW34582   1.046   3.711  13.250 -0.7661 -0.0516 -0.1558
 7649SOL    HW134583   1.062   3.634  13.304 -0.4693 -0.7636 -1.2619
 7649SOL    HW234584   1.138   3.738  13.244 -1.1797  1.2731 -0.5270
 7650SOL     OW34585   4.211   2.948   7.551 -0.3381 -0.3567  0.4269
 7650SOL    HW134586   4.213   3.043   7.544 -2.2657 -0.3824 -0.4885
 7650SOL    HW234587   4.202   2.920   7.460 -1.6192 -0.5256  0.6002
 7651SOL     OW34588   0.952   1.707   1.149 -0.2708 -0.7158 -0.5086
 7651SOL    HW134589   1.002   1.780   1.185 -1.8695  0.2791 -0.3165
 7651SOL    HW234590   1.005   1.688   1.072 -1.2263 -1.1291 -1.0568
 7652SOL     OW34591   0.480   2.569   6.708  0.1053  0.6610  0.6835
 7652SOL    HW134592   0.543   2.606   6.770  1.7077 -1.3116  0.2041
 7652SOL    HW234593   0.416   2.639   6.719 -1.2480 -0.4344 -0.2672
 7653SOL     OW34594   3.912   3.624  11.567 -0.4659  0.1911  0.4949
 7653SOL    HW134595   3.817   3.616  11.565 -0.4022 -0.4669 -0.1557
 7653SOL    HW234596   3.926   3.667  11.482  2.1605  1.5590  1.6425
 7654SOL     OW34597   3.397   0.780   8.044  0.5783 -0.7058 -0.0380
 7654SOL    HW134598   3.302   0.783   8.034  0.3351  1.7111  2.9224
 7654SOL    HW234599   3.405   0.698   8.092 -1.0817 -0.5608  0.4816
 7655SOL     OW34600   3.516   4.371  16.616 -0.6855 -0.3501  0.5454
 7655SOL    HW134601   3.505   4.458  16.654  0.4444  1.0437 -2.3148
 7655SOL    HW234602   3.581   4.321  16.665  0.3053 -0.7247 -1.1494
 7656SOL     OW34603   3.900   2.315  17.299 -0.3258 -0.3416  0.1578
 7656SOL    HW134604   3.958   2.390  17.282  0.4784 -1.0388 -0.1591
 7656SOL    HW234605   3.886   2.278  17.212 -0.1835 -0.9863  0.4150
 7657SOL     OW34606   1.675   2.992  14.073  0.2963 -0.1173 -0.4783
 7657SOL    HW134607   1.697   3.074  14.028  0.7772  0.0114 -0.0031
 7657SOL    HW234608   1.670   3.021  14.164  1.2113  0.6520 -0.6667
 7658SOL     OW34609   0.555   3.300   3.299 -0.0142 -0.1655  0.2384
 7658SOL    HW134610   0.597   3.362   3.359 -1.4299 -1.1367  2.1941
 7658SOL    HW234611   0.609   3.221   3.304  3.1342  1.8607 -1.4504
 7659SOL     OW34612   2.747   3.698  16.123 -0.2362 -0.9804  0.3335
 7659SOL    HW134613   2.743   3.706  16.218  0.2141  0.7601  0.2137
 7659SOL    HW234614   2.655   3.716  16.106 -0.2999  0.8961  2.7125
 7660SOL     OW34615   3.267   4.169   6.756 -0.2466 -0.0175 -0.4819
 7660SOL    HW134616   3.189   4.181   6.810  0.9268  1.2077  0.9572
 7660SOL    HW234617   3.329   4.197   6.824 -1.9823 -0.6718  1.3750
 7661SOL     OW34618   2.137   1.024   7.010  0.2394  0.3330  0.4982
 7661SOL    HW134619   2.076   1.026   6.937 -0.2441  2.6198  0.9848
 7661SOL    HW234620   2.221   1.043   6.967 -0.7694  1.5320 -0.9075
 7662SOL     OW34621   0.454   0.153   8.015 -0.6015 -0.1728 -0.4771
 7662SOL    HW134622   0.397   0.175   7.942 -0.5310 -1.5907 -0.9681
 7662SOL    HW234623   0.533   0.130   7.965 -1.4883 -2.6038 -0.8057
 7663SOL     OW34624   2.385   3.529   8.830  0.4426 -0.0880 -0.6190
 7663SOL    HW134625   2.438   3.511   8.908  1.1870 -0.6955 -1.2688
 7663SOL    HW234626   2.293   3.508   8.846  0.6678 -1.4336 -1.1388
 7664SOL     OW34627   0.880   2.678   5.229  0.0834  0.5864 -0.1112
 7664SOL    HW134628   0.908   2.688   5.320 -3.9191  2.3353  0.9514
 7664SOL    HW234629   0.871   2.770   5.206  1.3414  0.7896  0.2113
 7665SOL     OW34630   1.548   3.253  11.500  0.1025 -0.0566  0.0375
 7665SOL    HW134631   1.541   3.253  11.405 -1.0142  1.4236  0.1230
 7665SOL    HW234632   1.554   3.348  11.513 -0.7338 -0.0146  0.0880
 7666SOL     OW34633   0.114   2.801   9.818 -0.2164 -0.3883  0.6965
 7666SOL    HW134634   0.207   2.819   9.806  0.2209 -4.2898 -1.8746
 7666SOL    HW234635   0.116   2.737   9.889 -2.2671 -0.0249  1.0852
 7667SOL     OW34636   3.868   4.141  17.572  0.1806  0.6052  0.1122
 7667SOL    HW134637   3.902   4.106  17.490 -0.8366 -1.2463  0.4901
 7667SOL    HW234638   3.871   4.061  17.625  0.5398  0.7687  0.3371
 7668SOL     OW34639   4.605   3.391   5.761  0.0453  0.0289 -0.3178
 7668SOL    HW134640   4.623   3.437   5.679  1.0719 -2.5645 -1.5445
 7668SOL    HW234641   4.520   3.350   5.746  0.2734 -0.0464 -1.4095
 7669SOL     OW34642   1.749   2.185  16.991 -0.1706  1.0176  0.1462
 7669SOL    HW134643   1.658   2.198  16.962 -1.0258  0.1085  2.4488
 7669SOL    HW234644   1.769   2.099  16.955 -0.5758  0.1326  2.0533
 7670SOL     OW34645   0.534   2.686   8.937  0.5444 -0.1730  0.1807
 7670SOL    HW134646   0.572   2.710   9.021 -1.1784  3.1408  0.0028
 7670SOL    HW234647   0.523   2.591   8.938  2.6193 -0.4104  0.4139
 7671SOL     OW34648   0.870   3.676   2.321 -0.1204  0.0435 -0.1787
 7671SOL    HW134649   0.869   3.674   2.416 -0.6256  2.5798 -0.1446
 7671SOL    HW234650   0.832   3.761   2.300 -1.4285 -0.5905 -0.4364
 7672SOL     OW34651   1.793   0.456   6.053  0.1014  0.0813 -0.4471
 7672SOL    HW134652   1.798   0.523   5.985  0.0279  0.7612  0.2198
 7672SOL    HW234653   1.864   0.487   6.110 -1.5901  1.7876  0.7345
 7673SOL     OW34654   2.061   3.269   2.373  0.0454  0.4519 -0.0044
 7673SOL    HW134655   2.124   3.265   2.445 -0.9233  1.2614  0.8956
 7673SOL    HW234656   2.044   3.361   2.356 -2.2396 -0.0901 -0.6671
 7674SOL     OW34657   1.075   3.638   2.135  0.0758  0.2637  0.5342
 7674SOL    HW134658   1.003   3.635   2.199  1.7735  1.1111  2.4795
 7674SOL    HW234659   1.147   3.664   2.192 -1.2256  1.9962  1.3973
 7675SOL     OW34660   1.085   2.784  13.737 -0.3724  0.6468  0.1959
 7675SOL    HW134661   0.997   2.770  13.770 -0.4177  0.5610  0.0382
 7675SOL    HW234662   1.101   2.876  13.759 -1.1708  0.1214  2.9703
 7676SOL     OW34663   0.387   1.742   2.695  0.2788 -0.0651  0.1349
 7676SOL    HW134664   0.454   1.698   2.747 -0.1557 -0.0755  0.6862
 7676SOL    HW234665   0.382   1.828   2.738  1.0336 -0.8700  1.8111
 7677SOL     OW34666   1.990   0.781  11.076  0.4381 -0.1190  0.1680
 7677SOL    HW134667   2.062   0.796  11.137 -0.2460  0.2853  0.8825
 7677SOL    HW234668   1.938   0.862  11.080 -0.8293 -0.9410  0.4333
 7678SOL     OW34669   1.953   0.149   1.831 -0.5307 -0.3214 -0.0213
 7678SOL    HW134670   2.002   0.071   1.806 -1.4019 -0.3178 -1.7133
 7678SOL    HW234671   1.964   0.208   1.757 -4.0068  0.4061  0.0305
 7679SOL     OW34672   1.456   4.710  11.086 -0.3746 -0.2613 -0.2158
 7679SOL    HW134673   1.365   4.691  11.109 -0.4569 -1.4254 -1.4970
 7679SOL    HW234674   1.484   4.631  11.041 -1.2826 -1.6572  1.6512
 7680SOL     OW34675   3.056   1.136   4.620  0.2496 -0.0287 -0.0722
 7680SOL    HW134676   3.069   1.067   4.555  0.2833  1.1159 -1.2805
 7680SOL    HW234677   3.032   1.208   4.562 -0.2165 -0.0099  0.1397
 7681SOL     OW34678   4.174   2.976   3.760  0.3332  0.3768 -0.0810
 7681SOL    HW134679   4.236   3.048   3.747 -0.4871  1.0064 -0.4546
 7681SOL    HW234680   4.103   3.000   3.700 -0.8108 -0.0558  1.1035
 7682SOL     OW34681   4.480   4.508   3.835 -0.3575  0.3017 -0.0708
 7682SOL    HW134682   4.471   4.481   3.743  0.1768 -0.4161  0.0862
 7682SOL    HW234683   4.521   4.594   3.833  1.3785 -0.5279 -0.5801
 7683SOL     OW34684   3.597   3.241   6.279 -0.6227 -0.4847 -0.0558
 7683SOL    HW134685   3.619   3.333   6.290 -1.3456 -0.2617 -0.4778
 7683SOL    HW234686   3.501   3.240   6.281 -0.5950 -0.0618  1.0270
 7684SOL     OW34687   0.985   4.735  17.513  0.2884 -0.8050 -0.0879
 7684SOL    HW134688   0.933   0.043  17.581  1.1052  1.9061 -1.2233
 7684SOL    HW234689   0.934   4.658  17.490  1.6069 -1.4663 -0.7908
 7685SOL     OW34690   3.835   0.885   3.375 -0.5553 -0.1424 -0.6232
 7685SOL    HW134691   3.750   0.913   3.409  0.8830  1.6298  1.5009
 7685SOL    HW234692   3.894   0.939   3.429  1.3292 -0.7812 -2.0207
 7686SOL     OW34693   4.283   0.864   2.625 -0.2218  0.1690  0.6373
 7686SOL    HW134694   4.230   0.938   2.597 -0.5516  0.4819  2.0744
 7686SOL    HW234695   4.248   0.785   2.584  2.1466 -0.5243 -0.0883
 7687SOL     OW34696   2.322   0.974   6.310  0.0440 -0.1954 -0.5803
 7687SOL    HW134697   2.411   0.988   6.341  0.5255 -0.4185 -1.8815
 7687SOL    HW234698   2.288   1.063   6.314 -2.2104 -1.2206  2.9778
 7688SOL     OW34699   3.694   2.402  17.014  0.2356  0.0559 -0.7579
 7688SOL    HW134700   3.620   2.387  17.072  0.9961  0.3148  0.2862
 7688SOL    HW234701   3.661   2.370  16.930  1.3635  2.4737 -2.1130
 7689SOL     OW34702   3.892   0.092   6.893  0.4330  0.3040  0.0837
 7689SOL    HW134703   3.921   0.176   6.855 -0.5716 -0.3291 -2.0760
 7689SOL    HW234704   3.834   0.051   6.829  1.1828 -0.1530 -0.3049
 7690SOL     OW34705   2.622   1.063   7.793  0.8836 -0.2064 -0.1083
 7690SOL    HW134706   2.544   1.008   7.803  2.3116 -1.9081  1.8398
 7690SOL    HW234707   2.647   1.069   7.885 -1.3010  2.5688  0.2989
 7691SOL     OW34708   1.633   4.691   6.635  0.9429  0.2056 -0.3173
 7691SOL    HW134709   1.547   4.680   6.675  1.1363 -1.0179 -0.2349
 7691SOL    HW234710   1.691   4.637   6.688 -1.7088  0.3797  2.7184
 7692SOL     OW34711   1.742   3.056   4.208 -0.0850 -0.1888 -0.2598
 7692SOL    HW134712   1.822   3.100   4.180 -0.2968  1.5397  1.8188
 7692SOL    HW234713   1.675   3.120   4.231  0.1152 -0.3337  0.7326
 7693SOL     OW34714   1.370   1.898   1.848 -0.0638 -0.4296  0.6687
 7693SOL    HW134715   1.327   1.921   1.931 -1.5439 -1.3079  0.1506
 7693SOL    HW234716   1.315   1.958   1.798  1.3524  0.3830  0.0941
 7694SOL     OW34717   2.500   1.489   2.092 -0.6988 -0.3169  0.2053
 7694SOL    HW134718   2.585   1.531   2.080 -0.5636 -1.4205 -2.7416
 7694SOL    HW234719   2.445   1.567   2.078 -0.0466  0.4126  1.6877
 7695SOL     OW34720   1.687   1.088   2.022  0.2015  0.3793  0.3825
 7695SOL    HW134721   1.767   1.036   2.027 -0.4367 -0.6827 -0.4671
 7695SOL    HW234722   1.700   1.139   2.102  0.5668  1.3505 -0.2829
 7696SOL     OW34723   2.101   0.217  12.798  0.1724  0.5288 -1.3412
 7696SOL    HW134724   2.086   0.133  12.841 -2.0225  1.7391  0.2215
 7696SOL    HW234725   2.013   0.212  12.762 -0.4560 -0.0618  0.2933
 7697SOL     OW34726   4.353   3.119   2.485  0.1009  0.0622 -0.4128
 7697SOL    HW134727   4.358   3.185   2.554  0.7555 -0.6768  0.2436
 7697SOL    HW234728   4.443   3.101   2.459  0.2769  0.2709  0.0386
 7698SOL     OW34729   2.482   1.343   2.682 -1.1748 -0.6909  0.1371
 7698SOL    HW134730   2.491   1.408   2.752  2.3356  0.8586 -1.7357
 7698SOL    HW234731   2.404   1.364   2.631 -2.2074 -1.1780  1.5063
 7699SOL     OW34732   4.032   3.402  15.028 -0.0635  0.0044  0.3374
 7699SOL    HW134733   4.069   3.330  14.976 -0.9311 -1.0214  1.1289
 7699SOL    HW234734   3.938   3.390  15.024  0.3388 -2.5070 -1.6563
 7700SOL     OW34735   2.597   1.422   0.940  0.4946  0.0050  0.5439
 7700SOL    HW134736   2.615   1.416   0.846  1.2026  0.2894  0.6589
 7700SOL    HW234737   2.684   1.404   0.976  0.8325 -0.8029 -0.6668
 7701SOL     OW34738   1.027   1.946   5.348  0.0385 -0.0133 -0.0362
 7701SOL    HW134739   0.969   1.993   5.287 -1.1927 -0.5370  0.7328
 7701SOL    HW234740   0.975   1.959   5.427  1.2535 -3.5283  1.3299
 7702SOL     OW34741   3.464   0.739  17.635  0.3445  0.4793 -0.0724
 7702SOL    HW134742   3.490   0.806  17.572 -0.9602 -0.4115 -1.5331
 7702SOL    HW234743   3.383   0.701  17.601  0.0914 -0.2918  1.3796
 7703SOL     OW34744   4.242   3.667  14.030  0.5731 -0.1255 -0.3288
 7703SOL    HW134745   4.312   3.690  14.091 -0.8776  0.1799  1.2519
 7703SOL    HW234746   4.189   3.747  14.019 -0.1488 -0.8331 -1.9343
 7704SOL     OW34747   1.543   4.134   6.662  0.5902 -0.0125 -0.4063
 7704SOL    HW134748   1.487   4.208   6.687 -0.6929 -0.4821 -1.8969
 7704SOL    HW234749   1.522   4.061   6.720 -0.0558 -0.1515 -0.8118
 7705SOL     OW34750   3.439   2.848   8.231  0.6535  0.1707  0.1591
 7705SOL    HW134751   3.473   2.910   8.166 -0.3587  2.9194  2.2428
 7705SOL    HW234752   3.360   2.820   8.184  1.1936 -1.4088  0.2304
 7706SOL     OW34753   1.550   4.538   6.351  0.1412  0.2501  0.0659
 7706SOL    HW134754   1.600   4.589   6.414  0.0076  0.5920 -0.1049
 7706SOL    HW234755   1.616   4.538   6.281  0.6777 -2.5115  0.5785
 7707SOL     OW34756   1.115   0.331   6.581  0.0195  0.0829  0.5973
 7707SOL    HW134757   1.164   0.249   6.581 -0.5027 -0.2377 -2.4314
 7707SOL    HW234758   1.040   0.318   6.522 -0.6364  1.3936  1.1554
 7708SOL     OW34759   0.934   3.027   4.734 -0.0174 -0.1086  0.5450
 7708SOL    HW134760   0.982   3.109   4.733  0.1724 -0.2187  0.5853
 7708SOL    HW234761   0.962   2.999   4.647  0.0201  1.3355  0.0915
 7709SOL     OW34762   1.719   1.414   9.851  0.4000 -0.4372 -0.4009
 7709SOL    HW134763   1.654   1.430   9.921  0.6673  1.8594 -0.6827
 7709SOL    HW234764   1.703   1.321   9.836  0.0260 -0.1908 -1.5118
 7710SOL     OW34765   2.008   0.145   2.615 -0.2751 -0.1840  0.0306
 7710SOL    HW134766   2.022   0.075   2.678 -1.2354 -0.9765 -0.6402
 7710SOL    HW234767   2.028   0.223   2.667  3.3464 -2.3536  1.8858
 7711SOL     OW34768   1.568   0.192   3.350  0.3296 -0.0508 -0.8539
 7711SOL    HW134769   1.626   0.124   3.384  1.6473  1.2728 -0.4407
 7711SOL    HW234770   1.609   0.269   3.389  2.0507 -1.4002 -0.0002
 7712SOL     OW34771   4.353   1.576   2.471 -0.2483 -0.1783 -0.4489
 7712SOL    HW134772   4.402   1.568   2.552  0.7456 -2.7656 -1.3147
 7712SOL    HW234773   4.400   1.630   2.408 -1.9314  0.5293 -1.0907
 7713SOL     OW34774   2.858   1.452   1.098  0.3254 -0.2346 -0.3225
 7713SOL    HW134775   2.912   1.441   1.020  2.3684  2.7036  0.6781
 7713SOL    HW234776   2.862   1.367   1.142  1.1050 -0.1456 -0.2198
 7714SOL     OW34777   4.736   0.313   7.512 -0.5404  0.1419 -0.2544
 7714SOL    HW134778   4.703   0.280   7.428 -1.2095 -0.2168  0.1561
 7714SOL    HW234779   4.689   0.280   7.588  0.5683 -1.4088 -0.2226
 7715SOL     OW34780   2.071   2.713  14.703  0.2563  0.2818  0.1503
 7715SOL    HW134781   2.060   2.808  14.703 -2.3427 -0.0352 -2.1719
 7715SOL    HW234782   2.088   2.705  14.609  0.8461 -2.8801  0.5248
 7716SOL     OW34783   4.054   1.849  14.916  0.3445 -0.0127  0.4696
 7716SOL    HW134784   4.036   1.865  14.823  0.2528  0.4941  0.5778
 7716SOL    HW234785   3.962   1.862  14.938  0.7168  0.2545  1.8516
 7717SOL     OW34786   2.799   2.185  17.336 -0.6706 -0.3450 -0.6712
 7717SOL    HW134787   2.756   2.262  17.299  0.7773 -0.0723 -1.8333
 7717SOL    HW234788   2.824   2.148  17.251 -1.3093 -2.5261  0.1021
 7718SOL     OW34789   1.361   0.360   5.787 -0.2447  0.2928  0.3331
 7718SOL    HW134790   1.439   0.414   5.797 -0.3251  0.1991  1.3709
 7718SOL    HW234791   1.341   0.335   5.877 -0.3467  0.9456  0.4907
 7719SOL     OW34792   3.023   1.566   6.448 -0.7780  0.4957  0.6906
 7719SOL    HW134793   2.981   1.492   6.492 -2.2741  0.0207 -1.5221
 7719SOL    HW234794   3.076   1.519   6.384 -1.8553  1.6423 -1.0512
 7720SOL     OW34795   1.803   1.503   5.775  0.4369  0.1567 -0.0552
 7720SOL    HW134796   1.821   1.503   5.869  1.9600 -0.6840 -0.3585
 7720SOL    HW234797   1.791   1.595   5.752 -0.6266 -0.5030 -2.1625
 7721SOL     OW34798   1.056   0.681   8.934 -0.2334 -0.0008  0.5800
 7721SOL    HW134799   0.997   0.624   8.983 -0.3743  0.7448  1.2712
 7721SOL    HW234800   1.062   0.754   8.995 -0.0195 -0.3649  0.9960
 7722SOL     OW34801   2.420   1.153   8.415 -0.1466  0.2062 -0.7814
 7722SOL    HW134802   2.430   1.246   8.435  0.9085 -0.6352  2.5590
 7722SOL    HW234803   2.432   1.114   8.501  1.9950  3.0395  0.1994
 7723SOL     OW34804   0.795   2.211   0.069  0.1528  0.2011 -0.1142
 7723SOL    HW134805   0.746   2.159   0.133 -0.2912  2.7395  1.6193
 7723SOL    HW234806   0.882   2.191   0.105  0.3883  0.3912 -0.5891
 7724SOL     OW34807   4.585   3.466   5.495 -0.4512  0.2659 -0.0737
 7724SOL    HW134808   4.490   3.475   5.486 -0.8272 -3.4355  0.1585
 7724SOL    HW234809   4.608   3.459   5.402  1.3708  1.4889  0.2847
 7725SOL     OW34810   4.129   3.020   0.543 -0.1713  0.0890  0.5913
 7725SOL    HW134811   4.170   3.014   0.629 -0.0579  3.2318  0.7656
 7725SOL    HW234812   4.153   2.941   0.494 -1.1119 -0.0288  0.3269
 7726SOL     OW34813   2.826   4.532   4.569 -0.4522  0.1167  0.3215
 7726SOL    HW134814   2.828   4.530   4.473  0.2577 -0.4657  0.3533
 7726SOL    HW234815   2.767   4.460   4.594 -1.1022  0.8344  0.8648
 7727SOL     OW34816   1.858   2.090  10.979  0.4121  0.5076 -0.0430
 7727SOL    HW134817   1.927   2.107  11.043  3.5612  0.4172 -3.3957
 7727SOL    HW234818   1.902   2.056  10.901  0.7074  0.2786  0.2237
 7728SOL     OW34819   0.496   4.111  15.980 -0.0731  0.0555  0.0757
 7728SOL    HW134820   0.553   4.049  15.935 -0.4362 -0.7520  0.7269
 7728SOL    HW234821   0.554   4.154  16.043 -0.4984 -0.4290  0.7999
 7729SOL     OW34822   4.735   4.027   5.075 -0.0816  0.7420  0.3929
 7729SOL    HW134823   0.043   3.942   5.081  2.4171  1.8655 -1.8634
 7729SOL    HW234824   4.698   4.038   5.162 -2.0455  0.2125 -0.3817
 7730SOL     OW34825   0.697   4.424   5.697  0.3635 -0.0275  0.1126
 7730SOL    HW134826   0.649   4.471   5.765 -0.0711 -2.7283  1.6719
 7730SOL    HW234827   0.752   4.496   5.667  1.2029 -0.4917  0.5382
 7731SOL     OW34828   1.491   1.104  10.143 -0.2017 -0.1557 -0.4632
 7731SOL    HW134829   1.575   1.074  10.180  0.7195  0.3770 -2.1452
 7731SOL    HW234830   1.448   1.022  10.123 -0.7026 -0.6333  2.5825
 7732SOL     OW34831   2.713   0.190   2.827  0.9749 -0.3153  0.3042
 7732SOL    HW134832   2.793   0.235   2.855  0.3060  1.1080 -0.1216
 7732SOL    HW234833   2.747   0.101   2.816 -1.0582 -0.9461 -0.8473
 7733SOL     OW34834   3.045   3.411   4.014  0.4986  0.2222 -0.3404
 7733SOL    HW134835   2.985   3.432   3.942 -1.6241 -0.2509  1.2876
 7733SOL    HW234836   3.001   3.328   4.035  0.4710  0.5980  1.1277
 7734SOL     OW34837   3.002   3.802   4.957  0.0196  0.1112 -0.5231
 7734SOL    HW134838   2.913   3.794   4.922 -0.2274  0.0508  0.1100
 7734SOL    HW234839   3.001   3.897   4.954 -1.1462  0.1229 -0.0196
 7735SOL     OW34840   4.053   4.589   2.559 -0.9037 -0.2471 -0.0512
 7735SOL    HW134841   4.106   4.531   2.504 -2.3301 -1.9490  0.3832
 7735SOL    HW234842   3.970   4.542   2.565 -1.0729  0.1633  0.8101
 7736SOL     OW34843   1.778   1.880   8.870 -0.6905 -0.1974  0.1066
 7736SOL    HW134844   1.834   1.901   8.945 -0.5429 -0.2129 -0.0005
 7736SOL    HW234845   1.787   1.965   8.827  0.6034 -0.0966  0.5607
 7737SOL     OW34846   2.577   3.414   9.047  0.0311  0.6497  0.5888
 7737SOL    HW134847   2.543   3.451   9.129 -1.2852  0.3255  0.1942
 7737SOL    HW234848   2.670   3.437   9.046  0.0985  0.3321 -0.4660
 7738SOL     OW34849   0.741   3.995   4.861  0.2677 -0.7687 -0.4044
 7738SOL    HW134850   0.753   4.004   4.766 -2.3441 -0.3896 -0.7194
 7738SOL    HW234851   0.645   3.990   4.855  0.2256 -0.6564  0.1701
 7739SOL     OW34852   2.597   1.169   0.719 -0.0083 -0.5412  0.1339
 7739SOL    HW134853   2.672   1.224   0.700  0.5080 -1.3704 -0.2197
 7739SOL    HW234854   2.525   1.230   0.735 -0.3401 -0.5137 -1.4797
 7740SOL     OW34855   3.007   3.853   8.466 -0.2097 -0.3531  0.1505
 7740SOL    HW134856   3.081   3.796   8.446 -0.5887 -0.7999  0.0123
 7740SOL    HW234857   2.937   3.817   8.412 -0.7160 -1.0302  1.2637
 7741SOL     OW34858   2.008   3.511   7.118 -0.0671 -0.1199 -0.3060
 7741SOL    HW134859   1.947   3.583   7.129  1.4695  1.2809 -0.9568
 7741SOL    HW234860   1.948   3.438   7.137 -0.8562  1.0984  1.8703
 7742SOL     OW34861   3.158   1.741  17.104  0.3051  0.0521  0.2283
 7742SOL    HW134862   3.153   1.667  17.164  0.2393 -0.3994 -0.3289
 7742SOL    HW234863   3.157   1.693  17.021 -0.1906 -1.1372  0.9389
 7743SOL     OW34864   1.872   3.058   7.576  0.4517 -0.5076 -0.1985
 7743SOL    HW134865   1.801   3.043   7.512 -0.8561 -0.1393  1.1689
 7743SOL    HW234866   1.936   3.081   7.509  1.9245 -1.2232  0.9644
 7744SOL     OW34867   4.455   4.167   7.927 -0.3492 -0.2617 -0.0441
 7744SOL    HW134868   4.486   4.091   7.976 -1.0398 -1.8082 -2.0108
 7744SOL    HW234869   4.366   4.136   7.909 -0.6480 -0.4212  1.7324
 7745SOL     OW34870   1.463   2.301   7.205  0.3234  0.1165  0.4529
 7745SOL    HW134871   1.499   2.269   7.288 -0.1549  0.5405  0.8234
 7745SOL    HW234872   1.378   2.328   7.239 -1.1023 -0.2179 -2.8484
 7746SOL     OW34873   3.782   0.809   4.657 -0.5016 -0.3317 -0.2326
 7746SOL    HW134874   3.735   0.726   4.666  1.6680 -1.5317  0.0462
 7746SOL    HW234875   3.805   0.834   4.747 -0.1933  0.0251 -0.4122
 7747SOL     OW34876   2.576   2.936   5.730  0.1100  0.0512  0.2443
 7747SOL    HW134877   2.664   2.900   5.743 -0.8542 -1.8756  1.5449
 7747SOL    HW234878   2.575   3.008   5.793  0.0381  0.0863  0.2033
 7748SOL     OW34879   3.306   1.449  15.274  0.4666  0.4440  0.1171
 7748SOL    HW134880   3.228   1.463  15.222  0.4112  0.3071  0.1645
 7748SOL    HW234881   3.379   1.444  15.213  0.0830  2.4926 -0.5297
 7749SOL     OW34882   2.347   2.251   4.461 -0.4630 -0.1197  0.3534
 7749SOL    HW134883   2.335   2.291   4.375  0.8346  0.2007  0.3279
 7749SOL    HW234884   2.264   2.266   4.505 -1.9262 -1.3753 -1.9676
 7750SOL     OW34885   2.210   4.610  16.397  0.3570 -0.1314 -0.6820
 7750SOL    HW134886   2.155   4.629  16.321 -0.6460  0.1679  0.1216
 7750SOL    HW234887   2.281   4.556  16.362  2.3744  2.8650 -1.2079
 7751SOL     OW34888   1.342   0.674  11.984 -0.0053  0.7517  0.3914
 7751SOL    HW134889   1.311   0.677  12.075  0.1819 -0.3401  0.4914
 7751SOL    HW234890   1.284   0.743  11.950 -3.2968 -1.1629  2.0734
 7752SOL     OW34891   2.750   3.610  10.403  0.5067 -0.0827 -0.6166
 7752SOL    HW134892   2.733   3.703  10.416 -0.2545 -0.5789  1.9058
 7752SOL    HW234893   2.666   3.579  10.437  0.4869 -0.1046 -0.6853
 7753SOL     OW34894   1.327   0.864   4.292  0.0620  0.0558 -0.0469
 7753SOL    HW134895   1.408   0.910   4.269  1.3600 -1.4715  1.5134
 7753SOL    HW234896   1.358   0.773   4.289 -0.1197  0.0913 -3.7255
 7754SOL     OW34897   1.921   3.525  14.849  0.2330  0.0300 -0.1526
 7754SOL    HW134898   1.842   3.539  14.902  0.2068  1.3923 -0.5302
 7754SOL    HW234899   1.978   3.590  14.890  1.2766 -1.2697  0.4358
 7755SOL     OW34900   4.203   3.136  15.910  0.4880  0.3761 -0.2234
 7755SOL    HW134901   4.277   3.187  15.877  1.1255 -0.2713  0.2031
 7755SOL    HW234902   4.205   3.066  15.844  2.0230 -1.6431  1.9498
 7756SOL     OW34903   1.712   3.276   1.572 -0.2649  0.0119  0.0490
 7756SOL    HW134904   1.762   3.194   1.578  0.5347  0.6015  1.3582
 7756SOL    HW234905   1.684   3.298   1.661  0.6533  0.7162  0.1544
 7757SOL     OW34906   2.220   1.158  11.153 -0.0340 -0.0570  1.0969
 7757SOL    HW134907   2.214   1.253  11.146  0.6690 -0.0769  0.1139
 7757SOL    HW234908   2.236   1.137  11.245  0.7461 -0.6980  0.8137
 7758SOL     OW34909   4.501   4.721   6.103 -0.5689 -0.6445  0.9346
 7758SOL    HW134910   4.529   0.034   6.180  1.0922  1.4126 -1.0166
 7758SOL    HW234911   4.528   0.036   6.028 -0.6533 -1.1485  0.5601
 7759SOL     OW34912   1.666   0.760   6.154 -0.0559  0.5894 -0.1291
 7759SOL    HW134913   1.710   0.698   6.213  0.7089  0.6120 -0.6724
 7759SOL    HW234914   1.593   0.707   6.124  0.6763 -0.1956 -0.5206
 7760SOL     OW34915   3.743   0.993   8.569 -0.0931 -1.2261 -0.3046
 7760SOL    HW134916   3.790   0.909   8.573  0.5984 -0.7506  1.6308
 7760SOL    HW234917   3.800   1.032   8.503 -1.0979  0.5127 -0.1377
 7761SOL     OW34918   2.148   1.902   3.880 -0.0911  0.0033  0.2229
 7761SOL    HW134919   2.195   1.954   3.945 -2.8564  1.0024  1.4200
 7761SOL    HW234920   2.074   1.960   3.859  1.2418  1.1207 -1.3913
 7762SOL     OW34921   0.551   1.584   2.248 -0.1164  0.1633 -0.3737
 7762SOL    HW134922   0.518   1.551   2.332 -0.3837  1.4744  0.0433
 7762SOL    HW234923   0.625   1.638   2.276 -0.7348  0.7812  0.0714
 7763SOL     OW34924   4.513   4.106   9.016  0.2255 -0.4282 -0.0689
 7763SOL    HW134925   4.421   4.086   9.035  0.2338 -1.2754 -0.9281
 7763SOL    HW234926   4.499   4.157   8.937 -0.7815 -1.8753 -0.8180
 7764SOL     OW34927   3.082   3.875   9.488  0.2157 -0.3571 -0.6561
 7764SOL    HW134928   3.047   3.918   9.409  1.8562  0.1049 -1.1307
 7764SOL    HW234929   3.059   3.783   9.476  1.0227 -0.8574  1.6000
 7765SOL     OW34930   3.005   4.104   7.979 -0.2771  0.4221  0.5557
 7765SOL    HW134931   2.993   4.182   8.034  1.3424  1.5518 -0.6752
 7765SOL    HW234932   2.990   4.023   8.028  4.5955 -0.0479  1.3166
 7766SOL     OW34933   4.380   2.798   2.471 -0.3826 -0.4646 -0.4534
 7766SOL    HW134934   4.315   2.845   2.523 -0.5392  0.2080 -1.2682
 7766SOL    HW234935   4.440   2.776   2.543  0.7015 -0.8952 -1.4854
 7767SOL     OW34936   2.469   1.933   1.113 -0.0810 -0.5328  0.5314
 7767SOL    HW134937   2.398   1.929   1.048  1.0528 -1.8654 -0.6300
 7767SOL    HW234938   2.517   2.007   1.076  0.7380 -1.9645 -1.2391
 7768SOL     OW34939   2.029   3.988  17.434 -0.0308 -0.4216  0.5252
 7768SOL    HW134940   1.987   3.977  17.349  1.2629  0.2291 -0.2065
 7768SOL    HW234941   1.972   3.937  17.491 -2.0473  0.7118 -0.5004
 7769SOL     OW34942   3.904   3.547  15.664  0.4487  0.6535 -0.0465
 7769SOL    HW134943   3.858   3.470  15.697  0.8204  0.4726  0.0477
 7769SOL    HW234944   3.907   3.590  15.749 -0.9339  1.6375 -0.4936
 7770SOL     OW34945   0.689   2.519   2.982 -0.6766  0.2734  0.0695
 7770SOL    HW134946   0.636   2.492   2.907 -1.2272 -3.0032  1.6140
 7770SOL    HW234947   0.665   2.455   3.049 -0.7568  1.3237  1.0480
 7771SOL     OW34948   4.366   0.095   3.488  0.2990 -0.0674 -0.0073
 7771SOL    HW134949   4.398   0.139   3.410  2.1750 -0.9258  0.2804
 7771SOL    HW234950   4.306   0.029   3.452  0.2369 -1.5433  2.7785
 7772SOL     OW34951   0.239   0.800   8.584  0.4019 -0.1897  0.2310
 7772SOL    HW134952   0.247   0.766   8.495  0.9814  1.2903 -0.2719
 7772SOL    HW234953   0.146   0.786   8.600  0.6170  0.3560  1.9676
 7773SOL     OW34954   3.065   0.016   8.533 -0.4143 -0.3746  0.3306
 7773SOL    HW134955   3.053   0.022   8.438  1.5151 -1.8431 -0.0039
 7773SOL    HW234956   3.091   4.661   8.544 -0.3032 -0.3389  0.3596
 7774SOL     OW34957   1.497   4.421  10.694  0.3481  0.2336  0.7033
 7774SOL    HW134958   1.578   4.434  10.643  0.5018  0.1966  0.9390
 7774SOL    HW234959   1.519   4.447  10.783 -1.5588 -0.2994  1.3033
 7775SOL     OW34960   1.438   2.005  12.776 -0.4679 -0.2940 -0.0490
 7775SOL    HW134961   1.366   1.942  12.773  0.3004 -1.2122  0.6504
 7775SOL    HW234962   1.484   2.009  12.693  2.2954 -0.0611  1.5020
 7776SOL     OW34963   1.373   0.503   4.997 -0.1760  0.0134 -0.2162
 7776SOL    HW134964   1.300   0.535   5.051 -0.0303  0.2081 -0.1365
 7776SOL    HW234965   1.315   0.468   4.930 -2.4635  2.0503  0.6576
 7777SOL     OW34966   3.314   0.133   3.560  0.1492  0.0220 -0.1365
 7777SOL    HW134967   3.365   0.113   3.639  2.1152  0.1125 -1.3716
 7777SOL    HW234968   3.376   0.182   3.506 -0.8141 -0.0195 -1.2708
 7778SOL     OW34969   2.657   2.793   4.716 -0.0018  0.5308 -0.1248
 7778SOL    HW134970   2.600   2.858   4.755  0.2862  0.3940  0.5247
 7778SOL    HW234971   2.715   2.856   4.673 -0.2487 -0.6895 -2.2552
 7779SOL     OW34972   3.602   4.268   8.329 -0.9290  0.2683 -0.0822
 7779SOL    HW134973   3.620   4.175   8.315  2.9627  1.0466 -0.2854
 7779SOL    HW234974   3.507   4.277   8.335 -1.1291 -2.5234  0.9018
 7780SOL     OW34975   3.610   4.197  17.621 -0.1289  0.4468 -0.2114
 7780SOL    HW134976   3.599   4.163  17.532  1.6493 -0.0891 -0.2246
 7780SOL    HW234977   3.705   4.193  17.636 -0.0119  4.0034 -0.1214
 7781SOL     OW34978   3.766   3.389  13.213 -0.3865  0.6165  0.3721
 7781SOL    HW134979   3.857   3.421  13.215 -0.4869  1.1275 -3.1098
 7781SOL    HW234980   3.763   3.347  13.127  1.1394  1.9402 -0.3365
 7782SOL     OW34981   3.443   4.296   2.598 -0.1769 -0.4290 -0.7381
 7782SOL    HW134982   3.388   4.217   2.597 -2.0371  0.9065 -2.2617
 7782SOL    HW234983   3.412   4.338   2.519  0.3369 -0.7732 -1.1257
 7783SOL     OW34984   0.018   2.911   7.449  0.3272  0.0361  0.1125
 7783SOL    HW134985   0.003   2.817   7.454  1.9451 -0.1831  1.2876
 7783SOL    HW234986   0.085   2.915   7.518  1.0818  0.5646 -0.6531
 7784SOL     OW34987   1.251   2.689   1.194  0.5852  0.2447  0.2885
 7784SOL    HW134988   1.278   2.763   1.140 -0.4956  1.2873  1.1852
 7784SOL    HW234989   1.323   2.693   1.257  0.4813 -0.1705  0.4365
 7785SOL     OW34990   3.216   1.603   5.070 -0.0752  0.3993 -0.1572
 7785SOL    HW134991   3.190   1.574   4.983 -1.3837 -1.1389  0.7515
 7785SOL    HW234992   3.151   1.670   5.091  0.2158  0.7025 -0.2035
 7786SOL     OW34993   0.460   3.848  16.150 -0.3312 -0.0894  0.1025
 7786SOL    HW134994   0.544   3.803  16.155 -0.5624 -0.5241  0.0242
 7786SOL    HW234995   0.488   3.918  16.091  0.4470 -0.1048  0.4641
 7787SOL     OW34996   2.071   1.501  12.220 -0.5373  0.2291  0.0328
 7787SOL    HW134997   2.050   1.581  12.268  1.9633  0.3899  0.8880
 7787SOL    HW234998   2.125   1.454  12.284  0.1247  0.0725 -0.6385
 7788SOL     OW34999   1.867   1.735   3.826  0.4814  0.0970  0.4656
 7788SOL    HW135000   1.839   1.808   3.882 -2.5862 -0.6373 -0.1122
 7788SOL    HW235001   1.946   1.697   3.865  0.2730  0.4282  1.2104
 7789SOL     OW35002   3.616   4.229   6.594 -0.4444  0.0742 -0.7454
 7789SOL    HW135003   3.650   4.303   6.643  1.1263 -1.6656  0.8090
 7789SOL    HW235004   3.651   4.163   6.655 -0.3729  0.7315 -0.0782
 7790SOL     OW35005   1.785   0.507   2.012 -0.1666 -0.1985 -0.2388
 7790SOL    HW135006   1.754   0.597   2.007  2.1594  0.7042  1.6427
 7790SOL    HW235007   1.879   0.524   2.006 -0.1112 -1.4040 -2.7678
 7791SOL     OW35008   0.888   3.502   5.332  0.1618 -0.1536  0.0344
 7791SOL    HW135009   0.891   3.406   5.335  1.7869 -0.0707  1.0263
 7791SOL    HW235010   0.862   3.518   5.423  0.7370 -0.8652  0.3273
 7792SOL     OW35011   2.673   0.643   7.940  0.3248 -0.2380  0.1971
 7792SOL    HW135012   2.628   0.566   7.904  1.9525 -1.2466  0.2903
 7792SOL    HW235013   2.765   0.622   7.924  0.9533  1.3053  1.7678
 7793SOL     OW35014   1.250   3.961   3.284  0.1611 -0.2617 -0.0699
 7793SOL    HW135015   1.268   4.047   3.322 -0.9310 -1.2351  2.6481
 7793SOL    HW235016   1.343   3.940   3.276 -0.3970 -2.3399 -1.1744
 7794SOL     OW35017   0.838   0.002   9.941  0.0193  0.1381  0.2630
 7794SOL    HW135018   0.933   0.003   9.954  0.4660  0.9292 -2.9243
 7794SOL    HW235019   0.821   4.649   9.912  1.4193 -0.2261  0.5723
 7795SOL     OW35020   1.470   0.338   8.938  0.5467  0.1615 -0.5987
 7795SOL    HW135021   1.467   0.359   9.031 -1.3516 -3.0728  0.0894
 7795SOL    HW235022   1.378   0.353   8.915 -0.0234  0.2712  1.7916
 7796SOL     OW35023   1.122   3.048   7.814  0.3491  0.2356 -0.6424
 7796SOL    HW135024   1.111   2.954   7.830 -0.5954  0.8117  2.0468
 7796SOL    HW235025   1.129   3.050   7.718  2.5349  1.6094 -0.4402
 7797SOL     OW35026   0.916   1.185   2.749  0.1389  0.0506  0.7623
 7797SOL    HW135027   0.945   1.252   2.811  0.1013 -0.8516  1.7336
 7797SOL    HW235028   0.932   1.109   2.805  1.1066  1.0033  1.7894
 7798SOL     OW35029   4.437   2.332  13.905 -0.3034 -1.0383 -0.4846
 7798SOL    HW135030   4.387   2.256  13.878 -0.3746 -0.9241 -0.6740
 7798SOL    HW235031   4.384   2.407  13.877  2.4689 -0.0298 -3.0843
 7799SOL     OW35032   4.256   0.521   3.893  0.7622  0.5660 -0.2049
 7799SOL    HW135033   4.285   0.478   3.974 -0.8535  0.5528  0.3508
 7799SOL    HW235034   4.230   0.461   3.822  1.4287  0.2946 -0.2288
 7800SOL     OW35035   4.641   1.204   2.704  0.1884 -0.2837  0.5003
 7800SOL    HW135036   4.609   1.195   2.793 -1.8837  1.4729 -0.0476
 7800SOL    HW235037   4.735   1.197   2.718  0.6260  1.9436 -1.3292
 7801SOL     OW35038   1.394   4.322   3.967 -0.1886  0.2332  0.1015
 7801SOL    HW135039   1.346   4.404   3.978 -2.7644 -1.2350 -0.1530
 7801SOL    HW235040   1.332   4.283   3.906  0.0917  0.5377 -0.3776
 7802SOL     OW35041   3.560   0.533  15.469 -0.4154 -0.0393 -0.2924
 7802SOL    HW135042   3.615   0.526  15.546 -0.1244 -2.6212 -0.7470
 7802SOL    HW235043   3.485   0.476  15.486 -1.2012  0.9734 -0.3567
 7803SOL     OW35044   4.027   4.034   5.987 -0.3775  0.2816  0.1416
 7803SOL    HW135045   3.973   3.992   6.053  1.2551 -3.5498 -0.9499
 7803SOL    HW235046   3.971   4.109   5.966  0.3858  0.0331 -2.8347
 7804SOL     OW35047   1.865   3.136   3.296  0.0481 -0.0600  0.7772
 7804SOL    HW135048   1.834   3.069   3.357 -0.8536  0.0837  0.4737
 7804SOL    HW235049   1.881   3.206   3.360 -2.3448 -0.9657  2.3482
 7805SOL     OW35050   3.625   1.383   8.689  0.4035  0.7124  0.7120
 7805SOL    HW135051   3.583   1.342   8.613 -0.4932  1.3202  0.8799
 7805SOL    HW235052   3.564   1.363   8.760 -0.6228 -0.0002 -0.3752
 7806SOL     OW35053   4.155   3.806   7.799  0.5716  0.4630  0.1743
 7806SOL    HW135054   4.216   3.773   7.734  0.3174  0.1156  0.1173
 7806SOL    HW235055   4.097   3.862   7.747  1.6251  1.2399 -0.1738
 7807SOL     OW35056   0.129   0.455   1.890  0.1650 -0.2912  0.3196
 7807SOL    HW135057   0.150   0.419   1.976  1.5848  1.8879  0.8864
 7807SOL    HW235058   0.051   0.406   1.863 -1.4306  0.9469  2.6644
 7808SOL     OW35059   3.897   0.679   6.977 -0.1117 -0.0030 -0.0086
 7808SOL    HW135060   3.872   0.771   6.969 -0.3313 -0.0053  0.6553
 7808SOL    HW235061   3.809   0.646   6.961 -0.1048 -1.4450  2.8545
 7809SOL     OW35062   1.613   0.549   3.929  0.0826  0.6416  0.1138
 7809SOL    HW135063   1.612   0.467   3.880 -3.7481  1.5739 -1.3517
 7809SOL    HW235064   1.575   0.516   4.010 -1.9723 -0.4836 -1.3143
 7810SOL     OW35065   4.595   1.317  14.979  0.4125  0.1853 -0.2630
 7810SOL    HW135066   4.608   1.226  14.951 -0.6313 -0.7074  2.1737
 7810SOL    HW235067   4.545   1.307  15.059 -1.0405 -0.2408 -1.2278
 7811SOL     OW35068   2.302   3.163   3.259  0.2620 -0.6983  0.2021
 7811SOL    HW135069   2.325   3.254   3.280 -1.0354 -0.1041 -0.9581
 7811SOL    HW235070   2.332   3.162   3.168  0.7813  0.0080  0.3673
 7812SOL     OW35071   1.789   2.265   1.457 -0.3826 -0.1178 -0.3582
 7812SOL    HW135072   1.721   2.325   1.487  0.2662 -0.0653  0.9953
 7812SOL    HW235073   1.741   2.184   1.476  0.6829 -0.6839 -0.1319
 7813SOL     OW35074   0.556   2.381   5.241 -0.8193 -0.2858  0.7493
 7813SOL    HW135075   0.591   2.436   5.171 -1.4465  0.4547  1.0092
 7813SOL    HW235076   0.615   2.405   5.313  0.0571 -0.3490  0.0449
 7814SOL     OW35077   1.105   3.637  17.396 -0.4020 -0.4223 -0.0718
 7814SOL    HW135078   1.151   3.717  17.419  1.9857 -1.2817 -1.8747
 7814SOL    HW235079   1.178   3.576  17.397 -1.8920 -2.2224 -1.3093
 7815SOL     OW35080   1.320   0.261  15.313 -0.2708 -0.1425 -0.0445
 7815SOL    HW135081   1.333   0.189  15.374 -0.6030 -0.2634 -0.1130
 7815SOL    HW235082   1.398   0.315  15.326 -2.3963  2.8530  0.3478
 7816SOL     OW35083   2.383   1.601   0.777 -0.2051  0.6194  0.0267
 7816SOL    HW135084   2.431   1.646   0.846  1.1313 -1.3404  0.3592
 7816SOL    HW235085   2.417   1.654   0.704 -3.7761  1.0425 -1.3162
 7817SOL     OW35086   0.601   3.984   4.085  0.0072  0.0009  0.3171
 7817SOL    HW135087   0.614   3.890   4.086 -0.1633 -0.0262 -1.0455
 7817SOL    HW235088   0.523   3.987   4.029 -1.8311  0.0100  2.8575
 7818SOL     OW35089   0.080   1.618   4.128 -0.7339 -0.7256 -0.1767
 7818SOL    HW135090   0.099   1.524   4.135 -2.5196 -0.9340  1.9539
 7818SOL    HW235091   0.075   1.643   4.220 -1.9561 -1.6359  0.0051
 7819SOL     OW35092   4.725   4.733  12.177 -0.2142 -0.3777 -0.0800
 7819SOL    HW135093   0.068   4.680  12.187  0.7167  0.5324 -2.6315
 7819SOL    HW235094   0.023   0.075  12.219  0.0760 -0.9055  0.6880
 7820SOL     OW35095   2.753   1.388   0.720 -0.3402 -0.0860 -0.3402
 7820SOL    HW135096   2.738   1.471   0.674 -1.1220  1.3504  2.4906
 7820SOL    HW235097   2.828   1.415   0.773 -0.8210 -0.7657  0.6843
 7821SOL     OW35098   1.673   2.429   3.768  0.2925  0.0937 -0.2345
 7821SOL    HW135099   1.683   2.492   3.839  3.4308 -1.0956  0.3594
 7821SOL    HW235100   1.746   2.451   3.710  0.7534 -1.9136 -0.4135
 7822SOL     OW35101   4.082   3.434  10.353 -0.1804 -0.1607 -0.1932
 7822SOL    HW135102   4.114   3.435  10.444  2.1569 -0.7325 -1.0225
 7822SOL    HW235103   4.159   3.450  10.299 -1.6707  3.5366 -1.2950
 7823SOL     OW35104   3.299   4.307   0.435 -0.2687  0.0597  0.1223
 7823SOL    HW135105   3.335   4.356   0.509  1.9630  0.5808 -1.2836
 7823SOL    HW235106   3.381   4.267   0.405  0.1936 -0.2899  1.8774
 7824SOL     OW35107   4.634   1.439   0.039 -0.6984  0.1235  0.7189
 7824SOL    HW135108   4.565   1.378   0.064  0.9634 -1.3742  1.6211
 7824SOL    HW235109   4.596   1.472  17.702  0.4067  0.6243  0.4042
 7825SOL     OW35110   1.212   2.186   9.708 -0.0969 -0.0584 -0.1395
 7825SOL    HW135111   1.155   2.206   9.782 -1.8765 -1.8257 -1.0409
 7825SOL    HW235112   1.269   2.124   9.753  1.4201  1.4322 -0.0002
 7826SOL     OW35113   2.562   2.993  15.099  0.3412 -0.0445  0.8670
 7826SOL    HW135114   2.571   3.081  15.136 -0.2945  0.2890  0.2182
 7826SOL    HW235115   2.615   2.939  15.158  1.2647 -0.0163  0.0517
 7827SOL     OW35116   2.204   1.481   6.298  0.7276 -0.0128  1.0714
 7827SOL    HW135117   2.129   1.421   6.300  1.4497 -0.9776 -0.7097
 7827SOL    HW235118   2.268   1.418   6.330 -0.8349 -3.0696 -1.8280
 7828SOL     OW35119   3.968   3.199   7.051 -0.1169  0.1771  0.0728
 7828SOL    HW135120   4.008   3.139   7.114 -0.9868 -0.9496 -0.4517
 7828SOL    HW235121   4.036   3.230   6.992 -0.0091 -1.6752 -0.7608
 7829SOL     OW35122   3.277   3.808   2.098 -0.1763  0.0628 -0.2936
 7829SOL    HW135123   3.223   3.882   2.069  1.3243  0.7265 -1.4265
 7829SOL    HW235124   3.360   3.834   2.058 -0.6365 -0.8384 -1.8088
 7830SOL     OW35125   3.988   0.322  15.397 -0.2528 -0.0515 -0.1813
 7830SOL    HW135126   4.066   0.284  15.357 -0.3668 -1.2019  0.6948
 7830SOL    HW235127   4.010   0.332  15.490 -0.4216  2.5533 -0.4093
 7831SOL     OW35128   3.099   3.168   1.373  1.0229 -0.0503 -0.2067
 7831SOL    HW135129   3.162   3.236   1.396  1.0787  0.8497 -3.0725
 7831SOL    HW235130   3.059   3.152   1.459  0.0702  1.1309 -0.4152
 7832SOL     OW35131   4.430   4.184   6.119 -0.8107 -0.6304  0.4512
 7832SOL    HW135132   4.367   4.153   6.183  0.6036 -1.7160  1.3133
 7832SOL    HW235133   4.453   4.272   6.151  0.3025 -0.4808 -0.7660
 7833SOL     OW35134   2.459   1.456   5.420  0.0837 -0.4301 -0.2135
 7833SOL    HW135135   2.442   1.367   5.390  0.2320 -0.8426  0.9042
 7833SOL    HW235136   2.554   1.465   5.418  0.1537 -1.0259  0.2668
 7834SOL     OW35137   2.382   3.341  16.694 -0.1432  0.2965 -0.1818
 7834SOL    HW135138   2.450   3.278  16.718 -1.3057 -1.6624 -1.9913
 7834SOL    HW235139   2.414   3.371  16.609  0.5689 -0.4550 -0.1842
 7835SOL     OW35140   0.441   2.922   7.487  0.0708  0.5432  0.3504
 7835SOL    HW135141   0.347   2.937   7.499 -0.2967 -2.2644  0.8972
 7835SOL    HW235142   0.451   2.827   7.483  0.8823  0.6385  0.0693
 7836SOL     OW35143   4.307   1.446   0.841  0.0367 -0.0863  0.3405
 7836SOL    HW135144   4.329   1.502   0.916 -1.2760  1.0403 -0.1222
 7836SOL    HW235145   4.258   1.372   0.877 -0.5872  0.7308  1.1595
 7837SOL     OW35146   0.814   2.924   2.849 -0.0524 -0.5535  0.5773
 7837SOL    HW135147   0.887   2.902   2.792  0.9793 -0.8095  1.9920
 7837SOL    HW235148   0.747   2.907   2.783 -1.1884  0.5728  1.4240
 7838SOL     OW35149   2.422   3.432  13.944 -0.0022 -0.0794 -0.1480
 7838SOL    HW135150   2.438   3.490  14.019 -1.1164  0.0654 -0.0090
 7838SOL    HW235151   2.329   3.411  13.959 -0.4833  0.5423 -2.3414
 7839SOL     OW35152   0.310   2.269   3.579  0.2361 -0.2086 -0.1734
 7839SOL    HW135153   0.293   2.348   3.631  2.8319  0.3258 -0.1666
 7839SOL    HW235154   0.405   2.268   3.571  0.1471 -2.6561 -0.7913
 7840SOL     OW35155   3.579   1.290   2.259 -0.2550  0.0868 -0.6615
 7840SOL    HW135156   3.667   1.255   2.242 -1.0550 -1.9973 -0.4329
 7840SOL    HW235157   3.569   1.257   2.348  1.1975 -2.3197 -1.3760
 7841SOL     OW35158   4.405   3.748   8.603 -0.0500  1.0265  0.2529
 7841SOL    HW135159   4.361   3.792   8.530 -2.0449 -2.0294 -0.4105
 7841SOL    HW235160   4.381   3.798   8.681  0.1559 -0.3766  1.2129
 7842SOL     OW35161   1.399   4.680  14.808  0.5153  0.1753 -0.3094
 7842SOL    HW135162   1.428   4.636  14.728  1.8390 -1.2246  0.9593
 7842SOL    HW235163   1.331   4.623  14.844  0.5136 -0.5132 -1.3716
 7843SOL     OW35164   3.438   2.118   8.053  0.8760  0.1230 -0.3177
 7843SOL    HW135165   3.406   2.140   8.141  3.9077  0.3196  0.7564
 7843SOL    HW235166   3.451   2.205   8.015 -0.2649  0.9155  1.1274
 7844SOL     OW35167   0.387   4.670   0.655  0.4718 -0.3532  0.2933
 7844SOL    HW135168   0.296   4.683   0.680  0.9681 -1.8704  2.9290
 7844SOL    HW235169   0.364   4.583   0.624 -1.2792 -0.5266  2.0871
 7845SOL     OW35170   2.229   1.512   5.576  0.0321  0.0259 -0.4389
 7845SOL    HW135171   2.297   1.469   5.524 -0.4785 -0.1822 -0.9334
 7845SOL    HW235172   2.243   1.605   5.559 -1.7180  0.1466 -1.2023
 7846SOL     OW35173   2.897   0.561   3.042 -0.9790  0.1157 -0.4005
 7846SOL    HW135174   2.820   0.565   3.099  0.0153 -1.2979  1.0493
 7846SOL    HW235175   2.867   0.615   2.969  1.9713 -1.3723 -2.6986
 7847SOL     OW35176   0.771   3.070   8.998 -0.0098 -0.1400  0.3406
 7847SOL    HW135177   0.755   2.981   9.028  0.3969 -0.8779 -1.6640
 7847SOL    HW235178   0.681   3.101   8.994 -0.1138 -0.5650 -0.6553
 7848SOL     OW35179   3.096   0.414   2.669 -0.5419 -0.6204 -0.2094
 7848SOL    HW135180   3.020   0.439   2.616 -1.5491 -0.1172  1.4980
 7848SOL    HW235181   3.050   0.373   2.742  1.8760 -2.2621  0.3608
 7849SOL     OW35182   2.567   4.133   5.061  0.5466 -0.2999 -0.1940
 7849SOL    HW135183   2.482   4.120   5.019  1.8197 -0.7358 -2.6311
 7849SOL    HW235184   2.602   4.208   5.011 -0.8118  0.8403  0.5586
 7850SOL     OW35185   1.801   3.017   5.636 -0.1281  0.3515  0.2062
 7850SOL    HW135186   1.855   3.069   5.576 -2.3963  0.7300 -1.5005
 7850SOL    HW235187   1.842   2.932   5.621 -1.0748  0.4506 -2.9518
 7851SOL     OW35188   0.231   3.483   4.227 -0.2708 -0.0376 -0.7189
 7851SOL    HW135189   0.290   3.488   4.303  2.1922 -0.9536 -2.5792
 7851SOL    HW235190   0.247   3.395   4.194 -0.1002 -0.1705 -0.2779
 7852SOL     OW35191   1.654   0.491   2.428 -0.5996  0.4009 -0.7516
 7852SOL    HW135192   1.727   0.455   2.476 -1.7831  1.2618  1.6803
 7852SOL    HW235193   1.657   0.446   2.343 -0.2143 -2.8358  1.0087
 7853SOL     OW35194   1.143   1.313   5.898  0.2466 -0.0922 -0.5397
 7853SOL    HW135195   1.093   1.255   5.955 -3.0761  2.3228 -0.9936
 7853SOL    HW235196   1.209   1.338   5.963 -0.4122 -0.9339  0.4622
 7854SOL     OW35197   1.390   1.424   3.089  0.0439  0.3748 -0.1782
 7854SOL    HW135198   1.314   1.370   3.071 -0.5335  1.2299 -0.3028
 7854SOL    HW235199   1.419   1.386   3.172 -0.7137  0.1226 -0.0310
 7855SOL     OW35200   1.541   1.147   4.623 -0.3335  0.7680 -0.1438
 7855SOL    HW135201   1.560   1.073   4.564 -2.1725  0.1717  0.0317
 7855SOL    HW235202   1.621   1.141   4.676 -0.3560 -1.8679 -0.4168
 7856SOL     OW35203   3.988   2.460   9.202 -0.0573  0.4115 -0.2765
 7856SOL    HW135204   4.075   2.499   9.199  0.8922 -1.6457  0.5736
 7856SOL    HW235205   3.996   2.389   9.266  0.1243 -1.0051 -1.8752
 7857SOL     OW35206   3.290   0.569   2.219 -0.0426 -0.0219 -0.3733
 7857SOL    HW135207   3.242   0.594   2.298  0.1448 -2.3752  0.4855
 7857SOL    HW235208   3.248   0.630   2.159  0.0684 -2.0454 -2.4915
 7858SOL     OW35209   3.867   3.315   7.491 -0.2205 -0.2865  0.9526
 7858SOL    HW135210   3.804   3.302   7.562 -0.5228 -1.4173  0.4725
 7858SOL    HW235211   3.919   3.394   7.504 -2.1043  0.7945  1.8582
 7859SOL     OW35212   0.550   2.071   6.597 -0.3142  0.0725 -0.1440
 7859SOL    HW135213   0.576   2.158   6.628 -1.4847  0.2716  0.2742
 7859SOL    HW235214   0.480   2.089   6.534  0.7744  2.3033 -0.7131
 7860SOL     OW35215   4.137   1.464   5.193 -0.3061  0.3464  0.0279
 7860SOL    HW135216   4.115   1.378   5.156  1.0229  1.2242 -2.8080
 7860SOL    HW235217   4.129   1.449   5.287 -0.7825  0.4224 -0.0006
 7861SOL     OW35218   1.129   3.195   4.855  0.1854 -0.1012  0.1360
 7861SOL    HW135219   1.200   3.180   4.918  0.8574  0.6005 -0.4536
 7861SOL    HW235220   1.061   3.237   4.907 -1.9900 -2.8094 -0.5249
 7862SOL     OW35221   2.982   1.025  15.235  0.5696 -0.5736  0.4294
 7862SOL    HW135222   2.976   1.090  15.305 -1.2869 -2.7483  2.2590
 7862SOL    HW235223   3.024   1.094  15.183  1.1666 -0.2575  1.3210
 7863SOL     OW35224   3.315   3.861   9.620 -0.3596  0.5579  0.6890
 7863SOL    HW135225   3.265   3.846   9.700 -1.1595  2.3736  0.5223
 7863SOL    HW235226   3.243   3.842   9.559  1.1373  0.6228 -1.0908
 7864SOL     OW35227   3.197   2.729  15.205 -0.1371  0.4785  0.6666
 7864SOL    HW135228   3.133   2.701  15.270 -0.1538 -0.7296  0.1150
 7864SOL    HW235229   3.172   2.822  15.201 -2.1750 -0.1051  0.0404
 7865SOL     OW35230   4.396   4.647  16.543  0.7762  0.2082  0.0312
 7865SOL    HW135231   4.474   4.700  16.560  1.3972 -0.5604 -0.4281
 7865SOL    HW235232   4.341   4.684  16.613  2.4264  1.3569  0.7176
 7866SOL     OW35233   4.734   1.176  13.830 -0.1000 -0.4169 -0.2976
 7866SOL    HW135234   0.047   1.162  13.911 -0.2106 -3.8294 -0.8005
 7866SOL    HW235235   4.664   1.115  13.853  0.4409 -0.1903  1.9444
 7867SOL     OW35236   3.652   3.648  13.606  0.7920  0.1041 -0.4225
 7867SOL    HW135237   3.734   3.612  13.640  0.7246  0.4177  0.0717
 7867SOL    HW235238   3.651   3.735  13.645  0.0245  0.0689 -0.3511
 7868SOL     OW35239   3.614   4.271  15.034  0.0755 -0.4611 -0.2210
 7868SOL    HW135240   3.633   4.365  15.044  0.3433 -0.4203 -1.1402
 7868SOL    HW235241   3.597   4.268  14.940  0.1061  0.4374 -0.2626
 7869SOL     OW35242   3.020   1.628   3.120 -0.2998  0.0045 -0.3921
 7869SOL    HW135243   3.092   1.690   3.132 -1.7627  2.0955 -2.6485
 7869SOL    HW235244   3.020   1.596   3.210 -1.9613 -0.0153 -0.4020
 7870SOL     OW35245   4.612   1.531   8.816  0.1602 -0.7365  0.2273
 7870SOL    HW135246   4.539   1.480   8.782  0.6726 -0.2243 -1.6529
 7870SOL    HW235247   4.671   1.547   8.742 -1.4079  0.3896 -0.7653
 7871SOL     OW35248   2.879   1.146   3.884  0.4767 -0.4181  0.4412
 7871SOL    HW135249   2.799   1.128   3.934 -0.1606 -1.0549 -0.8017
 7871SOL    HW235250   2.877   1.242   3.876 -0.0073 -0.5208 -0.7396
 7872SOL     OW35251   0.152   2.431   0.120  0.0411 -0.1451 -0.7687
 7872SOL    HW135252   0.169   2.443   0.213 -1.1834  2.6506 -0.9034
 7872SOL    HW235253   0.072   2.379   0.123  1.1675 -1.9058 -1.1435
 7873SOL     OW35254   0.037   2.766   4.412 -0.0813  0.1955  0.5393
 7873SOL    HW135255   4.726   2.820   4.348  0.7040  0.7075  0.3819
 7873SOL    HW235256   4.708   2.697   4.418 -0.0029  0.0498 -0.2103
 7874SOL     OW35257   1.129   0.225  17.416 -0.1651 -0.2337  0.0010
 7874SOL    HW135258   1.088   0.148  17.456 -2.8178  0.4466 -1.4383
 7874SOL    HW235259   1.063   0.251  17.352 -0.4299  1.1482  0.8431
 7875SOL     OW35260   1.196   0.886   8.455  0.2258  0.3579 -1.0450
 7875SOL    HW135261   1.160   0.798   8.447  1.0378 -0.0814  0.0351
 7875SOL    HW235262   1.212   0.896   8.549 -0.2885 -0.4771 -0.8763
 7876SOL     OW35263   3.159   3.793  16.071  0.0320 -0.1363 -0.3496
 7876SOL    HW135264   3.223   3.850  16.114  2.4153 -3.3103  0.3230
 7876SOL    HW235265   3.094   3.851  16.031 -0.3255  0.5276  1.2076
 7877SOL     OW35266   3.317   3.569   8.309 -0.1508  0.8051  0.1494
 7877SOL    HW135267   3.397   3.621   8.307  1.3423 -1.5351 -1.6340
 7877SOL    HW235268   3.289   3.570   8.400  0.1063  0.0264  0.2354
 7878SOL     OW35269   1.465   4.249   6.320 -0.5310  0.1426  0.3567
 7878SOL    HW135270   1.511   4.333   6.319 -1.2928  0.5524  0.1632
 7878SOL    HW235271   1.406   4.249   6.395 -2.3156  3.1996 -1.0638
 7879SOL     OW35272   3.332   3.998   1.607 -0.2428  0.0179 -0.5013
 7879SOL    HW135273   3.316   4.047   1.688  0.7462  0.0770 -0.3438
 7879SOL    HW235274   3.363   3.914   1.641  0.1380 -0.2098 -1.4186
 7880SOL     OW35275   2.195   2.753   2.486 -0.5362 -0.3562  1.0049
 7880SOL    HW135276   2.235   2.669   2.508  2.1439  1.0671  1.5576
 7880SOL    HW235277   2.140   2.724   2.413  0.6484 -0.4430  0.1542
 7881SOL     OW35278   2.933   3.659   8.957 -0.1245 -0.1969  0.3140
 7881SOL    HW135279   2.890   3.744   8.964 -1.5221 -0.6287 -3.0175
 7881SOL    HW235280   3.018   3.675   8.998 -0.4558  1.4587  0.3664
 7882SOL     OW35281   1.631   1.173   6.076 -0.4346  0.9113 -0.2763
 7882SOL    HW135282   1.559   1.140   6.023 -0.3518 -0.3810  0.4246
 7882SOL    HW235283   1.632   1.256   6.028  2.7480 -0.1452 -2.0437
 7883SOL     OW35284   0.995   1.642   3.142 -0.2749 -0.5133 -0.0748
 7883SOL    HW135285   0.936   1.700   3.190 -0.0931 -0.7840  0.4832
 7883SOL    HW235286   1.060   1.617   3.209 -1.8878 -0.1471  1.6162
 7884SOL     OW35287   3.994   2.239  17.564  0.0714  0.2923 -1.2059
 7884SOL    HW135288   4.084   2.268  17.553  1.0202 -2.0500  0.3392
 7884SOL    HW235289   3.955   2.277  17.486 -1.0610  0.3058 -0.6330
 7885SOL     OW35290   3.711   2.340   8.114  0.1786 -0.2466  0.4731
 7885SOL    HW135291   3.762   2.381   8.044 -0.9231 -0.8810 -0.6972
 7885SOL    HW235292   3.656   2.414   8.138  1.7219  0.8532  0.6765
 7886SOL     OW35293   2.460   2.614   8.713 -0.2356  0.2596  0.0555
 7886SOL    HW135294   2.442   2.693   8.764  0.0511  0.1112  0.3873
 7886SOL    HW235295   2.555   2.609   8.720 -0.2557 -0.5982 -0.2661
 7887SOL     OW35296   1.824   0.003   2.435 -0.4431  0.1253  0.0697
 7887SOL    HW135297   1.892   0.059   2.474 -1.1264  0.3800  0.8861
 7887SOL    HW235298   1.870   4.656   2.440 -2.0370 -0.7709 -0.4435
 7888SOL     OW35299   3.226   2.777   4.121  0.0016  0.1581 -0.4494
 7888SOL    HW135300   3.199   2.698   4.167  0.1643  0.3216 -0.0716
 7888SOL    HW235301   3.176   2.771   4.040 -2.1697  1.1594  0.7805
 7889SOL     OW35302   3.102   0.089   4.304  0.3579 -0.0184 -0.0757
 7889SOL    HW135303   3.180   0.145   4.296  1.5121 -1.6854 -0.5145
 7889SOL    HW235304   3.086   0.083   4.210 -0.4817  0.5097  0.0330
 7890SOL     OW35305   0.297   2.389   9.363 -0.4414  0.1597  0.4255
 7890SOL    HW135306   0.341   2.331   9.425  1.5613  0.1787 -0.9649
 7890SOL    HW235307   0.278   2.458   9.427  0.5161  0.2235  0.6443
 7891SOL     OW35308   4.422   0.843  15.884 -0.5517  0.3390  0.0612
 7891SOL    HW135309   4.485   0.910  15.859 -2.1333  2.0550  0.5929
 7891SOL    HW235310   4.453   0.785  15.815  0.4436  0.8194  0.1037
 7892SOL     OW35311   3.753   0.132   3.306  0.4359 -0.1652  0.0462
 7892SOL    HW135312   3.845   0.158   3.313  0.0917  0.6225  1.5548
 7892SOL    HW235313   3.740   0.070   3.377  1.9847 -0.3033  0.2241
 7893SOL     OW35314   0.738   0.342  11.213 -0.2349  0.2275 -0.1345
 7893SOL    HW135315   0.699   0.411  11.267 -1.0955 -1.2800  1.1710
 7893SOL    HW235316   0.728   0.272  11.277  0.4386  0.9346  0.7352
 7894SOL     OW35317   2.984   3.510   0.109  0.7733  0.6570 -0.0942
 7894SOL    HW135318   2.936   3.429   0.094 -1.1137  1.6548  0.6272
 7894SOL    HW235319   2.906   3.565   0.112  2.1302  2.4973  1.8062
 7895SOL     OW35320   0.519   2.434   3.669 -0.8612 -0.5476 -0.5194
 7895SOL    HW135321   0.576   2.374   3.717  0.8798  1.7532  0.2774
 7895SOL    HW235322   0.473   2.467   3.745  0.7986 -1.4833  0.8865
 7896SOL     OW35323   4.085   2.029  13.723  0.4718 -0.4942  0.4687
 7896SOL    HW135324   4.083   1.991  13.635  1.1887 -1.7602  0.9885
 7896SOL    HW235325   4.039   2.107  13.693  1.0414 -0.0160  0.8303
 7897SOL     OW35326   0.503   4.381   2.319 -0.2703 -0.3612 -0.3974
 7897SOL    HW135327   0.429   4.324   2.299  1.1130 -1.5558 -2.0878
 7897SOL    HW235328   0.523   4.354   2.408  0.6190  1.6916  0.0379
 7898SOL     OW35329   4.514   0.018   4.006 -0.0784 -0.1875 -0.1380
 7898SOL    HW135330   4.430   0.061   3.994 -0.5354 -0.5046  1.9341
 7898SOL    HW235331   4.513   0.011   4.101 -0.7319  0.5714 -0.0876
 7899SOL     OW35332   1.486   4.516   9.560  0.4259 -0.1682 -0.6092
 7899SOL    HW135333   1.472   4.505   9.654  2.2819  2.3699 -0.0156
 7899SOL    HW235334   1.582   4.524   9.562  0.6707 -2.6812 -2.5420
 7900SOL     OW35335   1.996   1.686  12.661 -0.5298  0.1704 -0.6057
 7900SOL    HW135336   1.980   1.716  12.750  1.1263  0.2933 -0.3619
 7900SOL    HW235337   1.910   1.683  12.620 -1.4869 -0.0059  1.4074
 7901SOL     OW35338   0.520   4.714  14.916 -0.1978 -0.3498  0.0578
 7901SOL    HW135339   0.518   0.073  14.927 -0.1868 -0.2396 -0.8864
 7901SOL    HW235340   0.450   4.696  14.854  0.1854 -0.6606 -0.2784
 7902SOL     OW35341   3.355   0.467   6.182 -0.5408 -0.1422 -0.3382
 7902SOL    HW135342   3.373   0.395   6.242 -1.8501  0.4267  0.7273
 7902SOL    HW235343   3.287   0.422   6.133 -0.0840 -2.7244  1.3859
 7903SOL     OW35344   0.239   1.499   8.762  0.8886  0.3305  0.0902
 7903SOL    HW135345   0.328   1.487   8.796  0.5709 -0.4838  0.6514
 7903SOL    HW235346   0.205   1.573   8.812  1.3648  1.8191 -1.7968
 7904SOL     OW35347   4.128   4.364  15.985  0.0585 -0.1549 -0.0983
 7904SOL    HW135348   4.070   4.388  15.912  0.9018  1.0359 -0.3744
 7904SOL    HW235349   4.173   4.292  15.941 -1.9861 -0.6725 -1.3642
 7905SOL     OW35350   2.304   2.372   8.273 -0.4981  0.9227  0.4341
 7905SOL    HW135351   2.275   2.284   8.251  0.0052  0.4621  1.6105
 7905SOL    HW235352   2.318   2.367   8.367 -1.2991 -1.7193  0.4127
 7906SOL     OW35353   4.272   2.303   9.065 -0.3461  0.2514  0.0389
 7906SOL    HW135354   4.260   2.371   9.132  0.5583 -1.6790  2.1607
 7906SOL    HW235355   4.296   2.229   9.122 -0.3854 -0.0644 -0.3566
 7907SOL     OW35356   0.239   3.880   3.613  0.3431  0.0848  0.2812
 7907SOL    HW135357   0.223   3.808   3.674 -0.2464  1.3979  1.6574
 7907SOL    HW235358   0.334   3.880   3.597  0.3907 -0.9243  0.5360
 7908SOL     OW35359   4.673   3.912  15.523 -0.1183 -0.3763 -0.0491
 7908SOL    HW135360   4.579   3.912  15.508  0.1289  1.8508 -1.6013
 7908SOL    HW235361   4.692   3.836  15.467  0.6272  0.4198 -0.8611
 7909SOL     OW35362   1.209   2.014  12.331 -0.2655  0.6351  0.4365
 7909SOL    HW135363   1.289   2.056  12.363 -0.3540  2.4391 -1.7238
 7909SOL    HW235364   1.238   2.004  12.240 -0.5233  4.2603 -0.0489
 7910SOL     OW35365   4.719   3.703   9.189 -0.0056  0.3621 -0.2535
 7910SOL    HW135366   4.681   3.766   9.128  0.2846 -0.3155 -1.1397
 7910SOL    HW235367   0.058   3.749   9.224 -0.0767 -0.4621  0.9737
 7911SOL     OW35368   3.195   4.569   9.118  0.0255 -0.2471  0.2806
 7911SOL    HW135369   3.198   4.621   9.198  2.5050  0.8686 -0.5519
 7911SOL    HW235370   3.278   4.522   9.127 -0.2051 -1.0159 -1.7708
 7912SOL     OW35371   2.007   1.685   6.811  0.3556  0.1978  0.7510
 7912SOL    HW135372   1.952   1.748   6.858  0.7829  1.7751 -0.8647
 7912SOL    HW235373   1.969   1.600   6.835  1.5540 -0.9717 -1.4957
 7913SOL     OW35374   2.144   4.153   0.643  0.1564  0.2333 -0.4528
 7913SOL    HW135375   2.170   4.065   0.615 -0.8336 -0.7017  1.5463
 7913SOL    HW235376   2.212   4.187   0.700 -0.7989  0.1299  0.7346
 7914SOL     OW35377   0.512   4.169   9.878  0.0034 -0.1672  0.3943
 7914SOL    HW135378   0.491   4.262   9.880  0.9283 -0.0235  4.4524
 7914SOL    HW235379   0.592   4.167   9.827 -0.4231 -0.9409 -0.2381
 7915SOL     OW35380   2.826   1.283   7.709  0.4714 -0.6980 -0.0334
 7915SOL    HW135381   2.798   1.346   7.643  0.0997  0.6461  1.4211
 7915SOL    HW235382   2.763   1.211   7.708 -0.6583  0.2976  0.3215
 7916SOL     OW35383   2.523   2.169   2.135  0.2698  0.7987 -0.0011
 7916SOL    HW135384   2.591   2.207   2.081  0.8549  0.5593  0.5684
 7916SOL    HW235385   2.495   2.241   2.191 -0.2301  0.5555  0.0676
 7917SOL     OW35386   4.281   1.042  10.884  0.1915  0.7637 -0.6264
 7917SOL    HW135387   4.244   0.954  10.883  1.1282  0.3729 -1.8965
 7917SOL    HW235388   4.279   1.059  10.978 -4.4988 -0.3224 -0.5306
 7918SOL     OW35389   0.693   3.006   8.631 -0.0154  0.4858  0.3682
 7918SOL    HW135390   0.760   2.958   8.680 -1.2612  0.2580  1.8437
 7918SOL    HW235391   0.639   2.934   8.599 -1.7198  1.1358  1.8298
 7919SOL     OW35392   0.065   0.640  12.837 -0.0286  0.3491 -0.9249
 7919SOL    HW135393   0.084   0.704  12.905  1.6268  0.6430 -1.6686
 7919SOL    HW235394   4.709   0.632  12.860  0.2211 -0.2551 -0.1731
 7920SOL     OW35395   3.189   4.338  14.979 -0.4047  0.6399  0.1952
 7920SOL    HW135396   3.148   4.272  14.923 -1.4460  1.6005 -0.1634
 7920SOL    HW235397   3.148   4.409  14.930  0.1314  1.9935  1.7404
 7921SOL     OW35398   1.961   1.472   4.623  0.0072  0.2507 -0.1127
 7921SOL    HW135399   1.979   1.525   4.700  3.3086 -0.4899 -0.3888
 7921SOL    HW235400   1.878   1.509   4.594  0.5031  2.0178  0.7302
 7922SOL     OW35401   4.305   2.475   7.394  0.5376 -0.0643  0.1584
 7922SOL    HW135402   4.212   2.453   7.401  1.2209 -2.7249  0.8772
 7922SOL    HW235403   4.316   2.544   7.459  2.6646 -0.8532  0.6350
 7923SOL     OW35404   2.152   4.226   4.265  0.8810 -0.5718 -0.1086
 7923SOL    HW135405   2.195   4.196   4.345  0.7325 -0.1433  0.1297
 7923SOL    HW235406   2.137   4.318   4.286  1.8899 -1.0061  2.5642
 7924SOL     OW35407   1.149   1.589   9.550 -0.3049  0.7036 -0.4374
 7924SOL    HW135408   1.168   1.509   9.502 -0.9470 -1.4612  2.9751
 7924SOL    HW235409   1.129   1.553   9.636 -0.6414  1.0332 -0.3741
 7925SOL     OW35410   2.858   0.645  15.178  0.2379  0.0171 -0.4807
 7925SOL    HW135411   2.918   0.573  15.202  0.3361  0.7297  1.4386
 7925SOL    HW235412   2.775   0.606  15.207  1.5215 -0.5771  2.4029
 7926SOL     OW35413   3.967   4.188  13.949  0.4242  0.2377  0.9578
 7926SOL    HW135414   4.028   4.209  14.019  0.6704 -0.9662  1.0980
 7926SOL    HW235415   3.923   4.273  13.942  0.6294  0.3187  0.6283
 7927SOL     OW35416   3.663   0.518   3.687 -0.0547 -0.0188 -0.0325
 7927SOL    HW135417   3.748   0.558   3.669  0.2936 -0.9773 -0.5380
 7927SOL    HW235418   3.625   0.543   3.603  1.3952  1.5261 -0.2202
 7928SOL     OW35419   3.629   2.467   6.047 -0.0526  0.2004  0.0931
 7928SOL    HW135420   3.706   2.513   6.083 -0.7403  1.7538 -0.4405
 7928SOL    HW235421   3.577   2.457   6.127  2.3881  0.4257  1.7163
 7929SOL     OW35422   3.490   2.548   2.396 -0.0377 -0.2200 -0.0300
 7929SOL    HW135423   3.457   2.588   2.315  0.6254  1.2023  0.4146
 7929SOL    HW235424   3.554   2.483   2.366 -2.3621 -2.8930  0.8337
 7930SOL     OW35425   4.076   4.169   2.665 -0.5511  0.0171  0.0006
 7930SOL    HW135426   4.124   4.167   2.582 -1.1420  2.0949 -0.4088
 7930SOL    HW235427   3.986   4.161   2.632 -0.5196  1.0703 -0.3417
 7931SOL     OW35428   4.629   3.385   8.040 -0.0909  0.1517  0.4414
 7931SOL    HW135429   4.723   3.378   8.058 -0.4368 -1.6998  1.5002
 7931SOL    HW235430   4.601   3.422   8.124  2.7793  1.7674  0.6745
 7932SOL     OW35431   0.481   3.439  11.138  0.1635 -0.1380 -0.5649
 7932SOL    HW135432   0.480   3.375  11.066 -0.5783 -0.5910 -0.1471
 7932SOL    HW235433   0.407   3.498  11.126  0.5249  0.0135 -2.0768
 7933SOL     OW35434   3.530   2.343   9.625 -0.3846  0.3490 -0.4237
 7933SOL    HW135435   3.613   2.327   9.580 -0.2084  0.3718 -0.1068
 7933SOL    HW235436   3.546   2.408   9.694 -0.4433  0.9019 -0.9225
 7934SOL     OW35437   3.567   4.210   9.541 -0.0632  0.2735  0.1984
 7934SOL    HW135438   3.547   4.118   9.526  2.4894 -0.5614  1.8205
 7934SOL    HW235439   3.605   4.241   9.459  1.0533  3.3330  1.8483
 7935SOL     OW35440   2.000   0.917  10.775  0.3849  0.1104  0.4451
 7935SOL    HW135441   1.930   0.937  10.838  2.1702  0.7994  2.2017
 7935SOL    HW235442   2.065   0.966  10.825  0.5490 -0.4988  0.8305
 7936SOL     OW35443   3.268   0.254  17.367  0.1512 -0.1592 -0.5943
 7936SOL    HW135444   3.298   0.205  17.444  0.1820  1.2283  0.2857
 7936SOL    HW235445   3.322   0.333  17.373 -0.5382  0.4455 -2.5089
 7937SOL     OW35446   4.119   3.311   3.104 -0.2034  0.4541  0.9733
 7937SOL    HW135447   4.127   3.395   3.058 -0.1438  0.2040  0.5288
 7937SOL    HW235448   4.200   3.275   3.068 -0.0999  1.2358  0.4108
 7938SOL     OW35449   1.863   1.662   3.432 -0.1704  0.4254 -0.2673
 7938SOL    HW135450   1.864   1.752   3.465 -1.5249  0.1927  0.4068
 7938SOL    HW235451   1.843   1.607   3.508  1.4772 -0.1282 -0.2219
 7939SOL     OW35452   3.077   3.368   4.825  0.1620 -0.2112  0.2178
 7939SOL    HW135453   3.038   3.402   4.906  1.3100 -0.6105  0.9431
 7939SOL    HW235454   3.030   3.420   4.761  1.5692  1.9317  0.9093
 7940SOL     OW35455   3.223   4.463  15.745 -0.1951 -0.3027  0.4390
 7940SOL    HW135456   3.173   4.403  15.690 -1.5098  1.0353  0.1679
 7940SOL    HW235457   3.154   4.484  15.808  0.5863  1.8876  0.5790
 7941SOL     OW35458   1.853   3.946   4.684  0.5780 -0.9743  0.4729
 7941SOL    HW135459   1.860   3.892   4.763  1.4953 -0.1294  0.9759
 7941SOL    HW235460   1.758   3.959   4.685  0.7400  0.3657 -3.8026
 7942SOL     OW35461   2.799   0.307   4.202 -0.2285 -0.4911 -0.4546
 7942SOL    HW135462   2.783   0.326   4.110  0.4897  0.3269 -0.4133
 7942SOL    HW235463   2.882   0.352   4.222 -0.2493 -0.0755 -1.2994
 7943SOL     OW35464   3.232   1.526   6.183 -0.0860  0.1533  0.6841
 7943SOL    HW135465   3.287   1.514   6.106  1.4736  0.6690  1.7213
 7943SOL    HW235466   3.305   1.534   6.244 -1.1494  0.8565  1.8681
 7944SOL     OW35467   3.636   1.421   4.950  0.3240  0.1339 -0.3430
 7944SOL    HW135468   3.561   1.461   4.993 -0.6326  0.1632 -2.0287
 7944SOL    HW235469   3.711   1.478   4.968  2.4406 -3.5532  2.4539
 7945SOL     OW35470   0.547   0.917   6.492  0.2347  0.1713 -0.3371
 7945SOL    HW135471   0.503   0.942   6.412 -1.3244  2.2510  1.1893
 7945SOL    HW235472   0.515   0.987   6.549  0.1726  0.2302 -0.4461
 7946SOL     OW35473   4.159   0.653  14.666 -0.2283 -0.6044 -0.1095
 7946SOL    HW135474   4.161   0.673  14.573  1.9235  0.8166  0.2463
 7946SOL    HW235475   4.178   0.740  14.700 -0.4238 -0.0195 -1.5257
 7947SOL     OW35476   1.396   1.730   2.391 -0.4566 -0.0215 -0.3475
 7947SOL    HW135477   1.422   1.771   2.308 -3.0891  0.9339 -0.6915
 7947SOL    HW235478   1.310   1.695   2.371 -0.3327  0.3289 -1.5191
 7948SOL     OW35479   3.836   1.569   5.037  0.2530  0.0094 -0.3752
 7948SOL    HW135480   3.909   1.614   5.080  0.4219 -1.2398  0.6462
 7948SOL    HW235481   3.758   1.597   5.084 -0.0373  0.4296 -1.1093
 7949SOL     OW35482   3.383   4.699   4.306  0.1166 -0.1752  0.0266
 7949SOL    HW135483   3.458   4.644   4.283  0.6620  0.9436 -0.8926
 7949SOL    HW235484   3.428   0.040   4.340 -0.3710 -0.5733  1.6060
 7950SOL     OW35485   1.061   3.840  12.238  0.3836  0.2165 -0.0572
 7950SOL    HW135486   1.085   3.855  12.330 -1.0047 -4.0484  0.9660
 7950SOL    HW235487   1.043   3.747  12.249  1.4417 -0.0695 -0.7155
 7951SOL     OW35488   1.652   1.471   8.741  0.7649 -0.3943 -0.5849
 7951SOL    HW135489   1.710   1.409   8.698 -2.0850 -1.5928 -2.6957
 7951SOL    HW235490   1.696   1.553   8.718  1.1399 -0.3229  0.3610
 7952SOL     OW35491   2.445   3.155   6.553  0.5491  0.1700  0.2513
 7952SOL    HW135492   2.476   3.064   6.548  0.2425  0.1436 -1.2772
 7952SOL    HW235493   2.388   3.146   6.629 -1.3228  1.8337 -0.9734
 7953SOL     OW35494   3.069   4.519   5.147  0.2624 -0.0826 -0.0967
 7953SOL    HW135495   3.097   4.441   5.196 -0.2784  0.6221  1.3348
 7953SOL    HW235496   2.983   4.510   5.107 -0.5585 -1.2004  1.9276
 7954SOL     OW35497   1.950   0.197  17.654 -0.1632  0.4833 -0.1761
 7954SOL    HW135498   1.950   0.228   0.000 -1.7097  0.9949 -0.3507
 7954SOL    HW235499   1.894   0.120  17.660  0.5464  0.0625  0.9693
 7955SOL     OW35500   1.269   2.632   5.622 -0.1757 -0.2943  0.1399
 7955SOL    HW135501   1.266   2.566   5.552  1.9599 -1.2678  0.9698
 7955SOL    HW235502   1.230   2.593   5.701  1.8044 -0.3362  1.0819
 7956SOL     OW35503   0.201   3.248  11.123 -0.9273  0.1450  0.6219
 7956SOL    HW135504   0.249   3.172  11.157 -1.5012  0.3450  1.8914
 7956SOL    HW235505   0.200   3.230  11.029  1.5088 -1.1981  0.8465
 7957SOL     OW35506   3.429   3.731  11.801 -0.3370 -0.2784  0.2707
 7957SOL    HW135507   3.498   3.680  11.759  0.8853  1.7877 -0.2720
 7957SOL    HW235508   3.454   3.822  11.784  3.3237 -0.9784  1.9467
 7958SOL     OW35509   2.064   0.802   4.282 -0.0704 -0.0597 -0.5037
 7958SOL    HW135510   2.159   0.805   4.273 -0.0132  2.3071  0.7526
 7958SOL    HW235511   2.043   0.717   4.244 -0.4079 -1.0348  1.8267
 7959SOL     OW35512   0.139   0.460   6.782 -0.0363  0.3016  0.7149
 7959SOL    HW135513   0.218   0.495   6.741  1.0468 -1.7875  1.0405
 7959SOL    HW235514   0.100   0.536   6.826  0.6155  1.1065 -0.1066
 7960SOL     OW35515   3.745   3.335   6.584 -0.0182 -0.0254 -0.1162
 7960SOL    HW135516   3.768   3.395   6.655  1.2335 -0.4217 -0.1950
 7960SOL    HW235517   3.735   3.399   6.513  0.2500  1.0892  0.8529
 7961SOL     OW35518   4.028   4.456   7.453 -0.3917 -0.1412 -0.3739
 7961SOL    HW135519   4.016   4.513   7.377 -0.4403 -0.6940 -0.7851
 7961SOL    HW235520   4.120   4.476   7.470 -0.8401  0.8752  0.8071
 7962SOL     OW35521   3.225   3.533   2.424  0.1285  0.2089  0.0554
 7962SOL    HW135522   3.251   3.607   2.479  0.7835 -0.7200  0.9841
 7962SOL    HW235523   3.131   3.550   2.426  0.3001  1.0428  0.9983
 7963SOL     OW35524   2.162   1.483  15.271 -0.1088  0.3434 -0.1227
 7963SOL    HW135525   2.186   1.569  15.235 -0.8004 -0.2851 -2.1294
 7963SOL    HW235526   2.114   1.443  15.198  0.0972 -1.1342  0.5603
 7964SOL     OW35527   4.061   1.460   0.506  0.2816 -0.4575  0.0858
 7964SOL    HW135528   3.986   1.458   0.566  0.5069  0.0703  0.3832
 7964SOL    HW235529   4.120   1.509   0.563  1.6761 -1.2372 -0.6873
 7965SOL     OW35530   3.811   4.094   0.138  0.7745  0.5039 -0.7649
 7965SOL    HW135531   3.870   4.041   0.085  0.9498 -1.3774  1.3307
 7965SOL    HW235532   3.859   4.175   0.124  0.4743  0.6780 -0.8012
 7966SOL     OW35533   0.004   2.525   9.123  1.0485  0.1241 -0.0337
 7966SOL    HW135534   0.026   2.567   9.206 -0.4512 -1.7563  1.3078
 7966SOL    HW235535   4.669   2.472   9.157  1.8921 -1.3034 -0.4871
 7967SOL     OW35536   2.086   1.038   4.637 -0.1036  0.3045  0.0277
 7967SOL    HW135537   2.035   1.051   4.557  1.1840 -0.2984 -0.8756
 7967SOL    HW235538   2.167   1.000   4.603 -0.8737  0.4057 -1.9020
 7968SOL     OW35539   3.154   1.347   3.593 -0.3934 -0.0354 -0.9491
 7968SOL    HW135540   3.172   1.347   3.687  2.1631 -2.6578 -1.4494
 7968SOL    HW235541   3.061   1.327   3.602 -0.5636  0.8516 -0.7383
 7969SOL     OW35542   3.527   3.187   2.493 -0.1081  0.6516  0.1743
 7969SOL    HW135543   3.473   3.257   2.457 -0.3093  0.5991  0.3708
 7969SOL    HW235544   3.589   3.166   2.423 -0.1531  1.6029 -0.1467
 7970SOL     OW35545   2.832   1.983   2.785  0.5040 -0.1259 -0.4431
 7970SOL    HW135546   2.895   1.990   2.714  0.1430 -2.6115 -0.9942
 7970SOL    HW235547   2.881   1.935   2.852 -0.8526 -0.5371  0.2602
 7971SOL     OW35548   0.074   1.806  11.478 -0.4227 -0.1132 -0.1172
 7971SOL    HW135549   0.124   1.850  11.409  0.8288 -1.9767 -0.4008
 7971SOL    HW235550   0.015   1.760  11.418 -0.2428  0.4275 -0.7107
 7972SOL     OW35551   2.354   2.465  13.416  0.9353  0.3083 -0.1784
 7972SOL    HW135552   2.377   2.556  13.433 -0.4849  0.4663  0.9177
 7972SOL    HW235553   2.301   2.471  13.337  0.7575  1.6757  0.0455
 7973SOL     OW35554   3.945   4.298   9.069 -0.0476 -0.2323  0.4601
 7973SOL    HW135555   3.900   4.228   9.116 -0.7082  0.3513  0.6957
 7973SOL    HW235556   3.971   4.239   8.998 -1.1257  0.5811 -0.6220
 7974SOL     OW35557   0.874   1.083   8.302 -0.2813  0.1911 -0.0536
 7974SOL    HW135558   0.827   1.002   8.322 -1.2293  0.8967  0.5269
 7974SOL    HW235559   0.814   1.119   8.237  1.8343 -1.8781 -3.1741
 7975SOL     OW35560   1.142   2.382  10.057 -0.5904 -0.2251  0.1206
 7975SOL    HW135561   1.082   2.400  10.129  1.6584  1.1757  1.6527
 7975SOL    HW235562   1.217   2.358  10.112 -0.0633 -0.7480 -0.8225
 7976SOL     OW35563   4.135   1.745  14.384  0.8622 -0.2770 -0.3553
 7976SOL    HW135564   4.107   1.658  14.355  0.8445 -0.3818 -0.0299
 7976SOL    HW235565   4.154   1.733  14.477  0.6347  2.9963  0.1305
 7977SOL     OW35566   2.891   2.325   7.969  0.2069  0.1373 -0.0449
 7977SOL    HW135567   2.886   2.315   8.064  1.2282  0.5171  0.0431
 7977SOL    HW235568   2.801   2.295   7.957  0.1843 -0.4128  1.4962
 7978SOL     OW35569   0.972   2.503  12.974 -0.1008  0.0248  0.0108
 7978SOL    HW135570   0.914   2.530  13.045 -2.1857 -3.1980 -0.4379
 7978SOL    HW235571   0.987   2.581  12.921 -1.4730 -0.7339 -1.4795
 7979SOL     OW35572   0.087   1.402  15.081  0.0942  0.2982  0.2846
 7979SOL    HW135573   0.067   1.465  15.149  1.1313  0.5283  0.3883
 7979SOL    HW235574   0.000   1.383  15.045 -1.0461 -0.0208  3.2811
 7980SOL     OW35575   1.436   0.612   2.276 -0.2098 -0.1834  0.4334
 7980SOL    HW135576   1.432   0.542   2.212 -0.5550  0.0983  0.1451
 7980SOL    HW235577   1.493   0.572   2.341 -0.0079  0.4721  0.6678
 7981SOL     OW35578   0.677   3.201   4.720  0.0299 -0.1346  0.0980
 7981SOL    HW135579   0.617   3.127   4.720  0.8598 -0.8023 -2.6807
 7981SOL    HW235580   0.764   3.163   4.736 -0.0656 -0.9067 -1.2304
 7982SOL     OW35581   0.532   1.486   8.887  0.0638 -0.5780 -0.8999
 7982SOL    HW135582   0.531   1.574   8.925 -0.8455 -1.0285  0.1475
 7982SOL    HW235583   0.618   1.455   8.914  0.0261  0.0849  0.0132
 7983SOL     OW35584   4.258   1.809   2.629 -0.9732 -0.3209 -0.5966
 7983SOL    HW135585   4.352   1.822   2.643 -0.9938  0.3235 -1.0777
 7983SOL    HW235586   4.251   1.806   2.534  0.2430  0.9794 -0.7372
 7984SOL     OW35587   3.957   1.142  10.963 -0.3768  0.0845 -0.5751
 7984SOL    HW135588   4.033   1.199  10.947  1.7835 -2.8885 -0.7964
 7984SOL    HW235589   3.995   1.084  11.028 -0.9798 -1.4475 -1.5983
 7985SOL     OW35590   1.882   3.542   5.230  0.2553  0.1263 -0.1349
 7985SOL    HW135591   1.802   3.541   5.283  0.4370 -0.6944  0.1211
 7985SOL    HW235592   1.924   3.624   5.255  0.9055 -0.6243  1.2493
 7986SOL     OW35593   1.931   3.757   5.398 -0.0512  0.3749  0.0212
 7986SOL    HW135594   1.993   3.809   5.347 -0.5492  0.0972 -0.8746
 7986SOL    HW235595   1.975   3.748   5.483  0.5516 -0.8288 -0.4305
 7987SOL     OW35596   0.578   3.452   3.003  0.1358  0.0088 -0.1070
 7987SOL    HW135597   0.573   3.419   3.093 -0.3254 -0.5639 -0.3377
 7987SOL    HW235598   0.631   3.388   2.956  0.5845  0.9330 -0.8582
 7988SOL     OW35599   4.440   0.542   2.880 -0.5320  0.0816  0.0189
 7988SOL    HW135600   4.490   0.485   2.821 -2.5406 -0.3461 -1.2668
 7988SOL    HW235601   4.364   0.552   2.823  0.1688  1.6561 -0.6616
 7989SOL     OW35602   1.058   1.495   6.747 -0.0727 -0.6043 -0.7520
 7989SOL    HW135603   1.075   1.405   6.720 -1.6900 -1.2483  0.3796
 7989SOL    HW235604   1.068   1.494   6.842 -0.6352  3.0336 -0.6412
 7990SOL     OW35605   2.342   3.892   2.013  0.3205 -0.0323  0.3187
 7990SOL    HW135606   2.419   3.859   1.966  0.4648  0.1132  0.4535
 7990SOL    HW235607   2.392   3.917   2.091  1.9730 -2.4042  0.0181
 7991SOL     OW35608   3.958   0.869   7.265 -0.2262 -0.3496 -0.0498
 7991SOL    HW135609   3.972   0.958   7.233 -0.7847 -0.0233  0.6432
 7991SOL    HW235610   3.952   0.816   7.185 -1.8317  0.2498 -0.3111
 7992SOL     OW35611   1.389   3.125   4.266 -0.7492  0.3447  0.1621
 7992SOL    HW135612   1.387   3.221   4.269 -0.2246  0.3345  0.9270
 7992SOL    HW235613   1.441   3.121   4.185 -0.8981 -0.1153  0.0905
 7993SOL     OW35614   2.336   1.620  10.781  0.7128 -0.8793  0.3614
 7993SOL    HW135615   2.334   1.568  10.700 -2.8908 -0.2256  0.0392
 7993SOL    HW235616   2.254   1.589  10.819 -0.6751  0.0403 -1.8823
 7994SOL     OW35617   2.594   3.209  11.363 -0.4109 -0.1394  0.2523
 7994SOL    HW135618   2.544   3.128  11.349 -1.2614  0.5682 -0.7429
 7994SOL    HW235619   2.526   3.269  11.393 -0.3303 -0.2635  0.6841
 7995SOL     OW35620   1.458   2.669  16.475 -0.4253 -0.6174 -0.4899
 7995SOL    HW135621   1.538   2.646  16.521 -0.4635 -0.9385 -0.5895
 7995SOL    HW235622   1.400   2.667  16.552 -0.7382  1.2739 -0.6746
 7996SOL     OW35623   2.656   2.522  16.993 -0.3899 -0.2034  0.2594
 7996SOL    HW135624   2.592   2.582  17.032 -1.8387 -1.0570 -0.7721
 7996SOL    HW235625   2.659   2.455  17.062 -2.4495 -0.3020  0.2705
 7997SOL     OW35626   0.378   2.404   1.559  0.1747  0.0969 -0.4768
 7997SOL    HW135627   0.389   2.482   1.506 -1.4604 -0.4444 -1.6437
 7997SOL    HW235628   0.452   2.413   1.619  0.0735  0.7566 -0.4538
 7998SOL     OW35629   4.590   1.526  10.119 -0.3125  0.6841 -0.4865
 7998SOL    HW135630   4.672   1.478  10.135 -1.8127 -1.5491  0.5394
 7998SOL    HW235631   4.567   1.559  10.206 -1.9532  0.6068 -0.8928
 7999SOL     OW35632   3.380   2.364   5.472 -0.0462 -0.2414  0.2216
 7999SOL    HW135633   3.340   2.433   5.419  1.6247  1.1554  0.7839
 7999SOL    HW235634   3.301   2.322   5.507 -0.0142  0.7167  1.4462
 8000SOL     OW35635   2.523   1.044   4.243  0.2236 -0.5138 -0.0221
 8000SOL    HW135636   2.549   1.136   4.249  0.2513 -0.6267  1.7942
 8000SOL    HW235637   2.591   1.002   4.296 -0.3842  0.7885  1.8144
 8001SOL     OW35638   3.480   4.371  15.683  0.5777  0.2120  0.0215
 8001SOL    HW135639   3.464   4.390  15.591  1.2138 -1.5778 -0.4553
 8001SOL    HW235640   3.389   4.383  15.713  1.0523  1.6244  0.8811
 8002SOL     OW35641   2.642   1.211  13.076 -0.3004 -0.6096 -0.0163
 8002SOL    HW135642   2.718   1.230  13.132 -0.2411  1.1330 -0.7030
 8002SOL    HW235643   2.681   1.218  12.988  1.8303 -1.3923  0.8704
 8003SOL     OW35644   2.441   0.061  15.111  0.0022  0.0035 -0.6316
 8003SOL    HW135645   2.460   0.031  15.023  0.7748 -0.8511 -0.1731
 8003SOL    HW235646   2.374   4.731  15.128  0.6844 -0.8348 -1.2663
 8004SOL     OW35647   2.061   0.990   9.452 -0.4555  0.4646 -0.5540
 8004SOL    HW135648   2.156   0.979   9.457 -0.2989  2.4698  0.8302
 8004SOL    HW235649   2.032   0.910   9.497 -3.4423  1.1179 -1.3044
 8005SOL     OW35650   0.344   1.024  10.903  0.0687  0.5748  0.8288
 8005SOL    HW135651   0.324   1.019  10.997 -0.5549  1.8885  0.7553
 8005SOL    HW235652   0.436   1.001  10.918  0.4134  0.0989 -2.0387
 8006SOL     OW35653   0.179   0.469  16.051  0.0117 -0.0987  0.6941
 8006SOL    HW135654   0.204   0.387  16.008  2.0353  1.5543 -1.3137
 8006SOL    HW235655   0.168   0.524  15.973 -2.4804  0.5435  1.4867
 8007SOL     OW35656   0.034   4.280   7.549  0.2045  0.2460  0.7938
 8007SOL    HW135657   4.695   4.224   7.570  0.8505 -0.8786  0.1094
 8007SOL    HW235658   4.731   4.346   7.492 -1.7425  0.0183  1.8932
 8008SOL     OW35659   1.469   3.075   0.456  0.2440 -0.4441 -0.0734
 8008SOL    HW135660   1.441   3.092   0.366  0.9641  0.5160 -0.1179
 8008SOL    HW235661   1.539   3.138   0.472  1.5935 -1.2643 -2.8111
 8009SOL     OW35662   3.171   3.964   2.813 -0.5292 -0.0409  0.2949
 8009SOL    HW135663   3.161   3.886   2.867 -0.4812  0.1664  0.6000
 8009SOL    HW235664   3.231   4.021   2.860  0.1194 -0.1743 -0.3668
 8010SOL     OW35665   0.984   1.354   2.546 -0.0478 -0.2054  0.2475
 8010SOL    HW135666   0.900   1.354   2.499  0.3367  0.6899 -0.4362
 8010SOL    HW235667   0.962   1.293   2.616 -0.8511  0.4869  0.5937
 8011SOL     OW35668   2.290   1.732   2.043 -0.9031  0.1411  0.0546
 8011SOL    HW135669   2.292   1.737   1.948 -1.1645  1.7235  0.1314
 8011SOL    HW235670   2.290   1.827   2.053 -2.3650 -0.0494  1.9195
 8012SOL     OW35671   4.377   3.909  15.457 -0.2384 -0.3332  0.0204
 8012SOL    HW135672   4.406   3.930  15.368  1.4694 -1.2976  0.3599
 8012SOL    HW235673   4.324   3.829  15.446  3.0347 -2.2072 -2.0433
 8013SOL     OW35674   0.057   0.292   1.574  0.4905 -0.1654  0.0286
 8013SOL    HW135675   4.735   0.261   1.505 -1.2066  3.2256 -0.0859
 8013SOL    HW235676   0.141   0.252   1.550  0.2091 -1.3962  1.1372
 8014SOL     OW35677   4.619   1.310   6.702 -0.3340 -0.1143  0.0859
 8014SOL    HW135678   4.528   1.283   6.688 -0.1974 -0.6766  0.2643
 8014SOL    HW235679   4.595   1.372   6.771 -0.4404  2.0460 -1.9121
 8015SOL     OW35680   4.004   0.338   3.522  0.2075 -0.0180  0.3324
 8015SOL    HW135681   4.011   0.283   3.444 -2.9386 -1.6419  1.1928
 8015SOL    HW235682   4.065   0.292   3.579  0.6649 -1.1796 -1.1058
 8016SOL     OW35683   0.961   3.184  12.003 -0.4452  0.2774 -0.2504
 8016SOL    HW135684   0.903   3.242  12.052  1.5205  2.0577 -0.0655
 8016SOL    HW235685   1.003   3.241  11.940 -1.6112  2.7455  1.2068
 8017SOL     OW35686   2.458   3.042   5.486 -0.0583  0.0597  0.6165
 8017SOL    HW135687   2.536   3.068   5.438 -0.1671 -1.4099 -0.3795
 8017SOL    HW235688   2.490   2.997   5.564  2.5885 -0.6471 -0.8815
 8018SOL     OW35689   0.976   1.943   7.229  0.3632 -0.4125 -0.0273
 8018SOL    HW135690   0.893   1.910   7.196  0.3629  0.4742 -0.9058
 8018SOL    HW235691   0.968   1.927   7.323  1.3267 -2.2291 -0.2572
 8019SOL     OW35692   1.475   1.275   3.304  0.4629 -0.3079 -0.2517
 8019SOL    HW135693   1.468   1.216   3.379  0.4343 -0.4791 -0.3889
 8019SOL    HW235694   1.538   1.338   3.339  1.0590 -1.7505  1.2666
 8020SOL     OW35695   0.688   3.725   4.179 -0.4570  0.3175  0.2380
 8020SOL    HW135696   0.651   3.642   4.150  0.1577  0.1906 -0.1952
 8020SOL    HW235697   0.753   3.697   4.244 -0.7155 -0.2488  0.2427
 8021SOL     OW35698   2.713   0.809   3.462 -0.0632  0.2105 -0.0471
 8021SOL    HW135699   2.758   0.737   3.506 -1.1182  0.7905  1.9890
 8021SOL    HW235700   2.729   0.879   3.525  1.6536 -0.9049  0.7357
 8022SOL     OW35701   2.690   2.725   2.371 -0.2095 -0.1855 -0.0528
 8022SOL    HW135702   2.623   2.728   2.439 -0.1980  1.1478 -0.1003
 8022SOL    HW235703   2.667   2.647   2.321  3.4212 -1.9690  1.0691
 8023SOL     OW35704   1.051   2.530  10.538  0.4736  0.1324  0.2564
 8023SOL    HW135705   1.056   2.435  10.530  0.2346  0.1064  0.4178
 8023SOL    HW235706   1.134   2.544  10.584  0.8836  0.2480 -0.5223
 8024SOL     OW35707   0.933   1.300   3.532  0.4876  0.3058 -0.5366
 8024SOL    HW135708   0.958   1.387   3.499 -0.3759  1.1077  0.9501
 8024SOL    HW235709   1.023   1.277   3.558 -0.2283 -0.0558  1.6669
 8025SOL     OW35710   3.247   0.486   8.912 -0.5937  0.4069 -0.5382
 8025SOL    HW135711   3.269   0.431   8.986  0.3278 -0.2696 -1.3188
 8025SOL    HW235712   3.164   0.523   8.943 -0.8077 -0.8187  0.3327
 8026SOL     OW35713   4.700   1.682   3.824 -0.2526  0.1026  0.3827
 8026SOL    HW135714   4.661   1.681   3.911 -0.2353  0.2079  0.3919
 8026SOL    HW235715   4.637   1.745   3.788 -1.6375 -1.6709 -0.2874
 8027SOL     OW35716   0.257   2.751   6.706 -0.0812 -0.1062 -0.0786
 8027SOL    HW135717   0.271   2.845   6.693  0.1234 -0.0971  0.2178
 8027SOL    HW235718   0.167   2.746   6.737 -0.2802 -0.1935 -0.6657
 8028SOL     OW35719   4.002   0.715  11.806  0.2969 -0.0188 -0.6665
 8028SOL    HW135720   4.048   0.634  11.784  0.0598 -1.0474  2.5399
 8028SOL    HW235721   4.070   0.776  11.779  1.1265 -1.2852 -1.4593
 8029SOL     OW35722   3.153   4.552   0.376  0.1498 -0.6758  0.4109
 8029SOL    HW135723   3.248   4.555   0.381  0.2859  0.1042 -2.4024
 8029SOL    HW235724   3.138   4.640   0.341  1.5914 -0.9463 -0.8599
 8030SOL     OW35725   4.455   1.451  11.284 -0.1339  0.3892 -0.1705
 8030SOL    HW135726   4.395   1.412  11.347 -2.2149  1.0676 -1.7175
 8030SOL    HW235727   4.397   1.502  11.226 -2.5664  0.4976  2.3604
 8031SOL     OW35728   0.757   0.814   8.251  0.0010 -0.3404 -0.3814
 8031SOL    HW135729   0.722   0.808   8.162 -0.6582  0.6260 -0.1837
 8031SOL    HW235730   0.823   0.744   8.245  0.1828 -0.1842 -0.2062
 8032SOL     OW35731   3.351   1.186   5.791  0.7414 -0.3714  0.7079
 8032SOL    HW135732   3.354   1.205   5.697 -1.7363  0.6789  0.8238
 8032SOL    HW235733   3.262   1.151   5.801  1.4787 -2.8291 -1.0616
 8033SOL     OW35734   0.834   2.341   9.117 -0.0983 -0.2060 -0.2116
 8033SOL    HW135735   0.822   2.246   9.119  0.9145 -0.3208  1.1244
 8033SOL    HW235736   0.851   2.348   9.211  0.9028  1.5544 -0.5323
 8034SOL     OW35737   3.480   2.951   3.750 -0.2152  0.0944  0.0113
 8034SOL    HW135738   3.541   2.878   3.765  1.9434  1.7907 -0.5799
 8034SOL    HW235739   3.450   2.966   3.840 -2.1019  1.7744 -0.9288
 8035SOL     OW35740   3.336   1.239   5.238 -0.3257 -0.3068  0.2360
 8035SOL    HW135741   3.372   1.320   5.274 -1.2170  0.4993 -0.6575
 8035SOL    HW235742   3.268   1.264   5.175  0.6526 -2.4331 -1.6560
 8036SOL     OW35743   3.708   1.400   7.723  0.9039 -0.5682  0.1155
 8036SOL    HW135744   3.715   1.314   7.764  1.5653 -0.2546  0.6636
 8036SOL    HW235745   3.725   1.467   7.788 -0.3103 -0.5951  0.4402
 8037SOL     OW35746   0.625   0.918   1.021  0.2097  0.1013  0.0853
 8037SOL    HW135747   0.585   1.000   1.048 -0.0349 -1.1724  3.6363
 8037SOL    HW235748   0.587   0.856   1.083  1.3379  0.7249  1.3864
 8038SOL     OW35749   3.818   2.198   0.034  0.6923 -0.0230  0.2357
 8038SOL    HW135750   3.868   2.170  17.702 -2.4934 -1.3674 -1.3251
 8038SOL    HW235751   3.825   2.125   0.095  3.9213 -0.6214 -0.8345
 8039SOL     OW35752   2.399   4.482  16.028  0.3579  0.0579  0.2225
 8039SOL    HW135753   2.471   4.440  16.075  1.2697  1.1622 -0.1644
 8039SOL    HW235754   2.441   4.566  16.007  0.0236  0.0125 -0.6235
 8040SOL     OW35755   3.741   1.651  17.666  0.0002 -0.0431 -0.2650
 8040SOL    HW135756   3.761   1.557  17.663 -0.1664 -0.1301  1.5542
 8040SOL    HW235757   3.650   1.654  17.637 -0.7286 -0.2648  2.0869
 8041SOL     OW35758   0.510   1.558  14.396  0.8840  0.3892  0.3786
 8041SOL    HW135759   0.571   1.583  14.466  0.2273  0.0756  1.0690
 8041SOL    HW235760   0.476   1.477  14.433 -1.5791  1.7103  1.0183
 8042SOL     OW35761   3.928   1.682   8.942  0.6928 -0.1956  0.0998
 8042SOL    HW135762   3.996   1.725   8.889 -0.0643  1.0310  0.1253
 8042SOL    HW235763   3.855   1.683   8.880 -0.4837 -1.1383  1.4875
 8043SOL     OW35764   3.859   4.587   1.301 -0.1908 -0.3697 -0.1815
 8043SOL    HW135765   3.919   4.536   1.355  0.8304  0.0865 -0.8756
 8043SOL    HW235766   3.914   4.616   1.228  0.4526  0.8785  0.7962
 8044SOL     OW35767   3.113   3.051   8.131 -0.0974 -0.9104 -0.1420
 8044SOL    HW135768   3.022   3.029   8.152 -0.3875 -0.7227 -1.2022
 8044SOL    HW235769   3.106   3.146   8.123 -0.9722 -0.8316  1.5617
 8045SOL     OW35770   1.705   1.536   3.700 -0.1974 -0.2037  0.2266
 8045SOL    HW135771   1.743   1.609   3.749  0.2629  1.0387 -2.0084
 8045SOL    HW235772   1.676   1.484   3.775  0.8330  0.5210  1.1322
 8046SOL     OW35773   0.754   3.215  10.284  0.2592  0.0506 -0.0489
 8046SOL    HW135774   0.748   3.227  10.379  1.2032  0.9594 -0.1032
 8046SOL    HW235775   0.803   3.133  10.284 -0.2545 -0.2435 -2.4194
 8047SOL     OW35776   4.642   3.896   6.459 -0.6711 -0.0090 -0.1640
 8047SOL    HW135777   4.566   3.879   6.515  0.7043 -0.0937  1.6381
 8047SOL    HW235778   4.633   3.821   6.400  1.2519 -0.3320 -0.0313
 8048SOL     OW35779   4.141   1.626   5.671 -0.2532  0.2817 -0.3424
 8048SOL    HW135780   4.175   1.710   5.700 -0.4689  0.0626  0.5386
 8048SOL    HW235781   4.173   1.630   5.581  1.7771 -0.6576  0.3423
 8049SOL     OW35782   1.651   4.116   2.430 -0.3682 -0.2819  0.0445
 8049SOL    HW135783   1.724   4.062   2.402  0.2338 -0.6967  2.4404
 8049SOL    HW235784   1.581   4.051   2.432 -0.2393 -0.3457  2.6638
 8050SOL     OW35785   2.669   3.249   8.175  0.3070  0.4558  0.0147
 8050SOL    HW135786   2.697   3.334   8.209 -1.7434  0.9373  0.5491
 8050SOL    HW235787   2.614   3.227   8.250 -0.9100  0.3301 -0.9154
 8051SOL     OW35788   3.249   2.240  13.943 -0.5036  0.0035  0.1782
 8051SOL    HW135789   3.314   2.309  13.957  0.7363 -1.2183  0.4453
 8051SOL    HW235790   3.186   2.271  14.008 -0.5139  0.6758 -0.1528
 8052SOL     OW35791   1.801   3.395   4.334 -0.2584  0.4019 -0.6210
 8052SOL    HW135792   1.863   3.388   4.262  0.8456  1.0380  0.2855
 8052SOL    HW235793   1.722   3.381   4.281 -0.4058  0.7683 -0.4956
 8053SOL     OW35794   1.330   1.057   2.309 -0.6290  0.6425 -0.1412
 8053SOL    HW135795   1.300   0.991   2.246  1.0348  0.0384 -0.2906
 8053SOL    HW235796   1.360   1.127   2.252 -0.0341  0.1232 -0.4620
 8054SOL     OW35797   1.870   3.102  15.476 -0.2361 -0.3771 -0.1209
 8054SOL    HW135798   1.946   3.154  15.503  0.3909  0.3199 -3.2024
 8054SOL    HW235799   1.894   3.015  15.509 -0.7843  0.3458  2.1861
 8055SOL     OW35800   1.870   0.235   3.978 -0.3886  0.3817 -0.3343
 8055SOL    HW135801   1.907   0.319   3.953  0.8420  0.2173  0.9750
 8055SOL    HW235802   1.935   0.191   4.032 -0.5065 -0.5662 -0.9658
 8056SOL     OW35803   2.695   3.586   6.663  0.0425  0.1702 -0.1026
 8056SOL    HW135804   2.604   3.597   6.636  0.6262  2.4429 -1.1414
 8056SOL    HW235805   2.691   3.497   6.697  0.0700 -0.2207 -1.1125
 8057SOL     OW35806   0.892   0.983   9.775 -0.2356  0.0472 -0.2670
 8057SOL    HW135807   0.957   1.016   9.838 -3.0178  1.8044  1.6501
 8057SOL    HW235808   0.822   0.954   9.834 -1.2476  1.8800 -0.5934
 8058SOL     OW35809   3.967   2.303   3.713 -0.2594 -0.2975 -0.7326
 8058SOL    HW135810   4.041   2.243   3.704  0.0258  0.0102 -0.4467
 8058SOL    HW235811   3.914   2.271   3.640 -1.7217 -0.5223  0.4240
 8059SOL     OW35812   2.807   0.186   6.361  0.1059  0.4206 -0.2989
 8059SOL    HW135813   2.790   0.257   6.300 -1.2852 -0.0141 -0.4151
 8059SOL    HW235814   2.878   0.140   6.316 -2.9256 -2.9023 -1.7314
 8060SOL     OW35815   2.527   4.709  14.336 -0.1534  0.4401  0.1990
 8060SOL    HW135816   2.573   0.004  14.258  1.1185 -1.4412  0.1907
 8060SOL    HW235817   2.455   0.033  14.352 -0.5495  0.1902 -0.5941
 8061SOL     OW35818   4.728   3.904  14.998 -0.6593  0.6603 -0.1763
 8061SOL    HW135819   0.076   3.920  14.954 -0.6137 -0.9387 -0.6954
 8061SOL    HW235820   4.697   3.994  14.991 -0.8619  0.6142  0.1260
 8062SOL     OW35821   2.866   3.792  17.148 -0.4871  0.2096 -0.1805
 8062SOL    HW135822   2.915   3.800  17.066  3.7669  1.4818  2.4977
 8062SOL    HW235823   2.871   3.880  17.186  2.5240  0.0583 -0.2320
 8063SOL     OW35824   4.468   0.329   2.560 -0.3751 -0.1117  0.3708
 8063SOL    HW135825   4.455   0.236   2.580  1.6492 -0.0442  1.9761
 8063SOL    HW235826   4.534   0.350   2.625 -0.6181  0.6597  0.3587
 8064SOL     OW35827   2.477   2.153   8.564 -0.4347 -0.0132  0.3625
 8064SOL    HW135828   2.446   2.146   8.654 -1.6811 -1.5425 -0.1913
 8064SOL    HW235829   2.568   2.141   8.591 -0.5992 -2.9811 -0.4425
 8065SOL     OW35830   3.431   3.775  14.699  0.6168  0.5105 -0.3640
 8065SOL    HW135831   3.444   3.852  14.754 -0.9602 -0.4083  1.3012
 8065SOL    HW235832   3.426   3.817  14.614  0.9081 -0.0592 -0.6624
 8066SOL     OW35833   3.002   4.286   8.156  0.0592 -0.0062  0.1848
 8066SOL    HW135834   3.035   4.221   8.217 -1.0621  1.7976  2.6920
 8066SOL    HW235835   3.053   4.364   8.178  2.7238 -1.8438  0.3992
 8067SOL     OW35836   1.433   2.383   0.031  0.3637 -0.2976 -0.2038
 8067SOL    HW135837   1.420   2.340  17.691  1.8897 -1.1085 -0.0228
 8067SOL    HW235838   1.396   2.470   0.013  0.8136 -0.0199  0.2087
 8068SOL     OW35839   3.921   2.949   8.687  0.2414  0.0719  0.0870
 8068SOL    HW135840   3.930   2.938   8.592  0.2889  0.1101  0.0867
 8068SOL    HW235841   3.863   3.025   8.686 -0.5749 -0.5723 -1.3692
 8069SOL     OW35842   2.764   2.704   7.396 -0.2401  0.0298  0.5388
 8069SOL    HW135843   2.759   2.790   7.436 -2.1959  0.5533 -0.8509
 8069SOL    HW235844   2.749   2.643   7.468 -1.4559 -0.4153 -0.0881
 8070SOL     OW35845   0.639   1.676   2.877 -0.1520 -0.3745 -0.4083
 8070SOL    HW135846   0.706   1.739   2.902 -0.9753 -0.1382  1.1835
 8070SOL    HW235847   0.681   1.644   2.797  0.9929 -0.1454  0.1061
 8071SOL     OW35848   2.908   2.261   5.116  0.0122  0.0285  0.2903
 8071SOL    HW135849   2.864   2.266   5.031 -1.1886 -1.3705  0.8181
 8071SOL    HW235850   2.998   2.287   5.095  0.2014 -0.3961  0.5756
 8072SOL     OW35851   1.899   4.191   3.842  0.4613 -0.0229 -0.2841
 8072SOL    HW135852   1.890   4.230   3.755  0.7822 -1.1707 -0.8410
 8072SOL    HW235853   1.809   4.180   3.874  0.4267  0.7544 -0.1065
 8073SOL     OW35854   3.019   0.810   1.893 -0.9093 -0.2631 -0.8714
 8073SOL    HW135855   2.959   0.795   1.820 -2.1232 -3.0602  0.7185
 8073SOL    HW235856   3.085   0.871   1.860  0.1938 -0.7171  0.5036
 8074SOL     OW35857   1.093   2.759  13.027 -0.4016  0.4857  0.0211
 8074SOL    HW135858   1.073   2.774  13.119 -2.1074  1.4409 -0.4947
 8074SOL    HW235859   1.027   2.812  12.982  0.7549  1.9933  0.1221
 8075SOL     OW35860   0.281   0.958   8.884 -0.5718  0.1400  0.0191
 8075SOL    HW135861   0.202   1.006   8.907 -0.6465 -0.2743  0.6221
 8075SOL    HW235862   0.301   0.986   8.794 -0.7911 -0.3113 -0.1686
 8076SOL     OW35863   0.047   0.141   3.403 -0.1967 -0.2612  0.5401
 8076SOL    HW135864   0.017   0.149   3.493  2.5295 -1.5226  1.5610
 8076SOL    HW235865   0.114   0.209   3.406  3.0582 -3.4098  0.2078
 8077SOL     OW35866   2.431   4.472   9.012  0.6378  0.0510 -0.0459
 8077SOL    HW135867   2.479   4.452   9.092  0.2937 -2.2205 -0.4215
 8077SOL    HW235868   2.376   4.395   8.998  0.7722  0.0348 -0.4873
 8078SOL     OW35869   1.976   3.252  13.047  0.3105 -0.1300 -0.9041
 8078SOL    HW135870   2.017   3.288  12.969  0.4425  0.7238 -0.4349
 8078SOL    HW235871   1.901   3.309  13.061  0.1873 -0.4225 -0.3552
 8079SOL     OW35872   3.899   1.878   3.616  0.4435  0.8512  0.4829
 8079SOL    HW135873   3.888   1.968   3.585  0.7122  0.1389 -1.6584
 8079SOL    HW235874   3.983   1.877   3.662  2.0255 -1.5955 -2.4756
 8080SOL     OW35875   1.263   1.915   4.606 -0.1451 -0.0936  0.4126
 8080SOL    HW135876   1.263   1.821   4.590 -1.5080  0.2305 -1.5908
 8080SOL    HW235877   1.178   1.946   4.639  0.3393 -0.9635  2.4356
 8081SOL     OW35878   0.971   3.766   1.904 -0.3932  0.0890  0.2590
 8081SOL    HW135879   1.024   3.738   1.979  1.1264 -0.2461 -0.9340
 8081SOL    HW235880   0.994   3.856   1.883  0.8112  0.2481  2.1453
 8082SOL     OW35881   1.468   2.697   2.498 -0.6152  0.0621  0.2231
 8082SOL    HW135882   1.469   2.780   2.450 -0.0249 -0.3375 -0.4502
 8082SOL    HW235883   1.542   2.708   2.558 -0.5161  0.4093  0.0378
 8083SOL     OW35884   3.187   1.977  11.992  0.4520  0.0278 -0.3175
 8083SOL    HW135885   3.274   1.955  12.025  0.7299 -1.0131 -1.7569
 8083SOL    HW235886   3.144   1.913  12.049 -2.7671  0.0790 -2.7104
 8084SOL     OW35887   4.327   1.120  11.153 -0.0300  0.5260 -0.6309
 8084SOL    HW135888   4.405   1.171  11.130  2.0712 -1.6671  1.8424
 8084SOL    HW235889   4.360   1.044  11.199 -0.1676  0.3345 -0.8493
 8085SOL     OW35890   2.958   1.944   1.748  0.3318 -0.2884 -0.4443
 8085SOL    HW135891   2.886   1.978   1.801  0.8239  1.7357 -1.0703
 8085SOL    HW235892   2.900   1.902   1.685  0.3956  0.5854 -1.0953
 8086SOL     OW35893   2.546   4.445  17.564  0.5214  0.3219  0.3084
 8086SOL    HW135894   2.616   4.438  17.628 -0.8286 -0.0548  1.7349
 8086SOL    HW235895   2.583   4.396  17.491  1.2226 -0.8861  1.4932
 8087SOL     OW35896   0.861   3.011  13.855  0.0687 -0.1810  0.1261
 8087SOL    HW135897   0.799   3.047  13.917  1.8494 -0.9552  2.3529
 8087SOL    HW235898   0.837   3.069  13.782 -0.2191  0.7777  0.9898
 8088SOL     OW35899   4.473   1.581  10.385  0.6775  0.5731 -0.4212
 8088SOL    HW135900   4.409   1.647  10.412 -1.1811 -1.0234 -0.9434
 8088SOL    HW235901   4.471   1.516  10.456  0.3518  1.1481  0.0986
 8089SOL     OW35902   2.066   3.069   7.347 -0.1118  0.1649 -0.1145
 8089SOL    HW135903   2.060   3.128   7.272  0.3046 -1.7210 -1.6134
 8089SOL    HW235904   2.039   2.983   7.316  1.1929  0.2856 -1.5641
 8090SOL     OW35905   3.046   0.085   4.039  0.0498 -0.5333 -0.2476
 8090SOL    HW135906   3.039   0.168   3.992  0.1893  1.4262  3.2398
 8090SOL    HW235907   2.958   0.050   4.023 -0.1517 -0.4140  0.5993
 8091SOL     OW35908   4.019   0.310   1.938 -0.3740 -0.0395  0.2158
 8091SOL    HW135909   3.933   0.341   1.965  0.3869  0.7118  1.8443
 8091SOL    HW235910   4.044   0.261   2.016 -1.4013  0.5381  0.9060
 8092SOL     OW35911   2.816   2.278   2.690 -0.3012 -0.4444 -0.6181
 8092SOL    HW135912   2.762   2.356   2.676 -0.5673 -0.9187 -2.2508
 8092SOL    HW235913   2.762   2.206   2.657 -1.0694 -0.2810  0.2831
 8093SOL     OW35914   4.168   4.283   5.545  0.6021  0.5101  0.2147
 8093SOL    HW135915   4.258   4.306   5.571  0.2584  0.7475  1.1936
 8093SOL    HW235916   4.137   4.369   5.517  1.0598  0.7702  0.5000
 8094SOL     OW35917   2.140   2.539   8.101 -0.5870  0.0980  0.3743
 8094SOL    HW135918   2.192   2.518   8.178 -1.3591  0.9322  1.1257
 8094SOL    HW235919   2.100   2.618   8.138 -0.2849 -0.6566  2.3258
 8095SOL     OW35920   0.574   3.467  11.401  0.1995  0.4816 -0.7440
 8095SOL    HW135921   0.545   3.428  11.319 -0.1489  0.2446 -0.5070
 8095SOL    HW235922   0.582   3.393  11.462 -0.0570 -0.2417 -1.5972
 8096SOL     OW35923   2.890   2.878  11.257  0.3313  0.3352 -0.0747
 8096SOL    HW135924   2.811   2.917  11.219 -0.0164  0.6035  0.9127
 8096SOL    HW235925   2.876   2.886  11.351 -0.5560 -0.3475 -0.1471
 8097SOL     OW35926   4.736   0.437   6.107  0.1262  0.1370  0.7375
 8097SOL    HW135927   0.095   0.437   6.111  0.1710  1.9142 -0.2678
 8097SOL    HW235928   4.715   0.504   6.172  1.2055  1.7032 -0.5278
 8098SOL     OW35929   3.498   2.435   6.321  0.6260 -0.1371  0.1587
 8098SOL    HW135930   3.545   2.361   6.360 -0.9740 -0.7536  0.9278
 8098SOL    HW235931   3.431   2.397   6.264  2.8404 -0.0339 -2.4584
 8099SOL     OW35932   1.126   4.730  16.453  0.5947 -0.6315 -0.1783
 8099SOL    HW135933   1.047   0.037  16.485  1.3900 -0.1423  1.1208
 8099SOL    HW235934   1.092   4.642  16.471  1.2707 -0.8514  0.0430
 8100SOL     OW35935   1.954   2.198   6.270  0.3201  0.2847  0.7159
 8100SOL    HW135936   1.948   2.150   6.352 -3.9635 -0.4289  0.0169
 8100SOL    HW235937   1.864   2.170   6.253 -0.1977  2.4123 -0.0853
 8101SOL     OW35938   0.164   0.460   4.612 -0.1089 -0.6514  0.3791
 8101SOL    HW135939   0.085   0.505   4.581  2.2952  3.3189 -0.0613
 8101SOL    HW235940   0.132   0.370   4.615  0.6526 -0.9051  0.8914
 8102SOL     OW35941   1.402   4.323  16.130 -0.0152 -0.3479 -0.1036
 8102SOL    HW135942   1.395   4.317  16.225 -2.6899 -0.5616 -0.2995
 8102SOL    HW235943   1.489   4.363  16.135  1.1649 -2.7763 -1.3721
 8103SOL     OW35944   2.237   3.572   5.060 -0.1366 -0.2075  0.1897
 8103SOL    HW135945   2.182   3.647   5.036  0.7351  0.9334  1.8202
 8103SOL    HW235946   2.298   3.578   4.987  2.1010  1.1318  2.1911
 8104SOL     OW35947   2.950   3.610  11.727  0.2212 -0.8269  0.4142
 8104SOL    HW135948   2.988   3.667  11.794  0.9188 -0.0420 -0.6406
 8104SOL    HW235949   3.023   3.592  11.668 -1.3241  1.2259 -2.1318
 8105SOL     OW35950   1.073   0.542  14.736  0.1980  0.0842  0.4328
 8105SOL    HW135951   0.982   0.523  14.713  0.5605 -1.0539 -0.0347
 8105SOL    HW235952   1.123   0.557  14.656 -0.7457  1.2481  0.0664
 8106SOL     OW35953   0.452   2.232   2.889  0.5485 -0.1375  0.6308
 8106SOL    HW135954   0.426   2.317   2.854 -1.8446 -1.0921  0.0838
 8106SOL    HW235955   0.512   2.213   2.817 -0.9492  0.5383 -0.7763
 8107SOL     OW35956   4.601   3.787   4.864  0.0540 -0.0823  0.2262
 8107SOL    HW135957   4.606   3.814   4.773 -1.0808  0.1435  0.2320
 8107SOL    HW235958   4.693   3.769   4.882 -0.1652 -2.5725 -1.1375
 8108SOL     OW35959   2.451   4.385  11.269 -0.4699  0.2361  0.7183
 8108SOL    HW135960   2.392   4.430  11.329 -3.1484 -2.6274  0.2814
 8108SOL    HW235961   2.398   4.364  11.191  1.6110  1.5460 -1.0379
 8109SOL     OW35962   2.013   2.469   2.130  0.0301 -0.8873 -0.2872
 8109SOL    HW135963   2.044   2.555   2.161 -0.0566 -0.6230 -0.9228
 8109SOL    HW235964   1.988   2.432   2.214  0.2903  0.5865  0.4490
 8110SOL     OW35965   0.108   4.222   6.283  0.1365  0.2881  0.0132
 8110SOL    HW135966   0.170   4.273   6.336 -0.2780  1.3867 -0.5607
 8110SOL    HW235967   0.157   4.143   6.261 -0.4052  0.4998 -1.9696
 8111SOL     OW35968   3.511   4.106   2.215 -0.6985  0.7020  0.9530
 8111SOL    HW135969   3.597   4.104   2.173 -1.9896 -1.3115 -1.5897
 8111SOL    HW235970   3.473   4.168   2.153  0.5781  1.8755  1.3467
 8112SOL     OW35971   2.872   1.678   4.094 -0.2587  0.3773  0.3536
 8112SOL    HW135972   2.778   1.690   4.108  0.2195  2.7772  1.4366
 8112SOL    HW235973   2.904   1.692   4.183  1.1684  0.0018 -0.1013
 8113SOL     OW35974   3.368   2.739   4.413 -0.1384 -0.2927  0.3318
 8113SOL    HW135975   3.323   2.697   4.340  0.1988  1.5006 -0.9168
 8113SOL    HW235976   3.460   2.715   4.402  0.7322  1.9975  2.6003
 8114SOL     OW35977   4.687   1.090   8.727  0.0361  0.0036  0.1183
 8114SOL    HW135978   4.715   1.160   8.785 -1.2824  0.0988  0.6445
 8114SOL    HW235979   4.607   1.131   8.693 -0.3009 -0.6234  0.1503
 8115SOL     OW35980   4.600   2.100   8.318 -0.1887  0.4258 -0.1450
 8115SOL    HW135981   4.677   2.095   8.261  2.1534 -3.4395  3.2502
 8115SOL    HW235982   4.537   2.136   8.256  0.3433 -0.3719 -1.1395
 8116SOL     OW35983   2.636   0.884  11.843 -0.9281 -0.1660 -0.6449
 8116SOL    HW135984   2.547   0.862  11.871 -0.9131 -0.4239 -0.7993
 8116SOL    HW235985   2.692   0.833  11.902 -0.0341 -0.0439 -1.3818
 8117SOL     OW35986   3.022   1.247  15.080 -0.1677 -0.1447  0.0431
 8117SOL    HW135987   3.036   1.335  15.115 -0.0436 -0.7216  1.4129
 8117SOL    HW235988   2.978   1.257  14.995 -1.5264 -0.7298  0.6767
 8118SOL     OW35989   2.307   2.097   5.481 -0.8178  0.1046  0.7904
 8118SOL    HW135990   2.351   2.095   5.396 -1.8269  0.9673  0.2486
 8118SOL    HW235991   2.339   2.177   5.522  0.2695  1.4099 -2.6626
 8119SOL     OW35992   0.712   0.775   9.147 -0.1484 -0.3856 -0.3968
 8119SOL    HW135993   0.768   0.838   9.193 -1.0533  2.0736 -2.6376
 8119SOL    HW235994   0.645   0.835   9.114  0.3051  1.2972  1.6989
 8120SOL     OW35995   4.292   2.585   5.907 -0.0807  0.2965  0.1323
 8120SOL    HW135996   4.219   2.586   5.845 -1.9128  2.1858  2.2879
 8120SOL    HW235997   4.318   2.494   5.892 -1.0864  0.3508 -1.9471
 8121SOL     OW35998   3.007   4.535  11.519  0.0186 -0.1479  0.0539
 8121SOL    HW135999   3.023   4.619  11.476 -0.6735  0.3046  0.6838
 8121SOL    HW236000   2.913   4.550  11.516 -0.1625 -1.0827  0.9199
 8122SOL     OW36001   4.501   0.227   0.756 -0.1213 -0.2064  0.9051
 8122SOL    HW136002   4.463   0.280   0.826  1.7990  1.4835  0.6702
 8122SOL    HW236003   4.529   0.151   0.808 -0.9773  0.2077  1.9764
 8123SOL     OW36004   1.776   2.744   9.606 -0.2224 -0.1972  0.2300
 8123SOL    HW136005   1.850   2.805   9.616  1.8138 -2.7185  0.4538
 8123SOL    HW236006   1.803   2.711   9.520  0.4071  1.9502 -0.4057
 8124SOL     OW36007   3.359   3.805   4.444 -1.1598 -0.2226  0.2598
 8124SOL    HW136008   3.273   3.831   4.408 -0.5172  1.8093  0.1901
 8124SOL    HW236009   3.340   3.738   4.510 -0.5394 -2.0214 -1.3703
 8125SOL     OW36010   4.402   2.651   1.722 -0.5359 -0.2669  0.5747
 8125SOL    HW136011   4.434   2.631   1.809  0.1808 -0.8192  0.1837
 8125SOL    HW236012   4.482   2.680   1.678 -0.7141  1.1319  1.1789
 8126SOL     OW36013   3.645   3.491   2.772 -0.2684 -0.0018 -0.0652
 8126SOL    HW136014   3.653   3.512   2.679 -1.0567  1.0595  0.1158
 8126SOL    HW236015   3.618   3.399   2.765  0.5516 -0.1164 -1.8840
 8127SOL     OW36016   4.511   2.254   6.141  0.6902 -0.4005 -0.2985
 8127SOL    HW136017   4.504   2.270   6.046  3.1014  0.8214 -0.2572
 8127SOL    HW236018   4.535   2.336   6.184  0.2699 -0.1211 -0.5896
 8128SOL     OW36019   3.664   4.721   2.718 -0.4238  0.0351  0.2679
 8128SOL    HW136020   3.660   4.702   2.811 -1.4919 -0.5129  0.1158
 8128SOL    HW236021   3.690   0.077   2.719 -1.8810  0.4410  0.4208
 8129SOL     OW36022   2.948   0.438   8.666  0.4217  0.5534 -0.3104
 8129SOL    HW136023   2.934   0.504   8.597  0.0914  0.9718  0.1547
 8129SOL    HW236024   2.900   0.366   8.625  0.0757 -0.7359  2.4026
 8130SOL     OW36025   2.687   0.476  17.651 -0.0905 -0.6037 -0.2437
 8130SOL    HW136026   2.753   0.525  17.604 -1.2276  1.6304  0.5110
 8130SOL    HW236027   2.744   0.445  17.721  0.0762  0.7463  0.2012
 8131SOL     OW36028   3.948   2.537   2.390 -0.2945 -0.4366  0.2535
 8131SOL    HW136029   3.983   2.593   2.460 -1.2372  1.5027 -0.8368
 8131SOL    HW236030   3.895   2.477   2.443 -0.3333 -1.3015 -0.7729
 8132SOL     OW36031   1.368   3.189   1.770 -0.1263  0.2104  0.1278
 8132SOL    HW136032   1.285   3.232   1.789 -0.5592 -0.9194  0.8317
 8132SOL    HW236033   1.331   3.124   1.710 -0.7427  2.2786 -1.7283
 8133SOL     OW36034   3.749   3.257   5.950  0.2990  0.1803 -0.4849
 8133SOL    HW136035   3.806   3.257   6.027  0.2572 -2.0864 -0.4489
 8133SOL    HW236036   3.734   3.163   5.938  1.1953 -0.0220 -0.0469
 8134SOL     OW36037   0.353   0.161   3.399 -0.5707 -0.3776  0.3132
 8134SOL    HW136038   0.405   0.199   3.469 -0.1030  1.0493 -0.8103
 8134SOL    HW236039   0.380   0.069   3.401  0.8357 -0.0179 -1.7272
 8135SOL     OW36040   0.803   3.082   3.927 -0.1453  0.5432  0.3856
 8135SOL    HW136041   0.893   3.064   3.956  0.3374  0.4540 -1.1732
 8135SOL    HW236042   0.747   3.010   3.957  1.5459 -0.9740 -0.1263
 8136SOL     OW36043   1.967   0.882   7.193 -0.3419  0.1153 -0.0680
 8136SOL    HW136044   2.003   0.943   7.128 -0.8698  2.1918  1.6169
 8136SOL    HW236045   1.879   0.882   7.155 -0.3041 -1.7963 -0.1720
 8137SOL     OW36046   0.743   4.172  11.477  0.4103  0.0192  0.3394
 8137SOL    HW136047   0.677   4.120  11.431  0.6191  0.6740 -0.7037
 8137SOL    HW236048   0.771   4.119  11.551 -0.2263  0.4695  0.9125
 8138SOL     OW36049   0.716   3.252  10.532  0.4509 -0.0426  0.6398
 8138SOL    HW136050   0.710   3.346  10.517  1.8509 -0.1091 -0.2406
 8138SOL    HW236051   0.630   3.232  10.569 -0.8408  2.3799 -1.0227
 8139SOL     OW36052   2.676   4.278  11.875  0.0233  0.0880  0.1863
 8139SOL    HW136053   2.690   4.239  11.789 -1.5692  0.6255 -0.3245
 8139SOL    HW236054   2.707   4.365  11.850  1.3711 -0.7229 -0.9444
 8140SOL     OW36055   4.095   3.614   5.850 -0.2829  0.1486  0.2494
 8140SOL    HW136056   4.127   3.527   5.874 -0.0726  0.5107  1.3074
 8140SOL    HW236057   4.176   3.664   5.859  0.1446 -0.5542  0.3692
 8141SOL     OW36058   3.586   2.716   7.107 -0.8842  0.3753 -0.0027
 8141SOL    HW136059   3.631   2.725   7.190 -0.9670  1.5585 -0.0890
 8141SOL    HW236060   3.583   2.808   7.083 -1.5931  0.4237  0.2618
 8142SOL     OW36061   4.317   1.020   8.144 -0.9005 -0.1651 -0.4247
 8142SOL    HW136062   4.283   0.995   8.058  1.1096 -3.1475 -0.3615
 8142SOL    HW236063   4.268   1.102   8.149 -0.7775 -0.0716 -0.7457
 8143SOL     OW36064   0.679   4.173   7.734  0.1146  0.0450  0.0688
 8143SOL    HW136065   0.728   4.226   7.671 -1.7066  2.3649  0.6046
 8143SOL    HW236066   0.658   4.093   7.687  2.9067 -0.3677 -0.4731
 8144SOL     OW36067   4.010   3.023   1.639 -0.1340 -0.7379 -0.0873
 8144SOL    HW136068   4.064   2.966   1.694 -0.9165 -0.2097  1.2197
 8144SOL    HW236069   3.959   2.960   1.588  1.3600 -0.3161 -2.1450
 8145SOL     OW36070   2.225   2.653   4.951 -0.3489 -0.1481 -0.0684
 8145SOL    HW136071   2.163   2.719   4.921 -0.7871  0.3787  2.0109
 8145SOL    HW236072   2.169   2.592   4.999 -0.8953  1.3335  1.1668
 8146SOL     OW36073   0.462   1.219   7.891 -0.9455 -0.0332 -0.3320
 8146SOL    HW136074   0.458   1.194   7.984  1.7035 -1.0813 -0.5031
 8146SOL    HW236075   0.438   1.136   7.851 -0.4733 -0.2504 -0.1602
 8147SOL     OW36076   0.749   0.857  12.916  0.4420  0.4031  0.0078
 8147SOL    HW136077   0.655   0.863  12.933  0.3363 -1.3044  0.0934
 8147SOL    HW236078   0.770   0.950  12.926  2.2718 -0.1508  1.4442
 8148SOL     OW36079   1.905   4.454   8.520  0.4093 -0.0348  0.1710
 8148SOL    HW136080   1.881   4.522   8.582 -2.0376 -0.4523 -0.3412
 8148SOL    HW236081   1.982   4.504   8.492 -0.5178  2.2599  1.7506
 8149SOL     OW36082   2.260   1.002   2.454 -0.2988  0.0557 -0.0322
 8149SOL    HW136083   2.233   0.911   2.462 -0.8809  0.4873  2.8068
 8149SOL    HW236084   2.194   1.055   2.499 -1.8114  0.7260 -3.0585
 8150SOL     OW36085   2.553   3.997  17.193  0.3059  0.0513  0.8251
 8150SOL    HW136086   2.636   4.035  17.221  0.7159 -0.5723  0.4563
 8150SOL    HW236087   2.579   3.905  17.198 -1.6646 -0.5569 -0.1684
 8151SOL     OW36088   2.135   1.131   6.541  0.0555 -0.0306 -0.1876
 8151SOL    HW136089   2.082   1.194   6.491 -3.8443 -0.8555  2.8711
 8151SOL    HW236090   2.219   1.164   6.511  0.1670  0.0593  0.2279
 8152SOL     OW36091   2.312   3.406  15.664  0.3330  0.0920  0.3176
 8152SOL    HW136092   2.369   3.409  15.741  0.6468 -2.3749  0.1924
 8152SOL    HW236093   2.248   3.471  15.692  1.5328  1.3541  0.1018
 8153SOL     OW36094   3.368   1.496   5.400  0.1675 -0.0545 -0.3085
 8153SOL    HW136095   3.341   1.588   5.398  4.5653  1.2582  0.1890
 8153SOL    HW236096   3.293   1.468   5.452  0.3105  1.8630  0.9494
 8154SOL     OW36097   1.910   4.552   7.327 -0.3098 -0.1433  0.4731
 8154SOL    HW136098   1.933   4.523   7.239  0.7129 -0.9045  0.9849
 8154SOL    HW236099   1.856   4.630   7.319 -1.5242 -0.7771  2.5514
 8155SOL     OW36100   4.443   3.869   9.782 -0.1350  0.4175 -0.0565
 8155SOL    HW136101   4.516   3.928   9.763 -0.3557 -0.2645 -3.0866
 8155SOL    HW236102   4.380   3.932   9.817 -0.2684  0.3148 -0.1145
 8156SOL     OW36103   0.614   0.323   6.250  0.6490 -0.0232  0.0291
 8156SOL    HW136104   0.683   0.341   6.186  0.4781  0.2110 -0.0904
 8156SOL    HW236105   0.579   0.412   6.250  2.8914  0.8372  1.8456
 8157SOL     OW36106   3.863   2.461  13.850  0.2746 -0.3981  0.3073
 8157SOL    HW136107   3.788   2.403  13.839  0.0342 -0.2387  1.1178
 8157SOL    HW236108   3.830   2.530  13.907 -0.9032 -0.6756 -0.0512
 8158SOL     OW36109   3.551   4.102   1.901 -0.4898 -0.1593  0.1398
 8158SOL    HW136110   3.580   4.191   1.882  0.8294 -0.7590 -0.6323
 8158SOL    HW236111   3.622   4.049   1.865  0.8079  0.8147  1.2996
 8159SOL     OW36112   2.039   2.589   4.604 -0.2580 -0.5794 -0.2104
 8159SOL    HW136113   2.025   2.524   4.534 -2.1463 -0.4049 -0.0087
 8159SOL    HW236114   2.111   2.543   4.647  0.6650  0.6861 -0.4215
 8160SOL     OW36115   0.323   4.579  17.306  0.2325  0.6794  0.0855
 8160SOL    HW136116   0.368   4.567  17.223 -2.5702  0.6740 -1.4300
 8160SOL    HW236117   0.270   4.500  17.315  1.0660  0.2899  1.5981
 8161SOL     OW36118   4.622   2.713   5.598 -0.1600  0.2289  0.2176
 8161SOL    HW136119   4.588   2.769   5.668  0.6687  1.4344 -0.3333
 8161SOL    HW236120   4.580   2.750   5.521 -0.4689  2.6017  1.5412
 8162SOL     OW36121   2.784   2.607  14.606 -0.3783 -0.0183  0.5001
 8162SOL    HW136122   2.868   2.561  14.598 -1.4335 -1.9800  0.7491
 8162SOL    HW236123   2.733   2.535  14.643  0.7011 -1.3063 -0.4979
 8163SOL     OW36124   1.447   3.625   7.524  0.6405 -0.2054  0.3836
 8163SOL    HW136125   1.447   3.719   7.544  1.1557  0.0238 -0.7492
 8163SOL    HW236126   1.433   3.633   7.430  1.2878  0.5923  0.3584
 8164SOL     OW36127   1.413   2.723   5.304 -0.0455 -0.2498 -0.1215
 8164SOL    HW136128   1.454   2.654   5.356 -1.7697  0.4911  2.2423
 8164SOL    HW236129   1.329   2.677   5.297  0.7777 -1.1972 -3.3332
 8165SOL     OW36130   3.844   1.640   2.560  0.8465 -0.7946  0.6607
 8165SOL    HW136131   3.782   1.574   2.528  1.0473 -0.4470 -0.4601
 8165SOL    HW236132   3.932   1.602   2.560  1.3944  0.4872  1.4347
 8166SOL     OW36133   4.506   1.656   6.671 -0.2131 -0.4528 -0.2162
 8166SOL    HW136134   4.594   1.637   6.638  0.7717  1.2016  1.4796
 8166SOL    HW236135   4.471   1.685   6.587 -0.8314 -0.8995 -0.1077
 8167SOL     OW36136   2.135   0.308   4.484  0.6468  0.3193 -0.5548
 8167SOL    HW136137   2.150   0.327   4.576 -4.0577  1.6565 -0.0825
 8167SOL    HW236138   2.222   0.279   4.455  1.1510  2.0361 -0.7532
 8168SOL     OW36139   4.334   0.682  11.120  0.0518 -0.8051 -0.1175
 8168SOL    HW136140   4.335   0.587  11.117  2.1901 -0.8829  2.7727
 8168SOL    HW236141   4.255   0.698  11.068  1.0314 -3.0853 -2.2972
 8169SOL     OW36142   3.723   1.908   5.838  0.1445  0.0852  0.8480
 8169SOL    HW136143   3.710   1.961   5.917 -0.7938  2.7192 -1.0781
 8169SOL    HW236144   3.815   1.883   5.837  0.2680  0.5318  1.1677
 8170SOL     OW36145   2.139   0.380   2.132  0.0063  0.2100  0.6252
 8170SOL    HW136146   2.146   0.297   2.086  0.5000 -0.4022  1.7998
 8170SOL    HW236147   2.232   0.401   2.147 -0.6315  1.9408  2.2049
 8171SOL     OW36148   1.414   0.185  14.917  0.3577  0.2985  0.7491
 8171SOL    HW136149   1.439   0.252  14.853 -0.7209 -1.1088 -1.1385
 8171SOL    HW236150   1.398   0.112  14.858  1.4919  1.3372 -0.8368
 8172SOL     OW36151   4.458   3.596   1.399  0.0588  0.1228 -0.7099
 8172SOL    HW136152   4.373   3.571   1.364  0.2627 -0.2182 -0.9650
 8172SOL    HW236153   4.494   3.641   1.323 -0.2307 -2.7840 -2.5591
 8173SOL     OW36154   2.868   1.169   1.158 -0.0657 -0.0718  0.6139
 8173SOL    HW136155   2.792   1.182   1.215 -0.4948  0.5646 -0.1122
 8173SOL    HW236156   2.861   1.078   1.129 -0.8830  0.7023 -1.6043
 8174SOL     OW36157   1.752   2.672   3.283  0.3249 -0.2826  0.3852
 8174SOL    HW136158   1.673   2.702   3.239  0.5103  2.0202  1.6160
 8174SOL    HW236159   1.769   2.596   3.227  0.4608  1.2965 -1.7026
 8175SOL     OW36160   2.806   0.896   1.416  0.3061 -1.1100  0.0236
 8175SOL    HW136161   2.896   0.923   1.398  0.7631 -1.3237  2.0603
 8175SOL    HW236162   2.768   0.961   1.356  0.2294 -2.6096 -1.5445
 8176SOL     OW36163   1.551   2.464   5.846 -0.1323  0.4900  0.2942
 8176SOL    HW136164   1.628   2.514   5.820  0.0966 -0.0900 -0.1261
 8176SOL    HW236165   1.574   2.439   5.935  1.8920  0.8040 -0.1489
 8177SOL     OW36166   0.720   3.383  12.369 -0.2240  0.5171  0.2834
 8177SOL    HW136167   0.743   3.366  12.278  1.4208 -0.1244  0.8307
 8177SOL    HW236168   0.738   3.477  12.375 -0.9019  0.6158  0.7392
 8178SOL     OW36169   1.073   4.114  14.788  0.5063 -0.3342 -0.3451
 8178SOL    HW136170   1.118   4.109  14.704 -0.6133  0.8489 -1.0348
 8178SOL    HW236171   1.012   4.180  14.752  0.5482 -0.4463 -0.6187
 8179SOL     OW36172   1.640   3.335   2.376 -0.4611 -0.1449  0.0481
 8179SOL    HW136173   1.551   3.313   2.347  0.5414 -1.1755 -2.2938
 8179SOL    HW236174   1.622   3.408   2.435  1.1327  0.3847 -0.1488
 8180SOL     OW36175   3.623   3.827   9.943  0.0643 -0.2669 -0.3738
 8180SOL    HW136176   3.574   3.755   9.905 -0.9680  0.6299 -0.7473
 8180SOL    HW236177   3.547   3.864   9.989  0.9951  1.7553 -0.4304
 8181SOL     OW36178   4.030   0.577   3.002  0.2038 -0.1233 -0.0808
 8181SOL    HW136179   4.111   0.604   3.046  0.1676  1.6141 -1.0735
 8181SOL    HW236180   3.973   0.649   3.029  1.1197  0.9285 -0.9005
 8182SOL     OW36181   0.837   1.840   9.150 -1.0745 -0.4028 -0.1348
 8182SOL    HW136182   0.877   1.807   9.230 -0.4960  0.8248  0.0893
 8182SOL    HW236183   0.878   1.784   9.083  0.5904  1.0310 -0.3391
 8183SOL     OW36184   3.507   2.029  14.763 -0.2554  0.3593 -0.1836
 8183SOL    HW136185   3.558   2.013  14.843  0.1800 -0.3239 -0.5963
 8183SOL    HW236186   3.576   2.036  14.697  0.4567 -0.1013  0.5019
 8184SOL     OW36187   2.351   3.012   2.531  0.1408 -0.1690  0.2628
 8184SOL    HW136188   2.384   2.994   2.619 -3.2618 -3.0501  0.9651
 8184SOL    HW236189   2.289   2.940   2.522 -2.2880  1.8710  0.7008
 8185SOL     OW36190   0.983   2.217   7.224  0.2559 -0.2662 -0.0306
 8185SOL    HW136191   0.976   2.122   7.211 -0.3079 -0.2905  0.4301
 8185SOL    HW236192   0.940   2.221   7.310 -0.0944  2.1375 -0.3239
 8186SOL     OW36193   3.449   1.635   3.976  0.2178  0.2006  0.3653
 8186SOL    HW136194   3.446   1.539   3.979 -1.1602  0.1835 -1.6677
 8186SOL    HW236195   3.544   1.643   3.984  0.4406 -0.1734 -1.9740
 8187SOL     OW36196   2.558   3.548   6.324 -0.3774 -0.1444  0.3625
 8187SOL    HW136197   2.566   3.642   6.309  0.8721 -0.2764  0.2276
 8187SOL    HW236198   2.650   3.528   6.341  0.3347  0.4664 -2.8434
 8188SOL     OW36199   4.274   0.445   5.727 -0.6546 -0.0837  0.0530
 8188SOL    HW136200   4.275   0.513   5.795 -1.8395 -0.6941  0.6728
 8188SOL    HW236201   4.250   0.362   5.767  0.4428  0.6474  2.2183
 8189SOL     OW36202   2.372   3.743  17.172  0.3449  0.0145 -0.1293
 8189SOL    HW136203   2.292   3.734  17.224  0.8515  1.1130  0.8516
 8189SOL    HW236204   2.384   3.648  17.162  0.6276 -0.1268  1.5506
 8190SOL     OW36205   0.520   0.453  13.589 -0.4079 -0.5790 -0.7507
 8190SOL    HW136206   0.497   0.386  13.524 -0.2494 -3.4715  2.1517
 8190SOL    HW236207   0.500   0.536  13.546 -1.5132  0.1654  1.2333
 8191SOL     OW36208   4.333   3.560   9.048  0.0767 -0.5626 -0.7266
 8191SOL    HW136209   4.425   3.577   9.028  0.0383  1.1038  0.4576
 8191SOL    HW236210   4.337   3.538   9.141  2.9870  0.6968 -0.5534
 8192SOL     OW36211   3.160   4.187   1.220  0.0300 -0.0427 -0.2132
 8192SOL    HW136212   3.073   4.225   1.231 -0.0720  0.4475 -2.7936
 8192SOL    HW236213   3.154   4.158   1.129  0.3846 -0.3490 -0.1405
 8193SOL     OW36214   3.782   3.290   7.245  0.1592  0.7990 -0.1002
 8193SOL    HW136215   3.831   3.290   7.327 -1.7798  0.6605  1.0704
 8193SOL    HW236216   3.823   3.214   7.204 -1.1015 -1.1571  2.2790
 8194SOL     OW36217   2.868   1.579  13.754 -0.0742  0.2202 -0.1857
 8194SOL    HW136218   2.898   1.622  13.834  0.7330  0.7754 -0.7808
 8194SOL    HW236219   2.875   1.653  13.694 -0.1126 -1.8677 -2.7821
 8195SOL     OW36220   2.286   1.343   4.915 -0.2057 -0.4875  0.1892
 8195SOL    HW136221   2.381   1.350   4.904 -0.5104  0.8054 -1.7138
 8195SOL    HW236222   2.263   1.426   4.873 -1.6875 -1.6337 -1.3020
 8196SOL     OW36223   0.689   0.729   7.607 -0.1183  0.2501 -0.4054
 8196SOL    HW136224   0.745   0.700   7.679 -3.3563  1.1581  2.4599
 8196SOL    HW236225   0.684   0.821   7.636  0.6390 -0.0998  0.8439
 8197SOL     OW36226   3.512   1.700   3.571  0.0374 -0.1968  0.7126
 8197SOL    HW136227   3.555   1.780   3.540 -3.4942  0.7357 -1.8068
 8197SOL    HW236228   3.477   1.675   3.486  1.3865  0.9289 -0.1728
 8198SOL     OW36229   3.065   4.104   3.802  0.2596  0.1704 -0.3617
 8198SOL    HW136230   3.106   4.053   3.872 -0.4186 -1.5664 -1.2137
 8198SOL    HW236231   3.111   4.184   3.826  0.7237 -0.0158 -0.6410
 8199SOL     OW36232   3.651   3.372   1.991  0.3348  0.5883 -0.2569
 8199SOL    HW136233   3.669   3.395   2.082 -0.5482  2.1324 -0.4731
 8199SOL    HW236234   3.719   3.309   1.967  0.2928 -0.7284  3.0271
 8200SOL     OW36235   3.396   0.476  16.721  0.2590  0.5103 -0.1213
 8200SOL    HW136236   3.327   0.454  16.657  1.4966  0.1895 -1.3451
 8200SOL    HW236237   3.396   0.398  16.776 -1.4063 -0.0133 -0.8563
 8201SOL     OW36238   3.817   4.727   7.612 -0.0744  0.1340 -0.1692
 8201SOL    HW136239   3.764   4.669   7.557  1.6857  0.8867 -2.6645
 8201SOL    HW236240   3.780   0.074   7.585 -0.8507 -0.3186 -0.5260
 8202SOL     OW36241   1.065   0.982   8.704  0.9164  0.0943 -0.0856
 8202SOL    HW136242   1.054   1.037   8.627 -2.6350 -0.1576  0.2414
 8202SOL    HW236243   0.976   0.972   8.738  1.4700 -3.8590  0.2612
 8203SOL     OW36244   1.215   2.571   2.421 -0.3209  0.7328 -0.2648
 8203SOL    HW136245   1.185   2.603   2.336  2.6042 -2.2152 -2.3938
 8203SOL    HW236246   1.298   2.620   2.428 -0.3951  0.7384  0.6308
 8204SOL     OW36247   0.178   3.010  12.905 -0.5757 -0.5872  0.5654
 8204SOL    HW136248   0.162   3.081  12.843  0.6454  0.0158  0.9289
 8204SOL    HW236249   0.113   2.943  12.884  0.2842 -1.1377 -0.3475
 8205SOL     OW36250   0.457   1.888   6.781  0.1023 -0.3642  0.1438
 8205SOL    HW136251   0.501   1.944   6.717  0.8252 -1.3385 -0.2042
 8205SOL    HW236252   0.532   1.856   6.831 -1.9371 -1.5377  2.4775
 8206SOL     OW36253   3.124   0.401   3.647  0.1768 -0.0497 -0.1184
 8206SOL    HW136254   3.081   0.377   3.729  0.2528  0.9926  0.2347
 8206SOL    HW236255   3.166   0.483   3.674  0.3798  0.2740 -1.3837
 8207SOL     OW36256   1.225   1.603   3.867 -0.3082 -0.8013 -0.2021
 8207SOL    HW136257   1.251   1.544   3.937 -0.3397 -2.7444 -1.8268
 8207SOL    HW236258   1.272   1.568   3.792  0.9012  1.2447 -0.3964
 8208SOL     OW36259   4.355   1.533   9.931 -0.5433 -0.0309 -0.2088
 8208SOL    HW136260   4.406   1.556  10.008 -0.6930  2.8834 -0.9666
 8208SOL    HW236261   4.268   1.544   9.969  0.0112 -5.0353  2.5095
 8209SOL     OW36262   0.280   2.656  17.025  1.2835  0.1296 -0.4328
 8209SOL    HW136263   0.198   2.657  16.976  1.1002 -0.3946 -0.1346
 8209SOL    HW236264   0.311   2.565  17.020 -0.0364 -0.3352  0.0759
 8210SOL     OW36265   0.169   0.820   7.077 -0.3121  0.8117 -0.4191
 8210SOL    HW136266   0.185   0.832   7.170  0.1381  0.3312 -0.4301
 8210SOL    HW236267   0.259   0.809   7.045 -0.4038  0.4764 -0.5696
 8211SOL     OW36268   4.561   3.525   0.829  0.1281 -0.1990 -0.4219
 8211SOL    HW136269   4.649   3.550   0.857  0.2126  1.2163 -1.9990
 8211SOL    HW236270   4.521   3.490   0.909 -1.7220  1.6089 -0.5659
 8212SOL     OW36271   4.321   2.297  10.500 -0.0314  0.2369 -0.2135
 8212SOL    HW136272   4.389   2.322  10.561  0.8345 -1.1353 -0.6303
 8212SOL    HW236273   4.260   2.253  10.559  1.9865 -2.2069  0.0100
 8213SOL     OW36274   2.449   0.035   5.644 -0.2768  0.0427 -0.6049
 8213SOL    HW136275   2.372   4.717   5.658 -0.8983  0.1968 -3.3678
 8213SOL    HW236276   2.508   4.706   5.606 -0.2873 -0.5198  0.3440
 8214SOL     OW36277   0.339   2.327  14.114  0.1222  0.7223  0.4860
 8214SOL    HW136278   0.252   2.355  14.086 -0.9829  0.1091  3.2845
 8214SOL    HW236279   0.396   2.384  14.063 -0.8139  0.2078 -1.1149
 8215SOL     OW36280   1.195   1.059  12.307 -0.0055  0.5723 -0.0717
 8215SOL    HW136281   1.264   0.996  12.288  0.5127  1.2674 -0.5200
 8215SOL    HW236282   1.142   1.001  12.362 -1.9523  1.0570 -1.4264
 8216SOL     OW36283   2.487   1.513  10.983  0.2043 -0.2308  0.5439
 8216SOL    HW136284   2.456   1.541  10.897 -0.1082  1.7815  1.3178
 8216SOL    HW236285   2.495   1.601  11.020 -0.2840 -0.1584  0.4697
 8217SOL     OW36286   4.589   2.372  10.576  0.5276  0.0437  0.7082
 8217SOL    HW136287   4.639   2.401  10.652  0.0755  1.2615  0.5487
 8217SOL    HW236288   4.592   2.278  10.590 -0.5568 -0.3292 -1.5458
 8218SOL     OW36289   2.711   4.024   4.387 -0.6051 -0.9769 -0.3702
 8218SOL    HW136290   2.805   4.036   4.383 -0.8814  1.8530  1.8289
 8218SOL    HW236291   2.706   4.015   4.482 -1.3191  1.5992 -0.1717
 8219SOL     OW36292   0.031   4.276   8.657  0.2215  0.0780  0.6745
 8219SOL    HW136293   0.071   4.287   8.744  0.4054 -0.9239  0.7098
 8219SOL    HW236294   4.681   4.317   8.662  0.1160  0.2312 -2.9140
 8220SOL     OW36295   3.566   4.282   6.124 -0.2175  0.0928  0.6012
 8220SOL    HW136296   3.514   4.287   6.204 -0.3535 -0.5868  0.5535
 8220SOL    HW236297   3.516   4.351   6.080  0.8762  0.9014  0.6319
 8221SOL     OW36298   2.089   1.603   0.835 -0.2314 -0.2818  0.0083
 8221SOL    HW136299   2.053   1.540   0.774  0.0958  0.2379 -0.7280
 8221SOL    HW236300   2.179   1.621   0.807  0.2065 -2.6710 -0.1295
 8222SOL     OW36301   3.150   3.832   9.855  0.1815 -0.1825 -0.6520
 8222SOL    HW136302   3.139   3.737   9.865 -0.9782 -0.0364 -0.5273
 8222SOL    HW236303   3.058   3.855   9.867 -0.1156  0.2118 -3.7395
 8223SOL     OW36304   2.852   0.685   2.416 -0.5829 -0.1938 -0.5824
 8223SOL    HW136305   2.790   0.737   2.467  1.2098 -0.1996  1.6035
 8223SOL    HW236306   2.873   0.739   2.339  1.9813 -0.8072 -0.3204
 8224SOL     OW36307   0.512   4.201  16.635  0.3983  0.5607 -0.0244
 8224SOL    HW136308   0.425   4.165  16.617 -0.1838  1.9923 -0.0304
 8224SOL    HW236309   0.574   4.150  16.583 -1.7119 -0.7154 -1.3291
 8225SOL     OW36310   3.037   3.480  15.728 -0.1775  0.3744 -0.6085
 8225SOL    HW136311   3.032   3.483  15.823 -0.5199 -0.1670 -0.6071
 8225SOL    HW236312   3.131   3.481  15.709  0.3638 -0.8878  2.0588
 8226SOL     OW36313   3.590   0.833   5.130 -0.2251 -0.1842  0.0612
 8226SOL    HW136314   3.643   0.774   5.075 -0.3932 -0.8049  0.5725
 8226SOL    HW236315   3.576   0.781   5.209  0.0919  0.1566  0.3431
 8227SOL     OW36316   1.794   1.316   3.185  0.4947  0.2462 -0.1170
 8227SOL    HW136317   1.838   1.300   3.269 -0.6092 -0.8757  0.2545
 8227SOL    HW236318   1.758   1.230   3.163  0.3643  0.3524 -0.3159
 8228SOL     OW36319   1.809   4.329  11.752  0.1621  0.4749  0.0447
 8228SOL    HW136320   1.760   4.399  11.795 -2.2625 -0.3971 -1.2770
 8228SOL    HW236321   1.830   4.275  11.828 -0.4272 -0.2262 -0.2831
 8229SOL     OW36322   0.695   3.826  16.741 -0.0061  0.1138  0.3517
 8229SOL    HW136323   0.719   3.905  16.692  0.4864 -0.8685 -0.9746
 8229SOL    HW236324   0.774   3.775  16.722 -0.9769 -0.9860 -0.6803
 8230SOL     OW36325   1.675   0.349   7.825 -0.2176  0.2088  0.2110
 8230SOL    HW136326   1.635   0.416   7.880  1.6208  0.4765  1.2540
 8230SOL    HW236327   1.602   0.337   7.765  0.4674 -1.9641 -0.2033
 8231SOL     OW36328   1.022   1.729  13.451 -0.3981  0.5332 -0.3128
 8231SOL    HW136329   0.933   1.750  13.424 -0.9993  0.1841  1.4386
 8231SOL    HW236330   1.055   1.807  13.405  1.0343  1.1971  1.8262
 8232SOL     OW36331   0.793   1.123   1.799 -0.5866 -0.5891 -0.0952
 8232SOL    HW136332   0.729   1.061   1.834 -0.1454 -0.4199  1.0023
 8232SOL    HW236333   0.863   1.067   1.765 -0.8195 -0.2568 -1.1273
 8233SOL     OW36334   2.922   3.233   0.739  0.0163 -0.4008  0.4114
 8233SOL    HW136335   2.968   3.308   0.778  1.2257 -0.6834 -0.4899
 8233SOL    HW236336   2.877   3.274   0.665  0.6363  2.6899  1.7474
 8234SOL     OW36337   3.977   4.549   8.734 -0.1274  0.0630  0.3882
 8234SOL    HW136338   3.905   4.486   8.735 -1.8192  2.0114  0.3343
 8234SOL    HW236339   4.037   4.495   8.683  3.7542  1.1219  3.7371
 8235SOL     OW36340   3.528   3.538   8.761 -0.1213 -0.4108 -0.3525
 8235SOL    HW136341   3.465   3.584   8.817 -1.1498 -0.5741 -1.3586
 8235SOL    HW236342   3.539   3.456   8.810  0.4831  0.8670  1.6563
 8236SOL     OW36343   4.000   2.951  17.656 -0.0360  0.1496 -0.2620
 8236SOL    HW136344   4.079   2.937  17.603  0.3501  2.4031 -0.2804
 8236SOL    HW236345   3.936   2.895  17.612 -2.2136  1.7424  0.9060
 8237SOL     OW36346   1.066   2.069   4.708  0.3493  0.5034 -0.5264
 8237SOL    HW136347   1.149   2.114   4.723  1.5520 -1.8723  0.0780
 8237SOL    HW236348   1.006   2.125   4.756  1.4157 -0.7795  2.2903
 8238SOL     OW36349   1.436   3.276   7.449  0.2866 -0.1358 -0.7961
 8238SOL    HW136350   1.353   3.323   7.448 -0.6106 -1.8094 -2.9450
 8238SOL    HW236351   1.420   3.206   7.512 -0.1572  1.2680  0.6648
 8239SOL     OW36352   4.542   4.359   4.520  0.0112  0.8113  0.2466
 8239SOL    HW136353   4.563   4.412   4.443  1.5526  1.6410  1.2580
 8239SOL    HW236354   4.469   4.302   4.495  0.7281  1.2964 -2.9141
 8240SOL     OW36355   2.254   3.280   2.549 -0.4656  0.2534  0.0415
 8240SOL    HW136356   2.290   3.191   2.550 -0.1661  0.3745  0.0437
 8240SOL    HW236357   2.330   3.315   2.502  0.9001 -2.1775  0.4379
 8241SOL     OW36358   4.322   2.930  16.888  0.5879  0.6223  0.0039
 8241SOL    HW136359   4.318   2.869  16.962 -0.1291  0.9141  0.2036
 8241SOL    HW236360   4.415   2.949  16.896  0.8971 -0.2182 -1.6065
 8242SOL     OW36361   0.478   2.220   6.091  0.3076 -0.8324  0.1245
 8242SOL    HW136362   0.400   2.245   6.140 -0.5430 -2.8275 -0.2265
 8242SOL    HW236363   0.504   2.303   6.051 -3.4189  1.2265  1.9665
 8243SOL     OW36364   2.019   0.656   6.105  0.3577  0.6626 -0.4754
 8243SOL    HW136365   2.077   0.600   6.156 -1.0896  0.2122  0.6868
 8243SOL    HW236366   2.029   0.742   6.147 -1.7639  0.9347 -0.4800
 8244SOL     OW36367   4.629   1.360   8.561  0.1934 -0.4272 -0.1718
 8244SOL    HW136368   4.608   1.358   8.468  2.3146 -0.2098 -0.6424
 8244SOL    HW236369   4.715   1.320   8.556  0.4199  0.2942 -1.8915
 8245SOL     OW36370   0.564   1.340  13.139  0.1272  0.6980  0.0027
 8245SOL    HW136371   0.590   1.429  13.116 -0.9402  0.6851 -1.1749
 8245SOL    HW236372   0.569   1.342  13.235  2.4349 -1.0392 -0.0604
 8246SOL     OW36373   0.702   0.957   9.980  0.0317 -0.4836  0.5686
 8246SOL    HW136374   0.712   0.887  10.045  0.1148 -1.6912 -0.7512
 8246SOL    HW236375   0.616   0.998   9.992  0.4177 -0.3273  2.8251
 8247SOL     OW36376   2.061   3.293   7.891 -0.3306  0.2745  0.6888
 8247SOL    HW136377   1.991   3.287   7.826 -0.6298 -2.0945  1.2345
 8247SOL    HW236378   2.020   3.251   7.966  0.7650 -0.4316  0.8945
 8248SOL     OW36379   2.579   4.536   5.287 -0.2506 -0.4036  0.1415
 8248SOL    HW136380   2.524   4.481   5.230 -1.3228  2.0928 -1.2552
 8248SOL    HW236381   2.510   4.550   5.351 -1.0957  1.7690 -1.2354
 8249SOL     OW36382   3.157   1.624   5.708 -0.2777  0.1172  0.2281
 8249SOL    HW136383   3.244   1.664   5.716  0.5518 -0.9697 -3.3747
 8249SOL    HW236384   3.174   1.533   5.733 -0.2645  0.1831  0.4613
 8250SOL     OW36385   1.617   1.487   9.479 -0.6545  0.0115 -0.4483
 8250SOL    HW136386   1.596   1.408   9.529 -1.3216  1.6808  1.9535
 8250SOL    HW236387   1.547   1.548   9.501  1.1022  2.1483 -0.6864
 8251SOL     OW36388   2.537   1.854   2.202  0.1160  0.1227 -0.2902
 8251SOL    HW136389   2.566   1.801   2.128 -0.1899  0.6419 -0.7816
 8251SOL    HW236390   2.526   1.938   2.156  0.3812  0.0290 -0.5219
 8252SOL     OW36391   0.959   1.989   8.095 -0.4187  0.0907 -0.0965
 8252SOL    HW136392   0.980   1.903   8.058  1.0529  0.1809  0.5127
 8252SOL    HW236393   0.868   1.974   8.119  0.2082 -1.8297  1.0738
 8253SOL     OW36394   3.182   1.226   3.956  0.7388  0.5356  0.0657
 8253SOL    HW136395   3.180   1.309   3.908 -0.9390  1.4138  1.6624
 8253SOL    HW236396   3.087   1.212   3.957  1.0276 -1.3809  0.6400
 8254SOL     OW36397   3.026   1.570   0.580 -0.5713  0.5457  0.4627
 8254SOL    HW136398   2.963   1.499   0.580 -2.4704  2.2336 -0.6416
 8254SOL    HW236399   2.985   1.636   0.523  0.0034  0.0482 -0.5348
 8255SOL     OW36400   0.808   2.090   3.137 -0.0684  0.1487  0.0091
 8255SOL    HW136401   0.852   2.099   3.052  1.0515  1.3399  0.7154
 8255SOL    HW236402   0.759   2.172   3.137  0.9560  0.7622 -2.4906
 8256SOL     OW36403   3.647   4.086   8.739 -0.4069 -0.0891  0.2560
 8256SOL    HW136404   3.714   4.137   8.693 -0.0036 -2.1484 -1.4364
 8256SOL    HW236405   3.670   3.994   8.725 -1.1258 -0.3706  0.9522
 8257SOL     OW36406   3.799   4.076   2.084 -0.9172  0.3797  0.1299
 8257SOL    HW136407   3.839   3.990   2.073 -1.6984  0.3478 -2.6163
 8257SOL    HW236408   3.780   4.098   1.993 -3.1753  1.9456  0.9507
 8258SOL     OW36409   2.627   1.245  11.460 -0.0383 -0.8291 -0.1163
 8258SOL    HW136410   2.603   1.323  11.511  1.8503 -0.1302 -0.2636
 8258SOL    HW236411   2.665   1.180  11.519  1.0630  0.5710  0.7595
 8259SOL     OW36412   1.574   0.309   4.963  0.4030  0.3382  0.2626
 8259SOL    HW136413   1.510   0.376   4.987 -1.4892 -1.5684  0.4456
 8259SOL    HW236414   1.630   0.312   5.040 -0.4453 -1.1833  0.9285
 8260SOL     OW36415   3.022   3.624   9.423 -0.3986 -0.2693 -0.3116
 8260SOL    HW136416   2.960   3.575   9.370 -2.0907  2.4927 -0.8956
 8260SOL    HW236417   3.098   3.566   9.423 -1.8707 -2.1929 -0.2174
 8261SOL     OW36418   3.550   4.009  15.595 -0.4685  0.1535 -0.0378
 8261SOL    HW136419   3.570   3.934  15.651 -1.5040 -0.6602 -0.7581
 8261SOL    HW236420   3.510   4.072  15.655  1.4649 -1.1226  2.5889
 8262SOL     OW36421   1.629   2.135   8.045 -0.1578  0.4662  0.0322
 8262SOL    HW136422   1.679   2.209   8.010  1.1924  0.8572  2.7623
 8262SOL    HW236423   1.672   2.052   8.023  0.3795  0.6375  0.4329
 8263SOL     OW36424   1.987   3.201   5.508 -0.6070 -0.2345  0.4907
 8263SOL    HW136425   2.076   3.170   5.526  0.1299  0.4946 -1.7865
 8263SOL    HW236426   2.002   3.294   5.524 -0.4957 -0.0188 -0.8049
 8264SOL     OW36427   1.068   0.892   5.011  0.3537 -0.0792 -0.8867
 8264SOL    HW136428   1.158   0.861   4.994  0.2899 -0.7976  0.0504
 8264SOL    HW236429   1.077   0.982   4.981  1.0383  0.2771  0.3601
 8265SOL     OW36430   0.299   4.091   5.099 -0.1487  0.0272  0.9422
 8265SOL    HW136431   0.364   4.059   5.162  1.4818  0.5625 -0.4566
 8265SOL    HW236432   0.258   4.160   5.150  1.0857  1.1066  0.4821
 8266SOL     OW36433   4.712   3.313   9.001 -0.1644  0.5123 -0.0308
 8266SOL    HW136434   4.667   3.382   8.951  2.6922  1.7535 -0.8483
 8266SOL    HW236435   4.636   3.276   9.046 -0.1187 -0.8964 -1.1042
 8267SOL     OW36436   4.487   4.526   0.540  0.3676 -0.3550 -0.2528
 8267SOL    HW136437   4.516   4.504   0.452  0.3848 -1.0041 -0.0847
 8267SOL    HW236438   4.448   4.611   0.521  1.0384 -0.2838 -1.2757
 8268SOL     OW36439   1.954   0.083   5.731  0.4975 -0.4813  0.1649
 8268SOL    HW136440   2.047   0.071   5.746  0.9756  2.0526 -0.7569
 8268SOL    HW236441   1.948   0.072   5.637  0.0260  0.7332  0.0494
 8269SOL     OW36442   1.114   3.138   3.522  0.1579  0.1985 -0.2550
 8269SOL    HW136443   1.128   3.141   3.428 -0.4803  0.9922 -0.3339
 8269SOL    HW236444   1.166   3.213   3.552 -1.2071  1.1557 -0.2893
 8270SOL     OW36445   4.561   3.929   3.128 -0.0396 -0.7117 -0.6886
 8270SOL    HW136446   4.545   3.990   3.057  2.4803  0.8177  0.0495
 8270SOL    HW236447   4.582   3.994   3.196  1.8115 -0.1624 -1.7761
 8271SOL     OW36448   2.970   1.242   3.202 -0.0792  0.3330 -0.1418
 8271SOL    HW136449   2.945   1.295   3.278  0.0212 -1.2702  1.0187
 8271SOL    HW236450   2.981   1.310   3.136 -3.7018  1.6678  0.6084
 8272SOL     OW36451   1.759   0.686   1.345  0.2884  0.0134  0.1063
 8272SOL    HW136452   1.850   0.662   1.325  0.5417  1.0017  0.0862
 8272SOL    HW236453   1.753   0.726   1.432  1.2879  1.8090 -0.6568
 8273SOL     OW36454   2.013   0.764   0.601 -0.1193 -0.0319 -0.1741
 8273SOL    HW136455   2.044   0.758   0.691  1.2677  1.9399 -0.5148
 8273SOL    HW236456   1.952   0.691   0.590 -0.4943 -0.0520  1.9889
 8274SOL     OW36457   3.956   2.188  14.802  0.0166 -0.5727 -0.2976
 8274SOL    HW136458   3.929   2.238  14.725  0.2740  1.9175  1.2219
 8274SOL    HW236459   4.027   2.131  14.771 -0.0625 -0.6510 -0.3363
 8275SOL     OW36460   1.453   4.597   2.440  0.3633  0.6935 -0.0383
 8275SOL    HW136461   1.441   4.602   2.345  1.0242  0.5561 -0.1257
 8275SOL    HW236462   1.511   4.521   2.444 -3.8998 -2.4959  0.8356
 8276SOL     OW36463   2.937   4.584   7.855 -0.7095 -0.0807  0.1583
 8276SOL    HW136464   2.863   4.546   7.901  0.1320 -1.4424  0.4165
 8276SOL    HW236465   2.993   4.589   7.933  0.3502 -4.0541 -0.3224
 8277SOL     OW36466   3.407   2.656   6.595 -0.3271 -0.4409 -0.1895
 8277SOL    HW136467   3.318   2.627   6.573 -0.0487  0.1946 -2.1529
 8277SOL    HW236468   3.431   2.602   6.670  2.1785 -0.2253 -0.8407
 8278SOL     OW36469   0.993   1.390   4.637 -0.2488 -0.3095 -0.4198
 8278SOL    HW136470   1.026   1.332   4.569  0.1155  0.8871 -1.2734
 8278SOL    HW236471   0.964   1.331   4.706  0.4428 -0.5412 -0.3267
 8279SOL     OW36472   3.827   0.458  12.732 -0.4479  0.4108 -0.2989
 8279SOL    HW136473   3.891   0.500  12.789  0.2708 -0.7359 -0.2686
 8279SOL    HW236474   3.828   0.365  12.753 -0.2566  1.1027  2.6462
 8280SOL     OW36475   3.154   2.849   3.044  0.1762 -0.4159 -0.0647
 8280SOL    HW136476   3.170   2.756   3.053  1.4963 -0.2810 -1.0955
 8280SOL    HW236477   3.176   2.861   2.952  0.3167  1.4716  0.1977
 8281SOL     OW36478   3.453   0.485   0.939  1.2608 -0.0588  0.0668
 8281SOL    HW136479   3.545   0.469   0.920  1.0969 -1.1220  0.1648
 8281SOL    HW236480   3.425   0.394   0.949  3.5075 -0.6383  1.0735
 8282SOL     OW36481   4.090   2.651   4.944  0.3916  0.3054 -0.9025
 8282SOL    HW136482   4.102   2.561   4.973  0.1154  0.4998 -0.1714
 8282SOL    HW236483   4.172   2.696   4.965 -0.1066 -0.2111  2.2156
 8283SOL     OW36484   4.195   3.453  10.593  0.0078 -0.3250 -0.8660
 8283SOL    HW136485   4.198   3.369  10.639 -2.1407 -0.5974 -1.2051
 8283SOL    HW236486   4.146   3.511  10.651  0.4228 -1.9020  1.0542
 8284SOL     OW36487   0.067   4.551   6.501  0.7499  0.1202  0.0126
 8284SOL    HW136488   4.710   4.567   6.485  0.6567 -0.2515  0.1867
 8284SOL    HW236489   0.061   4.530   6.594 -3.0822  0.6402 -0.0989
 8285SOL     OW36490   3.846   4.674   1.972  0.2166 -0.5432  0.3522
 8285SOL    HW136491   3.935   4.660   1.941  0.7934 -2.3911  2.8071
 8285SOL    HW236492   3.809   4.698   1.887  1.3608 -2.8587 -0.7969
 8286SOL     OW36493   2.284   3.131   6.768  0.1047 -0.4495 -0.3227
 8286SOL    HW136494   2.297   3.065   6.836  0.6708 -0.3278 -0.3193
 8286SOL    HW236495   2.216   3.190   6.803 -0.5509 -0.7782 -1.0441
 8287SOL     OW36496   3.839   0.153  16.283  0.2493  0.3785 -0.7891
 8287SOL    HW136497   3.908   0.146  16.216  0.4211  1.8489 -0.7722
 8287SOL    HW236498   3.768   0.100  16.249  1.0367 -2.2565  1.7238
 8288SOL     OW36499   4.547   4.543   9.049 -0.3429 -0.1158  0.0182
 8288SOL    HW136500   4.465   4.554   9.098 -0.6919 -1.1699 -0.3326
 8288SOL    HW236501   4.531   4.616   8.988  2.7987  0.1585 -0.4488
 8289SOL     OW36502   3.988   0.554   8.748 -0.2654 -0.6274  0.5661
 8289SOL    HW136503   3.904   0.586   8.715 -0.2575 -1.1172  0.0697
 8289SOL    HW236504   4.007   0.620   8.814  2.7788  1.7532 -2.6823
 8290SOL     OW36505   2.648   2.126  11.665  0.4320 -0.4814 -0.2782
 8290SOL    HW136506   2.606   2.183  11.601  1.5189  0.6525  0.0231
 8290SOL    HW236507   2.609   2.043  11.638 -0.5582  0.4386 -1.6402
 8291SOL     OW36508   3.174   2.704   1.364  0.0917 -0.0165  0.4626
 8291SOL    HW136509   3.212   2.624   1.327  0.4359  0.6943 -0.7157
 8291SOL    HW236510   3.220   2.711   1.447 -1.6750 -1.2956  1.5469
 8292SOL     OW36511   1.025   2.090  13.041  0.4053 -0.1970  0.3811
 8292SOL    HW136512   1.015   2.095  12.946  0.2125 -0.1553  0.4025
 8292SOL    HW236513   1.102   2.141  13.066 -0.4388  0.5878  1.4139
 8293SOL     OW36514   0.744   0.410   7.732 -0.3977  0.0861  0.2240
 8293SOL    HW136515   0.775   0.492   7.770 -1.2160  0.8725 -0.7783
 8293SOL    HW236516   0.650   0.406   7.749 -0.6795  1.1853 -1.0384
 8294SOL     OW36517   3.300   3.500  10.440 -0.2374  0.7544  0.5154
 8294SOL    HW136518   3.260   3.436  10.382  1.0850 -0.1090  0.5599
 8294SOL    HW236519   3.221   3.554  10.450 -0.4881  0.1146  2.1166
 8295SOL     OW36520   1.281   2.162   6.936 -0.1458  0.0966 -0.4835
 8295SOL    HW136521   1.236   2.124   7.010  3.5649 -1.4248  0.9998
 8295SOL    HW236522   1.318   2.242   6.975  0.8520 -0.6156  0.0314
 8296SOL     OW36523   0.496   2.620   3.465  0.6671 -0.3178 -0.1417
 8296SOL    HW136524   0.533   2.567   3.536  0.8011 -0.9449 -0.6865
 8296SOL    HW236525   0.447   2.551   3.421 -2.7644  1.5777  0.7115
 8297SOL     OW36526   2.405   0.216   5.449 -0.8321 -0.2133 -0.2304
 8297SOL    HW136527   2.446   0.164   5.518 -0.2649  0.7098  0.1335
 8297SOL    HW236528   2.437   0.170   5.372 -1.1332  1.7412 -1.5376
 8298SOL     OW36529   1.010   3.652   6.684 -0.2125  0.4911 -0.4827
 8298SOL    HW136530   0.940   3.618   6.740  2.0807 -2.2713  0.7066
 8298SOL    HW236531   1.078   3.591   6.713  0.5479  0.2472 -2.7262
 8299SOL     OW36532   4.464   1.534  15.424 -0.0230 -0.2735  0.6381
 8299SOL    HW136533   4.430   1.447  15.402 -1.2650  0.5383 -0.6439
 8299SOL    HW236534   4.390   1.583  15.389  0.8371 -0.5691 -1.6226
 8300SOL     OW36535   3.115   0.405  14.907 -1.1323 -0.5894  0.0925
 8300SOL    HW136536   3.079   0.408  14.818  0.9186  2.3640 -0.6390
 8300SOL    HW236537   3.204   0.379  14.884 -0.5168  1.4950  0.1424
 8301SOL     OW36538   0.243   2.550   6.971 -0.6893  0.3098  0.4453
 8301SOL    HW136539   0.221   2.596   6.890 -1.0642 -0.5857  0.0333
 8301SOL    HW236540   0.162   2.504   6.991 -0.7435 -0.0532 -0.5953
 8302SOL     OW36541   2.928   0.434  15.445 -0.2344  0.0247  0.0305
 8302SOL    HW136542   2.940   0.396  15.358 -2.9505  0.2885 -0.4342
 8302SOL    HW236543   2.848   0.385  15.463 -0.6352  0.2176 -1.2339
 8303SOL     OW36544   1.859   1.983  16.836 -0.4179 -0.8075 -0.0732
 8303SOL    HW136545   1.846   2.056  16.776 -1.9782 -0.5743  0.5661
 8303SOL    HW236546   1.867   1.923  16.761  1.6604  2.6132 -2.6015
 8304SOL     OW36547   1.060   0.636   1.942  0.1296 -0.3270 -0.0472
 8304SOL    HW136548   1.079   0.653   1.850 -1.0165 -0.8726 -0.3822
 8304SOL    HW236549   1.033   0.722   1.975 -1.2153 -1.0516  0.7152
 8305SOL     OW36550   4.656   4.146  15.068  0.1500 -0.3921 -0.5950
 8305SOL    HW136551   4.583   4.197  15.103  1.1084 -0.3961  1.3825
 8305SOL    HW236552   4.726   4.173  15.126 -0.3322 -0.2944 -0.0562
 8306SOL     OW36553   3.202   4.486   6.814 -0.0265  0.0728  0.1146
 8306SOL    HW136554   3.193   4.554   6.880  1.0299 -0.3121  0.6565
 8306SOL    HW236555   3.163   4.410   6.857 -1.0216  0.3170 -0.3550
 8307SOL     OW36556   1.148   2.713  15.862  0.0392  0.3466 -0.0363
 8307SOL    HW136557   1.110   2.794  15.828 -1.3886  0.1766  1.1934
 8307SOL    HW236558   1.227   2.741  15.909  0.4667 -0.6198 -0.1725
 8308SOL     OW36559   2.932   4.005   1.609  0.2636 -0.2826 -0.5408
 8308SOL    HW136560   2.930   4.077   1.672  1.4668  0.4813 -1.3724
 8308SOL    HW236561   2.982   3.944   1.663  0.7913 -0.6275 -1.4079
 8309SOL     OW36562   3.833   0.888   4.944  0.2100  0.0698 -0.0546
 8309SOL    HW136563   3.887   0.949   4.993 -0.0229  0.8843 -0.8102
 8309SOL    HW236564   3.747   0.928   4.960  0.7391  0.2960  2.2404
 8310SOL     OW36565   2.639   2.192   4.394  0.2590 -0.2617  0.1416
 8310SOL    HW136566   2.558   2.216   4.439 -0.1997 -1.1172 -0.2242
 8310SOL    HW236567   2.681   2.273   4.423 -0.7642  1.3223 -2.7762
 8311SOL     OW36568   0.790   1.672   5.614 -0.3564 -0.1810  0.0332
 8311SOL    HW136569   0.856   1.645   5.550  0.6922  1.9988  0.2111
 8311SOL    HW236570   0.715   1.628   5.574  0.9052 -2.1283 -0.1783
 8312SOL     OW36571   1.326   1.224   4.796 -0.1633 -0.2743 -0.1206
 8312SOL    HW136572   1.393   1.230   4.728  0.7521  2.1109  0.9938
 8312SOL    HW236573   1.325   1.129   4.808  1.4295 -0.3089 -0.3629
 8313SOL     OW36574   0.808   3.752   5.746  0.1593 -1.1598 -0.1277
 8313SOL    HW136575   0.751   3.779   5.818  0.9262  3.1947 -1.1273
 8313SOL    HW236576   0.892   3.761   5.790 -0.0388  0.5001 -0.0686
 8314SOL     OW36577   2.062   0.994   6.090  0.7219 -0.0462  0.0833
 8314SOL    HW136578   1.970   1.013   6.107  0.4604 -1.6387  0.4442
 8314SOL    HW236579   2.083   1.062   6.026 -1.3593  1.1928  0.7567
 8315SOL     OW36580   0.340   4.056  15.101 -0.4522 -0.3924  0.4720
 8315SOL    HW136581   0.266   4.101  15.144  1.7727  2.3586  1.4204
 8315SOL    HW236582   0.399   4.031  15.172  0.0788 -1.1711 -0.2495
 8316SOL     OW36583   3.357   0.484   2.495  0.7881 -0.1128 -0.5570
 8316SOL    HW136584   3.314   0.565   2.468  0.0584  0.3330  1.9042
 8316SOL    HW236585   3.279   0.439   2.528  0.2177  2.1530  1.1859
 8317SOL     OW36586   2.685   0.141   5.882  0.4606 -0.0680 -0.9217
 8317SOL    HW136587   2.704   0.076   5.949 -0.1441 -0.8219 -1.4727
 8317SOL    HW236588   2.616   0.094   5.835  0.6554 -0.0919 -1.1815
 8318SOL     OW36589   3.157   1.124   2.229 -0.7433  0.3406 -0.4320
 8318SOL    HW136590   3.186   1.197   2.175  0.4349 -0.1654 -0.4748
 8318SOL    HW236591   3.065   1.149   2.244 -0.6341 -0.4249  1.4765
 8319SOL     OW36592   4.221   3.506   8.784 -0.2833  0.4334 -0.5757
 8319SOL    HW136593   4.233   3.411   8.784  2.7024  0.8095 -0.5427
 8319SOL    HW236594   4.239   3.539   8.872 -0.6013 -1.3077  0.1389
 8320SOL     OW36595   3.222   2.410   3.430 -0.0022  0.0192 -0.0181
 8320SOL    HW136596   3.158   2.371   3.490  0.9115  1.2198  1.7407
 8320SOL    HW236597   3.247   2.340   3.369  1.4931 -0.6700  1.3899
 8321SOL     OW36598   3.812   3.081   9.873  0.1146 -0.2108 -0.4312
 8321SOL    HW136599   3.793   2.992   9.901  3.3118 -1.7849 -3.2703
 8321SOL    HW236600   3.762   3.134   9.935 -0.0851  0.4141 -1.1304
 8322SOL     OW36601   3.542   0.122   8.373 -0.2565 -0.0005 -0.2911
 8322SOL    HW136602   3.557   0.209   8.335  1.4581  0.3161  1.1162
 8322SOL    HW236603   3.548   0.151   8.464 -1.6600 -0.5008 -0.0388
 8323SOL     OW36604   1.889   0.445   4.764  0.0449  0.2696 -0.3251
 8323SOL    HW136605   1.898   0.489   4.680 -0.2851  1.6158  0.3571
 8323SOL    HW236606   1.982   0.429   4.778  0.5637  1.9593 -1.9654
 8324SOL     OW36607   1.669   1.218   8.996  0.2656 -0.3548 -0.3583
 8324SOL    HW136608   1.760   1.212   8.966  0.0998  3.7642 -1.6146
 8324SOL    HW236609   1.648   1.308   8.971 -2.1514 -0.9774 -0.5654
 8325SOL     OW36610   4.477   3.234   4.676  0.7098 -0.3738  0.0352
 8325SOL    HW136611   4.571   3.251   4.678  0.1995  2.7967 -2.6427
 8325SOL    HW236612   4.451   3.251   4.766  0.6282 -2.2879  0.3718
 8326SOL     OW36613   0.815   2.055   2.548  0.5152 -0.0683  0.0557
 8326SOL    HW136614   0.856   2.136   2.576 -0.9105 -0.6001  3.7202
 8326SOL    HW236615   0.842   2.048   2.456  1.9351  1.1722  0.3903
 8327SOL     OW36616   1.340   1.767   5.819  0.6379  0.1024 -0.3702
 8327SOL    HW136617   1.398   1.836   5.850 -0.4137  0.1357  1.5051
 8327SOL    HW236618   1.405   1.729   5.760 -0.4672  1.9632 -2.8045
 8328SOL     OW36619   0.762   3.682   8.529  0.1083 -0.3696  0.0304
 8328SOL    HW136620   0.808   3.640   8.602  1.2558  0.9744  0.0707
 8328SOL    HW236621   0.808   3.643   8.455  0.1992 -0.0415 -0.0857
 8329SOL     OW36622   3.948   1.035   4.207 -0.3031  0.3433  0.0008
 8329SOL    HW136623   4.008   0.989   4.265 -0.0308 -0.0471 -0.5868
 8329SOL    HW236624   3.999   1.032   4.126  2.9678  1.8205  2.0134
 8330SOL     OW36625   2.435   4.454  15.398  0.2090  0.1338 -0.3994
 8330SOL    HW136626   2.460   4.364  15.376 -0.6189 -0.5700  1.5681
 8330SOL    HW236627   2.350   4.429  15.434 -0.5572  2.3721 -0.6331
 8331SOL     OW36628   1.721   4.709   3.476 -0.5051 -0.2703 -0.0521
 8331SOL    HW136629   1.768   4.695   3.394 -0.7174 -0.5211 -0.1330
 8331SOL    HW236630   1.691   4.623   3.506 -3.2160  1.5250  2.3298
 8332SOL     OW36631   1.209   2.604  12.361  0.1022  0.0211 -0.1853
 8332SOL    HW136632   1.210   2.680  12.302 -0.1572 -1.4265 -2.0387
 8332SOL    HW236633   1.299   2.581  12.340  0.1980 -1.4597  1.9798
 8333SOL     OW36634   2.707   2.338  13.948  0.1377 -0.2431 -0.2921
 8333SOL    HW136635   2.744   2.255  13.980  1.7438  0.5158 -0.1826
 8333SOL    HW236636   2.672   2.310  13.864 -0.1563 -3.1853  0.8025
 8334SOL     OW36637   0.858   1.329  13.856 -0.6384  0.0178  0.0118
 8334SOL    HW136638   0.807   1.375  13.922 -1.8191 -0.4224 -0.5879
 8334SOL    HW236639   0.938   1.306  13.903  1.0463 -0.7095 -3.1769
 8335SOL     OW36640   3.707   1.930  13.310  0.0815  0.9177  0.1709
 8335SOL    HW136641   3.753   1.849  13.288 -0.7309  0.5580 -0.2153
 8335SOL    HW236642   3.638   1.902  13.371 -0.7383  0.3339 -1.0176
 8336SOL     OW36643   3.729   1.017  17.335 -0.4686  0.1502 -0.3211
 8336SOL    HW136644   3.789   1.059  17.274 -0.1060  0.4859  0.2662
 8336SOL    HW236645   3.777   0.990  17.413  1.9184  1.1907 -1.4308
 8337SOL     OW36646   4.137   3.693   4.154 -0.0992  0.3242 -0.0394
 8337SOL    HW136647   4.088   3.631   4.210  1.9929  0.1002  1.5469
 8337SOL    HW236648   4.131   3.659   4.065 -0.2456  4.1020 -1.4414
 8338SOL     OW36649   2.091   3.020  17.023  0.4894 -0.0906  0.2885
 8338SOL    HW136650   2.173   3.069  17.011 -1.6110  3.2797 -0.4004
 8338SOL    HW236651   2.084   3.034  17.118 -0.2157  1.3051  0.0322
 8339SOL     OW36652   4.142   1.347   8.986 -0.0344  0.5604  0.0701
 8339SOL    HW136653   4.147   1.379   8.896 -0.4049 -0.1287 -0.2000
 8339SOL    HW236654   4.049   1.323   8.987  0.1073 -0.2015 -3.1601
 8340SOL     OW36655   3.548   2.089   5.592  0.3941 -0.0241  0.1882
 8340SOL    HW136656   3.465   2.046   5.569  1.5586 -0.6230 -2.8989
 8340SOL    HW236657   3.541   2.097   5.687  0.1466 -2.7139  0.3916
 8341SOL     OW36658   0.081   2.279   7.329  0.4455  0.6381 -0.0239
 8341SOL    HW136659   0.085   2.362   7.282 -0.4852  0.4477 -0.4358
 8341SOL    HW236660   0.168   2.238   7.324 -0.5893 -1.7523  1.6279
 8342SOL     OW36661   3.746   1.126  16.866  0.2119 -0.5994 -0.3990
 8342SOL    HW136662   3.808   1.158  16.931  1.6194 -0.7986 -1.6561
 8342SOL    HW236663   3.686   1.078  16.923 -1.4336  0.9623 -0.8046
 8343SOL     OW36664   0.697   0.524  17.516  0.4201  0.2300 -0.7527
 8343SOL    HW136665   0.605   0.506  17.498  0.3458  2.0731 -2.1481
 8343SOL    HW236666   0.731   0.440  17.549  2.9903  2.0390  1.2077
 8344SOL     OW36667   3.179   4.466   8.827  0.0068 -0.7736  0.2190
 8344SOL    HW136668   3.196   4.527   8.898 -0.8933  2.0108 -1.9977
 8344SOL    HW236669   3.177   4.387   8.882 -1.0173  0.7273  2.3133
 8345SOL     OW36670   2.106   2.786   8.444  0.4246 -0.3910  0.2683
 8345SOL    HW136671   2.117   2.758   8.535  0.2327  2.4531  1.1722
 8345SOL    HW236672   2.188   2.759   8.402  1.0919 -1.1617  2.0860
 8346SOL     OW36673   3.973   4.644   1.717 -0.1763 -0.1267  0.1062
 8346SOL    HW136674   3.986   4.582   1.645 -0.6969  2.6920 -2.3732
 8346SOL    HW236675   4.056   4.629   1.763  0.1904 -1.9872 -1.1622
 8347SOL     OW36676   2.891   2.957   1.748  0.6393 -0.2019 -0.2315
 8347SOL    HW136677   2.921   3.016   1.817  2.7439  0.7837 -2.0046
 8347SOL    HW236678   2.921   3.003   1.669  0.6970  1.5136  0.7824
 8348SOL     OW36679   1.059   1.543   7.516  0.3204 -0.0823 -1.1144
 8348SOL    HW136680   0.997   1.601   7.472 -0.7837 -0.4829 -0.0751
 8348SOL    HW236681   1.023   1.520   7.601  2.1899 -1.4977 -0.6985
 8349SOL     OW36682   0.540   4.530   6.369 -0.0111 -0.4903  0.3245
 8349SOL    HW136683   0.624   4.499   6.336 -0.0699 -0.9124  0.5712
 8349SOL    HW236684   0.554   4.625   6.368 -2.3126 -0.1569  0.8798
 8350SOL     OW36685   2.798   0.115   2.476 -0.0706  0.0635  0.2195
 8350SOL    HW136686   2.878   0.095   2.427 -0.2419  3.5603 -1.5381
 8350SOL    HW236687   2.837   0.119   2.564 -0.5004  0.2095  0.4035
 8351SOL     OW36688   2.644   2.525   2.184 -0.3244  0.7255 -0.6176
 8351SOL    HW136689   2.680   2.522   2.095 -2.2792 -0.8914 -1.3385
 8351SOL    HW236690   2.717   2.482   2.229 -0.7877  1.3903  0.7889
 8352SOL     OW36691   0.926   2.871  14.976  0.1253 -0.1783 -0.1812
 8352SOL    HW136692   0.898   2.903  15.061  1.3156  1.2707 -0.3330
 8352SOL    HW236693   1.016   2.840  14.989  0.7447  2.5428  1.9172
 8353SOL     OW36694   3.554   4.128  14.532  0.3267 -0.8813 -0.2370
 8353SOL    HW136695   3.630   4.145  14.475  0.1461 -0.1329 -0.2622
 8353SOL    HW236696   3.533   4.038  14.507 -0.8203 -0.2223 -1.6453
 8354SOL     OW36697   4.425   2.126   2.544 -0.3307 -0.6410 -0.5604
 8354SOL    HW136698   4.388   2.206   2.508 -0.2342  0.0406  0.8626
 8354SOL    HW236699   4.465   2.084   2.468  0.9735 -1.7274  0.7191
 8355SOL     OW36700   1.249   3.297   5.316 -0.3742 -0.5464  0.1969
 8355SOL    HW136701   1.254   3.367   5.251  2.2965 -0.6868  0.2511
 8355SOL    HW236702   1.314   3.235   5.282  0.3879  0.3995 -0.0792
 8356SOL     OW36703   1.761   0.709  16.100 -0.0678 -0.1032 -0.1794
 8356SOL    HW136704   1.827   0.767  16.062 -0.2940 -0.9617 -1.9074
 8356SOL    HW236705   1.809   0.669  16.172 -0.0506 -2.3246 -1.4263
 8357SOL     OW36706   3.332   4.095   0.047 -0.2103 -0.3156 -0.3760
 8357SOL    HW136707   3.364   4.029   0.109  0.9128 -1.3211 -2.0184
 8357SOL    HW236708   3.372   4.057  17.713  0.0106  1.2815 -1.0226
 8358SOL     OW36709   1.474   0.524  15.777 -0.5842  0.5227  0.0798
 8358SOL    HW136710   1.420   0.577  15.718  0.3214  1.2432 -0.1098
 8358SOL    HW236711   1.464   0.574  15.858 -2.6384 -0.5307  0.4774
 8359SOL     OW36712   4.596   1.584   8.377  0.0922 -0.3747  0.0742
 8359SOL    HW136713   4.637   1.502   8.348  0.0464 -0.4165  0.1266
 8359SOL    HW236714   4.664   1.617   8.436 -2.3729  2.7336  1.1676
 8360SOL     OW36715   2.346   1.324   3.491 -0.2322 -0.6163 -0.1829
 8360SOL    HW136716   2.253   1.342   3.476 -0.1661 -1.5845 -1.8229
 8360SOL    HW236717   2.383   1.410   3.509  1.0708 -0.5780 -3.0695
 8361SOL     OW36718   2.297   0.160   7.664  0.1355 -0.5005  0.2091
 8361SOL    HW136719   2.310   0.126   7.752  0.9959 -0.4925  0.0863
 8361SOL    HW236720   2.233   0.230   7.680 -0.3870 -0.1651 -3.3109
 8362SOL     OW36721   2.795   3.110   3.255  0.0337  0.1900  0.1723
 8362SOL    HW136722   2.711   3.077   3.288 -0.6945  1.7032 -0.1960
 8362SOL    HW236723   2.841   3.115   3.339 -1.5276  2.1053  0.9129
 8363SOL     OW36724   0.626   0.866   4.807  0.8487 -0.1923 -0.2613
 8363SOL    HW136725   0.618   0.829   4.895 -1.0373 -1.1347 -0.8371
 8363SOL    HW236726   0.569   0.941   4.822 -1.3435 -1.7928 -0.6726
 8364SOL     OW36727   2.791   3.478   9.287 -0.0575  0.3299 -0.6849
 8364SOL    HW136728   2.701   3.504   9.307  0.6214  1.6933  0.6236
 8364SOL    HW236729   2.799   3.397   9.337  4.5684  0.1158 -1.7136
 8365SOL     OW36730   0.731   4.614   5.291 -0.1428  0.0012  0.0248
 8365SOL    HW136731   0.654   4.580   5.336 -0.5475  2.2513  1.0530
 8365SOL    HW236732   0.710   4.706   5.275  2.0188  0.6533  0.8956
 8366SOL     OW36733   3.573   0.993   3.885  0.0609  0.3984  0.3244
 8366SOL    HW136734   3.614   0.948   3.811  0.6724 -0.1094  0.9662
 8366SOL    HW236735   3.482   0.963   3.883 -0.3419  1.7489 -1.9756
 8367SOL     OW36736   1.101   1.900   5.857 -0.0153 -0.5279  1.1346
 8367SOL    HW136737   1.167   1.839   5.823  1.3333  1.5094  0.1275
 8367SOL    HW236738   1.159   1.973   5.837  1.8562 -1.4976  2.9304
 8368SOL     OW36739   2.930   0.690   1.170 -0.4249 -0.3066 -0.2398
 8368SOL    HW136740   2.901   0.769   1.124 -1.4157 -1.0852 -0.9446
 8368SOL    HW236741   2.996   0.728   1.228  1.0795 -1.5499 -1.1389
 8369SOL     OW36742   3.359   2.720  11.459 -0.3024  0.1856  0.2518
 8369SOL    HW136743   3.265   2.741  11.459 -0.9706 -2.7929 -2.4239
 8369SOL    HW236744   3.390   2.799  11.502  2.6022 -0.8619  0.0503
 8370SOL     OW36745   2.578   2.962   8.475  0.2211 -0.1271  0.8116
 8370SOL    HW136746   2.558   3.050   8.441 -0.3847 -1.0736 -1.3084
 8370SOL    HW236747   2.653   2.970   8.533  1.4361  1.6440 -1.0043
 8371SOL     OW36748   1.640   2.824   6.386 -1.0070  0.7366 -0.2357
 8371SOL    HW136749   1.596   2.768   6.450  0.1742 -1.6658 -1.5382
 8371SOL    HW236750   1.629   2.910   6.427  0.1889  0.4626  0.6855
 8372SOL     OW36751   0.196   2.709   4.017 -0.1061  0.0088 -0.1516
 8372SOL    HW136752   0.158   2.792   4.046 -1.0409 -0.0025 -1.3277
 8372SOL    HW236753   0.225   2.667   4.098 -0.3787 -0.9960 -0.5709
 8373SOL     OW36754   0.622   0.430   4.634 -0.1382  0.0390  1.1377
 8373SOL    HW136755   0.549   0.490   4.651 -1.5369 -1.0381 -1.0440
 8373SOL    HW236756   0.689   0.479   4.682  1.0471 -0.6398  0.1691
 8374SOL     OW36757   2.231   1.524  13.216  0.8245  0.0705 -0.3726
 8374SOL    HW136758   2.277   1.564  13.290  1.0359 -1.0815  0.1182
 8374SOL    HW236759   2.300   1.463  13.190 -0.1529 -0.1236 -2.4837
 8375SOL     OW36760   4.369   0.163   7.781  0.0935 -0.3955 -0.1760
 8375SOL    HW136761   4.285   0.128   7.812 -0.3308  0.4281 -0.3792
 8375SOL    HW236762   4.355   0.157   7.686  0.8054 -1.8488 -0.1820
 8376SOL     OW36763   0.466   4.072   6.315  0.0102 -0.0120 -0.2973
 8376SOL    HW136764   0.505   4.044   6.232  1.9743 -0.9939  0.9475
 8376SOL    HW236765   0.372   4.079   6.299  0.1690 -0.1987 -1.3107
 8377SOL     OW36766   2.926   1.765  10.922  0.0436  0.3792 -0.2552
 8377SOL    HW136767   2.922   1.712  11.002  0.6459 -0.3637 -0.7136
 8377SOL    HW236768   2.859   1.828  10.949  0.0950 -0.2412  1.3182
 8378SOL     OW36769   4.672   1.866   2.063 -0.0164  0.0934 -0.2262
 8378SOL    HW136770   4.684   1.876   1.969 -1.4506  0.3754 -0.3745
 8378SOL    HW236771   4.579   1.843   2.065  0.0157 -0.1208 -1.1157
 8379SOL     OW36772   3.751   3.209   4.122 -0.1805  0.2745 -0.2847
 8379SOL    HW136773   3.709   3.125   4.142 -1.9110  0.8312 -1.6265
 8379SOL    HW236774   3.706   3.271   4.179  0.5792  0.5057  0.0560
 8380SOL     OW36775   0.888   4.386   3.961  0.1788  0.4710 -0.8022
 8380SOL    HW136776   0.911   4.467   3.918  2.3739 -0.5881 -1.6104
 8380SOL    HW236777   0.800   4.374   3.924  0.0355  2.4069 -1.0934
 8381SOL     OW36778   1.674   0.956   4.503  0.1966  0.6701 -0.0011
 8381SOL    HW136779   1.665   0.889   4.436 -1.4396  0.6581  0.2516
 8381SOL    HW236780   1.715   0.906   4.574 -0.3957 -0.0912 -0.2038
 8382SOL     OW36781   0.118   3.591   8.891 -0.0497 -0.2952 -0.2161
 8382SOL    HW136782   0.186   3.565   8.828  0.3700 -1.0779  0.5530
 8382SOL    HW236783   0.145   3.682   8.883  1.2031 -0.6632 -0.3453
 8383SOL     OW36784   0.544   0.061   6.310 -0.0313  0.2535 -0.1960
 8383SOL    HW136785   0.640   0.064   6.309  0.0170 -1.4396  0.3984
 8383SOL    HW236786   0.529   0.152   6.284 -0.7095  0.5779  1.3557
 8384SOL     OW36787   3.938   2.817   9.157 -0.3540 -0.8775 -0.2384
 8384SOL    HW136788   3.932   2.732   9.114 -0.7645  0.1646 -2.2764
 8384SOL    HW236789   3.853   2.826   9.200  0.3505 -1.3718  1.2538
 8385SOL     OW36790   2.536   1.575  15.884 -0.2102  0.1196  0.6290
 8385SOL    HW136791   2.573   1.627  15.812  0.3517  1.0165  1.5518
 8385SOL    HW236792   2.471   1.522  15.839 -0.4589 -0.4968  1.7003
 8386SOL     OW36793   3.239   4.369   2.959  0.6397  0.1033  0.1174
 8386SOL    HW136794   3.297   4.404   2.891 -0.5335  2.2084  0.2199
 8386SOL    HW236795   3.156   4.383   2.913 -0.0179 -1.7082  0.7417
 8387SOL     OW36796   2.700   3.487   4.537  0.1149  0.2256  0.4699
 8387SOL    HW136797   2.659   3.562   4.493  1.5247  0.3119 -0.6948
 8387SOL    HW236798   2.770   3.469   4.474 -1.2482  0.7884 -1.2072
 8388SOL     OW36799   3.936   2.122   8.954  0.2299  0.1930 -0.9347
 8388SOL    HW136800   4.018   2.072   8.946  0.5075  0.6017 -0.6770
 8388SOL    HW236801   3.960   2.210   8.985 -0.7774  0.3519 -0.6257
 8389SOL     OW36802   3.184   0.799   3.820 -0.2148  0.2148  0.2645
 8389SOL    HW136803   3.093   0.828   3.833 -0.7190 -1.8695  1.3309
 8389SOL    HW236804   3.211   0.859   3.750 -2.9328  2.0996  0.8013
 8390SOL     OW36805   1.603   2.825   5.870  0.1532 -0.4621  0.1014
 8390SOL    HW136806   1.560   2.900   5.912  1.4692 -0.2826  1.1238
 8390SOL    HW236807   1.545   2.750   5.861  0.1126 -0.6939  2.2529
 8391SOL     OW36808   0.434   2.432   4.483  0.1072 -0.2715  0.2322
 8391SOL    HW136809   0.406   2.375   4.555 -0.8211 -0.3784 -0.2112
 8391SOL    HW236810   0.439   2.512   4.536  0.0710 -0.3940  0.4212
 8392SOL     OW36811   2.881   1.797   5.398  0.0907 -0.6969 -0.3670
 8392SOL    HW136812   2.875   1.891   5.379 -1.5486 -0.7906 -0.3295
 8392SOL    HW236813   2.816   1.802   5.468 -0.6735 -0.2906 -1.1049
 8393SOL     OW36814   4.366   3.291  15.761 -0.6063  0.1461  0.1204
 8393SOL    HW136815   4.369   3.386  15.748  1.7491  0.1196  0.4710
 8393SOL    HW236816   4.431   3.265  15.697 -0.4724  0.9122 -0.0627
 8394SOL     OW36817   1.085   3.697   7.789  0.8576 -0.6139  1.0062
 8394SOL    HW136818   1.009   3.673   7.736  1.6395  0.3659 -0.5480
 8394SOL    HW236819   1.044   3.774   7.829  0.8766 -0.0888  0.0260
 8395SOL     OW36820   1.433   2.831   4.369 -0.7222 -0.9079 -0.2262
 8395SOL    HW136821   1.453   2.750   4.417 -2.3428 -1.1540  0.0288
 8395SOL    HW236822   1.492   2.888   4.417 -1.7149 -1.7090  1.9625
 8396SOL     OW36823   0.894   0.562  17.332  0.0357 -0.4359  0.1411
 8396SOL    HW136824   0.836   0.606  17.270  2.4132 -0.0974 -1.8585
 8396SOL    HW236825   0.834   0.550  17.406  2.2451  0.3989  2.0588
 8397SOL     OW36826   2.913   3.935   3.591  0.2135  0.0567 -0.3288
 8397SOL    HW136827   2.971   4.011   3.597 -0.2866  0.5240 -1.4864
 8397SOL    HW236828   2.975   3.865   3.613 -2.0761 -1.7363  0.3185
 8398SOL     OW36829   1.828   1.741   8.637 -0.1625 -0.3786  0.1279
 8398SOL    HW136830   1.904   1.684   8.643 -1.0520 -1.5641  0.1267
 8398SOL    HW236831   1.821   1.778   8.725 -0.1836  0.1003 -0.0744
 8399SOL     OW36832   0.345   3.831   6.508 -0.9906  0.0487 -0.1183
 8399SOL    HW136833   0.312   3.815   6.419 -0.4931  2.5106 -0.7400
 8399SOL    HW236834   0.417   3.768   6.510 -1.0675 -0.0580 -0.6604
 8400SOL     OW36835   0.867   4.335  11.970  0.2720 -0.3578  0.1504
 8400SOL    HW136836   0.885   4.427  11.948  1.3470 -0.3415  1.1229
 8400SOL    HW236837   0.864   4.328  12.065 -0.8833 -1.9311 -0.0011
 8401SOL     OW36838   1.022   2.107   0.198 -0.0646 -0.5689  0.4055
 8401SOL    HW136839   1.028   2.091   0.292  0.2845  0.9841  0.6533
 8401SOL    HW236840   1.110   2.102   0.161  0.1712  1.1613  0.6964
 8402SOL     OW36841   4.551   1.653   9.775  0.1428  0.3891 -0.0759
 8402SOL    HW136842   4.637   1.695   9.785  1.1127 -2.1927  2.5158
 8402SOL    HW236843   4.561   1.559   9.792  0.9547  0.7583  1.5197
 8403SOL     OW36844   4.336   0.957  13.201 -0.0804 -0.3546  0.3554
 8403SOL    HW136845   4.387   1.037  13.190 -0.0224 -0.3882  0.3842
 8403SOL    HW236846   4.384   0.889  13.154 -2.2889 -1.3052 -0.5683
 8404SOL     OW36847   0.495   0.926   9.076 -0.3391  0.0999  0.4400
 8404SOL    HW136848   0.448   0.919   9.159 -0.3878  0.6121  0.4582
 8404SOL    HW236849   0.425   0.968   9.024  1.1197 -0.3864 -1.9272
 8405SOL     OW36850   3.127   0.634  10.137  0.2529  0.5405 -0.7157
 8405SOL    HW136851   3.066   0.704  10.161 -0.5682 -0.7484  0.9332
 8405SOL    HW236852   3.196   0.700  10.129 -0.2972  1.2652  0.5428
 8406SOL     OW36853   3.339   3.448  13.648  0.5897  0.3922  0.1808
 8406SOL    HW136854   3.248   3.478  13.648  1.0242  1.6221 -2.3613
 8406SOL    HW236855   3.361   3.509  13.718  0.9995  0.5654 -0.1050
 8407SOL     OW36856   3.225   3.119   6.154 -0.4897  0.5679 -0.3477
 8407SOL    HW136857   3.136   3.091   6.174 -0.8548  0.4695 -2.1469
 8407SOL    HW236858   3.268   3.119   6.240  1.0537  2.8771 -1.1110
 8408SOL     OW36859   2.707   3.397  16.700  0.0401 -0.0608  0.1519
 8408SOL    HW136860   2.741   3.414  16.788  0.3137 -1.5259  0.3293
 8408SOL    HW236861   2.759   3.469  16.665 -0.2557 -1.1643 -2.5103
 8409SOL     OW36862   4.333   2.721   4.978 -0.2237 -0.2040 -0.0313
 8409SOL    HW136863   4.389   2.645   4.963  1.1712  1.0962 -1.4263
 8409SOL    HW236864   4.327   2.723   5.073  0.6991 -3.6593  0.0720
 8410SOL     OW36865   3.528   2.392  16.798 -0.0604  0.1140  0.1910
 8410SOL    HW136866   3.534   2.467  16.739  2.6544 -1.1366 -1.1384
 8410SOL    HW236867   3.540   2.318  16.739 -1.6131  0.1303 -0.1414
 8411SOL     OW36868   0.126   3.569  15.872 -0.0615 -0.1290  0.2299
 8411SOL    HW136869   0.161   3.559  15.960  0.5974 -1.7155 -0.2291
 8411SOL    HW236870   0.137   3.664  15.858  0.3708 -0.5166 -2.0947
 8412SOL     OW36871   3.992   2.465   4.355  0.3077  0.4268 -0.5286
 8412SOL    HW136872   4.004   2.410   4.432 -1.0620  0.8937  0.0186
 8412SOL    HW236873   4.004   2.408   4.280  0.1771 -0.7204  0.3245
 8413SOL     OW36874   2.676   3.562   5.094  0.0821  0.0044 -0.8659
 8413SOL    HW136875   2.681   3.576   5.188 -0.2715  0.2375 -0.8847
 8413SOL    HW236876   2.590   3.520   5.091 -0.0166  0.3451 -2.5570
 8414SOL     OW36877   0.390   1.598  11.182 -0.1915 -0.4986  0.0371
 8414SOL    HW136878   0.342   1.672  11.219  1.0022  1.0131 -1.4236
 8414SOL    HW236879   0.457   1.640  11.127  1.4535 -1.7100  1.0957
 8415SOL     OW36880   1.751   0.254   8.929  0.5545  0.8988  0.1800
 8415SOL    HW136881   1.671   0.306   8.937 -1.2219 -1.4795 -2.3234
 8415SOL    HW236882   1.743   0.198   9.006  0.5742  1.4668  0.6020
 8416SOL     OW36883   3.569   3.380   0.329 -0.1300 -0.1509 -0.6007
 8416SOL    HW136884   3.474   3.386   0.328  0.2432  5.4400 -1.0510
 8416SOL    HW236885   3.589   3.414   0.241  0.0618  2.3072  0.3897
 8417SOL     OW36886   2.349   0.604   1.944 -0.2858 -0.2245 -0.5365
 8417SOL    HW136887   2.344   0.694   1.975  0.3614  0.6743 -3.0425
 8417SOL    HW236888   2.327   0.560   2.026 -0.4130  2.0189  0.6422
 8418SOL     OW36889   2.776   0.745   2.897  0.2333 -0.8355 -0.0769
 8418SOL    HW136890   2.685   0.771   2.883  1.4829  2.4220 -2.1442
 8418SOL    HW236891   2.813   0.817   2.948  1.1511 -0.3699 -1.4129
 8419SOL     OW36892   0.222   3.144   6.394  0.0872 -0.2213 -0.1793
 8419SOL    HW136893   0.171   3.086   6.337  1.4619 -1.4083 -0.1843
 8419SOL    HW236894   0.267   3.199   6.329 -0.5934 -0.5587 -0.9479
 8420SOL     OW36895   1.480   1.867  15.590  0.0437  0.0331  0.4036
 8420SOL    HW136896   1.524   1.949  15.614  0.8706 -0.1936 -0.3542
 8420SOL    HW236897   1.394   1.869  15.633  1.5294 -1.2289  3.3674
 8421SOL     OW36898   0.790   3.358  12.103  0.5015  0.3647 -0.3222
 8421SOL    HW136899   0.777   3.378  12.011  2.7108  1.5035 -0.3717
 8421SOL    HW236900   0.841   3.435  12.126 -0.2575  2.0083 -4.2696
 8422SOL     OW36901   3.690   0.927  14.558 -0.1387 -0.1997 -0.2230
 8422SOL    HW136902   3.641   1.001  14.593  3.9973  1.9435  0.9960
 8422SOL    HW236903   3.632   0.851  14.547  0.8897 -0.6763 -2.2788
 8423SOL     OW36904   1.833   1.475  16.563  0.4991  0.4452  0.2588
 8423SOL    HW136905   1.786   1.477  16.480  2.1244  1.8225 -0.6061
 8423SOL    HW236906   1.920   1.442  16.539 -0.4186 -2.9677  1.5038
 8424SOL     OW36907   0.291   4.122   8.234  0.1774 -0.1598  0.3000
 8424SOL    HW136908   0.279   4.178   8.311 -1.2042 -1.4223  1.0086
 8424SOL    HW236909   0.341   4.181   8.178  1.7851 -0.2236  1.6844
 8425SOL     OW36910   1.213   2.234   2.461  0.5089  0.2685  0.4552
 8425SOL    HW136911   1.219   2.318   2.415  0.3703 -0.1354 -0.3094
 8425SOL    HW236912   1.251   2.268   2.542  0.3280 -0.0666  0.6823
 8426SOL     OW36913   0.337   2.199   9.601 -0.9091  0.0818  0.1712
 8426SOL    HW136914   0.315   2.290   9.624  2.8176  0.7517  1.1150
 8426SOL    HW236915   0.402   2.179   9.668 -1.3050 -2.0648 -0.0994
 8427SOL     OW36916   2.892   1.860   4.635 -0.1289 -0.0747 -0.3414
 8427SOL    HW136917   2.937   1.883   4.554  3.0178 -0.7399  1.2278
 8427SOL    HW236918   2.929   1.932   4.686  1.5636 -1.2552  0.0597
 8428SOL     OW36919   0.766   1.809  13.386  0.0116  0.0411  0.2257
 8428SOL    HW136920   0.760   1.880  13.322 -0.7918  0.2529  0.5420
 8428SOL    HW236921   0.716   1.741  13.342  0.1896  0.3777 -0.4980
 8429SOL     OW36922   4.155   3.896   4.324  0.3566  0.5676 -0.0170
 8429SOL    HW136923   4.071   3.882   4.368  0.0830  1.9939 -0.0898
 8429SOL    HW236924   4.138   3.845   4.245  0.3139  0.3238  0.1477
 8430SOL     OW36925   3.648   4.124   5.207  0.3057 -0.3441 -0.2570
 8430SOL    HW136926   3.571   4.177   5.229  0.4583 -0.3395  0.2594
 8430SOL    HW236927   3.678   4.102   5.295  1.1428  0.5458 -0.3250
 8431SOL     OW36928   2.439   4.045   2.957  0.2244  0.0956  0.5796
 8431SOL    HW136929   2.351   4.026   2.991 -0.9927 -0.2061 -2.6812
 8431SOL    HW236930   2.491   3.972   2.988 -0.9753 -2.8066 -4.1580
 8432SOL     OW36931   1.102   3.609   2.573 -1.0991 -0.2447 -0.3426
 8432SOL    HW136932   1.120   3.649   2.488  2.3873  0.7438  0.8814
 8432SOL    HW236933   1.026   3.663   2.593 -0.9727 -0.2516  0.1735
 8433SOL     OW36934   1.346   1.869   3.049  0.2569 -0.8537  0.8057
 8433SOL    HW136935   1.438   1.890   3.066  0.7004 -1.5096 -0.7677
 8433SOL    HW236936   1.361   1.790   2.997 -0.0586 -0.5100  0.1989
 8434SOL     OW36937   1.591   2.197  13.673  0.6183  0.1356 -0.1314
 8434SOL    HW136938   1.529   2.127  13.654  0.0416  0.5101  0.3821
 8434SOL    HW236939   1.535   2.249  13.730 -0.8241 -0.6310 -0.8477
 8435SOL     OW36940   1.753   0.494  10.736  0.8922  0.7578 -0.4628
 8435SOL    HW136941   1.809   0.570  10.723 -0.1617  1.4992 -0.7271
 8435SOL    HW236942   1.767   0.474  10.829 -0.3568  2.9234  0.1876
 8436SOL     OW36943   2.905   2.060  17.123  0.4341 -0.0149  0.1414
 8436SOL    HW136944   2.990   2.031  17.090 -0.1141  0.0023 -1.2650
 8436SOL    HW236945   2.848   1.983  17.113  0.4351  0.1672 -1.2271
 8437SOL     OW36946   2.093   2.479   5.129  0.3670 -0.2306  0.3324
 8437SOL    HW136947   2.050   2.394   5.126  0.5163 -0.2914 -0.1521
 8437SOL    HW236948   2.174   2.455   5.174  0.5719 -0.3412 -0.0900
 8438SOL     OW36949   4.332   4.305   0.654  0.5376  0.0405 -0.0739
 8438SOL    HW136950   4.294   4.355   0.726 -1.6785  0.3295 -1.4445
 8438SOL    HW236951   4.384   4.378   0.618 -0.2571  1.6596  2.0734
 8439SOL     OW36952   3.510   4.354   9.762 -0.2080 -0.4117 -0.1152
 8439SOL    HW136953   3.518   4.301   9.683 -1.9484  1.3416 -1.4504
 8439SOL    HW236954   3.460   4.430   9.735  0.1378 -0.8139 -1.8747
 8440SOL     OW36955   4.589   3.145  15.171  0.0267  0.2041  0.5258
 8440SOL    HW136956   4.600   3.094  15.090 -0.8239  1.6228 -0.4839
 8440SOL    HW236957   4.571   3.078  15.237 -0.8407  2.2395  2.3602
 8441SOL     OW36958   3.304   4.674   1.096 -0.5046  0.1420  0.2094
 8441SOL    HW136959   3.387   4.633   1.118 -0.6963 -0.2265  0.2614
 8441SOL    HW236960   3.313   0.023   1.137  0.2223 -0.7511  1.9010
 8442SOL     OW36961   3.172   3.212   3.078  0.0619 -0.4377  0.2650
 8442SOL    HW136962   3.149   3.177   3.164  1.9547 -3.4128 -0.4201
 8442SOL    HW236963   3.219   3.291   3.103 -3.5866  1.6379  0.5061
 8443SOL     OW36964   3.889   0.912  14.736 -0.0205  0.1280  0.0866
 8443SOL    HW136965   3.833   0.875  14.668  2.2323 -1.3247 -0.9811
 8443SOL    HW236966   3.849   0.998  14.746 -1.1765 -0.2698 -1.0801
 8444SOL     OW36967   4.208   3.653  10.907  0.0751  0.0491  0.3962
 8444SOL    HW136968   4.276   3.602  10.863 -0.6117 -0.6134  0.1039
 8444SOL    HW236969   4.255   3.705  10.972 -0.3666  1.5927 -0.5237
 8445SOL     OW36970   2.094   3.756   2.001 -0.0829 -0.0715  0.3676
 8445SOL    HW136971   2.126   3.681   1.951  0.7670  1.5153 -1.4612
 8445SOL    HW236972   2.170   3.810   2.025 -1.9197  2.6087  0.2061
 8446SOL     OW36973   3.639   2.949   4.161 -0.1706 -0.4110  0.4226
 8446SOL    HW136974   3.634   2.856   4.141 -2.9014 -0.0951 -0.3467
 8446SOL    HW236975   3.707   2.951   4.228 -0.7256  1.3477  0.9488
 8447SOL     OW36976   1.808   3.064  12.566  0.3364  0.8237 -0.4173
 8447SOL    HW136977   1.903   3.072  12.576  0.6407 -1.7250 -1.4971
 8447SOL    HW236978   1.775   3.084  12.654  0.4351  1.2917 -0.4842
 8448SOL     OW36979   1.490   4.142  11.066 -1.1180 -0.1173 -0.0916
 8448SOL    HW136980   1.523   4.205  11.130 -0.7063 -1.5961  1.1492
 8448SOL    HW236981   1.412   4.104  11.105 -1.0668  0.6070  0.7048
 8449SOL     OW36982   4.046   2.717   3.792  0.5948 -0.4837  0.2445
 8449SOL    HW136983   4.065   2.809   3.771  2.1182 -0.8620 -0.0336
 8449SOL    HW236984   3.975   2.696   3.732  0.4949  0.9936 -0.1596
 8450SOL     OW36985   3.014   4.640   1.466 -0.1965  0.2334  0.3710
 8450SOL    HW136986   3.065   4.559   1.454 -1.5829 -0.6102  0.1076
 8450SOL    HW236987   3.080   4.687   1.516  0.7554  0.2498 -0.8884
 8451SOL     OW36988   0.795   2.119   2.069  0.4229 -0.1518  0.1083
 8451SOL    HW136989   0.834   2.039   2.105 -1.9289 -0.1442  2.7450
 8451SOL    HW236990   0.869   2.171   2.037 -0.2613  0.7963  0.0615
 8452SOL     OW36991   3.386   4.637   8.483  0.6433  0.1790 -0.1340
 8452SOL    HW136992   3.358   4.724   8.455  0.4767  1.1063  2.8410
 8452SOL    HW236993   3.301   4.592   8.485  0.1129  1.2412  2.0941
 8453SOL     OW36994   4.144   2.647   8.629 -0.4447  0.3080 -0.6118
 8453SOL    HW136995   4.185   2.566   8.660  0.9775  1.2263 -0.0539
 8453SOL    HW236996   4.133   2.624   8.537  2.4138  0.4185 -0.9873
 8454SOL     OW36997   2.208   4.235   4.604  0.1520 -0.7024  0.3798
 8454SOL    HW136998   2.156   4.309   4.638  2.6729  1.2772 -0.0454
 8454SOL    HW236999   2.155   4.161   4.632 -0.9379 -0.2063 -0.3461
 8455SOL     OW37000   4.502   4.035  14.239 -0.4540 -0.1456 -0.4592
 8455SOL    HW137001   4.549   3.993  14.311  0.7123  1.4876 -0.2594
 8455SOL    HW237002   4.491   4.124  14.274  3.9260 -0.5069  1.9468
 8456SOL     OW37003   2.375   4.630   5.029  0.2818 -0.0065  0.2515
 8456SOL    HW137004   2.397   4.558   5.087 -2.1518  1.2184  2.6980
 8456SOL    HW237005   2.378   4.584   4.945 -1.7183 -0.1264  0.2299
 8457SOL     OW37006   3.320   1.579   7.346  0.0575 -0.1993 -0.5308
 8457SOL    HW137007   3.290   1.665   7.373 -0.6199 -0.4469 -0.4883
 8457SOL    HW237008   3.401   1.592   7.296 -0.0062  1.5669 -0.1688
 8458SOL     OW37009   4.340   3.227   2.946  0.3846 -0.1540  0.0131
 8458SOL    HW137010   4.379   3.296   2.999  1.8190 -0.7751 -0.2238
 8458SOL    HW237011   4.349   3.255   2.855  0.0263  0.9108  0.3098
 8459SOL     OW37012   1.864   4.002  13.887 -0.5213 -0.1246  0.3901
 8459SOL    HW137013   1.937   4.029  13.942  2.1023 -0.8539 -2.6953
 8459SOL    HW237014   1.789   4.008  13.946 -0.2348  1.7646  0.5620
 8460SOL     OW37015   4.118   2.616   5.699 -0.3443  0.0543 -0.4579
 8460SOL    HW137016   4.124   2.542   5.639  0.7956 -1.1270  1.1303
 8460SOL    HW237017   4.118   2.690   5.638  0.3800 -0.0526 -0.5820
 8461SOL     OW37018   3.813   4.065   7.463 -0.2403  0.2125  0.3754
 8461SOL    HW137019   3.777   4.135   7.517  0.1625  2.1623 -1.9148
 8461SOL    HW237020   3.849   4.104   7.383  0.5403 -0.2888  0.4862
 8462SOL     OW37021   4.370   0.241   7.256 -0.5645  0.2162  0.2871
 8462SOL    HW137022   4.464   0.231   7.271 -0.6553 -1.5544 -0.2617
 8462SOL    HW237023   4.366   0.301   7.182 -0.1551  2.1283  1.8229
 8463SOL     OW37024   0.548   3.283   6.421  0.3425 -0.5454  0.1883
 8463SOL    HW137025   0.580   3.194   6.410 -2.9116 -1.6769  0.0231
 8463SOL    HW237026   0.520   3.310   6.333 -2.2207 -0.1534  1.1263
 8464SOL     OW37027   1.784   3.846   7.778 -0.4243 -0.1472 -0.3937
 8464SOL    HW137028   1.728   3.821   7.851  2.2176  0.8268  1.9538
 8464SOL    HW237029   1.753   3.932   7.750  0.5868 -0.1845 -1.6693
 8465SOL     OW37030   3.783   4.305   3.955  1.0055  0.6927  0.2408
 8465SOL    HW137031   3.851   4.369   3.931 -0.1506  2.1727  0.8679
 8465SOL    HW237032   3.824   4.242   4.012 -0.2234 -0.2963  0.0271
 8466SOL     OW37033   1.771   1.201   2.250 -0.0476  0.4385  0.2066
 8466SOL    HW137034   1.831   1.144   2.298  2.4170  1.2329 -1.9579
 8466SOL    HW237035   1.703   1.205   2.318  2.5745 -1.3030  2.9225
 8467SOL     OW37036   1.255   1.927  15.711 -0.1095 -0.1546 -0.3751
 8467SOL    HW137037   1.251   1.913  15.806 -0.6448 -2.0273 -0.6704
 8467SOL    HW237038   1.164   1.925  15.682 -0.4603 -0.5534  0.7379
 8468SOL     OW37039   2.498   1.732   4.927 -0.3073  0.4420  0.3437
 8468SOL    HW137040   2.553   1.673   4.875 -0.4100  0.3384  0.3510
 8468SOL    HW237041   2.568   1.779   4.972  1.1847 -0.9379 -0.5118
 8469SOL     OW37042   2.202   2.973   7.905 -0.0303  0.1324  0.7009
 8469SOL    HW137043   2.155   3.028   7.968 -0.5102 -3.2840  3.3113
 8469SOL    HW237044   2.128   2.916   7.883 -0.0079  0.3332  0.1061
 8470SOL     OW37045   1.965   3.737   8.083  0.3050  0.2082 -0.2400
 8470SOL    HW137046   1.901   3.765   8.017 -0.0173 -0.6557 -0.3004
 8470SOL    HW237047   1.910   3.736   8.162  0.0770 -0.4207 -0.4016
 8471SOL     OW37048   3.255   3.734   2.918 -0.4554  0.7266  0.5300
 8471SOL    HW137049   3.322   3.666   2.919 -0.9892  0.1901  0.0999
 8471SOL    HW237050   3.198   3.702   2.988 -2.4098 -1.0864 -1.8692
 8472SOL     OW37051   1.541   1.618   6.519 -0.5473  0.1408  0.2914
 8472SOL    HW137052   1.463   1.572   6.551 -1.0512  0.9221  0.1902
 8472SOL    HW237053   1.608   1.614   6.587  1.3174  4.5828 -1.2916
 8473SOL     OW37054   4.457   1.568   6.345  0.1872 -0.4363  0.2918
 8473SOL    HW137055   4.486   1.659   6.352  2.2511 -1.0886  0.1473
 8473SOL    HW237056   4.538   1.521   6.328 -0.0765  0.1061 -2.3457
 8474SOL     OW37057   0.441   1.304   7.081  0.3533  0.0479  0.5446
 8474SOL    HW137058   0.404   1.327   6.996  0.4819  2.4474  1.1195
 8474SOL    HW237059   0.361   1.333   7.127 -0.1122  0.5014 -0.5369
 8475SOL     OW37060   4.630   4.454   4.768 -0.3300 -0.2089 -0.4152
 8475SOL    HW137061   4.706   4.498   4.730 -1.9764  0.0693 -3.3767
 8475SOL    HW237062   4.587   4.427   4.687 -0.0518  0.4028 -0.7663
 8476SOL     OW37063   1.351   2.097  11.338  0.3561  0.0048 -0.0838
 8476SOL    HW137064   1.428   2.153  11.329  0.5736 -0.0381  1.4500
 8476SOL    HW237065   1.402   2.016  11.329 -1.0640 -1.1433  2.1037
 8477SOL     OW37066   2.689   3.670  16.379 -0.0101  0.2743  0.4087
 8477SOL    HW137067   2.631   3.599  16.407  2.4361 -2.9106 -2.4919
 8477SOL    HW237068   2.675   3.736  16.446 -1.4776 -0.4383  0.8041
 8478SOL     OW37069   0.915   0.478   6.839 -0.3655 -0.1707 -0.0680
 8478SOL    HW137070   0.961   0.551   6.879 -1.3108  1.4560 -1.9765
 8478SOL    HW237071   0.946   0.486   6.748 -0.7291  0.3717 -0.1415
 8479SOL     OW37072   2.876   4.062   1.040 -0.0932  0.3520  0.1039
 8479SOL    HW137073   2.876   3.974   1.076  1.1566  1.5405  3.0451
 8479SOL    HW237074   2.810   4.062   0.971  0.9992  1.7077 -0.9326
 8480SOL     OW37075   0.979   2.474  12.489  0.2440  0.0741 -0.1840
 8480SOL    HW137076   1.036   2.487  12.413  1.7313 -1.9602  0.5738
 8480SOL    HW237077   0.976   2.379  12.484  0.5527  0.0155  0.8072
 8481SOL     OW37078   1.360   2.362   1.856  0.5907 -0.0722 -0.3227
 8481SOL    HW137079   1.448   2.329   1.839  0.3326 -0.5383 -0.7434
 8481SOL    HW237080   1.318   2.282   1.824 -0.2431  0.2143  0.0381
 8482SOL     OW37081   1.364   2.769   8.513  0.1027  0.1349 -0.6952
 8482SOL    HW137082   1.451   2.809   8.509  0.2766 -0.4484 -2.5500
 8482SOL    HW237083   1.376   2.699   8.577 -0.8676 -0.8856 -1.6235
 8483SOL     OW37084   2.179   2.199   2.290  0.0502 -0.1634  0.4319
 8483SOL    HW137085   2.098   2.248   2.276  0.5567  0.8007  0.8785
 8483SOL    HW237086   2.243   2.257   2.249 -2.7154  1.7131 -1.2868
 8484SOL     OW37087   2.388   0.936   9.801 -0.3550 -0.5277 -0.7790
 8484SOL    HW137088   2.356   1.021   9.769  1.1548  0.3025 -0.0696
 8484SOL    HW237089   2.310   0.881   9.800  0.5027 -1.7422 -0.1036
 8485SOL     OW37090   4.179   3.587   1.623 -0.4909  0.5770  0.4356
 8485SOL    HW137091   4.170   3.560   1.532 -1.0235  0.5314  0.5005
 8485SOL    HW237092   4.157   3.680   1.615 -1.0432  0.3836 -0.3137
 8486SOL     OW37093   3.788   3.845   3.291 -0.2951  0.5801 -0.5052
 8486SOL    HW137094   3.831   3.766   3.256  1.8813  0.6913  1.9551
 8486SOL    HW237095   3.862   3.891   3.330 -1.0824 -0.6145  2.3851
 8487SOL     OW37096   4.337   2.720  16.661  0.3137  0.2073  0.4874
 8487SOL    HW137097   4.280   2.711  16.738 -2.3980  1.6355 -1.3362
 8487SOL    HW237098   4.280   2.736  16.586  0.6563 -0.7201  0.0231
 8488SOL     OW37099   4.188   0.402  15.961 -0.0621 -0.3772  0.5523
 8488SOL    HW137100   4.283   0.403  15.972 -0.0689 -2.3636  0.6975
 8488SOL    HW237101   4.157   0.493  15.963 -3.2933 -1.4449 -1.8058
 8489SOL     OW37102   2.182   2.293   6.411  0.2470  0.0700  0.1418
 8489SOL    HW137103   2.126   2.263   6.339  0.9852  0.1000 -0.4327
 8489SOL    HW237104   2.221   2.211   6.440 -0.5101 -0.5696 -0.6538
 8490SOL     OW37105   4.556   3.742   4.594  0.1669 -0.3839  0.3762
 8490SOL    HW137106   4.471   3.698   4.595  1.2574 -2.4454  0.8514
 8490SOL    HW237107   4.535   3.835   4.587  3.3704  0.0838 -2.6679
 8491SOL     OW37108   0.798   2.591  14.647  0.1256 -0.1963 -0.3915
 8491SOL    HW137109   0.873   2.646  14.672  1.0513 -0.5649 -2.3711
 8491SOL    HW237110   0.805   2.526  14.716  0.1430  0.1491 -0.0702
 8492SOL     OW37111   1.476   3.395   4.543 -0.3889  0.7104  0.4076
 8492SOL    HW137112   1.451   3.436   4.459 -0.3826 -0.2148 -0.0479
 8492SOL    HW237113   1.388   3.374   4.574 -0.0631 -0.9362  0.1905
 8493SOL     OW37114   4.422   3.031   5.590 -0.0146 -0.4276  0.1473
 8493SOL    HW137115   4.392   3.021   5.500 -2.4479  0.1114  0.8994
 8493SOL    HW237116   4.402   2.947   5.631 -0.7913 -0.4489 -0.2921
 8494SOL     OW37117   0.377   2.062   5.864 -0.0057  0.1271  0.2251
 8494SOL    HW137118   0.417   2.103   5.941 -0.5959  2.1723 -0.5519
 8494SOL    HW237119   0.321   1.995   5.903 -0.6855 -0.4447 -1.7418
 8495SOL     OW37120   0.770   4.654  16.704 -0.0179  0.4548  0.0686
 8495SOL    HW137121   0.733   4.566  16.694 -0.9398  0.8007  0.5244
 8495SOL    HW237122   0.798   4.682  16.617  2.4379 -1.0805  0.3334
 8496SOL     OW37123   2.350   0.455  10.578  0.0687  0.0478 -0.3403
 8496SOL    HW137124   2.301   0.373  10.588  1.2586 -1.0065 -3.3527
 8496SOL    HW237125   2.298   0.518  10.630 -1.7611  0.0029 -2.1222
 8497SOL     OW37126   4.281   1.698   5.452 -0.1790  0.1981  0.1149
 8497SOL    HW137127   4.317   1.628   5.398 -1.6956 -1.0849  0.7582
 8497SOL    HW237128   4.254   1.757   5.381 -0.4509 -1.2602 -0.9936
 8498SOL     OW37129   4.288   3.169   8.006  0.1993  0.5932 -0.4745
 8498SOL    HW137130   4.368   3.123   8.033 -1.4578 -1.2844  1.2390
 8498SOL    HW237131   4.296   3.247   8.060 -2.2776 -0.8110  1.8927
 8499SOL     OW37132   0.945   4.279   6.422  0.6789 -0.0531  0.4202
 8499SOL    HW137133   0.899   4.229   6.354 -0.9392 -0.6013  1.9247
 8499SOL    HW237134   0.923   4.369   6.399  0.3047 -1.0964 -3.3351
 8500SOL     OW37135   1.453   2.076   3.342  0.2478 -0.3851  0.2024
 8500SOL    HW137136   1.447   2.022   3.420 -0.0750  1.7786  1.6887
 8500SOL    HW237137   1.515   2.140   3.377 -0.6747  0.9518 -0.6110
 8501SOL     OW37138   4.660   0.853   7.677 -0.4191  0.2571 -0.1271
 8501SOL    HW137139   4.608   0.901   7.613  0.9173 -0.0192 -1.4417
 8501SOL    HW237140   4.698   0.924   7.728  1.6228 -0.7405 -0.2523
 8502SOL     OW37141   3.797   2.701  11.224 -1.3164  0.9187 -0.0159
 8502SOL    HW137142   3.791   2.659  11.310 -0.5373  0.5683 -0.1364
 8502SOL    HW237143   3.702   2.712  11.213 -1.5114  0.3859  1.1318
 8503SOL     OW37144   3.081   3.458  14.724  0.0489  0.5560  0.6621
 8503SOL    HW137145   3.079   3.453  14.629 -0.0806  1.5330  0.6173
 8503SOL    HW237146   3.079   3.368  14.757  1.4862 -0.0217 -0.8382
 8504SOL     OW37147   0.793   1.125   6.533 -0.3799  0.2372  0.2991
 8504SOL    HW137148   0.746   1.077   6.465  1.2434 -1.1055  0.1061
 8504SOL    HW237149   0.884   1.105   6.510 -0.7378  1.5956 -2.2775
 8505SOL     OW37150   2.111   4.656   1.953 -0.5904 -0.4536  0.3086
 8505SOL    HW137151   2.104   4.648   2.048  0.4312 -0.5364  0.3705
 8505SOL    HW237152   2.043   4.594   1.927  0.6491 -2.0545  0.8573
 8506SOL     OW37153   2.744   3.382   3.472  0.4576  0.3049 -0.1815
 8506SOL    HW137154   2.732   3.416   3.561 -1.6290 -1.6443  0.2696
 8506SOL    HW237155   2.695   3.304   3.495  1.3689 -0.4944 -0.9682
 8507SOL     OW37156   2.963   4.721  15.332 -0.0532  0.2264 -0.3431
 8507SOL    HW137157   3.011   4.666  15.270  1.1183 -1.1728  1.8057
 8507SOL    HW237158   2.921   0.039  15.266 -2.5127 -1.0335  0.1994
 8508SOL     OW37159   2.472   1.103   2.951 -0.2728  0.5904  0.1221
 8508SOL    HW137160   2.446   1.179   3.003 -2.9327 -0.5658  0.4906
 8508SOL    HW237161   2.566   1.117   2.945 -0.1176  0.4756  2.2731
 8509SOL     OW37162   1.353   4.316  16.408 -0.1087 -0.0314  0.1634
 8509SOL    HW137163   1.267   4.291  16.441 -0.4352  0.6108 -0.2120
 8509SOL    HW237164   1.366   4.383  16.476  0.9796  0.3446 -0.4135
 8510SOL     OW37165   1.606   4.159   3.907  0.6850  0.4838 -0.2363
 8510SOL    HW137166   1.533   4.220   3.910  0.6718  0.6346 -3.5255
 8510SOL    HW237167   1.591   4.106   3.829  2.5218  2.6484 -2.0704
 8511SOL     OW37168   1.455   3.759   0.768  0.4733  0.1571  0.3126
 8511SOL    HW137169   1.505   3.840   0.752 -0.2968  0.2282 -1.6495
 8511SOL    HW237170   1.530   3.699   0.766  0.3819 -0.0288  2.0048
 8512SOL     OW37171   1.406   3.337  14.402  0.3286 -0.2810 -0.1047
 8512SOL    HW137172   1.482   3.367  14.452  0.0196  0.8806 -0.3329
 8512SOL    HW237173   1.361   3.292  14.474  0.6864  1.0083  0.9173
 8513SOL     OW37174   2.086   1.732  13.105 -0.0895 -0.1739  0.0057
 8513SOL    HW137175   2.164   1.776  13.071  0.0424 -0.4926 -0.1045
 8513SOL    HW237176   2.120   1.648  13.137 -1.0015 -0.4800  0.1554
 8514SOL     OW37177   1.714   3.692   0.973  0.0571 -0.2697  0.0923
 8514SOL    HW137178   1.696   3.775   0.929  0.5133 -0.8791 -1.2228
 8514SOL    HW237179   1.807   3.701   0.993  0.1100  1.6186 -0.9767
 8515SOL     OW37180   0.173   4.221   0.545  0.4827 -0.0671 -0.1836
 8515SOL    HW137181   0.129   4.183   0.620 -1.4589 -0.5723 -1.5794
 8515SOL    HW237182   0.262   4.188   0.556  0.9165  0.3534 -2.3030
 8516SOL     OW37183   0.664   2.613  15.974  0.0981 -0.4079  0.2317
 8516SOL    HW137184   0.629   2.702  15.974 -0.2374 -0.5445  0.6840
 8516SOL    HW237185   0.628   2.579  15.892  1.6575  0.3880 -0.7776
 8517SOL     OW37186   3.818   0.143   8.945 -0.0258  0.1819  0.4343
 8517SOL    HW137187   3.867   0.114   8.869 -0.5461  2.7331 -0.8750
 8517SOL    HW237188   3.891   0.185   8.990  0.6829 -0.8763  0.2524
 8518SOL     OW37189   1.649   4.351   6.901 -0.0202 -0.1283 -0.5750
 8518SOL    HW137190   1.588   4.318   6.967  1.5370 -1.4376  0.2070
 8518SOL    HW237191   1.585   4.373   6.833  0.0715 -0.0722 -0.6432
 8519SOL     OW37192   0.683   1.297   4.755 -0.4367 -0.1872  0.0581
 8519SOL    HW137193   0.610   1.241   4.778 -1.8513  2.6251  2.4498
 8519SOL    HW237194   0.755   1.251   4.797  0.2789  1.9838  1.2314
 8520SOL     OW37195   1.824   3.752   4.883  0.1444  0.0403 -0.0809
 8520SOL    HW137196   1.736   3.789   4.882  0.1433  0.0784  1.3421
 8520SOL    HW237197   1.806   3.660   4.903 -0.8789  0.8401  2.5995
 8521SOL     OW37198   0.718   2.177   4.452  0.0780  0.1716 -0.3565
 8521SOL    HW137199   0.710   2.252   4.511 -0.1215 -0.7041  0.7281
 8521SOL    HW237200   0.813   2.165   4.441  0.1303 -1.4782  1.9107
 8522SOL     OW37201   3.665   1.400   6.365 -0.3400  0.2665  0.0356
 8522SOL    HW137202   3.725   1.327   6.349 -0.4436  0.3005 -0.5197
 8522SOL    HW237203   3.735   1.464   6.354  2.0094 -2.2216  0.3763
 8523SOL     OW37204   1.138   0.521   0.795  0.4442 -0.0328  0.1241
 8523SOL    HW137205   1.109   0.439   0.755  0.6605 -0.8317  1.5968
 8523SOL    HW237206   1.189   0.482   0.866 -0.8991 -1.5242  0.2886
 8524SOL     OW37207   3.423   4.415  15.430 -0.7410  0.2399 -0.7168
 8524SOL    HW137208   3.419   4.487  15.367  0.6084 -1.8150 -3.1773
 8524SOL    HW237209   3.339   4.373  15.411 -0.7574 -0.5436  1.0713
 8525SOL     OW37210   0.619   1.390   6.147 -0.1888  0.2263 -0.0961
 8525SOL    HW137211   0.641   1.467   6.200  2.3155 -1.1431  0.8550
 8525SOL    HW237212   0.643   1.419   6.059 -0.9231 -2.4481 -1.1973
 8526SOL     OW37213   3.991   4.729   3.920  0.1968 -0.1830  0.0124
 8526SOL    HW137214   3.974   0.052   3.994 -0.1562 -0.4137  0.1157
 8526SOL    HW237215   3.924   0.034   3.866  0.6710  1.3733  0.6141
 8527SOL     OW37216   3.394   1.804  13.782 -0.1576 -0.5357  0.3005
 8527SOL    HW137217   3.314   1.773  13.824 -0.5654  0.7294  0.4515
 8527SOL    HW237218   3.431   1.854  13.854  0.0137 -0.3817  0.1068
 8528SOL     OW37219   1.360   0.274  14.469 -0.2742  0.4341 -0.3980
 8528SOL    HW137220   1.335   0.193  14.426  0.6962 -0.7008  1.1823
 8528SOL    HW237221   1.417   0.313  14.402  1.3706 -2.5014 -0.6847
 8529SOL     OW37222   1.970   3.373   4.116 -1.1737 -0.4622  0.3282
 8529SOL    HW137223   1.974   3.403   4.026 -0.3539 -1.3970  0.0558
 8529SOL    HW237224   1.966   3.280   4.096  3.0558 -0.3534 -1.0363
 8530SOL     OW37225   1.275   2.675   0.825 -0.4289 -0.1213  0.3847
 8530SOL    HW137226   1.324   2.598   0.855  0.3921  0.9676  1.8344
 8530SOL    HW237227   1.341   2.715   0.767 -1.2393  0.0076 -0.4560
 8531SOL     OW37228   3.961   0.219  13.064  0.0787 -0.3601  0.0838
 8531SOL    HW137229   3.927   0.308  13.052 -0.8203 -0.8546 -0.9862
 8531SOL    HW237230   4.027   0.250  13.126  1.2204 -0.5379 -1.0437
 8532SOL     OW37231   3.601   2.976   6.195  0.2720 -0.0287 -0.0082
 8532SOL    HW137232   3.508   2.955   6.198 -0.2072  2.0654 -0.1079
 8532SOL    HW237233   3.599   3.072   6.193  1.0501  0.0111  1.1011
 8533SOL     OW37234   3.238   3.455  12.672 -0.6269  0.5647  0.4311
 8533SOL    HW137235   3.266   3.513  12.743  1.6966  0.6611 -0.5480
 8533SOL    HW237236   3.310   3.393  12.661 -1.3169 -0.3678  1.1916
 8534SOL     OW37237   2.747   4.622   1.462  0.3795 -1.4495  0.8636
 8534SOL    HW137238   2.834   4.630   1.500  1.2242  2.2817 -1.8177
 8534SOL    HW237239   2.703   4.577   1.533  1.2739 -0.1770  2.2306
 8535SOL     OW37240   0.508   4.008   0.852 -0.4615 -0.2509  0.4719
 8535SOL    HW137241   0.467   3.922   0.845  1.4340 -1.1504  0.5686
 8535SOL    HW237242   0.574   4.001   0.921 -1.7388 -0.8489  1.6241
 8536SOL     OW37243   2.489   2.049   6.249  0.0396 -0.1032 -0.6979
 8536SOL    HW137244   2.565   2.023   6.302 -0.2637 -1.7863 -1.1050
 8536SOL    HW237245   2.421   2.068   6.314 -0.1765 -3.5009  0.0646
 8537SOL     OW37246   0.031   4.472   2.966  0.4187 -0.2164  0.4429
 8537SOL    HW137247   0.122   4.443   2.963  0.7392  0.8284  0.1820
 8537SOL    HW237248   0.007   4.425   2.886  2.0333 -0.4606  0.1070
 8538SOL     OW37249   1.109   0.371  13.368  0.1106  0.2800 -0.3375
 8538SOL    HW137250   1.086   0.442  13.309 -2.2452  0.2049  0.4704
 8538SOL    HW237251   1.178   0.335  13.312 -0.0703 -1.2196  0.4100
 8539SOL     OW37252   2.243   1.512  15.819  0.6136 -0.4309 -0.2011
 8539SOL    HW137253   2.177   1.480  15.758 -1.5908  2.8964  0.4480
 8539SOL    HW237254   2.203   1.591  15.856  0.9178 -1.0579  1.4839
 8540SOL     OW37255   2.501   0.125   5.160  0.0530 -0.4493 -0.4225
 8540SOL    HW137256   2.596   0.135   5.148 -0.1311  0.5397 -1.0990
 8540SOL    HW237257   2.483   0.063   5.090 -0.7289 -1.8622  1.0369
 8541SOL     OW37258   1.471   1.888   6.456 -0.2924 -0.4585 -0.1421
 8541SOL    HW137259   1.519   1.841   6.524  0.9389 -0.3726 -0.9572
 8541SOL    HW237260   1.475   1.835   6.376  0.6410 -1.4336  0.5501
 8542SOL     OW37261   0.397   0.591   4.660  0.1116 -0.5310 -0.7298
 8542SOL    HW137262   0.393   0.644   4.581 -0.0889 -0.5021 -0.7025
 8542SOL    HW237263   0.313   0.547   4.647 -0.2873 -0.2175  0.7563
 8543SOL     OW37264   3.598   0.477   2.386 -0.0782 -0.5354  0.4345
 8543SOL    HW137265   3.523   0.524   2.424  1.1104  1.9724 -0.3275
 8543SOL    HW237266   3.597   0.395   2.435  0.4936 -0.7019  0.1651
 8544SOL     OW37267   1.371   1.082   7.573  0.4736 -0.0880  0.6570
 8544SOL    HW137268   1.383   0.990   7.597  2.7451  0.0264 -0.0442
 8544SOL    HW237269   1.449   1.120   7.615  0.1356  0.7498  0.5344
 8545SOL     OW37270   3.195   1.519   8.651  0.1749 -0.1494  0.2663
 8545SOL    HW137271   3.263   1.458   8.622 -0.1168 -0.8595  1.1005
 8545SOL    HW237272   3.115   1.467   8.655  0.0298 -0.0480 -1.1504
 8546SOL     OW37273   3.297   2.137   7.676  0.0403  0.4025 -0.0026
 8546SOL    HW137274   3.275   2.171   7.590  2.3459  1.4855 -0.1827
 8546SOL    HW237275   3.225   2.178   7.724 -0.1759  0.1693 -0.1332
 8547SOL     OW37276   1.784   4.461   5.867  0.2963 -0.7483  0.0320
 8547SOL    HW137277   1.707   4.487   5.917 -0.4955 -2.1046 -0.4929
 8547SOL    HW237278   1.747   4.488   5.782  0.1093 -0.2584  0.2663
 8548SOL     OW37279   1.130   4.453   4.855 -0.3377  0.0207  0.1354
 8548SOL    HW137280   1.186   4.433   4.930  1.0379 -0.9085 -1.1443
 8548SOL    HW237281   1.194   4.458   4.784 -1.2010 -0.4888 -0.6630
 8549SOL     OW37282   3.575   4.689  14.408  0.5849 -0.1224 -0.1127
 8549SOL    HW137283   3.528   4.614  14.373  0.4056  0.6179 -1.4122
 8549SOL    HW237284   3.568   0.022  14.343  0.2821 -1.5881 -1.6472
 8550SOL     OW37285   2.200   2.149  11.990  0.0555 -0.1323 -0.2996
 8550SOL    HW137286   2.247   2.144  12.073  0.2767  1.7303 -0.3181
 8550SOL    HW237287   2.262   2.198  11.937 -1.0712  0.7784 -0.7704
 8551SOL     OW37288   3.222   3.423   0.060  0.0956  0.3499  0.7304
 8551SOL    HW137289   3.147   3.453   0.110  1.4612 -0.1161  3.0879
 8551SOL    HW237290   3.189   3.446  17.718 -0.8808  2.8375  1.7604
 8552SOL     OW37291   3.003   0.428   4.571  0.1360  0.0957 -0.1254
 8552SOL    HW137292   3.094   0.448   4.552  1.1790 -1.5494  3.0478
 8552SOL    HW237293   3.005   0.436   4.667  0.8321 -0.0670 -0.1284
 8553SOL     OW37294   3.902   3.629   5.276  0.1907 -0.4686 -0.2884
 8553SOL    HW137295   3.858   3.674   5.348  2.0698 -1.0997  1.2576
 8553SOL    HW237296   3.877   3.678   5.198 -0.2806  0.9744  0.7756
 8554SOL     OW37297   3.453   2.364   4.409 -0.0453 -0.3017  0.2160
 8554SOL    HW137298   3.365   2.345   4.442  0.2947 -1.3077  0.5207
 8554SOL    HW237299   3.465   2.283   4.360  1.0545  1.4831 -2.5143
 8555SOL     OW37300   3.529   2.857   5.217 -0.3335 -0.3004  0.1865
 8555SOL    HW137301   3.529   2.819   5.128 -1.1085  1.3805 -0.5238
 8555SOL    HW237302   3.523   2.950   5.196  1.1594 -0.3950 -0.7108
 8556SOL     OW37303   2.385   3.407  11.428 -0.0218 -0.5266 -0.0198
 8556SOL    HW137304   2.344   3.409  11.515 -0.2148  0.4472 -0.1349
 8556SOL    HW237305   2.314   3.423  11.365 -1.2328  1.0991  1.7587
 8557SOL     OW37306   0.632   2.195   7.241 -0.1058  0.1077 -0.2409
 8557SOL    HW137307   0.636   2.119   7.182 -0.8473  0.1445 -0.3345
 8557SOL    HW237308   0.548   2.238   7.226 -0.4635 -0.4879  0.0669
 8558SOL     OW37309   0.588   0.552  14.806  0.6110 -0.3825 -0.0828
 8558SOL    HW137310   0.518   0.582  14.749 -0.2446  0.4596  1.3963
 8558SOL    HW237311   0.597   0.628  14.863 -1.0709  0.8273 -1.4421
 8559SOL     OW37312   0.753   2.264  10.881 -0.6406 -0.9725 -0.2159
 8559SOL    HW137313   0.757   2.325  10.808  3.1149 -1.8248 -0.6903
 8559SOL    HW237314   0.668   2.230  10.854 -0.4791 -1.1421 -0.5049
 8560SOL     OW37315   4.192   2.883   1.775  0.6220 -0.4533  0.4367
 8560SOL    HW137316   4.266   2.944   1.776 -1.0443  1.6031 -0.6590
 8560SOL    HW237317   4.234   2.798   1.764  1.2272 -0.0352 -0.4536
 8561SOL     OW37318   0.474   2.908   5.206 -0.0010 -0.2265 -0.3479
 8561SOL    HW137319   0.409   2.838   5.217 -0.2462 -0.0367 -0.6028
 8561SOL    HW237320   0.447   2.945   5.122 -1.6824  0.2215  0.3919
 8562SOL     OW37321   1.755   0.946   7.528  0.3905 -0.0238 -0.7421
 8562SOL    HW137322   1.687   0.955   7.461  1.3869 -0.8227 -1.8641
 8562SOL    HW237323   1.807   0.873   7.494  0.5615 -0.9193  1.4595
 8563SOL     OW37324   3.310   0.556   1.578 -0.4073 -0.3621 -0.6896
 8563SOL    HW137325   3.279   0.541   1.667  1.8236 -2.3742 -0.2552
 8563SOL    HW237326   3.337   0.645   1.600 -0.0419 -0.3560 -1.1530
 8564SOL     OW37327   4.239   2.289   5.813 -0.2224  0.7283 -0.1493
 8564SOL    HW137328   4.163   2.237   5.840 -1.8110  2.3223 -1.4613
 8564SOL    HW237329   4.215   2.313   5.723  0.4394  0.1206 -0.4927
 8565SOL     OW37330   3.161   2.909  14.170 -0.5917  0.5314  0.2271
 8565SOL    HW137331   3.069   2.931  14.155 -0.7491 -0.9173 -1.0565
 8565SOL    HW237332   3.184   2.960  14.247  0.7480  0.3641 -0.0718
 8566SOL     OW37333   3.812   0.212   2.271  0.0736 -0.2424  0.4832
 8566SOL    HW137334   3.837   0.273   2.340  0.4072 -1.3391  1.3231
 8566SOL    HW237335   3.724   0.186   2.296 -1.1949  0.4122 -3.2316
 8567SOL     OW37336   3.195   0.237  11.344  0.3356  0.3559  0.0570
 8567SOL    HW137337   3.216   0.304  11.409  1.8608  0.7070 -0.7901
 8567SOL    HW237338   3.166   0.296  11.274 -0.3561 -0.3189 -0.2291
 8568SOL     OW37339   0.070   3.710   5.049 -0.2826  0.1109  0.1421
 8568SOL    HW137340   0.024   3.711   5.133  0.9542 -1.7645  0.8536
 8568SOL    HW237341   0.153   3.740   5.086  1.2006 -1.4336 -1.9079
 8569SOL     OW37342   3.491   3.746   1.435 -0.0682 -0.3018  0.2572
 8569SOL    HW137343   3.428   3.803   1.391 -1.4407 -1.0659  1.2412
 8569SOL    HW237344   3.557   3.729   1.368  0.0800  2.0449 -0.1822
 8570SOL     OW37345   3.727   0.859  15.093  0.1039  0.1557  0.1490
 8570SOL    HW137346   3.697   0.802  15.023 -0.0456  0.4663 -0.0443
 8570SOL    HW237347   3.679   0.814  15.162  1.8106 -2.0621 -0.1170
 8571SOL     OW37348   4.114   0.948   5.288  0.3142  0.8720  0.4279
 8571SOL    HW137349   4.116   0.987   5.376 -0.4442 -1.5200  1.5063
 8571SOL    HW237350   4.199   0.904   5.283 -0.8260 -1.6532  3.3218
 8572SOL     OW37351   3.115   1.173   0.815  0.1226 -0.0891  0.0236
 8572SOL    HW137352   3.099   1.101   0.754  1.0967 -0.0504 -0.2814
 8572SOL    HW237353   3.170   1.232   0.764  0.3487 -0.3218 -0.0056
 8573SOL     OW37354   1.319   1.500   7.411 -0.3733  0.5546  0.5444
 8573SOL    HW137355   1.346   1.447   7.487  1.3814  2.4094  1.2319
 8573SOL    HW237356   1.230   1.530   7.429 -1.1585 -0.8911 -0.9609
 8574SOL     OW37357   4.670   3.437   4.091  0.4249 -0.1510  0.2017
 8574SOL    HW137358   4.580   3.470   4.084  0.9608  1.1640 -0.4065
 8574SOL    HW237359   4.694   3.460   4.002 -2.3271  0.2656 -0.4543
 8575SOL     OW37360   0.755   0.282   8.595 -0.1317 -0.3643 -0.1694
 8575SOL    HW137361   0.725   0.350   8.534  0.5686  0.4502  0.4000
 8575SOL    HW237362   0.671   0.235   8.603 -0.4100  0.1170 -0.2920
 8576SOL     OW37363   2.662   0.723   7.538  0.7893 -0.0807  0.1295
 8576SOL    HW137364   2.588   0.684   7.584  0.9688 -1.8281 -1.0780
 8576SOL    HW237365   2.626   0.803   7.498 -2.2200 -0.3578  2.3301
 8577SOL     OW37366   4.099   1.504  14.256 -0.2155 -0.1006 -0.2909
 8577SOL    HW137367   4.160   1.536  14.190  1.3191  0.3070  1.3302
 8577SOL    HW237368   4.047   1.433  14.218  2.9461 -2.5531 -0.0442
 8578SOL     OW37369   1.975   0.721   9.527  0.0678 -0.0350  0.4656
 8578SOL    HW137370   2.035   0.710   9.601 -0.4240  1.9186  1.1318
 8578SOL    HW237371   1.959   0.635   9.487  1.5082 -0.3316  0.5364
 8579SOL     OW37372   2.954   3.456   3.725 -0.0516 -0.2495  0.1997
 8579SOL    HW137373   2.901   3.522   3.770  2.4946 -0.9473  4.2797
 8579SOL    HW237374   2.990   3.501   3.649 -2.4366 -0.2175 -0.8858
 8580SOL     OW37375   1.399   0.486   4.589  0.0318  0.1708 -0.1767
 8580SOL    HW137376   1.361   0.432   4.659  0.7845  0.7014  0.6517
 8580SOL    HW237377   1.491   0.464   4.601  0.4805  2.0567 -0.2106
 8581SOL     OW37378   0.933   2.219   4.027  0.3459  0.2090 -0.0646
 8581SOL    HW137379   0.884   2.137   4.035 -0.8459  0.9241 -0.1374
 8581SOL    HW237380   0.879   2.265   3.963 -0.0139 -0.2716 -0.1047
 8582SOL     OW37381   2.593   3.758  16.954 -0.1245 -0.5431 -0.2282
 8582SOL    HW137382   2.529   3.701  16.911 -0.1396 -0.6378 -0.0794
 8582SOL    HW237383   2.533   3.814  17.002  2.0997 -1.3553  3.4586
 8583SOL     OW37384   3.228   4.689  17.361 -0.2444 -0.7006 -0.1170
 8583SOL    HW137385   3.230   0.048  17.353 -0.5848 -0.8275 -1.7083
 8583SOL    HW237386   3.173   4.675  17.438  0.8810 -2.8998  0.2708
 8584SOL     OW37387   1.463   1.354   7.627  0.2182 -0.4962  0.0382
 8584SOL    HW137388   1.512   1.283   7.670  0.9092 -0.0955 -0.0929
 8584SOL    HW237389   1.517   1.431   7.643  2.1892 -1.8870  0.1536
 8585SOL     OW37390   3.652   3.655   6.636  0.0493  0.1705 -0.0331
 8585SOL    HW137391   3.722   3.652   6.570  1.7929 -0.9325  1.8918
 8585SOL    HW237392   3.580   3.647   6.573 -1.4178  2.1100  1.4245
 8586SOL     OW37393   1.237   0.937   7.815 -0.6142  0.2888  0.6524
 8586SOL    HW137394   1.215   0.982   7.897 -2.3463  0.1540  0.2659
 8586SOL    HW237395   1.166   0.957   7.754 -1.0994 -1.0928  0.7759
 8587SOL     OW37396   1.145   1.907   0.377  0.3214 -0.0867 -0.9123
 8587SOL    HW137397   1.232   1.895   0.341 -0.2631  1.5624 -2.9300
 8587SOL    HW237398   1.160   1.877   0.466 -0.3013 -0.6860 -1.0099
 8588SOL     OW37399   1.150   0.930   5.880 -0.1427  0.4459 -0.3431
 8588SOL    HW137400   1.241   0.912   5.854  1.6704  3.0817  4.0201
 8588SOL    HW237401   1.120   0.917   5.791 -1.2506  3.3895 -0.4151
 8589SOL     OW37402   2.404   0.164   6.416 -0.1774  0.3730  0.4471
 8589SOL    HW137403   2.330   0.215   6.450  1.0291  2.7845 -0.4843
 8589SOL    HW237404   2.397   0.085   6.469  3.2293 -0.3458 -0.1851
 8590SOL     OW37405   0.731   1.086   8.974  0.2046  0.4618  0.2734
 8590SOL    HW137406   0.640   1.092   9.005  0.0055 -1.7453  0.1359
 8590SOL    HW237407   0.773   1.060   9.056 -0.7424 -2.3910 -0.1276
 8591SOL     OW37408   1.119   3.323  10.439 -0.2578 -0.9077 -0.2482
 8591SOL    HW137409   1.032   3.361  10.427 -0.3841 -0.7473  1.1744
 8591SOL    HW237410   1.178   3.373  10.383 -1.5825  1.1681  0.2244
 8592SOL     OW37411   4.580   3.801  15.937 -0.2431 -0.4441 -0.9158
 8592SOL    HW137412   4.637   3.787  15.862  0.1567  0.5183 -0.8023
 8592SOL    HW237413   4.497   3.813  15.892 -0.6769 -3.2242 -0.8366
 8593SOL     OW37414   4.353   3.498   5.269  0.1369 -0.5434  0.2899
 8593SOL    HW137415   4.426   3.523   5.213 -1.0621 -2.8501 -2.2958
 8593SOL    HW237416   4.280   3.490   5.208 -0.0965 -1.0428  0.6289
 8594SOL     OW37417   0.675   2.428   6.931 -0.1214 -0.0109  0.5418
 8594SOL    HW137418   0.594   2.404   6.976  0.1946 -0.1736  1.0336
 8594SOL    HW237419   0.730   2.354   6.957  1.1349  0.9551  0.6139
 8595SOL     OW37420   1.212   2.428   6.559 -0.0988  0.2343  0.4108
 8595SOL    HW137421   1.134   2.480   6.536  0.4119  0.3856 -0.9750
 8595SOL    HW237422   1.262   2.489   6.612 -1.1117  2.3202 -1.0048
 8596SOL     OW37423   3.304   2.082   8.557 -0.2622 -0.2212 -0.0117
 8596SOL    HW137424   3.371   2.137   8.598  0.2493 -0.9492  0.1293
 8596SOL    HW237425   3.340   1.997   8.582 -3.3567 -2.1215 -1.9401
 8597SOL     OW37426   1.908   4.554   0.683  0.8270  0.3186 -0.1421
 8597SOL    HW137427   1.858   4.555   0.765  0.7692  0.4184 -0.1792
 8597SOL    HW237428   1.905   4.647   0.660 -0.2766  0.6205  1.2524
 8598SOL     OW37429   3.889   3.136   7.825  0.9079 -0.0561 -0.0005
 8598SOL    HW137430   3.843   3.191   7.762 -2.5921 -0.8970  1.8229
 8598SOL    HW237431   3.977   3.172   7.812  0.3830  1.4667  0.7249
 8599SOL     OW37432   1.104   0.762  14.895  0.6850  0.0781  0.0618
 8599SOL    HW137433   1.115   0.831  14.829  1.4448 -0.4692 -0.3797
 8599SOL    HW237434   1.083   0.688  14.839 -0.3155  1.7171 -1.7108
 8600SOL     OW37435   4.190   3.363   3.576 -0.5512  0.6577  0.4617
 8600SOL    HW137436   4.115   3.397   3.527  1.5191  3.4720 -0.7336
 8600SOL    HW237437   4.164   3.377   3.667  1.5901  0.5913  1.0784
 8601SOL     OW37438   2.417   1.300   7.298 -0.0584  0.2260 -0.0663
 8601SOL    HW137439   2.379   1.216   7.270  0.8849 -0.1265 -0.3187
 8601SOL    HW237440   2.449   1.276   7.385  1.0646  0.9243 -0.2807
 8602SOL     OW37441   1.428   1.276   0.972  0.2354 -0.0210  0.1001
 8602SOL    HW137442   1.371   1.244   1.042  2.9521  1.0590  2.7909
 8602SOL    HW237443   1.510   1.230   0.986  0.8073  0.6601 -1.0470
 8603SOL     OW37444   2.525   1.267  10.498  0.0528  0.2728 -0.1459
 8603SOL    HW137445   2.529   1.217  10.579 -1.0270  1.9675  0.9455
 8603SOL    HW237446   2.534   1.203  10.427  0.8662 -0.8677  0.9881
 8604SOL     OW37447   1.378   3.515  17.402  0.8394  0.1842  0.3096
 8604SOL    HW137448   1.327   3.456  17.457 -0.8789  2.2335  0.8771
 8604SOL    HW237449   1.455   3.523  17.459  0.4476 -1.5475  1.0759
 8605SOL     OW37450   2.933   3.459   5.048  0.4074 -0.5582 -1.0482
 8605SOL    HW137451   2.842   3.487   5.047  0.6885  0.4570  2.2904
 8605SOL    HW237452   2.972   3.521   5.108  1.0504 -1.2733 -0.7218
 8606SOL     OW37453   1.562   2.988   3.001 -0.1447 -0.5428 -0.1281
 8606SOL    HW137454   1.585   2.989   2.908 -1.9052  0.0535 -0.5563
 8606SOL    HW237455   1.473   3.020   2.998 -0.1746 -0.6223 -0.0968
 8607SOL     OW37456   2.291   4.554   7.217 -0.0586 -0.0843  0.4232
 8607SOL    HW137457   2.295   4.512   7.302  1.7429 -1.7854 -0.4964
 8607SOL    HW237458   2.237   4.490   7.169  1.3031 -2.9628  2.7780
 8608SOL     OW37459   4.084   4.526   8.186 -0.2102  0.2736  0.3387
 8608SOL    HW137460   4.060   4.606   8.233 -0.5175 -0.4084  1.3465
 8608SOL    HW237461   4.167   4.556   8.149 -0.5137  0.6928  0.0062
 8609SOL     OW37462   3.369   0.430   5.230  0.0783  0.8027  0.0391
 8609SOL    HW137463   3.465   0.427   5.226 -0.1190 -1.6039 -3.0628
 8609SOL    HW237464   3.345   0.427   5.322  3.0880  1.7162  0.8698
 8610SOL     OW37465   0.989   1.569  12.633 -0.0067  0.6280  0.5324
 8610SOL    HW137466   0.946   1.655  12.633 -2.4181 -0.5947 -0.7129
 8610SOL    HW237467   1.081   1.593  12.645 -0.5550  2.4495  1.1718
 8611SOL     OW37468   3.715   3.965   5.845 -0.0012 -1.1655  0.6361
 8611SOL    HW137469   3.759   4.032   5.793 -1.4926 -1.8165 -1.4919
 8611SOL    HW237470   3.647   4.024   5.878 -0.2240 -1.0989  0.0644
 8612SOL     OW37471   2.956   4.232  17.153 -0.2107 -0.2075 -0.2987
 8612SOL    HW137472   2.984   4.322  17.136 -0.4371 -0.0215  0.2915
 8612SOL    HW237473   2.922   4.219  17.065  2.2015 -0.3812 -1.1936
 8613SOL     OW37474   0.054   0.411   7.927 -0.4488 -0.3768  0.3642
 8613SOL    HW137475   0.041   0.498   7.890 -0.3583  0.8309  3.1252
 8613SOL    HW237476   4.722   0.359   7.885 -1.5010 -1.0389  2.8528
 8614SOL     OW37477   0.458   0.192  17.380  0.4449  0.0819  0.1790
 8614SOL    HW137478   0.447   0.166  17.289  1.7892  0.3315 -0.0601
 8614SOL    HW237479   0.426   0.282  17.380 -0.0607 -0.0952  1.1003
 8615SOL     OW37480   1.352   0.105  13.369  0.3842  0.7152 -0.3426
 8615SOL    HW137481   1.291   0.080  13.439 -0.4291  1.5765 -0.7376
 8615SOL    HW237482   1.429   0.070  13.413  0.9997  2.2704 -0.1906
 8616SOL     OW37483   1.946   3.547   7.493 -0.2169  0.4144  0.4518
 8616SOL    HW137484   1.867   3.588   7.530 -1.4028 -1.0467 -0.4724
 8616SOL    HW237485   1.906   3.463   7.474  0.6768 -0.2803  1.6182
 8617SOL     OW37486   0.164   0.992   5.590  0.4721 -0.2980 -0.0269
 8617SOL    HW137487   0.196   1.073   5.631 -1.6902 -1.3495  3.7769
 8617SOL    HW237488   0.194   0.996   5.500  0.6096  1.0053  0.0742
 8618SOL     OW37489   0.915   4.604  11.938  0.0090 -0.3798  0.5614
 8618SOL    HW137490   0.921   4.624  11.844  0.8867  2.0862  1.1440
 8618SOL    HW237491   0.987   4.656  11.974 -1.4705  0.6448  2.0375
 8619SOL     OW37492   0.696   3.976   1.655 -0.1406  0.2489  0.4000
 8619SOL    HW137493   0.680   4.040   1.586 -0.8760  0.6187  0.9068
 8619SOL    HW237494   0.618   3.920   1.655 -0.4841  0.7064  1.9550
 8620SOL     OW37495   1.637   1.556  15.631 -0.6091  0.1663  0.0389
 8620SOL    HW137496   1.682   1.588  15.552  1.4650 -1.6648  0.4664
 8620SOL    HW237497   1.691   1.490  15.675 -1.4103 -1.5354 -1.5240
 8621SOL     OW37498   2.748   2.298   2.033 -0.5854 -0.4984  0.1109
 8621SOL    HW137499   2.832   2.256   2.050  1.3731  1.8942 -3.5298
 8621SOL    HW237500   2.774   2.384   1.999 -1.2449 -0.1634  0.4579
 8622SOL     OW37501   1.758   0.541  10.225 -0.2913 -0.2239 -0.6047
 8622SOL    HW137502   1.720   0.620  10.262  0.1304 -0.4141  0.2185
 8622SOL    HW237503   1.790   0.489  10.299 -0.1926  0.3740 -0.2303
 8623SOL     OW37504   2.377   3.470   5.271 -0.1449 -0.5447  0.4595
 8623SOL    HW137505   2.328   3.488   5.191  0.0840 -2.0150 -0.0199
 8623SOL    HW237506   2.417   3.388   5.242 -0.3830 -0.9306  1.2182
 8624SOL     OW37507   4.184   4.562  12.684 -0.0041 -0.1326  0.6645
 8624SOL    HW137508   4.237   4.514  12.621  0.8822  0.8688  0.6484
 8624SOL    HW237509   4.164   4.503  12.757  2.2078 -0.7175  0.7896
 8625SOL     OW37510   1.851   2.211   3.407  0.2852  0.1848 -0.3919
 8625SOL    HW137511   1.829   2.142   3.469  0.5313  0.4560 -0.0046
 8625SOL    HW237512   1.870   2.275   3.475  2.3730  0.4591 -1.2282
 8626SOL     OW37513   0.105   4.518   5.401  0.7512  0.2541 -0.1516
 8626SOL    HW137514   0.065   4.542   5.485  1.4551  1.3249 -0.1265
 8626SOL    HW237515   0.150   4.596   5.369 -0.4220  1.4444  1.0658
 8627SOL     OW37516   0.057   4.545  11.847  0.0377 -0.0407  0.0258
 8627SOL    HW137517   0.050   4.626  11.796 -0.0511  0.6149  1.0617
 8627SOL    HW237518   4.718   4.552  11.906  0.5922 -2.0479  0.9644
 8628SOL     OW37519   2.848   2.583  12.831 -0.4882 -0.2514  0.4741
 8628SOL    HW137520   2.755   2.599  12.845 -0.9581 -1.1753 -1.5523
 8628SOL    HW237521   2.856   2.511  12.894 -0.5936  0.2111  1.0161
 8629SOL     OW37522   3.083   4.366   4.886  0.2960  0.3342  1.1629
 8629SOL    HW137523   3.009   4.420   4.914  0.2405 -0.1438  1.9394
 8629SOL    HW237524   3.166   4.404   4.915 -0.0334  1.1935  0.9889
 8630SOL     OW37525   1.087   2.754   5.958  0.3156 -0.6492 -0.3217
 8630SOL    HW137526   1.133   2.750   6.042  0.0419 -1.3052 -0.2007
 8630SOL    HW237527   1.043   2.669   5.971  1.8317 -1.6789 -1.9361
 8631SOL     OW37528   1.948   1.438   6.905 -0.9781 -0.1317  0.5774
 8631SOL    HW137529   1.885   1.368   6.925  0.7027 -2.3545 -1.9553
 8631SOL    HW237530   2.028   1.400   6.942 -0.4841  0.2949 -0.0508
 8632SOL     OW37531   1.563   2.150   5.361 -0.0225  0.0646  0.0968
 8632SOL    HW137532   1.522   2.186   5.440 -0.8333 -0.3254 -0.1429
 8632SOL    HW237533   1.656   2.162   5.377  0.6023 -1.5573 -2.4342
 8633SOL     OW37534   2.244   2.493  10.089  0.3315 -0.1634  0.1830
 8633SOL    HW137535   2.189   2.415  10.101 -1.2270  1.1717  1.6143
 8633SOL    HW237536   2.326   2.459  10.124 -0.1283 -0.9984  0.4654
 8634SOL     OW37537   1.288   1.787   8.979 -0.5529  0.0870  0.1364
 8634SOL    HW137538   1.377   1.755   8.965 -0.0374  1.0090  1.2696
 8634SOL    HW237539   1.290   1.780   9.074  1.1816  0.3423  0.1108
 8635SOL     OW37540   2.721   2.101   5.229 -0.5195 -0.1982  0.1831
 8635SOL    HW137541   2.751   2.092   5.320 -0.1869 -0.2154  0.0695
 8635SOL    HW237542   2.773   2.175   5.199 -1.9802  1.4221  1.6623
 8636SOL     OW37543   0.166   2.228   2.065  0.1865 -0.0859  0.2399
 8636SOL    HW137544   0.080   2.243   2.025  0.2141  1.0121  0.5996
 8636SOL    HW237545   0.231   2.208   1.998 -0.6764 -2.1437 -0.0161
 8637SOL     OW37546   4.674   2.560   7.149 -0.2690 -0.2388  0.1675
 8637SOL    HW137547   0.007   2.611   7.108 -0.4766  1.3920  1.8279
 8637SOL    HW237548   4.683   2.472   7.111  0.2695  0.4096 -1.2014
 8638SOL     OW37549   1.727   1.374  17.649  0.3041 -0.0202 -0.7030
 8638SOL    HW137550   1.808   1.330  17.621 -0.5979 -1.2870 -1.2968
 8638SOL    HW237551   1.665   1.330  17.592  1.9802 -1.3302 -1.5172
 8639SOL     OW37552   0.367   2.081   7.833 -0.2006 -0.1414 -0.5841
 8639SOL    HW137553   0.282   2.116   7.860  0.5595 -0.3628  2.0539
 8639SOL    HW237554   0.390   2.134   7.757  0.2353 -0.2186 -0.5077
 8640SOL     OW37555   2.267   4.240  15.501 -0.2278 -0.4805 -0.1146
 8640SOL    HW137556   2.242   4.213  15.588 -2.7816 -1.1808 -1.0816
 8640SOL    HW237557   2.267   4.153  15.462 -1.6621 -0.5320 -0.0063
 8641SOL     OW37558   1.642   2.429  16.528  0.1190  0.4596  0.3793
 8641SOL    HW137559   1.588   2.355  16.499 -0.8201  1.6144 -0.8196
 8641SOL    HW237560   1.688   2.453  16.448 -0.6282  0.3140 -0.0943
 8642SOL     OW37561   4.586   3.184  15.960 -0.5625 -0.0400 -0.3604
 8642SOL    HW137562   4.503   3.170  15.915 -2.6218  1.3891  2.9601
 8642SOL    HW237563   4.594   3.280  15.963  0.0581 -0.0745 -0.9857
 8643SOL     OW37564   3.052   3.020   4.100 -0.0971 -0.2374 -0.0898
 8643SOL    HW137565   3.030   2.937   4.058 -0.5597  0.5008 -1.2884
 8643SOL    HW237566   3.148   3.025   4.098 -0.1314  0.2612 -0.3362
 8644SOL     OW37567   4.051   4.391  16.552 -0.5489  0.5390  0.0223
 8644SOL    HW137568   4.137   4.388  16.510 -1.0087  0.4765 -0.9356
 8644SOL    HW237569   4.009   4.463  16.505 -1.1139 -0.4311 -0.9661
 8645SOL     OW37570   0.166   0.539  15.781  0.2561  0.1906  0.6077
 8645SOL    HW137571   0.083   0.508  15.746  0.3856  0.7706 -0.2199
 8645SOL    HW237572   0.190   0.601  15.712 -2.3090 -1.3048 -1.6212
 8646SOL     OW37573   3.687   1.020   7.345 -0.2550  0.2330  0.0283
 8646SOL    HW137574   3.633   1.032   7.267  0.3014  0.8464 -0.2611
 8646SOL    HW237575   3.619   0.981   7.401 -1.6277 -0.6556 -2.2716
 8647SOL     OW37576   1.962   3.783   6.667  0.1025  0.1790  0.6117
 8647SOL    HW137577   1.990   3.813   6.580  0.0569  1.1501  0.9406
 8647SOL    HW237578   2.022   3.820   6.731  0.6034 -0.8578  0.7513
 8648SOL     OW37579   4.437   2.693   8.189 -0.0195 -0.0361  0.2003
 8648SOL    HW137580   4.531   2.688   8.206  0.8169  1.5380 -3.8503
 8648SOL    HW237581   4.422   2.608   8.149 -1.6776  0.8300 -1.0151
 8649SOL     OW37582   3.601   1.143   6.117 -0.0780 -0.2511 -0.1792
 8649SOL    HW137583   3.663   1.118   6.186 -2.4474 -2.8812  0.9998
 8649SOL    HW237584   3.634   1.095   6.042 -1.0614 -0.9941 -0.1309
 8650SOL     OW37585   1.046   3.407   4.226  0.5905  0.1048 -0.0151
 8650SOL    HW137586   1.000   3.331   4.261  0.8739  0.3845  0.9750
 8650SOL    HW237587   1.115   3.371   4.170  1.0037  1.6433 -0.5134
 8651SOL     OW37588   0.311   4.237   2.229  0.3408 -0.2956  0.1141
 8651SOL    HW137589   0.302   4.151   2.270 -2.5401  0.5886  1.2976
 8651SOL    HW237590   0.252   4.228   2.154  1.4141  2.3352 -1.0389
 8652SOL     OW37591   2.859   1.536   9.139  0.5045 -0.4046  0.3260
 8652SOL    HW137592   2.806   1.578   9.070  0.5764  0.7255  0.9521
 8652SOL    HW237593   2.857   1.606   9.205  1.0622  0.3667 -0.4674
 8653SOL     OW37594   3.481   0.107   2.085 -0.0826  0.0351 -0.2991
 8653SOL    HW137595   3.546   0.156   2.033 -0.4164  0.2571 -0.5085
 8653SOL    HW237596   3.452   0.178   2.143 -2.8068  0.4779 -2.2282
 8654SOL     OW37597   0.827   3.462   8.678 -0.2076 -0.7696 -0.2035
 8654SOL    HW137598   0.776   3.384   8.655 -2.3790  0.3903  0.7008
 8654SOL    HW237599   0.907   3.417   8.705  0.1027 -0.1372 -0.0721
 8655SOL     OW37600   3.308   4.686   5.620  0.0736  0.1664  0.1416
 8655SOL    HW137601   3.279   0.021   5.678 -1.7334 -1.1229  0.8146
 8655SOL    HW237602   3.259   4.614   5.660 -0.6623  0.6065  0.0448
 8656SOL     OW37603   4.551   2.129  10.635 -0.1350  0.6296 -0.7013
 8656SOL    HW137604   4.615   2.079  10.686  0.9484  1.3802 -1.3259
 8656SOL    HW237605   4.476   2.073  10.654 -1.0965  2.1753  0.1065
 8657SOL     OW37606   2.017   1.788   7.700 -0.4769  0.5243 -0.4601
 8657SOL    HW137607   1.954   1.795   7.628 -1.0229  0.5348  0.0177
 8657SOL    HW237608   2.060   1.873   7.699  0.6112 -0.0352 -1.3539
 8658SOL     OW37609   4.342   4.598   2.103 -1.1609  0.1790  0.3822
 8658SOL    HW137610   4.389   4.665   2.054 -0.3707 -2.0156 -1.8677
 8658SOL    HW237611   4.329   4.640   2.188  2.7825  0.9439  0.6331
 8659SOL     OW37612   3.063   0.348   6.393 -0.8445  0.4311 -0.2739
 8659SOL    HW137613   3.129   0.316   6.455 -1.3752  1.5690  0.8890
 8659SOL    HW237614   3.047   0.267   6.345  0.1575 -0.3744  0.7693
 8660SOL     OW37615   1.867   0.639   6.550 -0.1754 -0.4114  0.1057
 8660SOL    HW137616   1.928   0.597   6.610  0.3723  0.7321  0.3656
 8660SOL    HW237617   1.928   0.701   6.511  1.0974 -0.8853  1.3410
 8661SOL     OW37618   0.776   1.201   6.797  0.0366  0.2876  0.4740
 8661SOL    HW137619   0.746   1.291   6.785  2.0913  1.0463  0.9751
 8661SOL    HW237620   0.780   1.163   6.709  0.8030 -0.5180  0.8484
 8662SOL     OW37621   3.682   4.458   2.364  0.1146  0.2655 -0.6225
 8662SOL    HW137622   3.720   4.403   2.296  0.5783 -1.5449  1.1226
 8662SOL    HW237623   3.591   4.427   2.367  0.3972 -0.6991 -1.8268
 8663SOL     OW37624   1.338   0.693   6.693  0.3667  0.2371  0.2999
 8663SOL    HW137625   1.387   0.622   6.735 -0.6178 -2.1610 -2.5443
 8663SOL    HW237626   1.348   0.679   6.598  0.9965  2.0600  0.1071
 8664SOL     OW37627   2.562   0.513   6.071 -0.4234  0.2270  0.8713
 8664SOL    HW137628   2.562   0.575   6.145  0.0914  1.9811 -0.5987
 8664SOL    HW237629   2.467   0.505   6.075 -0.5808  1.6690 -0.4211
 8665SOL     OW37630   1.154   1.838   9.693 -0.2177  0.1726  0.3553
 8665SOL    HW137631   1.071   1.882   9.711 -2.1051 -2.7026 -1.5099
 8665SOL    HW237632   1.126   1.765   9.638  1.3030 -1.3570  1.6255
 8666SOL     OW37633   3.850   2.305   6.909  0.5955  0.5354 -1.1838
 8666SOL    HW137634   3.794   2.236   6.943  2.2479 -0.5999 -0.7950
 8666SOL    HW237635   3.884   2.328   6.995 -1.8119  0.3504 -0.1935
 8667SOL     OW37636   2.564   1.167   3.632 -0.1068  0.1202  0.0051
 8667SOL    HW137637   2.565   1.155   3.727 -1.1570  0.5147  0.0622
 8667SOL    HW237638   2.512   1.248   3.635  0.1953  0.2789  0.9976
 8668SOL     OW37639   1.334   2.625  17.726 -0.5254  0.9194 -1.0279
 8668SOL    HW137640   1.242   2.650  17.732 -0.6248  0.1407  0.8773
 8668SOL    HW237641   1.378   2.697   0.027  0.8605  0.3683 -1.5005
 8669SOL     OW37642   1.303   0.412   5.531  0.2871 -0.1095  0.6553
 8669SOL    HW137643   1.209   0.398   5.546  1.0122 -3.6177  1.8134
 8669SOL    HW237644   1.332   0.387   5.619 -0.3070 -0.0026  0.8875
 8670SOL     OW37645   4.523   1.896   2.682  0.6886  0.4946 -0.2879
 8670SOL    HW137646   4.601   1.915   2.734  0.4880 -0.7627  0.4815
 8670SOL    HW237647   4.542   1.934   2.596  3.1662 -0.1612 -0.0314
 8671SOL     OW37648   0.747   1.512   8.105 -0.1035  0.0034 -0.0094
 8671SOL    HW137649   0.653   1.522   8.094  0.2774  3.6763  0.0660
 8671SOL    HW237650   0.766   1.438   8.046  0.6441 -0.3924  0.7191
 8672SOL     OW37651   4.143   3.279  14.697  0.4963  0.2071 -0.2780
 8672SOL    HW137652   4.225   3.280  14.747  0.3050 -1.2928  0.0669
 8672SOL    HW237653   4.109   3.200  14.739  0.6170  0.3840  0.1430
 8673SOL     OW37654   1.213   0.599   0.152 -0.8000  0.0336 -0.2455
 8673SOL    HW137655   1.304   0.610   0.177 -0.8361 -3.3579  1.3214
 8673SOL    HW237656   1.220   0.551   0.069 -2.0877  1.3971 -1.1555
 8674SOL     OW37657   2.303   4.595  10.789  0.4902 -0.4669  0.1594
 8674SOL    HW137658   2.380   4.645  10.763  0.6797 -0.7705  0.1279
 8674SOL    HW237659   2.341   4.510  10.764 -0.6189 -1.7016  2.6697
 8675SOL     OW37660   3.408   0.367   2.960  0.4106 -0.1792 -0.4812
 8675SOL    HW137661   3.346   0.354   3.032  1.8757  1.5433  1.1052
 8675SOL    HW237662   3.490   0.342   3.001 -0.4289 -0.5595  0.9640
 8676SOL     OW37663   2.181   1.734   1.510 -0.1604  0.4513  0.4405
 8676SOL    HW137664   2.144   1.799   1.449  0.2957 -0.1983 -0.5322
 8676SOL    HW237665   2.131   1.654   1.492 -0.7507  0.8220  0.4180
 8677SOL     OW37666   0.675   3.553  10.503 -0.1637 -0.3719 -0.2768
 8677SOL    HW137667   0.681   3.550  10.598  1.2758 -0.6808 -0.3788
 8677SOL    HW237668   0.582   3.570  10.489  0.3899  1.5466 -1.6686
 8678SOL     OW37669   4.130   1.991   7.866 -0.2996 -0.3202 -0.2923
 8678SOL    HW137670   4.211   2.039   7.882 -2.1370  1.9562  2.3360
 8678SOL    HW237671   4.061   2.051   7.895 -1.3858 -0.8047 -1.8529
 8679SOL     OW37672   4.063   0.173   0.943 -0.1221 -0.1359  0.2652
 8679SOL    HW137673   4.099   0.146   1.028  1.1018  1.3826  0.2344
 8679SOL    HW237674   4.043   0.262   0.971  0.1053  0.1238 -0.3960
 8680SOL     OW37675   1.327   3.477   3.313  0.6472 -0.1220 -0.5200
 8680SOL    HW137676   1.299   3.505   3.225  0.6019 -0.9093 -0.7628
 8680SOL    HW237677   1.417   3.452   3.291  1.0407  0.4645  0.4281
 8681SOL     OW37678   2.348   1.837   5.134 -0.5883 -0.1912  0.2505
 8681SOL    HW137679   2.368   1.816   5.042  0.5616  1.6495  0.0819
 8681SOL    HW237680   2.256   1.863   5.124 -0.9814 -2.4459 -1.9047
 8682SOL     OW37681   4.400   2.536  13.245  0.5569 -0.1386  0.1538
 8682SOL    HW137682   4.430   2.573  13.161 -0.9973 -0.5682 -0.5953
 8682SOL    HW237683   4.479   2.551  13.297 -1.1745  2.0090  2.1464
 8683SOL     OW37684   2.249   3.261   5.033 -0.2680  0.1637 -0.3235
 8683SOL    HW137685   2.236   3.327   4.965 -1.2599 -1.5427 -1.8100
 8683SOL    HW237686   2.186   3.291   5.099 -1.7999  0.9490 -2.1250
 8684SOL     OW37687   4.298   1.264  15.488 -0.1747  0.1135  0.3731
 8684SOL    HW137688   4.226   1.248  15.549  0.6776  0.3424  1.4418
 8684SOL    HW237689   4.250   1.310  15.419 -1.0662 -1.1819  0.1357
 8685SOL     OW37690   0.975   0.660   7.073  0.2349 -0.2770  0.3076
 8685SOL    HW137691   1.047   0.651   7.135  2.0941  0.0131 -1.7823
 8685SOL    HW237692   0.906   0.604   7.108 -0.5858 -0.4877 -1.6521
 8686SOL     OW37693   2.684   1.873  10.729 -0.5229  0.0836 -0.7476
 8686SOL    HW137694   2.603   1.865  10.781 -1.0453  2.0067 -1.2653
 8686SOL    HW237695   2.656   1.852  10.640  1.0210  0.2920 -1.2862
 8687SOL     OW37696   4.553   2.409   3.838 -0.5573  0.0247  0.1134
 8687SOL    HW137697   4.579   2.436   3.750 -2.1223  0.5393 -0.2052
 8687SOL    HW237698   4.508   2.328   3.812 -1.5930  0.8374 -0.6275
 8688SOL     OW37699   3.003   1.421   0.873 -0.1017 -0.2209 -0.3194
 8688SOL    HW137700   3.078   1.482   0.872 -1.9196  2.0107 -0.3077
 8688SOL    HW237701   3.052   1.343   0.845 -0.4749 -0.0426 -1.4583
 8689SOL     OW37702   2.918   3.502   5.519  0.0750 -0.3093  0.6641
 8689SOL    HW137703   2.945   3.420   5.478 -1.9139 -1.7260  2.2053
 8689SOL    HW237704   2.989   3.558   5.486 -0.4891 -0.2681 -0.5001
 8690SOL     OW37705   2.762   2.496   1.358 -0.2539 -0.3393  0.2922
 8690SOL    HW137706   2.810   2.576   1.377 -2.7609  1.4584 -0.8766
 8690SOL    HW237707   2.728   2.472   1.445  0.9156  1.1444  1.1471
 8691SOL     OW37708   2.449   0.220   2.719  0.0545  0.5956 -0.3858
 8691SOL    HW137709   2.380   0.215   2.786 -0.5881  0.8970 -1.0228
 8691SOL    HW237710   2.528   0.213   2.772 -0.4186  1.8942  0.5059
 8692SOL     OW37711   4.288   2.656   6.582 -0.8013  0.3026 -0.0020
 8692SOL    HW137712   4.220   2.589   6.584 -0.3011 -0.1231  3.4938
 8692SOL    HW237713   4.272   2.681   6.491  0.2160 -2.2991 -0.8990
 8693SOL     OW37714   2.375   1.690   2.347  0.3564 -0.0624 -0.3795
 8693SOL    HW137715   2.410   1.764   2.298 -0.2107 -1.1588 -2.4424
 8693SOL    HW237716   2.289   1.729   2.365 -0.5011 -1.1023 -2.2150
 8694SOL     OW37717   2.574   3.415   1.988 -0.1671  0.2455  0.2204
 8694SOL    HW137718   2.663   3.386   1.967 -0.6898 -1.5682  0.4983
 8694SOL    HW237719   2.527   3.333   2.000  1.9000 -1.1027 -0.8844
 8695SOL     OW37720   1.593   3.297   8.288  0.3225 -0.8456 -0.3267
 8695SOL    HW137721   1.606   3.245   8.209 -2.1772 -1.7708 -0.1499
 8695SOL    HW237722   1.631   3.241   8.356  3.9421  2.3302  0.2513
 8696SOL     OW37723   2.023   1.425  13.396 -0.5862  0.8720  0.1655
 8696SOL    HW137724   2.102   1.451  13.349  0.0868  0.8585  1.2785
 8696SOL    HW237725   2.028   1.331  13.412  0.0240  0.7981 -0.4581
 8697SOL     OW37726   2.187   1.042  10.910 -0.3280  0.3970  0.1580
 8697SOL    HW137727   2.206   1.043  11.004 -2.7622  1.1785  0.6610
 8697SOL    HW237728   2.265   0.996  10.878 -1.1881  1.4394 -3.3996
 8698SOL     OW37729   1.253   2.194   3.741 -0.1154 -0.6366 -0.4797
 8698SOL    HW137730   1.236   2.288   3.752  3.2176 -0.3931  2.8851
 8698SOL    HW237731   1.244   2.200   3.646 -0.3909 -1.3797 -0.4970
 8699SOL     OW37732   4.583   1.494   6.910 -0.1329 -0.4432  0.2287
 8699SOL    HW137733   4.528   1.547   6.853 -1.3028 -0.3075  1.4819
 8699SOL    HW237734   4.674   1.519   6.896 -0.0518 -0.7652  0.1691
 8700SOL     OW37735   3.930   0.679   6.592  0.5119 -0.1290 -0.2589
 8700SOL    HW137736   3.897   0.603   6.544  2.7168  0.6383 -3.0204
 8700SOL    HW237737   3.849   0.729   6.602 -1.4207 -3.4034  0.4642
 8701SOL     OW37738   1.958   3.844  13.240  0.4593  0.2318 -0.1058
 8701SOL    HW137739   2.033   3.876  13.289 -1.3332 -0.6807  3.2271
 8701SOL    HW237740   1.897   3.837  13.314  0.2515  2.3527 -0.0548
 8702SOL     OW37741   3.965   0.170  14.496 -0.0990  0.0217 -0.7303
 8702SOL    HW137742   3.999   0.184  14.584  0.2492 -1.3918 -0.6300
 8702SOL    HW237743   3.871   0.157  14.510  0.3092 -2.4681 -0.3537
 8703SOL     OW37744   0.071   2.497   8.059 -0.5186 -0.6978  0.3297
 8703SOL    HW137745   0.010   2.539   8.120 -1.3403 -0.1158 -0.8968
 8703SOL    HW237746   0.026   2.519   7.977  0.1395  0.4024  0.2645
 8704SOL     OW37747   1.967   1.742  10.979 -0.7119 -0.5690 -0.5258
 8704SOL    HW137748   2.045   1.796  10.992  0.3788 -2.6524  1.6144
 8704SOL    HW237749   2.000   1.673  10.922 -2.1307 -1.9863  0.3886
 8705SOL     OW37750   3.711   4.429  14.187 -0.2085 -0.0278  0.2054
 8705SOL    HW137751   3.633   4.480  14.209 -0.9054 -1.4516  1.0402
 8705SOL    HW237752   3.704   4.427  14.091  0.5054  2.9845  0.0908
 8706SOL     OW37753   0.549   0.034   2.951 -0.2099 -0.3149 -0.1211
 8706SOL    HW137754   0.525   0.125   2.968 -0.2668 -0.1296 -1.2178
 8706SOL    HW237755   0.640   0.037   2.922 -0.2540 -2.6342 -0.4884
 8707SOL     OW37756   0.270   2.839  16.464 -0.2464 -0.2736  0.1954
 8707SOL    HW137757   0.178   2.833  16.441 -0.6699 -1.1209  2.1329
 8707SOL    HW237758   0.284   2.767  16.526 -1.0379 -1.4379 -0.9976
 8708SOL     OW37759   0.898   3.031   6.766 -0.1192  0.2786  0.0684
 8708SOL    HW137760   0.989   3.002   6.768  0.1923  1.2482 -0.0056
 8708SOL    HW237761   0.883   3.021   6.672 -1.5163 -1.7050  0.4972
 8709SOL     OW37762   4.706   0.687   6.212 -0.2147  0.5884 -0.0344
 8709SOL    HW137763   0.017   0.731   6.142  0.5635 -0.7003 -0.3206
 8709SOL    HW237764   4.622   0.732   6.214 -0.8193 -0.5209 -0.2135
 8710SOL     OW37765   2.028   3.956   5.244 -0.5281  0.5515 -0.0042
 8710SOL    HW137766   1.953   3.984   5.296  0.9202  3.6413  0.4176
 8710SOL    HW237767   2.089   4.021   5.277 -0.5621 -0.2243  1.5880
 8711SOL     OW37768   1.080   0.091   0.494  0.8825 -0.8449 -0.0153
 8711SOL    HW137769   1.035   0.099   0.410 -0.0004  1.5476  0.6914
 8711SOL    HW237770   1.050   0.003   0.519  1.5156 -0.5427  1.7645
 8712SOL     OW37771   3.251   1.680   4.328 -0.3890  0.0626  0.0877
 8712SOL    HW137772   3.248   1.676   4.233  1.1490  0.4840  0.0161
 8712SOL    HW237773   3.345   1.674   4.345 -0.0006  1.4555 -1.5281
 8713SOL     OW37774   0.084   2.829  12.567  0.2664 -0.1192 -0.7597
 8713SOL    HW137775   0.136   2.756  12.601 -0.3017 -0.8400 -1.4367
 8713SOL    HW237776   0.055   2.795  12.483 -0.3102 -1.4331 -0.0307
 8714SOL     OW37777   3.860   3.785   3.586 -0.2839  0.1774  0.2606
 8714SOL    HW137778   3.911   3.866   3.598 -1.1072  1.0952 -2.3938
 8714SOL    HW237779   3.772   3.815   3.607 -0.2212  0.6734 -0.1803
 8715SOL     OW37780   1.970   1.024   6.766  0.6289  0.0725 -0.6453
 8715SOL    HW137781   2.019   1.055   6.690 -0.5332  2.5469 -0.3631
 8715SOL    HW237782   1.881   1.056   6.753  0.5373  0.6519  1.3630
 8716SOL     OW37783   1.156   1.697   6.106 -0.1871 -0.2497  0.0981
 8716SOL    HW137784   1.099   1.740   6.169 -0.0359 -0.1013  0.1348
 8716SOL    HW237785   1.111   1.707   6.022 -3.0472 -1.3182  1.5284
 8717SOL     OW37786   2.554   3.104   9.884 -0.0622  0.2246 -0.8122
 8717SOL    HW137787   2.616   3.076   9.951 -0.1453  0.4513 -0.6390
 8717SOL    HW237788   2.523   3.019   9.853 -1.0831  1.2494 -2.6370
 8718SOL     OW37789   2.229   1.406  12.440 -0.1635  0.0467  0.9377
 8718SOL    HW137790   2.275   1.358  12.371 -0.5369  1.3585 -0.2061
 8718SOL    HW237791   2.222   1.342  12.511  0.2884  0.0659  0.9995
 8719SOL     OW37792   1.613   0.169   4.053 -0.1890 -0.4294 -0.4880
 8719SOL    HW137793   1.553   0.234   4.018 -0.5118 -1.0380 -1.0665
 8719SOL    HW237794   1.703   0.201   4.043 -0.3904  0.1949 -0.2753
 8720SOL     OW37795   2.107   0.603   0.229  0.3644 -0.1302 -0.1895
 8720SOL    HW137796   2.156   0.594   0.147 -0.6707 -0.3927 -0.7774
 8720SOL    HW237797   2.034   0.659   0.202 -0.2963 -1.1635 -0.5177
 8721SOL     OW37798   0.697   3.496   7.241 -0.4463 -0.5539 -0.0852
 8721SOL    HW137799   0.611   3.540   7.241  0.1247  0.6770  5.0686
 8721SOL    HW237800   0.677   3.407   7.214 -2.3486 -0.2289  0.2017
 8722SOL     OW37801   4.154   3.387   9.577 -0.2306  0.4358 -0.0985
 8722SOL    HW137802   4.104   3.324   9.629  0.6107 -0.9804 -1.0199
 8722SOL    HW237803   4.242   3.398   9.612  0.6834 -0.7714 -2.0596
 8723SOL     OW37804   1.838   2.016   7.486  0.6603  0.2334 -0.3415
 8723SOL    HW137805   1.792   1.941   7.448 -0.2382 -0.3173  1.7882
 8723SOL    HW237806   1.906   2.027   7.420 -0.2708 -0.7396 -1.4437
 8724SOL     OW37807   2.707   4.306  12.701  0.5620 -0.7058  0.2490
 8724SOL    HW137808   2.757   4.225  12.687 -0.8467 -1.4045 -0.7040
 8724SOL    HW237809   2.620   4.273  12.679  0.3292  0.0562  0.0414
 8725SOL     OW37810   0.368   0.296   3.678 -0.1810  0.4291  0.0997
 8725SOL    HW137811   0.462   0.275   3.679  0.0644  1.3792 -2.1176
 8725SOL    HW237812   0.366   0.372   3.736  1.8095  0.7932 -0.2937
 8726SOL     OW37813   3.857   3.870  11.719 -0.2269 -0.2463 -0.0153
 8726SOL    HW137814   3.770   3.906  11.739  0.7242  1.0072  1.8385
 8726SOL    HW237815   3.847   3.776  11.734  0.2303 -0.0775  1.3493
 8727SOL     OW37816   2.677   0.466  16.692 -0.4475  0.1817 -0.1503
 8727SOL    HW137817   2.585   0.486  16.712 -0.3236  1.3758 -0.7725
 8727SOL    HW237818   2.712   0.438  16.776  0.6116  1.7947 -0.0609
 8728SOL     OW37819   1.217   4.072   6.695 -0.0940  0.4161  0.1188
 8728SOL    HW137820   1.218   4.163   6.667 -2.0543 -0.6123 -3.2834
 8728SOL    HW237821   1.142   4.073   6.754  0.5385 -3.4973  1.0016
 8729SOL     OW37822   3.496   3.326   9.687  0.2494 -0.6121  0.1363
 8729SOL    HW137823   3.524   3.273   9.613  1.3096 -0.1892  0.2341
 8729SOL    HW237824   3.438   3.395   9.653  0.5315  0.6301  2.1565
 8730SOL     OW37825   3.126   0.636   3.157  0.0166 -0.2290  0.6626
 8730SOL    HW137826   3.159   0.654   3.069 -0.5429 -2.6227 -0.0310
 8730SOL    HW237827   3.035   0.620   3.132  0.4304  0.5422 -1.3281
 8731SOL     OW37828   2.213   3.362   4.737 -0.2642  0.2877  0.1201
 8731SOL    HW137829   2.210   3.457   4.730  1.3529  0.2523 -1.3081
 8731SOL    HW237830   2.149   3.323   4.678  0.8341 -0.2279 -0.7446
 8732SOL     OW37831   0.307   1.831   4.552  0.4356  0.3513  0.7324
 8732SOL    HW137832   0.349   1.817   4.637  0.0392 -0.4701  0.7911
 8732SOL    HW237833   0.379   1.873   4.505 -1.0213  0.3408 -1.5094
 8733SOL     OW37834   3.860   0.596   1.751 -0.1788  0.3820  0.2150
 8733SOL    HW137835   3.790   0.655   1.778  0.4492  0.2566  2.0890
 8733SOL    HW237836   3.850   0.535   1.824  1.3884  2.2192  1.9601
 8734SOL     OW37837   1.403   3.472  12.792 -0.3904  0.3357 -0.2151
 8734SOL    HW137838   1.453   3.417  12.731 -0.1609  0.7882 -0.4354
 8734SOL    HW237839   1.432   3.440  12.877  0.3106  2.0010  0.1644
 8735SOL     OW37840   1.959   0.656  10.707 -0.2711  0.1913  0.9947
 8735SOL    HW137841   2.032   0.621  10.759 -0.9204 -1.8147  0.5351
 8735SOL    HW237842   1.981   0.749  10.711  2.5500 -0.4162 -0.5251
 8736SOL     OW37843   3.661   1.387   8.405 -0.6386 -0.0845 -0.0447
 8736SOL    HW137844   3.696   1.355   8.322  0.0842 -0.9605  0.5886
 8736SOL    HW237845   3.695   1.476   8.403 -0.1004 -0.2912  0.0094
 8737SOL     OW37846   2.766   3.367  16.976 -1.0485  0.6758  0.1906
 8737SOL    HW137847   2.844   3.318  17.005 -1.6962 -0.3980  0.1039
 8737SOL    HW237848   2.772   3.442  17.035 -2.2920  0.3907  0.6691
 8738SOL     OW37849   2.199   4.636  11.091 -0.0288 -0.2738  0.3664
 8738SOL    HW137850   2.273   4.666  11.145  1.5764 -1.7787 -0.9945
 8738SOL    HW237851   2.232   4.650  11.003  0.4886 -2.6851  0.1803
 8739SOL     OW37852   3.150   3.225  12.400  0.1312  0.9350 -0.6088
 8739SOL    HW137853   3.222   3.190  12.451 -2.1123 -2.3825  0.2956
 8739SOL    HW237854   3.076   3.179  12.440  0.0986 -0.1048 -1.8526
 8740SOL     OW37855   2.407   4.085  14.733 -0.4267 -0.5061 -0.4426
 8740SOL    HW137856   2.441   4.125  14.813 -0.5315 -0.9134 -0.1936
 8740SOL    HW237857   2.364   4.160  14.691  0.0780 -0.7312 -1.3677
 8741SOL     OW37858   2.734   1.671   3.643  0.0217 -0.1388  0.1368
 8741SOL    HW137859   2.679   1.743   3.674  0.7860  0.5756 -0.1574
 8741SOL    HW237860   2.823   1.704   3.628 -0.4638  0.5144 -1.2842
 8742SOL     OW37861   1.832   2.223   2.855 -0.5213  0.3640  0.2817
 8742SOL    HW137862   1.853   2.305   2.809  1.1984  0.6358  1.5597
 8742SOL    HW237863   1.800   2.160   2.790  1.2989 -2.6166  2.2884
 8743SOL     OW37864   3.550   0.596   3.188  0.1629 -0.1334 -0.2915
 8743SOL    HW137865   3.465   0.552   3.198 -0.0121  0.3170  0.1853
 8743SOL    HW237866   3.603   0.517   3.177 -1.7183 -1.6987  1.7558
 8744SOL     OW37867   0.528   4.565   4.734  0.0931  0.4081 -0.1250
 8744SOL    HW137868   0.561   4.481   4.701  1.3620  1.5443 -1.7671
 8744SOL    HW237869   0.549   4.551   4.826  0.5509  0.0535 -0.2779
 8745SOL     OW37870   3.308   2.404  16.948 -0.5959 -0.1142  0.2762
 8745SOL    HW137871   3.283   2.317  16.917 -2.1610  0.5378 -0.2506
 8745SOL    HW237872   3.388   2.415  16.897 -0.2006 -0.8990  0.7280
 8746SOL     OW37873   2.854   3.350  11.738 -0.0661 -0.3848 -0.3812
 8746SOL    HW137874   2.880   3.440  11.757  0.9300 -0.7717  0.1217
 8746SOL    HW237875   2.816   3.364  11.652 -1.2216  0.3388  0.2599
 8747SOL     OW37876   1.694   1.630   9.228 -0.6428  0.1902 -0.3357
 8747SOL    HW137877   1.768   1.658   9.280  0.0046 -1.5954 -0.2781
 8747SOL    HW237878   1.653   1.576   9.296  1.0012 -0.2557  0.3039
 8748SOL     OW37879   4.278   2.639   5.287 -0.4862  0.0962 -0.1784
 8748SOL    HW137880   4.285   2.545   5.267 -2.2554  0.1718 -1.1209
 8748SOL    HW237881   4.214   2.643   5.358 -1.9953 -0.6464 -1.4934
 8749SOL     OW37882   1.597   4.668   3.937 -0.4781  0.1110 -0.0883
 8749SOL    HW137883   1.597   4.736   4.004 -0.7461 -1.0024  1.0321
 8749SOL    HW237884   1.529   4.609   3.968  1.2933 -2.1010 -0.4658
 8750SOL     OW37885   3.396   0.955   6.774 -0.6107 -0.2606  0.1207
 8750SOL    HW137886   3.455   0.992   6.709 -0.9921 -0.1167 -0.1463
 8750SOL    HW237887   3.342   1.032   6.793 -1.8765 -1.1878  0.3179
 8751SOL     OW37888   2.460   0.823   7.936  0.0622 -0.5566  0.3903
 8751SOL    HW137889   2.488   0.871   8.014 -0.1291  2.5804 -1.4793
 8751SOL    HW237890   2.529   0.758   7.927  0.9828  0.2327  1.7024
 8752SOL     OW37891   1.844   2.500   9.891 -0.7295  0.0216  0.1882
 8752SOL    HW137892   1.836   2.563   9.962 -0.4909 -2.6822  2.6530
 8752SOL    HW237893   1.787   2.521   9.817  0.4051 -1.5557 -1.1355
 8753SOL     OW37894   2.234   1.080   3.562  0.2281  0.5327 -0.7012
 8753SOL    HW137895   2.261   1.029   3.486 -1.4508  0.3202 -1.1498
 8753SOL    HW237896   2.263   1.167   3.536  1.4398  0.1997 -0.4767
 8754SOL     OW37897   2.041   4.322  10.684 -0.0760 -0.0649  0.8915
 8754SOL    HW137898   2.052   4.286  10.596 -3.3383 -0.0308  0.4609
 8754SOL    HW237899   1.963   4.272  10.706 -0.6981  0.1120 -0.9112
 8755SOL     OW37900   2.689   1.759  13.314 -0.0109 -0.0297  0.5422
 8755SOL    HW137901   2.734   1.811  13.381 -1.1888  2.9713 -1.0161
 8755SOL    HW237902   2.657   1.681  13.359  4.0724 -0.8094  2.0745
 8756SOL     OW37903   0.619   2.720  16.500 -0.1898  0.5008  0.1889
 8756SOL    HW137904   0.633   2.698  16.407 -0.9178  0.3847  0.1077
 8756SOL    HW237905   0.625   2.639  16.551  1.2036 -0.8710 -2.1399
 8757SOL     OW37906   0.115   3.671   8.112 -0.0373  0.0400  0.1211
 8757SOL    HW137907   0.037   3.703   8.159 -0.4273 -0.2545 -0.3229
 8757SOL    HW237908   0.181   3.740   8.122  1.4548 -1.3823  0.0388
 8758SOL     OW37909   4.594   2.365   7.628 -0.1957  0.0554  0.1812
 8758SOL    HW137910   4.688   2.360   7.642 -0.3303 -1.6644  0.4279
 8758SOL    HW237911   4.568   2.456   7.647  0.0016 -0.0018  0.7074
 8759SOL     OW37912   3.620   3.634  15.313  0.5599 -0.0230  0.3075
 8759SOL    HW137913   3.622   3.680  15.229 -2.8941 -0.6336 -0.1359
 8759SOL    HW237914   3.713   3.639  15.336  0.6766  1.4132 -0.4737
 8760SOL     OW37915   4.611   0.110   2.660  0.1509 -0.0463 -0.1369
 8760SOL    HW137916   4.635   0.035   2.606  0.9247  0.6052 -0.7016
 8760SOL    HW237917   4.694   0.152   2.684  0.8575  0.4083 -3.3495
 8761SOL     OW37918   0.009   1.694   8.595 -0.2996 -0.4097  0.1818
 8761SOL    HW137919   0.047   1.778   8.620 -0.3094 -0.5133  0.5373
 8761SOL    HW237920   0.079   1.646   8.551 -0.6582  0.6428 -1.5642
 8762SOL     OW37921   1.286   2.735   2.182 -0.2673 -0.4803 -0.1188
 8762SOL    HW137922   1.362   2.773   2.137  0.6325 -1.4961  0.5249
 8762SOL    HW237923   1.277   2.648   2.142 -1.9177 -0.0302 -0.7181
 8763SOL     OW37924   1.441   4.409   7.959 -0.4230  0.2676 -0.1030
 8763SOL    HW137925   1.385   4.484   7.940 -0.0421  0.2791 -1.1852
 8763SOL    HW237926   1.475   4.430   8.046  2.3435 -1.3109 -0.7856
 8764SOL     OW37927   3.444   1.437   2.535 -0.1898 -0.6444 -0.1089
 8764SOL    HW137928   3.357   1.405   2.511 -0.6098  0.3751  0.0373
 8764SOL    HW237929   3.455   1.407   2.625  0.2938  0.5476  0.2259
 8765SOL     OW37930   4.110   1.026   8.885  0.1234  0.0257 -0.5382
 8765SOL    HW137931   4.123   1.059   8.796 -0.0305  0.2893 -0.4633
 8765SOL    HW237932   4.030   0.977   8.864  0.8867 -2.7222  2.8415
 8766SOL     OW37933   3.657   0.156  16.913  0.2530  0.3569  0.2125
 8766SOL    HW137934   3.594   0.115  16.853  0.1258  0.0037  0.5862
 8766SOL    HW237935   3.620   0.243  16.927 -1.8754 -0.3953 -0.6995
 8767SOL     OW37936   4.547   2.487   6.270  0.5918 -0.5954 -0.0372
 8767SOL    HW137937   4.537   2.514   6.361  0.5104  1.0002 -0.5194
 8767SOL    HW237938   4.527   2.572   6.232  1.4324 -0.6351 -0.5838
 8768SOL     OW37939   2.107   2.950  12.798 -0.0661  0.0584 -0.2457
 8768SOL    HW137940   2.035   2.919  12.852 -2.6910  1.3830 -2.9557
 8768SOL    HW237941   2.078   3.036  12.767 -0.9212 -0.7939 -1.8147
 8769SOL     OW37942   2.707   1.645   1.214 -0.5183 -0.0717  0.1723
 8769SOL    HW137943   2.722   1.566   1.162  1.7760  2.0142 -2.3223
 8769SOL    HW237944   2.725   1.612   1.303 -1.9799  2.2621  1.3332
 8770SOL     OW37945   3.516   3.948   9.486 -0.5977  0.0562 -0.8189
 8770SOL    HW137946   3.442   3.903   9.527  0.8755 -1.1627  0.4944
 8770SOL    HW237947   3.588   3.902   9.529  0.7165  1.1292 -1.8962
 8771SOL     OW37948   2.686   3.181  16.564  0.3016  0.4922 -0.0701
 8771SOL    HW137949   2.673   3.264  16.609 -2.4114  1.1585 -2.0522
 8771SOL    HW237950   2.779   3.166  16.579  0.2490 -0.1681 -0.3663
 8772SOL     OW37951   1.588   2.544   6.478 -0.6796 -0.1028  0.0254
 8772SOL    HW137952   1.677   2.527   6.448 -0.5974  0.1114  0.1462
 8772SOL    HW237953   1.529   2.483   6.434  0.8995 -0.0753 -2.1068
 8773SOL     OW37954   1.655   2.756   9.169 -0.1273 -0.2322 -0.3833
 8773SOL    HW137955   1.616   2.842   9.187  0.0622 -0.3137  0.3789
 8773SOL    HW237956   1.623   2.735   9.081  0.1370 -0.8432 -0.3313
 8774SOL     OW37957   3.440   2.914   5.828  0.7790  0.3080  0.0180
 8774SOL    HW137958   3.412   2.833   5.786 -2.1067  1.7004 -0.7121
 8774SOL    HW237959   3.437   2.973   5.754  1.4439  0.2114 -0.0885
 8775SOL     OW37960   0.732   2.853   1.769 -0.7442 -0.2413  0.2428
 8775SOL    HW137961   0.737   2.858   1.865 -0.1850 -0.4330  0.2274
 8775SOL    HW237962   0.823   2.879   1.752 -1.3353  1.0425 -0.9186
 8776SOL     OW37963   0.936   0.028  15.537 -0.2728 -0.7834  0.1512
 8776SOL    HW137964   0.985   0.072  15.468 -0.3615 -2.4649 -0.9765
 8776SOL    HW237965   0.921   0.100  15.599  0.2989 -0.9174  0.4432
 8777SOL     OW37966   4.604   2.867   4.237  0.2921 -0.4412  0.1584
 8777SOL    HW137967   4.525   2.896   4.282  0.2716 -1.5884  0.8726
 8777SOL    HW237968   4.572   2.779   4.215 -1.0971 -0.2518  1.4273
 8778SOL     OW37969   1.311   4.561   9.023  0.2124 -0.4263  0.4654
 8778SOL    HW137970   1.243   4.515   8.974  0.6216 -0.8964  0.3348
 8778SOL    HW237971   1.268   4.632   9.071  0.0608  0.2491 -0.6674
 8779SOL     OW37972   1.123   0.562   5.008  0.4715 -0.7435 -0.0413
 8779SOL    HW137973   1.095   0.574   5.099  2.1216  0.8259  0.2695
 8779SOL    HW237974   1.047   0.597   4.961  1.7657  0.1355 -1.4776
 8780SOL     OW37975   1.542   4.620  15.503 -0.5178 -0.8713 -0.7251
 8780SOL    HW137976   1.523   4.709  15.472 -0.6030 -0.7513 -0.3419
 8780SOL    HW237977   1.535   4.646  15.595  0.6577 -0.4581 -0.7480
 8781SOL     OW37978   0.022   0.816   5.272  0.0917 -0.4080  0.3460
 8781SOL    HW137979   0.111   0.834   5.241 -0.4449  0.1270 -0.9018
 8781SOL    HW237980   0.005   0.726   5.244  0.5988 -0.0619 -1.0782
 8782SOL     OW37981   2.830   2.858   7.840 -0.4001 -0.2124  0.3048
 8782SOL    HW137982   2.754   2.917   7.833 -1.4917 -1.6487  0.0506
 8782SOL    HW237983   2.895   2.891   7.778  0.6413 -0.4911  1.2577
 8783SOL     OW37984   1.210   0.608  12.726  0.3042 -0.4343 -0.1343
 8783SOL    HW137985   1.283   0.601  12.788  2.4348  3.4122 -2.2147
 8783SOL    HW237986   1.210   0.701  12.705  1.6284 -1.1456 -3.3405
 8784SOL     OW37987   1.747   1.427   5.195 -0.0571 -0.1146  0.1105
 8784SOL    HW137988   1.773   1.504   5.246 -0.2708  1.0354 -1.5164
 8784SOL    HW237989   1.827   1.390   5.159 -0.5648  0.4469 -1.5890
 8785SOL     OW37990   1.058   3.116  10.136  0.2192 -0.0783 -0.5552
 8785SOL    HW137991   1.103   3.033  10.122  1.4940  0.7060 -1.1833
 8785SOL    HW237992   1.005   3.087  10.210  0.5160  0.6302 -0.0576
 8786SOL     OW37993   0.102   0.340   9.022  0.3715 -0.4607 -0.4186
 8786SOL    HW137994   0.079   0.411   8.961  1.2755 -0.0594 -0.2816
 8786SOL    HW237995   0.015   0.325   9.060  0.0700  0.2764 -0.8028
 8787SOL     OW37996   3.735   4.290   7.655  0.2878  0.3995  0.1921
 8787SOL    HW137997   3.689   4.252   7.730  1.4045  2.3000  1.8603
 8787SOL    HW237998   3.768   4.368   7.700  0.7299 -1.2358  2.7171
 8788SOL     OW37999   2.783   4.136   0.219  0.5421 -0.4658  0.8149
 8788SOL    HW138000   2.714   4.196   0.246  2.0733  0.7200  2.0566
 8788SOL    HW238001   2.856   4.197   0.218 -0.0885  0.2992  1.8786
 8789SOL     OW38002   3.161   3.001  14.447 -0.2262 -0.2863 -0.0514
 8789SOL    HW138003   3.203   2.943  14.510 -1.1225 -0.7948  0.0729
 8789SOL    HW238004   3.069   2.975  14.445 -0.3920  0.1009  2.4147
 8790SOL     OW38005   4.699   4.276  12.059  0.1543  0.6738  0.2493
 8790SOL    HW138006   4.733   4.289  12.148  1.1712  1.3934 -0.2475
 8790SOL    HW238007   4.688   4.181  12.061 -0.7124  0.7623 -0.6970
 8791SOL     OW38008   0.735   4.451   7.014  0.4997  0.0634 -0.0811
 8791SOL    HW138009   0.726   4.462   7.109  1.4918  4.4808 -0.4927
 8791SOL    HW238010   0.697   4.527   6.971 -0.4182  0.3781  1.2907
 8792SOL     OW38011   4.166   0.823   9.702 -0.2673  0.4118  0.3650
 8792SOL    HW138012   4.187   0.906   9.659 -0.1077 -1.3609 -2.9759
 8792SOL    HW238013   4.137   0.776   9.623 -2.4018  0.3775  1.1598
 8793SOL     OW38014   3.774   2.852  10.015 -0.4176  0.8482 -0.1185
 8793SOL    HW138015   3.825   2.784  10.059 -0.4634  1.6979  1.2420
 8793SOL    HW238016   3.735   2.889  10.095 -4.2169  1.2112 -2.1210
 8794SOL     OW38017   0.734   0.930  15.596 -0.0172  0.8355  0.0113
 8794SOL    HW138018   0.761   0.864  15.533  0.1847 -0.9148  1.9611
 8794SOL    HW238019   0.818   0.967  15.622  1.4596 -3.5515  1.4392
 8795SOL     OW38020   2.194   0.406  12.611  0.1125  0.0065 -0.1267
 8795SOL    HW138021   2.181   0.338  12.546 -1.4428  1.9177 -1.8428
 8795SOL    HW238022   2.160   0.360  12.688 -1.1715  3.3208  1.3197
 8796SOL     OW38023   3.485   0.220   3.351  0.3714  0.6520 -0.1702
 8796SOL    HW138024   3.573   0.181   3.350  0.3775  0.6697 -0.3589
 8796SOL    HW238025   3.484   0.243   3.258 -0.9787  1.4967  0.0640
 8797SOL     OW38026   1.277   0.471   2.061 -0.4954  0.2147  0.3389
 8797SOL    HW138027   1.276   0.389   2.011  1.3151  0.9223 -0.8370
 8797SOL    HW238028   1.213   0.521   2.010 -0.3777 -2.5954 -2.5499
 8798SOL     OW38029   1.858   1.210   5.435  0.2926 -0.3792 -0.0295
 8798SOL    HW138030   1.912   1.280   5.471 -0.4333 -0.9217  2.0700
 8798SOL    HW238031   1.780   1.264   5.425  0.7025  0.0814 -0.7306
 8799SOL     OW38032   0.627   0.381   5.429 -0.9818 -0.1893  0.5237
 8799SOL    HW138033   0.690   0.431   5.481 -0.6617 -1.2519  1.1466
 8799SOL    HW238034   0.555   0.444   5.432  0.4750  1.5445 -0.4158
 8800SOL     OW38035   1.261   1.043   3.987  0.4113  0.9606  0.0462
 8800SOL    HW138036   1.300   0.955   3.986 -1.9815 -0.0832 -2.1186
 8800SOL    HW238037   1.169   1.018   3.979  1.0584 -1.6309  0.6937
 8801SOL     OW38038   0.439   3.456   2.768 -0.2603 -0.2744  0.2695
 8801SOL    HW138039   0.481   3.490   2.847  2.3412 -0.1508 -1.1342
 8801SOL    HW238040   0.452   3.362   2.779 -1.2529 -0.2667  1.4621
 8802SOL     OW38041   4.495   0.931   9.534 -0.2458 -0.1710 -0.9008
 8802SOL    HW138042   4.500   0.839   9.560  1.0194 -0.0915 -0.8645
 8802SOL    HW238043   4.589   0.951   9.526 -0.3938  1.0645  0.4123
 8803SOL     OW38044   3.485   3.046   8.001  0.4802  0.0267 -0.1061
 8803SOL    HW138045   3.532   3.120   8.040  1.0587 -0.1255 -0.5059
 8803SOL    HW238046   3.555   3.015   7.944  0.7844 -0.0258  0.2981
 8804SOL     OW38047   1.812   2.020   3.840 -0.4564 -0.6118 -0.0926
 8804SOL    HW138048   1.851   2.027   3.928 -0.9597 -0.3439  0.1055
 8804SOL    HW238049   1.730   2.058   3.871 -0.0254 -0.3262  0.6999
 8805SOL     OW38050   3.527   4.657   3.739 -0.3502  0.5085  0.0964
 8805SOL    HW138051   3.528   4.568   3.774  0.6324  1.1388  1.6575
 8805SOL    HW238052   3.442   4.694   3.764 -0.5825 -0.4315  0.7121
 8806SOL     OW38053   0.872   3.158  15.709  0.3545  0.0174  0.0053
 8806SOL    HW138054   0.778   3.162  15.727  0.5101  1.2018  0.5567
 8806SOL    HW238055   0.877   3.211  15.629 -1.2225 -0.9630 -0.7479
 8807SOL     OW38056   4.345   2.421   3.537  0.0995  0.0952  0.6065
 8807SOL    HW138057   4.325   2.359   3.606 -0.1500 -2.1378 -1.4889
 8807SOL    HW238058   4.437   2.441   3.556 -0.0607 -1.1016  2.5981
 8808SOL     OW38059   0.162   1.634   3.056  0.1492  0.2766  0.1973
 8808SOL    HW138060   0.156   1.634   3.152  1.2872  2.1378  0.2649
 8808SOL    HW238061   0.256   1.645   3.044  0.4510  0.0877  2.3710
 8809SOL     OW38062   3.233   0.110   0.574  0.0605 -0.0193 -0.9804
 8809SOL    HW138063   3.181   0.102   0.653 -0.5331  1.9472 -1.1832
 8809SOL    HW238064   3.178   0.092   0.497  1.7074  2.0020 -2.6403
 8810SOL     OW38065   2.000   2.827  16.841 -0.1898  0.1649  0.1903
 8810SOL    HW138066   2.067   2.885  16.804 -0.4028 -0.8367 -1.7338
 8810SOL    HW238067   1.989   2.865  16.928 -1.9358  0.4877 -0.1685
 8811SOL     OW38068   0.730   2.777   7.839  0.3343 -0.2345 -0.1499
 8811SOL    HW138069   0.727   2.869   7.813 -1.1513  0.3044  1.9772
 8811SOL    HW238070   0.817   2.765   7.876  0.6933  1.1392 -0.5596
 8812SOL     OW38071   3.858   0.559  12.486  0.7475  0.5012  0.3937
 8812SOL    HW138072   3.946   0.595  12.475  1.5157 -1.0924  1.4273
 8812SOL    HW238073   3.860   0.528  12.576 -0.3968 -0.9604 -0.0794
 8813SOL     OW38074   1.392   0.812   8.652 -0.5255  0.3545  0.1681
 8813SOL    HW138075   1.373   0.875   8.722  1.1555  0.9045  0.1105
 8813SOL    HW238076   1.426   0.739   8.704  0.3619 -0.3936 -1.4873
 8814SOL     OW38077   3.756   4.356   1.904  0.4236  0.9312 -0.4285
 8814SOL    HW138078   3.691   4.397   1.961  0.0009  2.8424 -2.2977
 8814SOL    HW238079   3.761   4.416   1.830 -0.1086  1.3013 -0.1550
 8815SOL     OW38080   2.594   2.516  15.268 -0.2117  0.2755 -0.2331
 8815SOL    HW138081   2.557   2.428  15.258 -0.5587  0.0026  3.3203
 8815SOL    HW238082   2.537   2.561  15.206  0.0142 -0.9718 -1.3287
 8816SOL     OW38083   0.760   1.674   2.045  0.7085 -0.1244 -0.5863
 8816SOL    HW138084   0.717   1.659   1.961  1.6846 -2.5623 -0.6491
 8816SOL    HW238085   0.700   1.745   2.071 -0.8844 -1.1184 -1.5205
 8817SOL     OW38086   3.905   3.791   9.259  0.1008  0.7724 -0.2900
 8817SOL    HW138087   3.931   3.699   9.260 -2.0735  0.1466  0.2520
 8817SOL    HW238088   3.888   3.815   9.350  1.1269  1.3195 -0.2529
 8818SOL     OW38089   1.703   4.703   1.732  0.4555  0.4188 -0.5470
 8818SOL    HW138090   1.664   4.691   1.645  0.0532 -0.9735 -0.1792
 8818SOL    HW238091   1.734   0.057   1.724  2.2194 -0.1723 -0.1446
 8819SOL     OW38092   3.939   0.102  10.817 -0.6992  0.4387  0.1371
 8819SOL    HW138093   3.870   0.053  10.773 -2.1185  2.5407  0.0443
 8819SOL    HW238094   3.944   0.184  10.766  0.7424 -0.5906 -1.3737
 8820SOL     OW38095   2.167   3.304  12.081 -0.4819 -0.4214  0.5201
 8820SOL    HW138096   2.227   3.274  12.013 -2.6447  0.0814 -1.5988
 8820SOL    HW238097   2.139   3.218  12.113  0.4622 -1.4502 -1.4771
 8821SOL     OW38098   1.336   3.786   3.891  0.2989  0.6462  0.1082
 8821SOL    HW138099   1.290   3.864   3.862 -1.0887 -0.2804 -0.1749
 8821SOL    HW238100   1.293   3.777   3.975  1.9480 -1.8433  0.6853
 8822SOL     OW38101   0.379   1.549   2.489  0.5583  0.6497  0.1075
 8822SOL    HW138102   0.373   1.601   2.570  0.4218  0.0610  0.4792
 8822SOL    HW238103   0.314   1.600   2.440  0.9531  0.7202 -0.3390
 8823SOL     OW38104   2.476   4.073   3.352  0.0638 -0.1140 -0.0179
 8823SOL    HW138105   2.568   4.049   3.367 -0.7177 -2.0939  1.6805
 8823SOL    HW238106   2.446   4.007   3.415 -2.1827  0.8623 -0.0784
 8824SOL     OW38107   0.338   3.855   8.991  0.0524  0.7040  0.4232
 8824SOL    HW138108   0.416   3.891   9.032  1.1552 -0.9448 -0.1957
 8824SOL    HW238109   0.282   3.932   8.989 -2.2503 -0.9840 -0.6879
 8825SOL     OW38110   2.649   1.692   1.989  0.0791  0.0201 -0.0061
 8825SOL    HW138111   2.713   1.748   1.943  1.8359 -1.5683  0.5164
 8825SOL    HW238112   2.581   1.682   1.922  0.0248 -0.4961  0.1300
 8826SOL     OW38113   3.865   2.573   5.777 -0.2138  0.1168  0.0244
 8826SOL    HW138114   3.935   2.620   5.732 -0.0375  0.2002  0.3929
 8826SOL    HW238115   3.789   2.619   5.740 -0.6738 -1.3462 -0.8808
 8827SOL     OW38116   2.443   4.200  14.969  0.1893 -0.3675  0.0410
 8827SOL    HW138117   2.451   4.295  14.976  1.0934 -0.4237 -0.3150
 8827SOL    HW238118   2.369   4.190  15.029  1.5064 -1.0469  1.5608
 8828SOL     OW38119   0.862   0.065  16.952 -0.1747 -0.0242  0.0209
 8828SOL    HW138120   0.844   0.009  16.877  0.3034  1.1937 -1.0257
 8828SOL    HW238121   0.923   0.123  16.905  0.5171 -1.0397 -0.3406
 8829SOL     OW38122   1.540   4.555   8.657 -0.1587 -0.1186 -0.7157
 8829SOL    HW138123   1.536   4.481   8.719 -2.9260  0.7957  0.1770
 8829SOL    HW238124   1.627   4.587   8.681 -0.6674  1.4650 -1.0379
 8830SOL     OW38125   2.532   4.216  10.938  0.1548 -0.1508  0.2728
 8830SOL    HW138126   2.446   4.245  10.906  1.0918  1.7453 -0.5308
 8830SOL    HW238127   2.513   4.129  10.974 -2.3888  1.1039  1.9520
 8831SOL     OW38128   0.933   4.362   6.874  0.2567  0.0213  0.3160
 8831SOL    HW138129   0.881   4.326   6.802  0.2352  0.8809 -0.0984
 8831SOL    HW238130   0.861   4.392   6.930  0.8788  0.5348  0.8270
 8832SOL     OW38131   1.283   2.635   3.063  0.5901 -0.5647  0.2182
 8832SOL    HW138132   1.228   2.695   3.013  1.6320  0.2991  0.0952
 8832SOL    HW238133   1.211   2.585   3.100  0.6503 -0.3047  0.6909
 8833SOL     OW38134   1.389   2.449  17.303 -0.0870 -0.2948 -0.1368
 8833SOL    HW138135   1.326   2.416  17.239  0.7787 -1.2751 -0.4913
 8833SOL    HW238136   1.476   2.428  17.268  0.1373  1.3774 -0.5689
 8834SOL     OW38137   4.337   2.313  12.909  0.4712 -0.1036 -0.1334
 8834SOL    HW138138   4.246   2.339  12.926  0.4490 -0.4999  0.3705
 8834SOL    HW238139   4.391   2.383  12.946  1.3354 -1.9832  2.2251
 8835SOL     OW38140   1.185   2.103   5.479  0.4825 -0.1541  0.5590
 8835SOL    HW138141   1.128   2.038   5.438 -0.5621  1.5028 -0.6071
 8835SOL    HW238142   1.269   2.083   5.439  1.9298  2.5800  2.2448
 8836SOL     OW38143   2.037   0.092   7.855  0.2590  0.1102  0.3493
 8836SOL    HW138144   1.972   0.091   7.785  0.6075  1.6231 -0.0128
 8836SOL    HW238145   2.003   0.036   7.925 -1.0702 -0.6577 -0.9147
 8837SOL     OW38146   1.375   1.691   4.825 -0.2396  0.0392  0.1215
 8837SOL    HW138147   1.348   1.709   4.915 -1.3009 -0.0120 -0.1890
 8837SOL    HW238148   1.322   1.616   4.798 -0.0062 -0.9178  2.3014
 8838SOL     OW38149   2.915   0.827   8.891  0.1583  0.1268 -0.1280
 8838SOL    HW138150   2.872   0.840   8.976 -0.5544  1.3825 -0.6740
 8838SOL    HW238151   2.948   0.916   8.886 -0.2959  0.3419  0.6580
 8839SOL     OW38152   2.395   4.381   5.142  0.0852  0.4018 -0.3454
 8839SOL    HW138153   2.330   4.351   5.079  1.0254  0.2500 -1.2396
 8839SOL    HW238154   2.352   4.385   5.228 -0.3138  0.6889 -0.5566
 8840SOL     OW38155   0.146   0.057   9.541 -0.0700  0.0808 -0.0215
 8840SOL    HW138156   0.093   0.076   9.464  1.6343 -0.3415 -1.3029
 8840SOL    HW238157   0.209   4.735   9.499  0.4635  0.2163  0.5734
 8841SOL     OW38158   3.915   4.618   3.037 -0.1746 -0.7277 -0.1347
 8841SOL    HW138159   3.927   4.666   2.956  0.0378  0.8272  0.8276
 8841SOL    HW238160   3.971   4.541   3.025  0.3374 -0.7031  2.0507
 8842SOL     OW38161   3.326   3.340   7.984 -0.1723 -0.1588  0.3768
 8842SOL    HW138162   3.407   3.376   8.021  1.1232 -2.7878  0.1194
 8842SOL    HW238163   3.262   3.365   8.050 -0.9262 -1.7520  0.2681
 8843SOL     OW38164   0.304   0.134   4.090 -0.6344  0.0439 -0.1726
 8843SOL    HW138165   0.347   0.063   4.138  0.1397  0.8506  0.3250
 8843SOL    HW238166   0.297   0.199   4.161 -0.3319 -0.1855  0.0683
 8844SOL     OW38167   0.695   1.566   3.328  0.5681 -0.1088 -0.0182
 8844SOL    HW138168   0.751   1.643   3.342  0.8506 -0.2134 -0.5906
 8844SOL    HW238169   0.760   1.501   3.354  1.7076  1.5448  1.2779
 8845SOL     OW38170   2.355   3.262  11.901 -0.0164  0.1756 -0.8098
 8845SOL    HW138171   2.331   3.178  11.862  0.8215  0.1194 -1.2034
 8845SOL    HW238172   2.432   3.285  11.849  1.0590 -0.9227  0.2867
 8846SOL     OW38173   3.042   2.642  14.353  0.0652  0.7290 -0.2584
 8846SOL    HW138174   3.057   2.698  14.429 -1.1308  2.1809 -1.0861
 8846SOL    HW238175   3.119   2.659  14.298  0.1262  0.4377 -0.2613
 8847SOL     OW38176   0.848   4.077   4.000 -0.0573  0.3778 -0.4407
 8847SOL    HW138177   0.879   4.167   3.989  0.8432  0.2169  0.8215
 8847SOL    HW238178   0.764   4.073   4.047  0.0155  1.9722 -0.1774
 8848SOL     OW38179   4.351   1.391   2.267 -0.1740 -0.0937  0.0934
 8848SOL    HW138180   4.357   1.460   2.332  0.0309  0.2744 -0.3134
 8848SOL    HW238181   4.303   1.426   2.192 -2.6448 -0.4429  1.5444
 8849SOL     OW38182   2.959   2.582   8.270 -0.0585 -0.1696  0.2034
 8849SOL    HW138183   2.945   2.647   8.201  0.9256 -0.4946 -0.3120
 8849SOL    HW238184   2.966   2.646   8.341  1.0979  1.5572 -1.4572
 8850SOL     OW38185   3.545   4.438   3.906  0.1294  0.0655 -0.3012
 8850SOL    HW138186   3.632   4.402   3.920 -1.1236 -2.1896  1.7397
 8850SOL    HW238187   3.527   4.486   3.987 -0.3527  0.1575 -0.4583
 8851SOL     OW38188   0.303   3.541  17.506  0.2561  0.8079  0.3215
 8851SOL    HW138189   0.308   3.608  17.437 -2.8017  1.3253  0.6302
 8851SOL    HW238190   0.233   3.489  17.467 -0.5045  2.4303 -0.4765
 8852SOL     OW38191   0.338   0.776  10.404  0.3481  0.1289 -0.9182
 8852SOL    HW138192   0.259   0.723  10.407 -0.9395  2.0202 -1.3139
 8852SOL    HW238193   0.392   0.727  10.466 -0.5824  1.7347  1.1717
 8853SOL     OW38194   4.508   4.223   1.529  0.1417 -0.3555 -0.1758
 8853SOL    HW138195   4.501   4.137   1.570  0.5326 -0.0358  0.5582
 8853SOL    HW238196   4.601   4.230   1.509  0.0957 -1.3692 -0.6910
 8854SOL     OW38197   2.595   2.568  12.929  0.4510  0.2289 -0.3185
 8854SOL    HW138198   2.620   2.551  13.020 -0.2136  1.6433  0.1259
 8854SOL    HW238199   2.502   2.546  12.935  0.6345 -0.6935 -0.9097
 8855SOL     OW38200   0.040   1.031   3.399 -0.1448  0.1544  0.2265
 8855SOL    HW138201   0.119   1.045   3.347  0.0736 -1.5125  0.0896
 8855SOL    HW238202   4.708   1.080   3.354  0.0062  0.1770  0.0241
 8856SOL     OW38203   3.056   4.283   6.916 -0.5332 -0.1959 -0.1533
 8856SOL    HW138204   3.025   4.339   6.987  0.3476  1.4152 -1.0583
 8856SOL    HW238205   2.993   4.211   6.925  0.1341 -0.5754  1.4929
 8857SOL     OW38206   2.608   3.499   3.744 -0.8723  0.5113  0.1022
 8857SOL    HW138207   2.592   3.431   3.809 -0.0781 -1.2810 -1.6030
 8857SOL    HW238208   2.662   3.564   3.788  0.0813 -0.5625  0.5060
 8858SOL     OW38209   2.176   3.201   4.350  0.0633 -0.2252 -0.5548
 8858SOL    HW138210   2.116   3.208   4.276  0.1961  0.3838 -0.6045
 8858SOL    HW238211   2.245   3.264   4.327  1.0818 -1.3382 -0.5631
 8859SOL     OW38212   4.631   0.201   7.293 -0.4115 -0.3067  0.2097
 8859SOL    HW138213   4.659   0.131   7.352  0.2251 -0.1022  0.1549
 8859SOL    HW238214   4.612   0.162   7.208  0.3441  0.5569 -0.3587
 8860SOL     OW38215   3.548   0.446  12.363  0.1181 -0.7018  0.1983
 8860SOL    HW138216   3.466   0.423  12.318 -1.2823  1.3854  1.6721
 8860SOL    HW238217   3.590   0.360  12.362  0.3178 -0.6145  1.5326
 8861SOL     OW38218   2.272   0.748   3.475  0.2182  0.0237 -0.1574
 8861SOL    HW138219   2.342   0.684   3.467 -1.2732 -1.6636  0.3674
 8861SOL    HW238220   2.309   0.831   3.445 -2.2831  0.8129 -1.0824
 8862SOL     OW38221   2.511   1.587   7.283 -0.6945 -0.3272 -0.1390
 8862SOL    HW138222   2.535   1.618   7.371  3.7353 -1.3532 -1.0163
 8862SOL    HW238223   2.496   1.495   7.305 -1.5166 -0.2531 -0.3697
 8863SOL     OW38224   3.577   4.588   2.038 -0.0047 -0.3601  0.2054
 8863SOL    HW138225   3.516   4.654   2.071  0.5305  0.0552  0.3649
 8863SOL    HW238226   3.658   4.639   2.044  0.1849 -0.5536 -0.7949
 8864SOL     OW38227   3.987   3.582  10.133 -0.3993 -0.2810 -0.1514
 8864SOL    HW138228   3.944   3.656  10.176 -2.1983 -1.6813  0.4552
 8864SOL    HW238229   4.032   3.536  10.204  1.1137 -0.2931 -1.1256
 8865SOL     OW38230   1.217   3.765   0.919 -0.0659 -0.6064  0.1261
 8865SOL    HW138231   1.301   3.783   0.877 -0.8257  2.0153 -0.2931
 8865SOL    HW238232   1.197   3.842   0.973 -1.9362 -1.6923  0.9697
 8866SOL     OW38233   0.321   3.772   8.737  0.1608  0.4938  0.1664
 8866SOL    HW138234   0.339   3.785   8.830  0.2479 -2.6823  0.6226
 8866SOL    HW238235   0.407   3.743   8.707 -0.4942 -1.0285 -0.2741
 8867SOL     OW38236   2.906   0.103   0.592 -0.7135 -0.5050  0.1312
 8867SOL    HW138237   2.849   0.149   0.654  2.0337  0.4800  1.9292
 8867SOL    HW238238   2.912   0.020   0.638  0.2050 -0.1694  0.6199
 8868SOL     OW38239   3.121   2.600   5.774  0.7185  0.2587 -0.8227
 8868SOL    HW138240   3.213   2.616   5.752  0.4188 -0.1677 -2.3348
 8868SOL    HW238241   3.134   2.601   5.869 -1.3613  0.2331 -0.5511
 8869SOL     OW38242   1.337   0.341  13.208 -0.3780  0.0857 -0.0009
 8869SOL    HW138243   1.336   0.249  13.237 -0.6091 -0.4487 -1.7347
 8869SOL    HW238244   1.326   0.336  13.113  1.0746  1.7312 -0.2416
 8870SOL     OW38245   3.860   0.445   6.434 -0.1579 -0.0125 -0.1728
 8870SOL    HW138246   3.948   0.473   6.411  0.5747 -0.7677  1.7234
 8870SOL    HW238247   3.862   0.355   6.399  0.1711  0.7163 -2.0355
 8871SOL     OW38248   0.842   0.357   8.100  0.2197  0.0931  0.1817
 8871SOL    HW138249   0.806   0.269   8.088 -0.0833 -0.0755  2.2876
 8871SOL    HW238250   0.887   0.355   8.016 -1.1441 -1.2446 -0.5171
 8872SOL     OW38251   1.824   3.635   4.475  0.0353 -0.0273  0.1810
 8872SOL    HW138252   1.802   3.595   4.558 -0.0406 -2.5170 -1.0469
 8872SOL    HW238253   1.825   3.556   4.420  2.3840  1.7383 -2.3562
 8873SOL     OW38254   2.453   2.652   3.809  0.0581 -0.0050 -0.1623
 8873SOL    HW138255   2.424   2.741   3.786 -0.2741  0.5910  2.5311
 8873SOL    HW238256   2.448   2.615   3.721 -0.0276 -1.1984  0.3551
 8874SOL     OW38257   1.545   4.695  13.504  0.2299 -0.0191  0.0296
 8874SOL    HW138258   1.529   4.605  13.475 -0.2464 -0.7924  2.7002
 8874SOL    HW238259   1.583   4.676  13.589 -0.3979 -0.4335  0.2210
 8875SOL     OW38260   2.579   4.146   6.707 -0.0561  0.2771  0.0255
 8875SOL    HW138261   2.518   4.216   6.729  1.5310  1.7249 -0.1906
 8875SOL    HW238262   2.651   4.170   6.765 -1.0719  0.1384  1.3345
 8876SOL     OW38263   3.939   2.193   1.384  0.1953  0.0756 -0.3201
 8876SOL    HW138264   3.895   2.129   1.329  1.9734 -1.9530  0.5908
 8876SOL    HW238265   4.030   2.173   1.360  0.2489 -2.1328  1.7206
 8877SOL     OW38266   4.190   3.791   0.505 -0.1459  0.4202  0.2252
 8877SOL    HW138267   4.102   3.802   0.467 -0.8758  1.0755  2.0829
 8877SOL    HW238268   4.232   3.877   0.498  1.6605 -0.3132  2.3070
 8878SOL     OW38269   1.618   4.495   9.815 -0.2584 -0.2225 -0.1784
 8878SOL    HW138270   1.576   4.450   9.888  0.8655 -0.5680  0.2407
 8878SOL    HW238271   1.703   4.453   9.813 -0.9004 -1.4028 -2.0990
 8879SOL     OW38272   4.172   0.225   0.045 -0.4452  0.5084 -0.3489
 8879SOL    HW138273   4.154   0.135   0.073 -1.2639  0.6667 -0.3753
 8879SOL    HW238274   4.101   0.241  17.727 -0.1671  1.1352 -0.5080
 8880SOL     OW38275   2.193   1.679   9.438  0.1360 -0.3769 -0.0199
 8880SOL    HW138276   2.098   1.677   9.440  0.0868  1.0953 -1.6472
 8880SOL    HW238277   2.202   1.583   9.437  2.2513 -0.1861  0.6605
 8881SOL     OW38278   0.406   2.818  10.606 -0.3818  0.1826  0.1257
 8881SOL    HW138279   0.495   2.811  10.572 -0.6358 -0.4753 -0.3999
 8881SOL    HW238280   0.357   2.810  10.524 -0.3692  1.7195 -0.0428
 8882SOL     OW38281   3.371   2.764   4.998  0.7907 -0.2343 -0.2018
 8882SOL    HW138282   3.301   2.744   4.936  0.3503  0.4624  0.0630
 8882SOL    HW238283   3.449   2.753   4.945  1.8753 -0.6625  1.4876
 8883SOL     OW38284   0.078   0.247   5.337 -0.3976 -0.0408 -0.2255
 8883SOL    HW138285   0.143   0.203   5.282  1.3630  0.4679  1.4323
 8883SOL    HW238286   0.001   0.218   5.289 -2.5386  0.4079  2.9390
 8884SOL     OW38287   2.844   0.760   4.468  0.1198  0.1119  0.2667
 8884SOL    HW138288   2.857   0.722   4.380  0.6409 -0.4338  0.5764
 8884SOL    HW238289   2.815   0.696   4.533  1.4512 -0.2513  0.5107
 8885SOL     OW38290   1.559   0.699   8.477  0.0917 -0.6298 -1.0475
 8885SOL    HW138291   1.505   0.629   8.440  1.7222 -1.1346 -2.4614
 8885SOL    HW238292   1.500   0.740   8.540  2.1350 -1.2150  1.2423
 8886SOL     OW38293   3.651   3.140   2.269 -0.0341 -0.0538  0.2933
 8886SOL    HW138294   3.715   3.103   2.207  0.3196  0.6171  0.2589
 8886SOL    HW238295   3.569   3.114   2.226  0.7605 -1.6127 -0.2889
 8887SOL     OW38296   4.356   4.655   8.558 -0.0210  0.6602  1.1133
 8887SOL    HW138297   4.433   4.608   8.526 -0.2394  0.6235  0.6424
 8887SOL    HW238298   4.392   0.003   8.529 -0.5621  1.1036  1.7382
 8888SOL     OW38299   0.350   4.000   2.375  0.0998  0.2733 -0.1757
 8888SOL    HW138300   0.364   3.907   2.359  0.4177  0.3883 -0.5621
 8888SOL    HW238301   0.405   4.013   2.452 -0.8844 -0.7751  0.7032
 8889SOL     OW38302   3.857   1.218   6.318  0.3980 -0.1302  0.0582
 8889SOL    HW138303   3.906   1.243   6.239 -0.0551 -3.2760 -1.2429
 8889SOL    HW238304   3.818   1.134   6.293 -2.8930  0.6071  2.7938
 8890SOL     OW38305   3.617   3.623  17.343  0.4055 -0.3090  0.2550
 8890SOL    HW138306   3.657   3.584  17.265 -2.8882  0.8482 -2.0431
 8890SOL    HW238307   3.525   3.626  17.316 -0.3581 -1.9445  2.7270
 8891SOL     OW38308   1.608   1.561   4.166 -0.0197 -0.4539 -0.2349
 8891SOL    HW138309   1.697   1.527   4.174 -0.1943 -0.7033  0.7393
 8891SOL    HW238310   1.630   1.648   4.199  1.8574 -0.2165 -2.1091
 8892SOL     OW38311   3.991   0.250   8.070 -0.3956  0.0981 -0.2292
 8892SOL    HW138312   3.939   0.171   8.089  1.9507 -1.1163  1.1263
 8892SOL    HW238313   3.960   0.282   7.985  2.8721 -0.1024 -1.4847
 8893SOL     OW38314   3.655   1.443   6.054  0.6747  0.1163 -0.5539
 8893SOL    HW138315   3.584   1.503   6.028  0.3201  1.0075  2.4392
 8893SOL    HW238316   3.609   1.359   6.061 -1.1005  1.1537  0.2484
 8894SOL     OW38317   1.507   3.896  17.547  0.7164  0.3035  0.0640
 8894SOL    HW138318   1.450   3.834  17.592  0.8128 -0.9497 -1.5391
 8894SOL    HW238319   1.474   3.983  17.572 -1.7864  0.0851 -2.5767
 8895SOL     OW38320   1.521   0.815   7.601  0.1512  0.4265 -0.5674
 8895SOL    HW138321   1.554   0.760   7.530 -2.1539  0.8595 -1.9806
 8895SOL    HW238322   1.600   0.858   7.633  0.6802  0.0576 -1.3730
 8896SOL     OW38323   1.867   2.847   6.623  0.4665 -0.1485 -0.2718
 8896SOL    HW138324   1.896   2.937   6.610 -0.5957  0.2109 -0.1116
 8896SOL    HW238325   1.882   2.813   6.535  0.9410  1.0414 -0.6534
 8897SOL     OW38326   3.603   4.673   9.783 -0.5474 -0.1867 -0.3649
 8897SOL    HW138327   3.656   4.604   9.821  0.1006  0.9887  0.8843
 8897SOL    HW238328   3.662   4.712   9.719  1.1175  0.0982  1.3558
 8898SOL     OW38329   2.938   4.208   4.537  0.5368 -0.6085 -0.2109
 8898SOL    HW138330   2.984   4.156   4.471  2.8650  1.6127 -0.3392
 8898SOL    HW238331   3.014   4.243   4.583  0.7441  0.2149 -1.1843
 8899SOL     OW38332   3.725   4.116   3.205  0.0326 -0.1338 -0.4287
 8899SOL    HW138333   3.772   4.104   3.123 -0.7233  0.1691 -0.9041
 8899SOL    HW238334   3.708   4.023   3.222 -2.3494  0.0810 -1.6471
 8900SOL     OW38335   3.351   1.900   5.030 -0.1512  0.0596 -0.6915
 8900SOL    HW138336   3.441   1.872   5.043 -0.5980 -0.4708  1.3520
 8900SOL    HW238337   3.338   1.837   4.960  1.8766 -1.0672 -0.0427
 8901SOL     OW38338   1.095   1.284  11.322 -0.1026 -0.0938  0.3058
 8901SOL    HW138339   1.180   1.324  11.340  0.5919 -1.5192  0.2142
 8901SOL    HW238340   1.116   1.196  11.290 -0.9324 -0.5108  0.8779
 8902SOL     OW38341   3.152   4.047  17.128 -0.3200 -0.0163 -0.0632
 8902SOL    HW138342   3.148   4.067  17.034 -1.2911 -0.2069 -0.0657
 8902SOL    HW238343   3.073   4.092  17.159  0.4550  0.8680  0.6125
 8903SOL     OW38344   3.433   3.180  13.670 -0.0249 -0.2631 -0.4059
 8903SOL    HW138345   3.396   3.210  13.587 -2.6605  0.2889  0.9467
 8903SOL    HW238346   3.405   3.255  13.723  0.3361 -0.3655 -0.0696
 8904SOL     OW38347   4.328   1.590   6.101  0.4846 -0.4483 -0.6461
 8904SOL    HW138348   4.360   1.619   6.187 -2.3265 -1.3571  0.7135
 8904SOL    HW238349   4.297   1.676   6.072  0.2760 -1.0749 -2.2586
 8905SOL     OW38350   3.639   0.342   0.609  0.1963 -0.7527  0.5314
 8905SOL    HW138351   3.691   0.294   0.673  2.4906  1.5742  0.4106
 8905SOL    HW238352   3.704   0.411   0.593 -1.3048  0.5311 -0.0244
 8906SOL     OW38353   2.967   0.875  10.555 -0.0822  0.8071 -0.1941
 8906SOL    HW138354   3.028   0.876  10.481  0.5732  1.0083  0.3516
 8906SOL    HW238355   2.880   0.883  10.516 -0.4019 -1.6682  0.0121
 8907SOL     OW38356   1.546   1.058   9.194 -0.0753 -0.2603  0.3465
 8907SOL    HW138357   1.559   0.964   9.187 -0.1030 -0.2592  0.2849
 8907SOL    HW238358   1.585   1.105   9.120 -4.0851  1.0717 -0.9371
 8908SOL     OW38359   0.087   4.348   8.038  0.0138 -0.0477  0.0168
 8908SOL    HW138360   0.031   4.308   8.104  0.5860  0.0795  0.5801
 8908SOL    HW238361   0.080   4.279   7.973 -0.2421 -0.1677  0.1704
 8909SOL     OW38362   4.094   3.891  15.270  0.4910  0.3999  0.1599
 8909SOL    HW138363   4.142   3.833  15.212 -0.5637 -0.5537  0.2501
 8909SOL    HW238364   4.143   3.886  15.352  1.4851 -3.3043 -0.6851
 8910SOL     OW38365   1.804   1.742   1.868  0.2356  0.1216 -0.1674
 8910SOL    HW138366   1.838   1.705   1.950 -0.2968 -1.1987 -0.5405
 8910SOL    HW238367   1.709   1.732   1.883  0.8158 -2.6214  1.7401
 8911SOL     OW38368   1.886   3.899   4.117 -0.0512  0.2856  0.2144
 8911SOL    HW138369   1.842   3.905   4.202 -1.5320 -0.4614 -0.4971
 8911SOL    HW238370   1.921   3.988   4.116  1.0546 -0.1195  1.5846
 8912SOL     OW38371   1.237   1.834  12.789 -0.5507 -0.4827  0.2038
 8912SOL    HW138372   1.192   1.835  12.704 -3.0224  0.0738  1.5154
 8912SOL    HW238373   1.282   1.750  12.786 -0.4952 -0.4813  0.9019
 8913SOL     OW38374   2.289   0.677   6.885  0.3779 -0.3952 -0.1863
 8913SOL    HW138375   2.309   0.584   6.899 -0.5258 -0.2745  1.9764
 8913SOL    HW238376   2.259   0.697   6.974 -0.4518 -3.1888  0.1572
 8914SOL     OW38377   0.662   2.060   8.832  0.5360 -0.1125 -0.1930
 8914SOL    HW138378   0.714   2.098   8.761  0.8868 -1.2835 -0.5658
 8914SOL    HW238379   0.578   2.105   8.823 -0.0803 -1.1974  0.2662
 8915SOL     OW38380   3.008   3.189   5.717  0.2457  0.5596  0.2415
 8915SOL    HW138381   3.076   3.245   5.755  0.4152 -0.6706  1.7429
 8915SOL    HW238382   3.042   3.184   5.627  1.1229  0.6338  0.5659
 8916SOL     OW38383   2.090   2.982   5.227  0.3378 -0.5423 -0.2846
 8916SOL    HW138384   2.003   2.948   5.205 -0.8959  1.1864  1.9812
 8916SOL    HW238385   2.068   3.073   5.245  1.8661 -0.6821  2.1905
 8917SOL     OW38386   3.804   2.894   0.318  0.2185  0.3859  1.2600
 8917SOL    HW138387   3.818   2.868   0.409  1.7500 -1.7940  0.3992
 8917SOL    HW238388   3.739   2.965   0.321 -3.0380 -2.6444  2.5223
 8918SOL     OW38389   4.544   3.640   6.064 -0.2165  0.4503  0.1704
 8918SOL    HW138390   4.496   3.557   6.061 -0.5946  0.6441  0.9572
 8918SOL    HW238391   4.623   3.623   6.013 -1.9605  0.1207 -2.4104
 8919SOL     OW38392   3.036   1.379   5.514  0.7984  0.6732  0.0810
 8919SOL    HW138393   2.952   1.418   5.539  1.4675  1.1222  1.6402
 8919SOL    HW238394   3.054   1.331   5.595  2.1088 -2.0811 -1.8458
 8920SOL     OW38395   3.940   1.873  17.242  0.5807 -0.1618  0.3487
 8920SOL    HW138396   3.954   1.791  17.288 -0.3722  0.5974  1.9887
 8920SOL    HW238397   3.939   1.926  17.322 -2.2302 -0.0044  0.2029
 8921SOL     OW38398   0.876   1.403   5.934 -0.4855  0.3002  0.0243
 8921SOL    HW138399   0.962   1.362   5.925  0.0349  1.2977  0.4365
 8921SOL    HW238400   0.889   1.491   5.899 -0.0357  0.1068 -0.3065
 8922SOL     OW38401   3.915   3.252   2.835  0.3253 -0.2373 -0.0243
 8922SOL    HW138402   3.826   3.286   2.821  0.7507 -0.7172 -3.9233
 8922SOL    HW238403   3.924   3.204   2.753 -2.2389  0.4394 -0.7238
 8923SOL     OW38404   4.094   4.363   3.004 -0.7340  0.3595 -0.2574
 8923SOL    HW138405   4.143   4.282   3.016 -1.7994 -0.6303 -2.4859
 8923SOL    HW238406   4.021   4.326   2.955  0.2087 -0.8458 -0.7492
 8924SOL     OW38407   3.158   0.819  15.309 -0.2158 -0.9025 -0.6069
 8924SOL    HW138408   3.130   0.786  15.394 -0.5010  2.9878  0.7901
 8924SOL    HW238409   3.090   0.883  15.287  0.6899 -0.2335 -1.5009
 8925SOL     OW38410   3.351   3.163   6.416 -0.7561  0.3737  0.4656
 8925SOL    HW138411   3.320   3.243   6.458 -2.0700  0.0243  0.1687
 8925SOL    HW238412   3.376   3.104   6.487  2.3699  1.2741  0.1466
 8926SOL     OW38413   2.759   1.190   8.415 -0.3331  0.4198  0.7149
 8926SOL    HW138414   2.806   1.109   8.435 -0.7753 -0.5081 -2.0083
 8926SOL    HW238415   2.683   1.173   8.470  0.0416 -1.0755  0.7674
 8927SOL     OW38416   1.098   0.443  17.617  0.0127  0.9185  0.2842
 8927SOL    HW138417   1.019   0.415  17.663  1.2220 -3.5766 -0.3998
 8927SOL    HW238418   1.106   0.374  17.551  0.8235  0.6669  0.6365
 8928SOL     OW38419   0.357   3.006   9.553 -0.2661  0.4336  0.4337
 8928SOL    HW138420   0.278   2.987   9.503 -0.0707  0.4728  0.1128
 8928SOL    HW238421   0.397   3.044   9.475 -1.4514  1.7315  0.4568
 8929SOL     OW38422   3.000   3.564   2.580 -0.2972 -0.0992  0.1537
 8929SOL    HW138423   2.992   3.511   2.659  1.1738  0.4784  0.6902
 8929SOL    HW238424   2.933   3.629   2.601  1.1925  1.8862 -1.3248
 8930SOL     OW38425   2.371   4.646  16.909 -0.5235 -0.1841 -0.5494
 8930SOL    HW138426   2.335   4.562  16.937  0.0472  0.7717  3.0228
 8930SOL    HW238427   2.346   4.650  16.816  1.5383 -0.3378 -1.1141
 8931SOL     OW38428   2.508   2.742   7.287 -0.0642  0.2595  0.0273
 8931SOL    HW138429   2.598   2.725   7.314  0.2020  0.2044 -0.8877
 8931SOL    HW238430   2.516   2.767   7.195  1.4979 -1.3895 -0.2688
 8932SOL     OW38431   0.467   3.952   2.619 -0.2129 -0.0260 -0.1896
 8932SOL    HW138432   0.500   3.937   2.708  0.9826  1.3655 -0.4056
 8932SOL    HW238433   0.543   3.927   2.566 -1.2955  2.1673 -2.7652
 8933SOL     OW38434   3.828   3.541   7.124  0.1027 -0.8180 -0.6809
 8933SOL    HW138435   3.788   3.465   7.169  0.3721 -0.8888 -0.5619
 8933SOL    HW238436   3.893   3.562   7.191 -2.5770 -0.7592  1.9378
 8934SOL     OW38437   2.775   3.794   2.171 -0.0248  0.1279 -0.0158
 8934SOL    HW138438   2.801   3.801   2.079  0.1733  1.1155  0.1234
 8934SOL    HW238439   2.849   3.743   2.204  0.2738 -1.5808 -3.3068
 8935SOL     OW38440   1.899   0.342   5.816 -0.7344  0.4570  0.7976
 8935SOL    HW138441   1.955   0.335   5.893  0.5325 -0.4248 -0.1889
 8935SOL    HW238442   1.925   0.258   5.776  1.5821  1.5048  0.0849
 8936SOL     OW38443   1.130   4.323   5.563  0.0434 -0.4135 -0.4359
 8936SOL    HW138444   1.056   4.365   5.520 -0.9967 -0.2058  1.5174
 8936SOL    HW238445   1.188   4.314   5.488 -1.0140 -0.8943 -1.1895
 8937SOL     OW38446   1.460   3.458  12.261  0.0510 -0.1454  0.1676
 8937SOL    HW138447   1.552   3.485  12.264 -0.5899  2.2373 -1.4826
 8937SOL    HW238448   1.457   3.364  12.244 -4.0575 -0.1028  0.8245
 8938SOL     OW38449   3.119   3.490  17.565 -0.3751  0.0243  0.1199
 8938SOL    HW138450   3.147   3.576  17.598  0.7875  0.0936 -1.0650
 8938SOL    HW238451   3.024   3.503  17.574 -0.2501  1.3308 -0.4513
 8939SOL     OW38452   0.055   0.376   3.970 -0.4038  0.9306  0.0165
 8939SOL    HW138453   0.047   0.426   3.888 -0.0883 -2.9643 -2.3627
 8939SOL    HW238454   0.084   0.293   3.933  0.1795  0.5706  1.2789
 8940SOL     OW38455   4.477   4.193   2.982  0.4130 -0.3071 -0.1992
 8940SOL    HW138456   4.387   4.169   2.960  0.5616 -1.8083  0.8359
 8940SOL    HW238457   4.472   4.282   2.948 -0.4333  0.9475  3.2612
 8941SOL     OW38458   3.675   2.104   8.253  0.2007  0.0863  0.3624
 8941SOL    HW138459   3.681   2.194   8.220 -1.5215  0.1948  0.3703
 8941SOL    HW238460   3.701   2.118   8.344 -0.2573  0.9545  0.3650
 8942SOL     OW38461   2.895   0.169   6.628 -0.5710 -0.6332 -0.3740
 8942SOL    HW138462   2.877   0.165   6.534  0.4075  0.9290 -0.6083
 8942SOL    HW238463   2.809   0.129   6.646 -1.3757  0.3643 -2.0214
 8943SOL     OW38464   2.976   1.102  10.193  0.1775  0.4806 -0.7354
 8943SOL    HW138465   2.912   1.133  10.256  1.5945 -0.7093  1.2636
 8943SOL    HW238466   2.963   1.008  10.177  1.1985  0.8295 -3.8170
 8944SOL     OW38467   0.947   3.933  16.438 -0.1402  0.4830 -0.1963
 8944SOL    HW138468   0.961   3.852  16.486 -0.9125 -0.4104 -1.4610
 8944SOL    HW238469   0.905   3.902  16.358 -2.0607 -0.4264  1.1728
 8945SOL     OW38470   3.350   3.694  15.396  0.0379 -0.2694  0.3116
 8945SOL    HW138471   3.434   3.655  15.370  1.1926  2.4156 -0.0013
 8945SOL    HW238472   3.319   3.702  15.306 -1.3010  0.3705  0.8339
 8946SOL     OW38473   2.824   3.247   6.921 -0.1971 -0.1026  0.1458
 8946SOL    HW138474   2.762   3.256   6.849 -0.0723  2.2847  0.3567
 8946SOL    HW238475   2.786   3.175   6.972  1.7996  0.7084  2.7935
 8947SOL     OW38476   3.795   2.622   2.781  0.3533 -0.2057 -0.5104
 8947SOL    HW138477   3.711   2.608   2.738 -0.8759 -1.0654  2.1768
 8947SOL    HW238478   3.766   2.653   2.867 -0.3100  0.0587 -0.8377
 8948SOL     OW38479   3.144   0.713  15.062 -0.1353 -0.0921  0.4767
 8948SOL    HW138480   3.052   0.731  15.080 -0.0676  1.6763 -0.9083
 8948SOL    HW238481   3.185   0.751  15.139  1.8302  0.6216 -0.9155
 8949SOL     OW38482   0.674   3.653  16.208 -0.0818 -0.2347 -0.3253
 8949SOL    HW138483   0.692   3.629  16.117  2.0086 -0.6531  0.1890
 8949SOL    HW238484   0.763   3.664  16.241 -0.9592  1.7238  1.3625
 8950SOL     OW38485   0.255   4.036  15.880 -0.0972  1.1424 -0.7485
 8950SOL    HW138486   0.212   4.121  15.880 -0.7297  0.8252 -0.9543
 8950SOL    HW238487   0.341   4.069  15.905 -0.5439  2.0372 -0.4045
 8951SOL     OW38488   1.535   4.415  13.418 -0.3100 -0.5122  0.7263
 8951SOL    HW138489   1.564   4.361  13.492 -2.0581 -0.2493  1.6179
 8951SOL    HW238490   1.440   4.403  13.425 -0.5146  0.2567 -0.7069
 8952SOL     OW38491   3.665   2.118   6.995 -0.0165  0.0883 -0.4761
 8952SOL    HW138492   3.661   2.028   7.026 -0.5755  1.0974  2.4109
 8952SOL    HW238493   3.585   2.104   6.944  0.5200  0.6353 -1.4594
 8953SOL     OW38494   4.481   2.397   1.501  0.1978 -0.1730 -0.6730
 8953SOL    HW138495   4.504   2.449   1.578  2.0430 -0.1898 -1.2153
 8953SOL    HW238496   4.541   2.322   1.507 -1.2188 -1.1712  1.0347
 8954SOL     OW38497   3.447   2.821   2.457 -0.2392 -0.0255 -0.1017
 8954SOL    HW138498   3.414   2.776   2.379 -1.4411  1.9209 -0.7228
 8954SOL    HW238499   3.541   2.815   2.446 -0.4099 -0.7018 -1.1267
 8955SOL     OW38500   2.473   1.960   4.421 -0.0083  0.3084  0.0892
 8955SOL    HW138501   2.404   1.959   4.355 -1.8806 -0.5895  2.0816
 8955SOL    HW238502   2.506   2.050   4.416  1.0795 -0.0556  0.6678
 8956SOL     OW38503   0.885   4.062   5.667 -0.0949  0.0829  0.5109
 8956SOL    HW138504   0.868   3.973   5.637  0.5481  0.3727 -0.6725
 8956SOL    HW238505   0.927   4.107   5.595  1.9644 -0.7585  1.1928
 8957SOL     OW38506   1.700   0.969  10.229  0.2208 -0.4076 -0.5500
 8957SOL    HW138507   1.676   0.898  10.288 -0.6578 -0.6409 -1.1887
 8957SOL    HW238508   1.705   0.919  10.148 -0.2173 -0.0278 -0.8123
 8958SOL     OW38509   1.973   4.071   8.005 -0.0619 -0.0660 -0.1758
 8958SOL    HW138510   1.941   4.073   8.095 -2.1930  3.2622 -1.0179
 8958SOL    HW238511   1.900   4.022   7.966  1.4773 -0.7768 -2.1713
 8959SOL     OW38512   3.321   1.365   7.705 -0.2834  0.1637  0.1859
 8959SOL    HW138513   3.296   1.450   7.670  2.1958  0.1988 -1.5145
 8959SOL    HW238514   3.237   1.330   7.733  0.0680 -0.5928  0.3143
 8960SOL     OW38515   0.971   3.368  11.097 -0.1618  0.3637  0.6254
 8960SOL    HW138516   1.027   3.353  11.020  1.9891 -1.9023  2.6166
 8960SOL    HW238517   0.888   3.356  11.051  0.5606 -0.2710 -0.5273
 8961SOL     OW38518   4.290   4.650   8.065 -0.1108 -0.2366 -0.0782
 8961SOL    HW138519   4.368   4.598   8.044 -0.2368 -0.6493  0.4880
 8961SOL    HW238520   4.328   0.001   8.061 -0.4540 -0.1262 -1.1748
 8962SOL     OW38521   0.497   4.530   5.385 -0.3207 -0.5629  0.4815
 8962SOL    HW138522   0.478   4.467   5.455 -0.1280  0.8815  1.8467
 8962SOL    HW238523   0.448   4.496   5.310  1.9442 -2.0222 -0.3382
 8963SOL     OW38524   4.476   0.595   3.655 -0.0628 -0.6414 -0.2023
 8963SOL    HW138525   4.461   0.683   3.621 -1.3831 -0.6962  0.2618
 8963SOL    HW238526   4.470   0.618   3.747 -1.1781 -0.6403 -0.2771
 8964SOL     OW38527   1.852   1.064   3.585 -0.5744 -0.1199  0.1182
 8964SOL    HW138528   1.786   0.995   3.578 -2.9551  2.2553 -0.8574
 8964SOL    HW238529   1.861   1.065   3.680  2.9800 -0.2823 -0.2321
 8965SOL     OW38530   2.447   4.488   4.542 -0.2907 -0.5885 -0.1041
 8965SOL    HW138531   2.438   4.485   4.447  0.1881 -0.7567 -0.1452
 8965SOL    HW238532   2.524   4.431   4.550 -0.3889 -0.4250  2.0176
 8966SOL     OW38533   0.665   2.169   0.901  0.4288  0.1615 -0.0025
 8966SOL    HW138534   0.687   2.085   0.860  0.7750 -0.6649  1.9159
 8966SOL    HW238535   0.724   2.222   0.846 -2.8879  2.6219 -1.1800
 8967SOL     OW38536   2.530   3.880   6.685 -0.5472 -1.1209  0.0752
 8967SOL    HW138537   2.621   3.850   6.684 -0.1056  0.1204  2.1398
 8967SOL    HW238538   2.537   3.974   6.699  0.6599 -1.2721  0.4678
 8968SOL     OW38539   2.787   4.329  17.356  0.2606 -0.2302  0.3343
 8968SOL    HW138540   2.825   4.295  17.275  1.7510 -0.0402  0.9600
 8968SOL    HW238541   2.857   4.301  17.415  0.3655  2.5990  1.5659
 8969SOL     OW38542   1.962   3.482   6.461  0.0414 -0.1740 -0.3647
 8969SOL    HW138543   1.905   3.558   6.472 -0.7401 -0.7280 -0.5891
 8969SOL    HW238544   1.901   3.419   6.424 -0.4765 -0.0256  0.2492
 8970SOL     OW38545   2.910   4.411   6.392  0.2307  0.5942  0.0325
 8970SOL    HW138546   2.952   4.332   6.424 -1.1737  0.4820  1.6181
 8970SOL    HW238547   2.983   4.465   6.364  1.5309 -1.5118 -0.6146
 8971SOL     OW38548   2.791   0.556   5.210  0.0406 -0.1862  0.2155
 8971SOL    HW138549   2.874   0.517   5.183  0.0722  0.5210 -0.7515
 8971SOL    HW238550   2.812   0.649   5.220 -1.2645  0.0366  0.8961
 8972SOL     OW38551   4.413   1.272   9.787 -0.2105 -0.3565  0.0629
 8972SOL    HW138552   4.394   1.357   9.826 -2.8119 -1.7103  1.7862
 8972SOL    HW238553   4.508   1.280   9.792 -0.3171  1.0139 -0.2843
 8973SOL     OW38554   0.435   0.496   4.061  0.0283 -0.1513  0.9081
 8973SOL    HW138555   0.484   0.572   4.090  0.0175  0.5170 -0.8000
 8973SOL    HW238556   0.379   0.519   3.986 -1.0097 -0.2184  1.6703
 8974SOL     OW38557   3.548   0.496   6.747  0.4726 -0.8614  0.5618
 8974SOL    HW138558   3.509   0.411   6.769  0.9047 -0.4871  2.8195
 8974SOL    HW238559   3.471   0.534   6.707  1.4293 -0.1286 -0.5780
 8975SOL     OW38560   3.512   2.469   0.158 -0.1576 -0.2092 -0.0076
 8975SOL    HW138561   3.512   2.563   0.145 -1.2775 -0.1163  0.6604
 8975SOL    HW238562   3.550   2.426   0.081 -1.1384 -3.8963  1.5446
 8976SOL     OW38563   0.551   1.305   9.116 -1.0174 -0.3987  0.3206
 8976SOL    HW138564   0.564   1.396   9.141 -0.6549  0.0957 -1.6502
 8976SOL    HW238565   0.643   1.289   9.095 -0.6299  1.5811  0.5703
 8977SOL     OW38566   1.234   0.371   7.190  0.1405 -0.1988  0.0527
 8977SOL    HW138567   1.150   0.356   7.232 -0.1261  1.2191  0.0077
 8977SOL    HW238568   1.214   0.347   7.100 -1.3187 -0.2074  0.3834
 8978SOL     OW38569   2.740   3.579  17.117  0.5611  0.3704  0.2679
 8978SOL    HW138570   2.667   3.625  17.075  1.0002  0.5241 -0.3246
 8978SOL    HW238571   2.788   3.655  17.147  0.2129  1.1365 -1.1070
 8979SOL     OW38572   2.537   4.227   7.025  0.7462  0.7741 -0.6672
 8979SOL    HW138573   2.596   4.249   7.097 -2.1844  0.5402  1.8237
 8979SOL    HW238574   2.590   4.153   6.996  1.8758  1.1466  0.4657
 8980SOL     OW38575   3.662   2.699   3.840 -0.1033 -0.3015 -0.1150
 8980SOL    HW138576   3.723   2.652   3.783 -0.2008  0.5628 -0.9326
 8980SOL    HW238577   3.678   2.651   3.921 -0.6404  0.2189  0.2898
 8981SOL     OW38578   4.543   1.708   9.030  0.1958 -0.3180 -0.7824
 8981SOL    HW138579   4.563   1.663   8.948  0.9547  1.7098 -1.7196
 8981SOL    HW238580   4.584   1.642   9.086 -0.4740 -2.6793 -3.0507
 8982SOL     OW38581   1.142   0.896   3.733  0.0625  0.1170 -0.7827
 8982SOL    HW138582   1.060   0.852   3.755  1.7293 -1.5657  2.2153
 8982SOL    HW238583   1.115   0.987   3.749  1.4909  0.4719 -0.3823
 8983SOL     OW38584   0.985   0.243  12.511  0.2925  0.2841  0.1832
 8983SOL    HW138585   1.045   0.272  12.443  0.4386 -1.8630 -0.6024
 8983SOL    HW238586   1.046   0.242  12.585  0.4981 -1.2558 -0.0156
 8984SOL     OW38587   0.355   4.027   8.650  0.1569  0.2709 -0.5195
 8984SOL    HW138588   0.422   3.966   8.619  1.8211  0.2654  3.1197
 8984SOL    HW238589   0.301   3.963   8.696 -0.6533  2.3214  1.4038
 8985SOL     OW38590   1.081   2.412  15.550 -0.8675  0.3159  0.5209
 8985SOL    HW138591   1.129   2.450  15.476 -1.2390 -1.1747 -0.4811
 8985SOL    HW238592   1.158   2.372  15.590  0.9055  0.3595 -2.8167
 8986SOL     OW38593   2.530   0.764   7.087  0.6047  0.0911  0.1157
 8986SOL    HW138594   2.542   0.729   6.998  0.5419  0.0721  0.1146
 8986SOL    HW238595   2.441   0.733   7.106  0.6809  0.1453  0.5590
 8987SOL     OW38596   4.555   1.939   8.005  0.5158  0.3743 -0.2334
 8987SOL    HW138597   4.617   1.972   8.070 -1.8431 -0.1229  2.2232
 8987SOL    HW238598   4.543   1.845   8.016 -0.6364  0.7086  1.2790
 8988SOL     OW38599   2.588   0.094   6.236 -0.0933 -0.5437 -0.0973
 8988SOL    HW138600   2.658   0.118   6.296 -0.5385 -1.3121  0.7367
 8988SOL    HW238601   2.510   0.121   6.284  0.6825  1.5985 -0.0780
 8989SOL     OW38602   1.355   1.585   1.743 -0.3684  0.4694 -0.3152
 8989SOL    HW138603   1.319   1.643   1.676  0.5825  0.8409 -0.4919
 8989SOL    HW238604   1.291   1.609   1.811  1.3288  1.1130  1.0467
 8990SOL     OW38605   3.970   1.874   7.670 -0.2243 -0.2300  0.2017
 8990SOL    HW138606   3.882   1.893   7.704 -1.1354 -0.8435 -1.8092
 8990SOL    HW238607   4.028   1.899   7.742 -1.0397 -1.9061  1.4542
 8991SOL     OW38608   1.690   4.546  11.838  0.2857  0.5855 -0.0010
 8991SOL    HW138609   1.617   4.603  11.860 -0.9490  0.3536 -3.4814
 8991SOL    HW238610   1.757   4.590  11.891 -0.1681  2.2124 -0.7728
 8992SOL     OW38611   2.787   4.259   6.842  0.7093 -0.2264  0.2168
 8992SOL    HW138612   2.748   4.346   6.833  0.9381 -0.0257  1.0955
 8992SOL    HW238613   2.867   4.262   6.789  1.7360  0.0755  1.7474
 8993SOL     OW38614   3.676   2.738   7.390  0.3352  0.1872  0.0644
 8993SOL    HW138615   3.633   2.822   7.405  0.4122  0.2273  0.0590
 8993SOL    HW238616   3.750   2.765   7.445 -1.3381 -0.1681  2.4771
 8994SOL     OW38617   0.383   0.116   1.757 -0.4815 -0.0720 -0.5509
 8994SOL    HW138618   0.411   0.200   1.795  1.3247 -0.1260 -1.7446
 8994SOL    HW238619   0.462   0.070   1.784 -1.2359 -0.5158  0.8994
 8995SOL     OW38620   2.405   4.596   2.844 -0.1486  0.1725  0.6893
 8995SOL    HW138621   2.334   4.559   2.793 -0.2275 -0.9886  1.6411
 8995SOL    HW238622   2.477   4.550   2.801 -1.6994  1.1677 -2.9879
 8996SOL     OW38623   2.601   0.293   4.756  0.7375 -0.2366 -1.1146
 8996SOL    HW138624   2.638   0.239   4.686 -2.3245 -3.0857 -0.4697
 8996SOL    HW238625   2.625   0.246   4.836  1.9988  0.3976 -1.1018
 8997SOL     OW38626   4.619   3.391  17.558  0.4054 -0.1110 -0.7510
 8997SOL    HW138627   4.582   3.336  17.627  1.6526  0.5954  0.4781
 8997SOL    HW238628   4.541   3.415  17.506 -1.7461 -3.4793  0.9113
 8998SOL     OW38629   1.641   0.062   7.329  0.2539 -0.7418  0.0148
 8998SOL    HW138630   1.720   0.114   7.341 -0.5791  0.6945 -0.6471
 8998SOL    HW238631   1.585   0.102   7.396  1.5430 -0.3224  0.8317
 8999SOL     OW38632   0.510   1.453   3.174 -0.9745  0.5056  0.2656
 8999SOL    HW138633   0.458   1.527   3.142  1.1290  2.3614  1.0952
 8999SOL    HW238634   0.566   1.501   3.236 -1.1515  1.3349 -0.2167
 9000SOL     OW38635   2.155   1.244   0.885  0.2620  0.3410  0.6867
 9000SOL    HW138636   2.089   1.188   0.843  2.8729 -1.6295 -0.7547
 9000SOL    HW238637   2.107   1.271   0.963 -1.3313  0.5316 -0.3390
 9001SOL     OW38638   0.790   4.193   2.792  0.1768 -0.9099 -0.4306
 9001SOL    HW138639   0.762   4.153   2.709 -0.9969  1.1911 -1.0594
 9001SOL    HW238640   0.702   4.209   2.827  1.1064 -0.7842  1.8265
 9002SOL     OW38641   4.647   1.574   2.955 -0.5072 -0.1886  0.4394
 9002SOL    HW138642   0.004   1.587   2.967 -0.4611  1.0064 -1.3028
 9002SOL    HW238643   4.619   1.656   2.996  1.4006  1.1347 -0.8956
 9003SOL     OW38644   2.919   2.752   6.375 -0.1442 -0.7959  0.0265
 9003SOL    HW138645   2.931   2.678   6.434 -0.7155 -1.7094 -1.0101
 9003SOL    HW238646   2.824   2.752   6.387 -0.2410 -0.6870 -0.7704
 9004SOL     OW38647   2.526   4.260   6.087  0.5510 -0.2577  0.1436
 9004SOL    HW138648   2.489   4.321   6.151 -0.2806 -1.3196  0.6744
 9004SOL    HW238649   2.526   4.178   6.136 -2.2137 -0.5511 -0.3210
 9005SOL     OW38650   4.058   3.123  14.901  0.1812 -0.2740 -0.0695
 9005SOL    HW138651   3.974   3.085  14.926  1.1675 -1.5142  1.2884
 9005SOL    HW238652   4.125   3.072  14.946  0.4712  1.0994  1.0589
 9006SOL     OW38653   4.262   3.803   4.816 -0.3328 -0.1555  0.4547
 9006SOL    HW138654   4.225   3.729   4.767  0.9182 -2.3145  2.7753
 9006SOL    HW238655   4.260   3.768   4.905 -2.7636 -0.1744  0.3793
 9007SOL     OW38656   4.647   1.968   4.140  0.7037  0.0699 -0.0257
 9007SOL    HW138657   4.704   1.994   4.212 -0.9199 -1.0527  1.6701
 9007SOL    HW238658   4.573   1.943   4.196  0.6225  2.6481  1.0350
 9008SOL     OW38659   4.244   2.923  17.524  0.2025 -0.2130  0.3541
 9008SOL    HW138660   4.271   2.832  17.535  1.1353  0.4626  3.6032
 9008SOL    HW238661   4.257   2.931  17.429 -1.3558  3.1315  0.4350
 9009SOL     OW38662   2.297   0.312   7.912  0.8813  0.6004  0.0493
 9009SOL    HW138663   2.280   0.342   7.823 -2.6634 -1.0039  0.1950
 9009SOL    HW238664   2.259   0.386   7.959 -0.0578 -1.5738  2.7383
 9010SOL     OW38665   4.643   4.701   3.088  0.3246 -0.5955  0.9030
 9010SOL    HW138666   4.698   4.635   3.044  0.0545 -1.1915  1.4535
 9010SOL    HW238667   4.586   4.645   3.142 -0.0988 -1.6940 -0.6670
 9011SOL     OW38668   4.352   1.943   7.074  0.8296 -0.3379  0.3588
 9011SOL    HW138669   4.316   1.955   7.162 -0.4590  0.8302 -0.3454
 9011SOL    HW238670   4.441   1.974   7.092  1.3204 -1.5006 -0.1245
 9012SOL     OW38671   4.241   1.516   2.005 -0.1659  0.5687 -0.5549
 9012SOL    HW138672   4.297   1.571   1.949 -1.4822  2.6825  0.2323
 9012SOL    HW238673   4.152   1.548   1.994 -0.8635 -0.8938  0.8529
 9013SOL     OW38674   2.954   3.435  10.571  0.4497 -0.3339 -0.0020
 9013SOL    HW138675   2.931   3.369  10.505  1.1211 -0.7160  0.1491
 9013SOL    HW238676   3.030   3.474  10.527  1.3601 -2.0470  0.0558
 9014SOL     OW38677   2.615   4.171  11.230 -0.4393 -0.2515 -0.2325
 9014SOL    HW138678   2.571   4.091  11.200 -1.0543 -0.3637  0.9593
 9014SOL    HW238679   2.551   4.242  11.238  0.6609  1.0036 -2.8276
 9015SOL     OW38680   3.905   0.913  13.461 -0.1249 -0.1322 -0.4973
 9015SOL    HW138681   3.899   0.879  13.550 -1.9178 -3.2662 -1.8474
 9015SOL    HW238682   3.999   0.932  13.457 -0.3807  0.9637 -1.3015
 9016SOL     OW38683   2.732   4.344   4.235  0.3196  0.8592 -0.1525
 9016SOL    HW138684   2.649   4.299   4.220  1.8572 -2.3140  0.9603
 9016SOL    HW238685   2.701   4.435   4.234 -2.0836  0.0028 -2.1651
 9017SOL     OW38686   2.645   1.689   5.806  0.3776  0.2072  0.3948
 9017SOL    HW138687   2.691   1.607   5.826 -0.2521 -0.6548 -1.6011
 9017SOL    HW238688   2.631   1.726   5.892 -0.2219 -1.6472  1.0967
 9018SOL     OW38689   1.966   0.781   7.439  0.2341  0.5223  0.5960
 9018SOL    HW138690   1.940   0.692   7.418 -0.2896  0.3986  1.7731
 9018SOL    HW238691   1.968   0.825   7.354  1.6143 -0.4000  0.1472
 9019SOL     OW38692   1.504   4.055   8.892 -0.3738 -0.3739  0.4437
 9019SOL    HW138693   1.536   4.059   8.982  0.6245 -1.1969  0.1082
 9019SOL    HW238694   1.426   4.004   8.913  0.1698 -1.3016  0.2029
 9020SOL     OW38695   0.243   1.970   8.679 -0.4042  0.3442 -0.0692
 9020SOL    HW138696   0.304   2.003   8.746  0.1805 -0.2257 -0.3175
 9020SOL    HW238697   0.300   1.956   8.603 -1.2641 -0.2160 -0.6047
 9021SOL     OW38698   1.585   1.313   7.328  0.9877  0.3246  0.0514
 9021SOL    HW138699   1.545   1.318   7.415 -1.9394 -0.7986 -1.2408
 9021SOL    HW238700   1.513   1.344   7.273 -2.1597  0.1247  4.1107
 9022SOL     OW38701   3.517   3.603   6.861  0.3038 -0.0236 -0.6591
 9022SOL    HW138702   3.586   3.619   6.796  1.2173 -0.5629  0.1848
 9022SOL    HW238703   3.453   3.672   6.844  0.9989  0.4502 -1.3383
 9023SOL     OW38704   2.941   1.391   2.973 -0.0794  0.0855  0.0693
 9023SOL    HW138705   2.962   1.481   2.998 -1.7263  0.8787 -1.4089
 9023SOL    HW238706   2.880   1.423   2.906  0.0784  0.7289  0.2334
 9024SOL     OW38707   3.200   4.451   5.724  0.0569  0.2041  0.2911
 9024SOL    HW138708   3.220   4.361   5.699  0.2619  0.3016  0.0994
 9024SOL    HW238709   3.159   4.446   5.810  1.4554  3.5899  1.1771
 9025SOL     OW38710   3.198   0.465   7.983  0.1836  0.5871  0.4439
 9025SOL    HW138711   3.257   0.484   7.910 -0.1635  0.0179  0.0170
 9025SOL    HW238712   3.252   0.488   8.059 -0.1358  0.6239  0.6584
 9026SOL     OW38713   3.528   3.957  16.508  0.1594 -0.3063  0.3234
 9026SOL    HW138714   3.445   3.970  16.554  0.2232  1.1679  0.0155
 9026SOL    HW238715   3.506   4.007  16.430 -0.5282 -2.2550 -0.7157
 9027SOL     OW38716   1.184   4.191   4.936 -0.0756 -0.4119 -0.2147
 9027SOL    HW138717   1.212   4.103   4.960  0.4070  0.4729  2.3774
 9027SOL    HW238718   1.089   4.197   4.950 -0.0103 -1.7250  0.7950
 9028SOL     OW38719   0.982   0.150   2.234  0.3008 -0.0037  0.4223
 9028SOL    HW138720   0.989   0.153   2.138 -2.2948  0.2423  0.2483
 9028SOL    HW238721   1.046   0.218   2.252 -1.6256  1.5313  1.3756
 9029SOL     OW38722   1.225   2.072   7.179 -0.2111 -0.3375 -0.2271
 9029SOL    HW138723   1.151   2.090   7.236  0.9731  0.0283  1.1849
 9029SOL    HW238724   1.299   2.115   7.221 -1.2518  0.5959  0.6362
 9030SOL     OW38725   3.976   0.323   7.301  0.5148 -0.3634  0.0383
 9030SOL    HW138726   3.909   0.295   7.238  1.0583 -2.0301  0.2037
 9030SOL    HW238727   4.031   0.370   7.238  1.8317  0.4209  1.7978
 9031SOL     OW38728   2.279   1.151  12.717  0.1491  0.4332  0.3662
 9031SOL    HW138729   2.374   1.143  12.719  0.2326  1.6063  0.9233
 9031SOL    HW238730   2.249   1.070  12.676  0.9708  0.7943 -0.9263
 9032SOL     OW38731   3.067   3.851  11.000  0.1652  0.2307  0.1308
 9032SOL    HW138732   2.976   3.838  10.973 -0.3856  0.7842  1.7096
 9032SOL    HW238733   3.061   3.912  11.073  2.5334  0.3006  0.2778
 9033SOL     OW38734   0.534   2.238  11.143 -0.1879  0.0406  0.0784
 9033SOL    HW138735   0.540   2.263  11.051  0.6243  0.7519  0.3348
 9033SOL    HW238736   0.561   2.317  11.189  0.7836 -0.2170 -0.0463
 9034SOL     OW38737   1.624   0.609   8.806 -0.5538 -0.1297  0.0162
 9034SOL    HW138738   1.534   0.604   8.838 -0.6021 -2.0433 -0.3663
 9034SOL    HW238739   1.676   0.604   8.886 -1.5850 -0.0208  0.6816
 9035SOL     OW38740   1.869   2.095  15.996 -0.1033  0.4181  0.0157
 9035SOL    HW138741   1.950   2.145  15.987 -0.1952  0.3409 -1.1554
 9035SOL    HW238742   1.803   2.161  15.975 -1.9218 -1.3540  0.1355
 9036SOL     OW38743   2.788   4.323   5.513 -0.7874 -0.2767  0.0909
 9036SOL    HW138744   2.794   4.270   5.433 -0.7733 -0.7664  0.4203
 9036SOL    HW238745   2.821   4.406   5.480 -0.2170 -0.4180  0.3075
 9037SOL     OW38746   4.378   3.039   9.810  0.0293  0.0096  0.2755
 9037SOL    HW138747   4.374   2.968   9.874  0.7678 -0.2382  0.0469
 9037SOL    HW238748   4.339   2.994   9.735  0.6090  2.1365 -1.3159
 9038SOL     OW38749   4.727   4.333  12.347  0.4433  0.4674  0.0106
 9038SOL    HW138750   0.010   4.244  12.376 -2.7910 -0.9410 -2.0504
 9038SOL    HW238751   4.695   4.379  12.425  0.8503  1.0367 -0.1630
 9039SOL     OW38752   3.862   2.167  17.045  0.0841  0.2994  0.3201
 9039SOL    HW138753   3.914   2.139  16.970 -0.6178  0.1645 -0.1138
 9039SOL    HW238754   3.839   2.256  17.019  0.4370  0.5594  0.8777
 9040SOL     OW38755   1.986   2.451  14.730 -0.4109  0.5210 -0.3499
 9040SOL    HW138756   2.026   2.537  14.719  0.7085  0.0751  0.3158
 9040SOL    HW238757   2.002   2.411  14.644 -0.7031 -0.4351  0.0396
 9041SOL     OW38758   2.750   1.522   2.813  0.2541 -0.0432 -0.4931
 9041SOL    HW138759   2.793   1.590   2.761  0.7179 -1.2127 -1.6655
 9041SOL    HW238760   2.708   1.575   2.880 -0.1047 -1.0017  0.0408
 9042SOL     OW38761   4.204   1.771   4.008 -0.1675 -0.0654  0.0407
 9042SOL    HW138762   4.168   1.813   4.086  1.2036 -0.0384  0.6647
 9042SOL    HW238763   4.203   1.680   4.038 -2.3964  0.1986  0.7605
 9043SOL     OW38764   0.294   4.606   9.041 -0.1340  0.3374  0.6019
 9043SOL    HW138765   0.201   4.603   9.065 -0.4583 -1.1295 -0.8310
 9043SOL    HW238766   0.302   4.700   9.025  0.4150  0.4762  1.7230
 9044SOL     OW38767   1.476   3.084   3.994 -0.4785  0.4715  0.3133
 9044SOL    HW138768   1.526   3.082   3.912  1.3719  3.1137  1.3874
 9044SOL    HW238769   1.395   3.131   3.972  0.3553  0.6793 -2.3510
 9045SOL     OW38770   1.412   1.379   5.738 -0.1140  0.2430 -0.7359
 9045SOL    HW138771   1.440   1.467   5.716 -0.2299  0.2866 -0.7072
 9045SOL    HW238772   1.317   1.389   5.734 -0.5791 -4.0514 -0.7888
 9046SOL     OW38773   1.535   4.213   2.897 -0.5637 -0.3734  0.4785
 9046SOL    HW138774   1.490   4.186   2.818 -0.6381 -1.6823  0.9712
 9046SOL    HW238775   1.618   4.245   2.862 -2.1628 -0.6434 -3.5066
 9047SOL     OW38776   2.236   4.538   6.161  0.4365  0.5258  0.4237
 9047SOL    HW138777   2.267   4.544   6.070  0.5558 -2.3391  0.2662
 9047SOL    HW238778   2.200   4.627   6.160 -0.6981  0.0637  0.3299
 9048SOL     OW38779   2.332   4.057   1.773 -0.7719 -0.2957 -0.1737
 9048SOL    HW138780   2.391   3.998   1.819 -2.0376 -1.4184 -0.0013
 9048SOL    HW238781   2.245   4.018   1.785 -0.1282 -2.2679 -1.9809
 9049SOL     OW38782   0.034   0.791   4.483  0.0770 -0.0945  0.3896
 9049SOL    HW138783   4.717   0.712   4.485 -0.6403  0.3848 -0.0993
 9049SOL    HW238784   0.025   0.830   4.570  0.2284  1.7032 -0.4020
 9050SOL     OW38785   3.234   1.108   8.737  0.4753 -0.1218 -0.5106
 9050SOL    HW138786   3.244   1.140   8.647  1.5437  0.0007 -0.3529
 9050SOL    HW238787   3.302   1.042   8.727  0.5252 -0.3123  1.0753
 9051SOL     OW38788   3.233   2.046  14.901 -0.4092 -0.0052  0.1388
 9051SOL    HW138789   3.176   2.100  14.848  0.8988  0.4557 -0.7946
 9051SOL    HW238790   3.312   2.068  14.852  0.4336  0.8067  1.8613
 9052SOL     OW38791   0.947   3.947   3.316  0.5769 -0.3008 -0.3642
 9052SOL    HW138792   0.944   3.996   3.399 -0.4753 -0.7741 -0.1245
 9052SOL    HW238793   0.864   3.969   3.275 -0.8150 -1.7817  1.6873
 9053SOL     OW38794   2.645   3.728   4.409 -0.0991  0.3031 -0.1237
 9053SOL    HW138795   2.666   3.736   4.316 -0.2453  0.0728 -0.1781
 9053SOL    HW238796   2.655   3.819   4.434 -0.7089  0.9394 -2.1821
 9054SOL     OW38797   3.553   2.784  13.907  0.0046  0.5711  0.5072
 9054SOL    HW138798   3.476   2.749  13.862  0.3146  2.5209 -1.6000
 9054SOL    HW238799   3.608   2.777  13.828 -1.4777 -2.7274 -0.2087
 9055SOL     OW38800   3.512   2.006   7.377  0.2281 -0.5396  0.4827
 9055SOL    HW138801   3.562   2.079   7.342 -0.2772  0.2582  1.4084
 9055SOL    HW238802   3.576   1.942   7.409  0.8535 -1.0221 -1.7350
 9056SOL     OW38803   4.116   2.705   2.004 -0.2412  0.4428 -0.2815
 9056SOL    HW138804   4.144   2.790   1.971  0.1412  1.0933  1.7071
 9056SOL    HW238805   4.203   2.665   1.993 -0.6855 -1.0832  1.6058
 9057SOL     OW38806   2.176   0.529   6.363 -0.1701 -0.1572  0.6283
 9057SOL    HW138807   2.140   0.442   6.380 -4.1243  1.0570 -1.5415
 9057SOL    HW238808   2.208   0.554   6.450 -0.5735 -0.9154  0.9954
 9058SOL     OW38809   2.113   3.993  12.391  0.4080  0.2181  0.3634
 9058SOL    HW138810   2.069   3.990  12.476 -0.2495 -1.8777 -0.0461
 9058SOL    HW238811   2.189   3.935  12.398 -0.4395 -0.5479  3.4680
 9059SOL     OW38812   0.363   0.559   6.440  0.3951  0.2276  0.1513
 9059SOL    HW138813   0.305   0.624   6.401  1.9116  1.6119  0.2437
 9059SOL    HW238814   0.445   0.571   6.393 -1.1677 -1.3055 -2.9999
 9060SOL     OW38815   2.066   4.257   2.891  0.0211  0.4164 -0.1866
 9060SOL    HW138816   2.098   4.173   2.923 -1.3411 -0.3215 -0.7369
 9060SOL    HW238817   2.026   4.280   2.975  0.5568  0.0525  0.1636
 9061SOL     OW38818   4.043   2.744  10.630  0.5657  0.3073  0.3308
 9061SOL    HW138819   3.978   2.810  10.606  0.2045  0.2198  1.0605
 9061SOL    HW238820   4.103   2.788  10.690 -0.4186  2.2141 -0.0712
 9062SOL     OW38821   0.298   2.802  10.107 -0.2942  0.4616  0.6758
 9062SOL    HW138822   0.322   2.811  10.015  2.6362 -0.0576  1.3886
 9062SOL    HW238823   0.220   2.747  10.095  0.0604  0.1484 -0.1971
 9063SOL     OW38824   1.389   2.767   2.768 -0.4186 -0.1117  0.4822
 9063SOL    HW138825   1.396   2.757   2.673 -2.1529 -0.5680  0.4001
 9063SOL    HW238826   1.324   2.702   2.793  2.5331 -4.0869 -2.1990
 9064SOL     OW38827   2.302   4.465  17.422  0.3348  0.7770  0.0753
 9064SOL    HW138828   2.372   4.433  17.479  0.4911  1.6305  0.3573
 9064SOL    HW238829   2.246   4.389  17.407 -0.9817  1.7409  0.1019
 9065SOL     OW38830   2.299   0.548   6.123  0.0609 -0.0349 -0.0356
 9065SOL    HW138831   2.271   0.547   6.214  2.1569 -3.3034  0.5549
 9065SOL    HW238832   2.298   0.639   6.093  0.0817 -0.3779 -1.0904
 9066SOL     OW38833   4.277   4.439  16.758  0.4829  0.6901  0.0717
 9066SOL    HW138834   4.371   4.422  16.755  0.3945  0.5175 -1.9711
 9066SOL    HW238835   4.276   4.531  16.786  0.1969  0.1111  1.9059
 9067SOL     OW38836   3.153   3.062   6.732  0.0890 -0.5989 -0.1099
 9067SOL    HW138837   3.085   3.129   6.721  1.3724  0.8967  1.1397
 9067SOL    HW238838   3.222   3.112   6.776 -1.4545  0.2287  1.3821
 9068SOL     OW38839   2.458   0.649  11.049  0.2313  0.2863 -0.1460
 9068SOL    HW138840   2.524   0.717  11.037  0.1492  0.1555 -1.3198
 9068SOL    HW238841   2.456   0.669  11.143  0.3495  0.4396 -0.1769
 9069SOL     OW38842   2.291   2.314   6.742  0.0410 -0.2871  0.3215
 9069SOL    HW138843   2.273   2.224   6.716  1.0791  0.3958 -2.7622
 9069SOL    HW238844   2.297   2.365   6.661 -0.2481 -0.5341  0.1426
 9070SOL     OW38845   1.722   4.586   5.621  0.1862  0.9269  0.3823
 9070SOL    HW138846   1.784   4.559   5.553  1.2665  1.6521  1.0894
 9070SOL    HW238847   1.703   4.678   5.602 -0.6037  0.2864 -1.8911
 9071SOL     OW38848   1.681   2.393  13.436 -0.3809 -0.2152  0.2081
 9071SOL    HW138849   1.592   2.427  13.424 -0.1742 -0.3855 -1.9235
 9071SOL    HW238850   1.662   2.324  13.500  0.0365  0.9805  1.6021
 9072SOL     OW38851   1.531   1.689   5.393  0.2294 -0.0801  0.0506
 9072SOL    HW138852   1.589   1.656   5.325 -1.1376  1.3861 -1.8143
 9072SOL    HW238853   1.543   1.782   5.372  1.0606 -0.2017 -0.0242
 9073SOL     OW38854   2.072   3.356   5.225 -0.1519  0.2810  0.6310
 9073SOL    HW138855   2.125   3.419   5.273 -0.5471  1.3627 -0.3383
 9073SOL    HW238856   1.993   3.409   5.222 -1.3054 -1.5035 -0.5920
 9074SOL     OW38857   0.264   2.875   0.632  0.0046 -0.2591  0.2990
 9074SOL    HW138858   0.191   2.841   0.580  1.0097  0.7220 -1.7840
 9074SOL    HW238859   0.273   2.965   0.598 -2.3386 -0.4837 -0.9221
 9075SOL     OW38860   2.946   3.501   8.099  1.0150 -0.2249  0.4728
 9075SOL    HW138861   2.886   3.566   8.063  0.4697 -0.0146  1.7462
 9075SOL    HW238862   2.906   3.425   8.055  1.0820 -0.9507  1.6662
 9076SOL     OW38863   2.666   0.914   3.980  0.0055  0.1041 -0.8791
 9076SOL    HW138864   2.681   0.906   4.075 -1.3046 -0.9552 -0.7632
 9076SOL    HW238865   2.746   0.871   3.950 -0.3358 -1.7341  0.8540
 9077SOL     OW38866   2.163   3.399   8.712  0.5241  0.7487 -0.7627
 9077SOL    HW138867   2.139   3.309   8.733 -0.0500  1.6039  2.3605
 9077SOL    HW238868   2.085   3.451   8.726 -0.4806 -0.3888 -2.1254
 9078SOL     OW38869   0.785   3.777   6.532 -0.2668  0.6150  0.7175
 9078SOL    HW138870   0.748   3.865   6.536 -1.0832  0.4072 -2.1235
 9078SOL    HW238871   0.850   3.774   6.602  0.8464 -0.8082 -0.3663
 9079SOL     OW38872   0.442   3.375  12.354  0.4147  0.5812 -0.0769
 9079SOL    HW138873   0.433   3.288  12.314  0.2795  0.1234  0.9685
 9079SOL    HW238874   0.537   3.385  12.350  0.7867 -1.8381  2.8487
 9080SOL     OW38875   0.996   1.229   9.189  0.6958  0.7214 -0.5712
 9080SOL    HW138876   0.984   1.320   9.216 -1.9117 -0.5594  2.6050
 9080SOL    HW238877   1.085   1.241   9.156  1.0309 -0.5307 -0.1100
 9081SOL     OW38878   0.940   4.638   4.484 -0.4900 -0.3839  0.0233
 9081SOL    HW138879   0.870   4.581   4.516 -1.3937 -1.0283 -3.1553
 9081SOL    HW238880   0.891   4.720   4.488  0.6689  0.2056  2.4205
 9082SOL     OW38881   0.747   3.886  11.434 -0.1173  0.3880  0.7054
 9082SOL    HW138882   0.818   3.912  11.375 -1.1655 -0.5439 -0.9483
 9082SOL    HW238883   0.810   3.884  11.507 -0.0026 -0.6140  0.5766
 9083SOL     OW38884   1.956   2.218   1.229  0.4604 -0.2237  0.4367
 9083SOL    HW138885   2.043   2.179   1.235 -0.0564 -1.7884 -2.3968
 9083SOL    HW238886   1.926   2.223   1.320  2.1759 -1.3836  1.0640
 9084SOL     OW38887   0.367   0.712   3.470  0.2525 -0.0624 -0.3485
 9084SOL    HW138888   0.345   0.711   3.377  2.0066 -1.6522 -0.7420
 9084SOL    HW238889   0.370   0.620   3.496 -1.1163 -0.0273 -0.0470
 9085SOL     OW38890   3.936   1.224   4.570  0.1350  0.1742  0.6684
 9085SOL    HW138891   3.852   1.242   4.612 -0.8733 -1.8702 -0.4138
 9085SOL    HW238892   3.929   1.132   4.542  1.4111 -1.1751  4.8260
 9086SOL     OW38893   1.320   3.987   6.113 -0.0612 -0.0622  0.0696
 9086SOL    HW138894   1.258   4.027   6.175  0.4382 -0.4277  0.7960
 9086SOL    HW238895   1.405   4.003   6.152 -0.5196  1.0591  0.6149
 9087SOL     OW38896   4.571   2.559   6.532  0.3949 -0.0896  0.1876
 9087SOL    HW138897   4.546   2.580   6.622  0.0347 -0.6476  0.2152
 9087SOL    HW238898   4.635   2.489   6.546  2.5101  2.2087  1.9762
 9088SOL     OW38899   2.958   0.492   8.233 -0.2811 -0.3332  0.0021
 9088SOL    HW138900   3.009   0.412   8.247 -1.6091 -1.1061  0.3235
 9088SOL    HW238901   2.889   0.457   8.177 -0.1510  1.0849 -1.0537
 9089SOL     OW38902   4.033   0.294   9.571 -0.3695  0.3720 -0.6809
 9089SOL    HW138903   3.955   0.241   9.557  1.0062 -2.1783  1.2390
 9089SOL    HW238904   4.024   0.294   9.666 -2.2714 -0.2188 -0.8755
 9090SOL     OW38905   3.706   2.655  11.903  0.4971 -0.3383 -0.4508
 9090SOL    HW138906   3.786   2.673  11.951  1.7161  1.8636 -3.3111
 9090SOL    HW238907   3.713   2.563  11.877  1.1596  0.1608 -2.0559
 9091SOL     OW38908   4.141   1.817   3.742 -0.5297 -0.0645  0.4299
 9091SOL    HW138909   4.149   1.808   3.837 -0.0513 -2.8000  0.1394
 9091SOL    HW238910   4.142   1.731   3.701  1.8105 -1.2715  2.9885
 9092SOL     OW38911   2.079   0.616   5.714 -0.2232 -0.1252  0.0578
 9092SOL    HW138912   2.149   0.664   5.672 -0.6589 -0.3243 -0.8995
 9092SOL    HW238913   2.114   0.528   5.729  0.6263  0.3816  1.0309
 9093SOL     OW38914   3.257   0.636  13.750  0.1627 -0.1429 -0.1624
 9093SOL    HW138915   3.343   0.618  13.788 -0.8467 -0.0793  2.1931
 9093SOL    HW238916   3.261   0.732  13.741 -1.7916  0.0336  0.6999
 9094SOL     OW38917   2.855   0.546  13.254  0.3307 -0.3557  0.6519
 9094SOL    HW138918   2.870   0.605  13.328 -1.7883  0.0210  0.7636
 9094SOL    HW238919   2.860   0.459  13.294  0.3076 -1.4146 -1.6369
 9095SOL     OW38920   0.035   0.593   4.943 -0.1459  0.6456  0.0459
 9095SOL    HW138921   4.704   0.564   4.882 -0.7644  0.4276  0.8351
 9095SOL    HW238922   0.080   0.509   4.941  0.3752  0.9208  0.3969
 9096SOL     OW38923   2.448   3.362   6.965 -0.2368  0.0277  0.1980
 9096SOL    HW138924   2.478   3.451   6.981 -0.8416  0.1818  0.4938
 9096SOL    HW238925   2.372   3.364   7.024  0.5305 -1.7446  1.2305
 9097SOL     OW38926   0.410   3.302   5.028  0.1998 -0.2747  0.3862
 9097SOL    HW138927   0.505   3.301   5.042  0.1395  1.0388  0.8265
 9097SOL    HW238928   0.397   3.396   5.032 -0.3520 -0.3793  1.1637
 9098SOL     OW38929   0.723   0.323  16.567 -0.1694 -0.0508 -0.2568
 9098SOL    HW138930   0.729   0.335  16.662  0.4883  0.6022 -0.3781
 9098SOL    HW238931   0.643   0.365  16.536  0.6031  0.9448 -0.8867
 9099SOL     OW38932   0.986   2.108   3.715 -0.0354  0.1176  0.1558
 9099SOL    HW138933   1.058   2.135   3.772 -0.5678  1.7610  0.0321
 9099SOL    HW238934   0.987   2.016   3.741 -0.6927 -0.6104 -2.3739
 9100SOL     OW38935   2.671   3.563   5.349  0.1793 -0.2121 -0.6042
 9100SOL    HW138936   2.613   3.487   5.357 -1.3776  0.7634 -2.5731
 9100SOL    HW238937   2.713   3.563   5.435 -0.3548  1.1337 -0.3435
 9101SOL     OW38938   1.048   1.964  13.328  0.2562  0.5481 -0.1904
 9101SOL    HW138939   1.038   2.003  13.241 -1.4210  0.2217 -0.1368
 9101SOL    HW238940   1.091   2.038  13.372  0.2683  0.0245  0.6787
 9102SOL     OW38941   2.688   2.021   1.805  0.3777 -0.0162 -0.1692
 9102SOL    HW138942   2.617   2.065   1.853 -0.0859  1.0730 -1.8646
 9102SOL    HW238943   2.720   1.969   1.879  0.9905 -1.9188 -1.7925
 9103SOL     OW38944   0.443   4.032   5.997  0.0874  0.4189 -0.5632
 9103SOL    HW138945   0.536   4.014   6.011  0.0032 -0.8792 -1.6629
 9103SOL    HW238946   0.444   4.082   5.915 -1.9892  1.4701  0.0339
 9104SOL     OW38947   3.536   2.761   8.814  0.5635 -0.1171  0.2151
 9104SOL    HW138948   3.459   2.731   8.767  2.1308 -0.7893 -1.8771
 9104SOL    HW238949   3.596   2.708   8.763  0.2796  0.3733 -0.6203
 9105SOL     OW38950   3.123   0.646  14.461 -0.3764 -0.2110  0.4952
 9105SOL    HW138951   3.172   0.589  14.520 -0.8988  0.9387  2.0261
 9105SOL    HW238952   3.033   0.614  14.470  0.2002 -1.6154  1.2696
 9106SOL     OW38953   3.874   2.681   6.675 -0.2022  0.3773 -0.0736
 9106SOL    HW138954   3.797   2.715   6.722 -1.7016 -3.1963  0.0835
 9106SOL    HW238955   3.928   2.760   6.673  0.8163 -0.3073  0.6748
 9107SOL     OW38956   2.871   4.581   2.112 -0.0173 -0.2804 -0.5527
 9107SOL    HW138957   2.796   4.589   2.171  0.8918 -1.0620  0.7155
 9107SOL    HW238958   2.905   4.668   2.131 -1.6708  0.8151 -2.5520
 9108SOL     OW38959   0.029   3.356  15.154 -0.7431 -0.9723  0.3476
 9108SOL    HW138960   0.015   3.380  15.062 -1.2577  1.3487  1.0354
 9108SOL    HW238961   4.711   3.278  15.167  2.0513 -2.1856  4.7730
 9109SOL     OW38962   1.680   0.864   3.611 -0.0873 -0.1540 -0.4426
 9109SOL    HW138963   1.717   0.801   3.673  1.2392 -0.6788 -1.7566
 9109SOL    HW238964   1.586   0.855   3.624  0.0258 -1.0849 -0.2526
 9110SOL     OW38965   4.176   2.496  13.038  0.1464 -0.2812  0.3272
 9110SOL    HW138966   4.210   2.521  13.123  1.1527  3.7699 -1.2406
 9110SOL    HW238967   4.129   2.576  13.013 -0.3243 -0.8645 -0.6742
 9111SOL     OW38968   0.769   2.909   2.482  0.3072 -0.1158  0.0342
 9111SOL    HW138969   0.767   2.867   2.397  2.3446  1.5326 -0.8368
 9111SOL    HW238970   0.762   2.999   2.450  1.0001 -0.0583  0.0507
 9112SOL     OW38971   2.360   2.109   6.015 -0.1686  0.0204 -0.2162
 9112SOL    HW138972   2.267   2.097   6.030 -0.6846  1.7697 -2.0178
 9112SOL    HW238973   2.405   2.085   6.096 -3.8113  0.6899  2.0086
 9113SOL     OW38974   2.539   0.214   3.026  0.3122 -0.5438  0.2360
 9113SOL    HW138975   2.603   0.214   2.955 -0.7442  4.7042 -0.7485
 9113SOL    HW238976   2.532   0.120   3.045 -0.9084 -0.5105 -0.0606
 9114SOL     OW38977   1.142   4.490  14.950 -0.6474 -0.1453  0.1361
 9114SOL    HW138978   1.105   4.525  15.031 -2.4830  1.2927 -1.3229
 9114SOL    HW238979   1.220   4.446  14.984  0.1036 -0.1731 -1.6351
 9115SOL     OW38980   2.984   0.481  16.681  0.1632 -0.0464 -0.3638
 9115SOL    HW138981   3.017   0.541  16.747  0.3902  0.1022 -0.6127
 9115SOL    HW238982   2.959   0.548  16.618  1.7816  1.1432  0.2679
 9116SOL     OW38983   1.168   4.017   7.259  0.9162  0.0985  0.0559
 9116SOL    HW138984   1.223   3.976   7.193  1.7091 -0.9057  1.3325
 9116SOL    HW238985   1.127   3.948   7.311  0.3803  1.1102  0.9893
 9117SOL     OW38986   3.664   0.190   5.440  0.0327 -0.2840 -0.5161
 9117SOL    HW138987   3.620   0.107   5.457 -0.1170 -0.1884 -0.4364
 9117SOL    HW238988   3.748   0.166   5.478  1.0238  2.2246 -1.0702
 9118SOL     OW38989   0.880   4.716   5.695 -0.3681 -0.5402  0.2056
 9118SOL    HW138990   0.792   0.014   5.708 -0.8166 -1.0967 -1.3811
 9118SOL    HW238991   0.898   4.719   5.601  2.0648 -2.4879  0.6143
 9119SOL     OW38992   2.200   0.844   7.881 -0.1199  0.3902 -0.6142
 9119SOL    HW138993   2.295   0.835   7.896 -0.0813  2.1398  0.1474
 9119SOL    HW238994   2.204   0.915   7.818 -1.1466  0.7346 -0.2862
 9120SOL     OW38995   0.270   0.200  11.201  0.2275  0.6844 -0.4409
 9120SOL    HW138996   0.219   0.176  11.124 -1.9353 -1.2174  1.5699
 9120SOL    HW238997   0.361   0.179  11.179 -0.7676 -2.2410 -1.7465
 9121SOL     OW38998   0.288   1.355  11.128 -0.1824 -0.5603 -1.2170
 9121SOL    HW138999   0.372   1.331  11.087  0.3280  0.8595 -1.0062
 9121SOL    HW239000   0.307   1.447  11.147  1.0901 -0.7023 -1.7763
 9122SOL     OW39001   4.383   3.435   9.291 -0.8931  0.2235  0.0564
 9122SOL    HW139002   4.416   3.524   9.308 -0.5361 -0.0324  0.6973
 9122SOL    HW239003   4.402   3.382   9.368  0.5948  1.4093  0.5214
 9123SOL     OW39004   3.854   2.870   5.712 -0.0910 -0.4811 -0.0057
 9123SOL    HW139005   3.785   2.923   5.752  1.3731  2.2832 -1.1445
 9123SOL    HW239006   3.907   2.938   5.671 -2.6478  1.8346  0.5526
 9124SOL     OW39007   3.787   2.743   5.156 -0.5110 -0.0503 -1.0538
 9124SOL    HW139008   3.717   2.779   5.210  0.4245  2.5929 -1.5878
 9124SOL    HW239009   3.849   2.725   5.227  0.1627  0.1335 -1.5946
 9125SOL     OW39010   4.489   1.113  13.011 -0.5548 -0.7323  0.5430
 9125SOL    HW139011   4.490   1.038  12.952  3.5475 -1.5799  1.7211
 9125SOL    HW239012   4.409   1.158  12.983 -0.6732 -1.0324  0.4100
 9126SOL     OW39013   1.443   2.487  16.999 -0.4499  0.3095  0.1447
 9126SOL    HW139014   1.402   2.573  17.009  0.0220  0.4305  0.9930
 9126SOL    HW239015   1.521   2.508  16.947 -1.3155  0.6846 -1.0178
 9127SOL     OW39016   2.467   1.596   2.906 -0.7864  0.5123 -0.3992
 9127SOL    HW139017   2.387   1.544   2.914  0.0098 -0.3220  2.3456
 9127SOL    HW239018   2.455   1.619   2.814  0.2757 -0.0170 -0.6733
 9128SOL     OW39019   1.193   1.877   5.023 -0.3646 -0.0995  0.4192
 9128SOL    HW139020   1.274   1.929   5.029 -0.8249  0.7324 -0.5099
 9128SOL    HW239021   1.229   1.792   5.047 -3.9043 -1.2907  1.5143
 9129SOL     OW39022   4.170   0.452   0.807 -0.2325 -0.2765  0.4856
 9129SOL    HW139023   4.235   0.420   0.870  0.7972  1.5972  0.3803
 9129SOL    HW239024   4.225   0.475   0.733 -2.7462  4.4380  0.1271
 9130SOL     OW39025   0.768   2.891   3.113  0.6610  0.1285 -0.0423
 9130SOL    HW139026   0.780   2.909   3.020 -1.7048 -1.9616 -0.7835
 9130SOL    HW239027   0.690   2.836   3.125 -0.3418  1.0619 -2.3627
 9131SOL     OW39028   3.970   1.279   6.068 -0.4467 -0.1366  0.0276
 9131SOL    HW139029   3.945   1.230   5.990  1.4402 -1.3746  0.2208
 9131SOL    HW239030   3.946   1.368   6.039 -1.8969  0.1885  2.2228
 9132SOL     OW39031   4.358   4.037  14.008  0.5888  0.4686  0.4023
 9132SOL    HW139032   4.412   4.021  14.086  0.4072  0.0645  0.4443
 9132SOL    HW239033   4.427   4.078  13.956 -0.5390  1.0470 -0.6227
 9133SOL     OW39034   1.211   0.444  15.559  0.0849 -0.0176 -0.5553
 9133SOL    HW139035   1.277   0.489  15.506  1.9740 -1.5503  0.4840
 9133SOL    HW239036   1.151   0.512  15.588 -0.0054  0.4255 -1.7739
 9134SOL     OW39037   3.219   4.242   4.504  0.1983  0.1261  0.1821
 9134SOL    HW139038   3.254   4.315   4.554  0.4793 -0.7469  1.2502
 9134SOL    HW239039   3.263   4.259   4.421  0.9302 -0.8648  0.3660
 9135SOL     OW39040   4.066   1.122   5.498 -0.4370  0.2912 -0.3374
 9135SOL    HW139041   3.973   1.116   5.473  0.2479 -0.6677 -2.6899
 9135SOL    HW239042   4.067   1.069   5.577  0.3376  2.2432  0.9584
 9136SOL     OW39043   4.663   3.580  15.585 -0.4568 -0.3742  0.4574
 9136SOL    HW139044   4.716   3.507  15.555  0.0266 -0.1871  0.8552
 9136SOL    HW239045   4.711   3.610  15.663 -0.9470  1.5254  0.0168
 9137SOL     OW39046   2.041   2.697   2.717  0.1767  0.0708 -0.0391
 9137SOL    HW139047   2.070   2.746   2.640  0.2001  1.6069  0.9560
 9137SOL    HW239048   2.030   2.768   2.780 -1.6974 -1.3598  1.2325
 9138SOL     OW39049   1.987   2.056   6.495  0.2235 -0.0418  0.4569
 9138SOL    HW139050   2.039   2.059   6.575  1.8609  0.8627 -0.6447
 9138SOL    HW239051   1.910   2.005   6.519  0.3575 -0.7621 -0.6478
 9139SOL     OW39052   0.218   2.703  14.994  0.0348 -0.0491 -0.7039
 9139SOL    HW139053   0.280   2.630  15.007  0.0185 -0.0091 -0.4058
 9139SOL    HW239054   0.237   2.743  15.079  0.9862 -1.9039 -0.0307
 9140SOL     OW39055   3.836   1.308   8.900 -0.0684 -0.1296  0.6378
 9140SOL    HW139056   3.764   1.322   8.839 -0.5839  1.1471  1.5423
 9140SOL    HW239057   3.847   1.213   8.892  2.3561 -0.0622  3.0597
 9141SOL     OW39058   0.860   4.403   1.682  0.1028 -0.3186 -0.1057
 9141SOL    HW139059   0.800   4.460   1.730 -0.7045  0.3031 -1.8503
 9141SOL    HW239060   0.846   4.326   1.739  1.3985 -0.5235 -0.0697
 9142SOL     OW39061   2.214   3.920   3.869 -0.4201  0.3788  0.1125
 9142SOL    HW139062   2.277   3.978   3.827  1.2838 -1.5567 -0.0412
 9142SOL    HW239063   2.197   3.982   3.939  1.8875 -0.4256  1.4041
 9143SOL     OW39064   3.514   2.831   5.492 -0.3582 -0.3777  0.8601
 9143SOL    HW139065   3.442   2.893   5.506 -0.0985 -0.7387  3.7414
 9143SOL    HW239066   3.523   2.840   5.397 -0.2659  0.9288  0.9893
 9144SOL     OW39067   3.546   4.123  11.543 -0.1809 -0.3335 -0.2779
 9144SOL    HW139068   3.514   4.213  11.537  0.5079  0.0042  1.1276
 9144SOL    HW239069   3.623   4.120  11.486  0.6638  0.1846  0.8328
 9145SOL     OW39070   3.328   1.983   2.646  0.0385  0.4772  0.3445
 9145SOL    HW139071   3.414   2.017   2.620  1.5018 -1.6674  2.3438
 9145SOL    HW239072   3.291   1.975   2.559 -3.4103  2.0550  1.6730
 9146SOL     OW39073   1.614   2.693   6.137 -0.1281  0.4408  0.1259
 9146SOL    HW139074   1.654   2.726   6.217  0.6440  0.3659 -0.2246
 9146SOL    HW239075   1.622   2.766   6.075 -0.6689  2.1733  2.1295
 9147SOL     OW39076   0.318   2.885  10.345 -0.6212 -0.2623  0.1517
 9147SOL    HW139077   0.352   2.970  10.318  0.1432 -0.6883 -0.2270
 9147SOL    HW239078   0.312   2.847  10.257  3.6968 -2.9089  1.0324
 9148SOL     OW39079   3.921   0.606  14.842  1.5307  0.5698 -0.1375
 9148SOL    HW139080   4.010   0.637  14.855  1.4323  0.2849  1.2531
 9148SOL    HW239081   3.857   0.676  14.858 -0.5911 -1.6024  0.9318
 9149SOL     OW39082   1.399   0.669   2.657 -0.1746  0.1307 -0.2241
 9149SOL    HW139083   1.342   0.597   2.628 -0.6088  0.5484 -0.4086
 9149SOL    HW239084   1.374   0.727   2.585 -0.4309 -0.0263 -0.2657
 9150SOL     OW39085   1.497   0.151   7.528  0.2385 -0.4052 -0.1360
 9150SOL    HW139086   1.513   0.085   7.596 -1.2635 -0.2471  0.3817
 9150SOL    HW239087   1.452   0.219   7.577 -0.9744 -1.4754  0.2394
 9151SOL     OW39088   4.406   4.378   7.595  0.3142 -0.0024 -0.1242
 9151SOL    HW139089   4.374   4.427   7.671 -2.6371 -0.6759 -0.9330
 9151SOL    HW239090   4.427   4.445   7.530  0.5122 -1.3900 -1.4961
 9152SOL     OW39091   1.422   2.301   4.324 -0.4428  0.1291 -0.2029
 9152SOL    HW139092   1.407   2.308   4.230 -2.3756  0.5615  0.1179
 9152SOL    HW239093   1.355   2.234   4.341 -0.8439 -0.0251 -2.3572
 9153SOL     OW39094   1.058   1.570  10.820  0.0665 -0.5855  0.0999
 9153SOL    HW139095   0.999   1.539  10.888 -1.9228  2.5849 -0.1718
 9153SOL    HW239096   1.041   1.665  10.823 -0.9028 -0.8217  1.8614
 9154SOL     OW39097   4.474   3.838   2.826 -0.0933  0.1161 -0.4705
 9154SOL    HW139098   4.553   3.786   2.815  0.3149  0.5763  0.2976
 9154SOL    HW239099   4.485   3.868   2.916 -0.8168 -0.3789 -0.2149
 9155SOL     OW39100   1.380   4.710   3.062  0.2182 -0.0882  0.1167
 9155SOL    HW139101   1.368   0.030   2.986  0.2338  1.6121  1.3509
 9155SOL    HW239102   1.465   4.668   3.049  1.2152  1.7427  0.6993
 9156SOL     OW39103   0.811   3.579   6.242 -0.3307 -0.1281  0.1292
 9156SOL    HW139104   0.905   3.580   6.224 -0.6349  0.7706 -1.3856
 9156SOL    HW239105   0.819   3.575   6.338 -1.5079 -2.5817  0.1101
 9157SOL     OW39106   4.730   2.684   8.904  0.3830 -0.1326  0.3408
 9157SOL    HW139107   4.639   2.666   8.880 -0.0230  1.6429  0.5613
 9157SOL    HW239108   0.007   2.628   8.981  0.0181  1.0484  1.2593
 9158SOL     OW39109   2.989   0.175  16.157 -0.2487 -0.0856 -0.2952
 9158SOL    HW139110   3.044   0.191  16.233  0.8939  0.1570 -1.1625
 9158SOL    HW239111   2.936   0.254  16.160  0.8370  0.5876  1.2645
 9159SOL     OW39112   4.408   4.690   6.692 -1.0193 -0.1875  0.6226
 9159SOL    HW139113   4.318   4.723   6.696 -0.7992  0.6395 -1.2928
 9159SOL    HW239114   4.468   0.027   6.691 -0.1321 -0.9452 -1.1465
 9160SOL     OW39115   0.952   2.607   7.704  0.0625  0.1907  0.3140
 9160SOL    HW139116   0.885   2.616   7.636  0.0973  3.3087  0.6803
 9160SOL    HW239117   0.904   2.556   7.770  0.4499 -1.5767 -0.7625
 9161SOL     OW39118   0.165   4.684   3.259 -0.0403  0.1843  0.0856
 9161SOL    HW139119   0.137   0.028   3.302  0.9379 -0.3061  1.6322
 9161SOL    HW239120   0.199   4.725   3.180  0.5612 -1.5919 -0.5817
 9162SOL     OW39121   3.258   0.122  15.409  0.0152  0.0912 -0.2613
 9162SOL    HW139122   3.279   0.156  15.322  0.4785  3.4317  1.1418
 9162SOL    HW239123   3.170   0.093  15.383 -0.2987  0.5628  0.2761
 9163SOL     OW39124   3.488   2.330  17.180  0.9359 -0.5178  0.1270
 9163SOL    HW139125   3.406   2.336  17.133  0.7494 -0.1201  0.5019
 9163SOL    HW239126   3.492   2.239  17.210 -1.1348 -0.4666  0.4999
 9164SOL     OW39127   0.865   0.266  12.806 -0.0787 -0.0233 -0.2415
 9164SOL    HW139128   0.917   0.328  12.755  0.5514 -1.5385 -1.4270
 9164SOL    HW239129   0.873   0.191  12.748  2.3028  0.5215 -0.6074
 9165SOL     OW39130   1.877   2.909  12.936 -0.1014 -0.3015 -0.0495
 9165SOL    HW139131   1.824   2.837  12.900 -1.1205  0.3745  0.1067
 9165SOL    HW239132   1.811   2.971  12.967  0.8679 -0.0802  1.5277
 9166SOL     OW39133   1.402   3.443   8.387 -0.3980  0.2586 -0.0795
 9166SOL    HW139134   1.421   3.520   8.335  1.4707 -0.7540 -0.9004
 9166SOL    HW239135   1.459   3.377   8.348 -2.3879  0.0425 -2.5714
 9167SOL     OW39136   0.318   3.043   8.244  0.7765 -0.2925 -0.2125
 9167SOL    HW139137   0.302   3.034   8.338  5.3512  0.2982  0.6616
 9167SOL    HW239138   0.371   3.122   8.236  1.0393 -0.5628 -1.1757
 9168SOL     OW39139   0.150   0.008   8.729 -0.2150 -0.0912 -0.1495
 9168SOL    HW139140   0.209   4.670   8.737  1.3304  1.0388 -1.1521
 9168SOL    HW239141   0.072   4.697   8.698 -1.0221  0.5503  0.8895
 9169SOL     OW39142   1.788   3.030   1.586 -0.6426  0.0994 -0.2802
 9169SOL    HW139143   1.796   2.954   1.644  0.1839 -0.5678 -1.2480
 9169SOL    HW239144   1.701   3.019   1.548 -0.2745 -0.2270 -1.0515
 9170SOL     OW39145   0.129   0.868   3.002 -0.0884 -0.8808 -0.9307
 9170SOL    HW139146   0.067   0.806   2.964 -0.1470 -1.8655  0.7716
 9170SOL    HW239147   0.194   0.868   2.931 -1.8512  0.5049 -2.5484
 9171SOL     OW39148   2.721   1.514   0.310  0.1476  0.1530  0.3351
 9171SOL    HW139149   2.640   1.526   0.262 -0.6465 -0.7648  1.4449
 9171SOL    HW239150   2.725   1.420   0.298 -0.3385  0.6400 -3.5931
 9172SOL     OW39151   2.144   3.144   2.876 -0.2721  0.5386  0.5292
 9172SOL    HW139152   2.219   3.186   2.920 -0.3767 -0.4543  1.6864
 9172SOL    HW239153   2.118   3.080   2.943  0.1763  0.1458  0.3272
 9173SOL     OW39154   1.003   2.136  15.309  0.5838  0.1920  0.5498
 9173SOL    HW139155   1.000   2.133  15.213  1.5894  1.3750  0.4944
 9173SOL    HW239156   0.962   2.218  15.337  1.7527  0.0312  2.6384
 9174SOL     OW39157   4.495   2.693   7.508 -0.3131 -0.4725  0.7622
 9174SOL    HW139158   4.490   2.761   7.575 -0.3554  0.5652 -0.2935
 9174SOL    HW239159   4.589   2.673   7.505  0.2174  1.8373  2.2638
 9175SOL     OW39160   3.435   2.960   3.009 -0.1649 -0.1377  0.2648
 9175SOL    HW139161   3.352   2.912   3.014 -1.0034  1.0635 -2.1633
 9175SOL    HW239162   3.436   2.948   2.914  3.1121 -0.9878  0.4182
 9176SOL     OW39163   3.506   2.186   5.313  0.5115  0.0186 -0.1158
 9176SOL    HW139164   3.434   2.240   5.345 -0.3815 -1.1161 -0.1879
 9176SOL    HW239165   3.539   2.150   5.395 -1.6366  0.1626  0.7972
 9177SOL     OW39166   2.238   1.611   4.894  0.1647  0.5425 -0.5248
 9177SOL    HW139167   2.315   1.664   4.913  0.8174 -0.2626 -0.8967
 9177SOL    HW239168   2.225   1.579   4.983 -0.9953 -0.5571 -1.0910
 9178SOL     OW39169   2.357   1.281   6.447 -0.4683  0.3876  0.6349
 9178SOL    HW139170   2.373   1.322   6.532  3.1201 -0.8480  0.5309
 9178SOL    HW239171   2.438   1.232   6.443 -0.2494  0.6531  2.1209
 9179SOL     OW39172   2.090   0.076   6.088 -0.1395 -0.3027  0.2294
 9179SOL    HW139173   2.092   0.172   6.095  0.4353 -0.2589 -0.6217
 9179SOL    HW239174   2.002   0.059   6.122 -0.0261  1.0811  1.2305
 9180SOL     OW39175   3.077   4.217   6.163 -0.0022  0.2827 -0.5204
 9180SOL    HW139176   3.124   4.272   6.100  3.6380 -0.0718  1.8812
 9180SOL    HW239177   2.997   4.208   6.112  0.0573  2.0549 -0.9000
 9181SOL     OW39178   3.530   1.385   3.937 -0.1234  0.1482  0.0503
 9181SOL    HW139179   3.589   1.312   3.952  2.4578  2.7057  2.2938
 9181SOL    HW239180   3.580   1.423   3.865 -0.5861 -0.1268 -0.4145
 9182SOL     OW39181   4.289   2.717   7.902  0.5179  0.4519 -0.7167
 9182SOL    HW139182   4.317   2.753   7.986  0.0977  1.8010 -1.1699
 9182SOL    HW239183   4.200   2.689   7.926  0.6538  0.4934 -0.1621
 9183SOL     OW39184   1.675   0.403   4.573 -0.2069 -0.1616  0.1926
 9183SOL    HW139185   1.695   0.386   4.480  0.6168  2.8034 -0.2042
 9183SOL    HW239186   1.689   0.316   4.609  1.9232  1.2239  2.7427
 9184SOL     OW39187   0.077   1.744   2.658  0.0788  0.3541 -0.5095
 9184SOL    HW139188   0.077   1.727   2.564  0.0712  1.0317 -0.6289
 9184SOL    HW239189   0.156   1.703   2.693 -0.3618 -1.5794 -1.7914
 9185SOL     OW39190   0.727   3.246   2.892 -0.0217 -0.2974 -0.3435
 9185SOL    HW139191   0.669   3.176   2.861 -1.6944  1.3567 -0.9110
 9185SOL    HW239192   0.816   3.214   2.875 -0.2440  0.1078 -2.2294
 9186SOL     OW39193   3.892   0.022   5.538  0.0584 -0.0167  0.4748
 9186SOL    HW139194   3.969   4.725   5.584  0.9051  0.9912 -0.2076
 9186SOL    HW239195   3.926   0.029   5.448  1.0005  2.2404  1.0204
 9187SOL     OW39196   2.802   3.671   3.863 -0.4423 -0.4624  0.7361
 9187SOL    HW139197   2.820   3.756   3.903 -1.3549  0.3029 -0.4769
 9187SOL    HW239198   2.773   3.625   3.943  1.2114 -0.8031  1.1494
 9188SOL     OW39199   0.154   2.219   8.486 -0.5584  0.3082  0.3143
 9188SOL    HW139200   0.238   2.243   8.448  0.9874 -0.5020  3.2653
 9188SOL    HW239201   0.134   2.127   8.465 -0.5915  0.4875 -0.4310
 9189SOL     OW39202   1.769   1.866   0.801  0.1138  0.1064 -0.4838
 9189SOL    HW139203   1.685   1.883   0.843 -0.1518 -2.9911  0.2133
 9189SOL    HW239204   1.826   1.831   0.869 -0.7950 -2.1965 -0.8994
 9190SOL     OW39205   2.655   1.971  11.151 -0.8585  0.3435  0.3984
 9190SOL    HW139206   2.736   1.961  11.202  0.1140  1.1352 -0.9885
 9190SOL    HW239207   2.696   2.018  11.078  1.8990 -2.0567  0.3984
 9191SOL     OW39208   1.632   1.146   7.681 -0.5315 -0.1466 -0.0481
 9191SOL    HW139209   1.687   1.102   7.617  0.3177 -0.6224  1.0048
 9191SOL    HW239210   1.643   1.090   7.758 -1.8443 -1.2087 -0.6360
 9192SOL     OW39211   4.493   2.249   4.491  0.1409  0.1229  0.2745
 9192SOL    HW139212   4.554   2.176   4.492  1.4944  1.2439 -1.2597
 9192SOL    HW239213   4.482   2.251   4.586  2.6688  1.1013  0.5469
 9193SOL     OW39214   2.734   1.876   5.057 -0.0210 -0.0915  0.5301
 9193SOL    HW139215   2.743   1.932   5.133  1.8167 -0.2927  0.4672
 9193SOL    HW239216   2.734   1.942   4.988 -2.5751  0.5814  1.1864
 9194SOL     OW39217   2.957   3.000   0.915  0.2033 -0.0922  0.8450
 9194SOL    HW139218   2.941   3.046   0.998  0.1642  1.2570  0.0975
 9194SOL    HW239219   2.937   3.070   0.853  2.6483 -0.9538 -0.9420
 9195SOL     OW39220   1.563   1.604   5.049  0.2253 -0.0900 -0.2036
 9195SOL    HW139221   1.621   1.539   5.089  0.0807 -0.2064 -0.1801
 9195SOL    HW239222   1.585   1.604   4.956  0.8791 -0.5229 -0.0500
 9196SOL     OW39223   2.182   2.205   4.666 -0.2053  0.0284  0.4595
 9196SOL    HW139224   2.102   2.190   4.614 -1.0153 -2.2251  2.3835
 9196SOL    HW239225   2.162   2.291   4.702  0.1431  0.1488  0.3668
 9197SOL     OW39226   0.020   2.435   5.702 -0.0283  0.4027  0.1819
 9197SOL    HW139227   0.071   2.472   5.774  1.8220 -2.1343  0.1744
 9197SOL    HW239228   4.721   2.513   5.661 -0.2753 -0.2540 -0.8452
 9198SOL     OW39229   2.046   2.351   8.933 -0.4968 -0.7176  0.7577
 9198SOL    HW139230   2.074   2.267   8.970 -0.0351 -0.8016  0.2212
 9198SOL    HW239231   2.051   2.400   9.015 -1.9332 -0.5490  0.7415
 9199SOL     OW39232   2.964   0.391  14.671  0.1422  0.2401 -0.2079
 9199SOL    HW139233   2.893   0.384  14.735 -0.1222  0.0715 -0.5190
 9199SOL    HW239234   2.923   0.457  14.616 -1.8443 -0.3999  0.4693
 9200SOL     OW39235   1.335   0.084   8.326 -0.3785 -0.3535 -0.1930
 9200SOL    HW139236   1.290   0.045   8.251 -0.9438 -1.0119  0.4990
 9200SOL    HW239237   1.337   0.006   8.382 -1.0639  0.3471  0.8072
 9201SOL     OW39238   1.256   2.176   6.651 -0.5140 -0.1177 -0.2627
 9201SOL    HW139239   1.256   2.266   6.617 -0.8698  0.3983  1.0783
 9201SOL    HW239240   1.267   2.188   6.746  1.9993 -0.8271 -0.4680
 9202SOL     OW39241   1.516   4.386   5.567  0.0225 -0.4354 -1.4678
 9202SOL    HW139242   1.567   4.465   5.585 -1.4335  0.0944  0.4306
 9202SOL    HW239243   1.499   4.364   5.659  0.6202  1.4901 -0.8775
 9203SOL     OW39244   1.203   1.754   3.593 -0.2542 -0.3335 -0.0547
 9203SOL    HW139245   1.293   1.787   3.592 -0.4959  0.3461  1.5281
 9203SOL    HW239246   1.177   1.762   3.685 -2.3447  0.0808 -0.6759
 9204SOL     OW39247   3.117   3.158   7.610  0.8682 -0.1484  0.6767
 9204SOL    HW139248   3.119   3.251   7.589 -1.3930 -0.6828 -1.9687
 9204SOL    HW239249   3.145   3.164   7.701 -2.0037 -1.1483  1.6464
 9205SOL     OW39250   3.135   4.633   4.529  0.1881 -0.7024 -0.2861
 9205SOL    HW139251   3.129   4.702   4.463 -0.5991  0.7462  1.3017
 9205SOL    HW239252   3.089   4.564   4.482 -3.0826 -1.3508  3.8617
 9206SOL     OW39253   1.439   2.255   6.058  0.3981 -0.3049  0.5766
 9206SOL    HW139254   1.369   2.191   6.073  1.0263 -0.5553  2.4334
 9206SOL    HW239255   1.476   2.206   5.985  1.8602 -0.0765  1.1560
 9207SOL     OW39256   1.364   0.608   8.162  0.1635  0.2160 -0.1312
 9207SOL    HW139257   1.356   0.543   8.231  0.3767 -0.2514 -0.5418
 9207SOL    HW239258   1.458   0.620   8.155  0.5701 -2.1040  1.2476
 9208SOL     OW39259   0.494   1.328  14.522  0.5566 -0.1043  0.1721
 9208SOL    HW139260   0.417   1.272  14.512  0.4048 -0.0829  1.2738
 9208SOL    HW239261   0.495   1.363  14.611 -2.1302  0.3785  0.0226
 9209SOL     OW39262   0.970   0.964   4.690  0.1286  0.2102 -0.5672
 9209SOL    HW139263   0.904   0.917   4.640 -0.9166  1.3947 -0.2856
 9209SOL    HW239264   1.051   0.967   4.638  1.6360 -1.7457  1.6329
 9210SOL     OW39265   3.695   2.067  13.839  0.5135  0.2118  0.0720
 9210SOL    HW139266   3.617   2.017  13.861 -0.3638  1.1536 -0.9400
 9210SOL    HW239267   3.650   2.150  13.828 -2.3069 -1.3255 -0.0948
 9211SOL     OW39268   4.691   2.881  13.663 -0.1013 -0.1933  0.7179
 9211SOL    HW139269   0.017   2.943  13.700 -0.5586  1.5006 -1.3818
 9211SOL    HW239270   4.690   2.807  13.724  0.3766 -0.2525  0.6539
 9212SOL     OW39271   0.688   1.508   7.351  0.2535 -0.0554  0.1699
 9212SOL    HW139272   0.598   1.537   7.367  0.7123  1.2902  0.3274
 9212SOL    HW239273   0.735   1.567   7.411  1.8819 -1.4052  0.2336
 9213SOL     OW39274   2.390   4.625   2.221  0.5818  0.3368  0.7530
 9213SOL    HW139275   2.447   4.683   2.272 -1.8664  1.2563  2.4437
 9213SOL    HW239276   2.306   4.638   2.266  0.5512 -1.7343  1.3247
 9214SOL     OW39277   2.417   1.845  10.855 -0.4537  0.0751 -0.2353
 9214SOL    HW139278   2.440   1.820  10.944 -1.0951  2.2415  0.5390
 9214SOL    HW239279   2.390   1.760  10.819 -0.3149 -0.0657 -0.0051
 9215SOL     OW39280   4.499   2.243   2.783 -0.2200  0.4882 -0.3570
 9215SOL    HW139281   4.487   2.170   2.722  1.4691  0.0968 -0.2050
 9215SOL    HW239282   4.412   2.281   2.799 -1.5819 -2.9721  0.6020
 9216SOL     OW39283   2.429   2.155  17.640  0.3096 -0.4348 -0.0473
 9216SOL    HW139284   2.446   2.179  17.731 -0.5481 -0.2197  0.0580
 9216SOL    HW239285   2.459   2.065  17.627  1.1457 -0.2462  0.5808
 9217SOL     OW39286   1.897   4.641   4.045 -0.3900 -0.0017  0.4742
 9217SOL    HW139287   1.868   4.678   3.962  0.4958 -0.4132 -0.0244
 9217SOL    HW239288   1.839   4.669   4.116 -2.0626 -2.1333 -0.0616
 9218SOL     OW39289   3.731   2.119  14.934 -0.0367  0.2165  0.1212
 9218SOL    HW139290   3.743   2.136  15.027  1.0705 -1.8040  0.3347
 9218SOL    HW239291   3.814   2.156  14.904  0.7743 -1.1754  0.6546
 9219SOL     OW39292   1.547   2.292   7.759  0.3474  0.1749 -0.2907
 9219SOL    HW139293   1.542   2.379   7.719 -1.0355 -0.0762 -0.6868
 9219SOL    HW239294   1.511   2.307   7.846 -2.1760  0.6283 -1.4092
 9220SOL     OW39295   0.086   2.241   2.437  0.5214  0.3968  0.0456
 9220SOL    HW139296   0.110   2.172   2.499 -1.6671  0.0458  0.5275
 9220SOL    HW239297   0.047   2.201   2.359  3.0747 -0.1062 -0.9793
 9221SOL     OW39298   2.800   1.163   2.962  0.1183 -0.5664 -0.3282
 9221SOL    HW139299   2.804   1.197   2.872  2.6265  1.3952  0.5316
 9221SOL    HW239300   2.860   1.229   2.997  0.0289 -1.3409  1.2723
 9222SOL     OW39301   4.157   3.777   9.008  0.2902 -0.1500 -0.8725
 9222SOL    HW139302   4.160   3.858   9.058 -2.3323 -0.5967  0.0131
 9222SOL    HW239303   4.218   3.722   9.058 -0.8386  0.1586  0.8726
 9223SOL     OW39304   4.098   0.235   5.781 -0.4557  0.0343 -0.1724
 9223SOL    HW139305   4.033   0.166   5.791  0.9292 -1.3230 -0.4091
 9223SOL    HW239306   4.038   0.297   5.740  0.2768  0.2517 -0.9355
 9224SOL     OW39307   1.092   0.973  15.895  0.4752 -0.1652 -0.6574
 9224SOL    HW139308   1.117   0.955  15.986 -0.7279  1.4437  0.0002
 9224SOL    HW239309   1.002   1.005  15.891 -0.1055 -1.8193 -0.8607
 9225SOL     OW39310   1.715   0.742  13.062 -0.1754 -0.0811 -0.4599
 9225SOL    HW139311   1.714   0.743  12.967  1.0806 -0.0276 -0.4631
 9225SOL    HW239312   1.679   0.655  13.082  0.6535  0.3059  2.8040
 9226SOL     OW39313   4.007   3.883   9.693 -0.6757 -0.1372 -0.5413
 9226SOL    HW139314   4.084   3.926   9.730 -1.3363 -0.1596  0.8562
 9226SOL    HW239315   3.970   3.838   9.769  0.5336  0.7515  0.5720
 9227SOL     OW39316   0.498   4.418  16.355  0.1311  0.1256  0.1724
 9227SOL    HW139317   0.442   4.493  16.373  2.2564  0.9140  3.3205
 9227SOL    HW239318   0.419   4.373  16.322  0.4939 -0.7728  0.5241
 9228SOL     OW39319   1.307   4.600   3.945 -0.1326  0.1146 -0.3846
 9228SOL    HW139320   1.220   4.604   3.907 -0.7583 -3.4918  0.6910
 9228SOL    HW239321   1.361   4.589   3.867  0.8972  0.8828  0.2151
 9229SOL     OW39322   0.226   1.364   3.039 -0.0298 -0.2756  0.2549
 9229SOL    HW139323   0.293   1.361   3.107 -1.9286 -0.1299  2.1170
 9229SOL    HW239324   0.212   1.458   3.034 -0.0121 -0.3436 -1.0208
 9230SOL     OW39325   3.404   2.999   8.537 -0.4714 -0.2214 -0.3601
 9230SOL    HW139326   3.449   3.033   8.459 -0.3400 -0.1423 -0.2499
 9230SOL    HW239327   3.311   3.007   8.516  0.2239  1.4079 -2.7499
 9231SOL     OW39328   0.588   2.860   8.119 -0.1696  0.0842 -0.6049
 9231SOL    HW139329   0.537   2.941   8.107  0.8908  1.2333  2.6631
 9231SOL    HW239330   0.632   2.864   8.035  0.0027  1.3656 -0.4626
 9232SOL     OW39331   0.056   4.462   1.008 -0.4361 -0.4973 -0.4980
 9232SOL    HW139332   0.052   4.489   0.917  0.2141 -1.7349 -0.8981
 9232SOL    HW239333   0.151   4.460   1.018 -0.1782  1.4479 -2.6711
 9233SOL     OW39334   2.537   0.137   2.348 -0.1687  0.0841  0.0505
 9233SOL    HW139335   2.628   0.140   2.377  0.2155  3.3294 -1.4637
 9233SOL    HW239336   2.486   0.161   2.426 -0.2078 -1.1397  0.3956
 9234SOL     OW39337   1.940   1.619   9.404 -0.2210  0.2888  0.5995
 9234SOL    HW139338   1.923   1.542   9.350  0.4975  1.0120 -0.6677
 9234SOL    HW239339   1.893   1.590   9.482  0.4256  0.0909  0.9235
 9235SOL     OW39340   4.282   4.091   4.192 -0.7508  0.1559  0.2126
 9235SOL    HW139341   4.239   4.030   4.253  1.0574 -1.0770  0.2365
 9235SOL    HW239342   4.216   4.103   4.124 -0.2234  0.9913 -0.1433
 9236SOL     OW39343   4.067   2.793   2.982  0.1328 -0.7403 -1.0079
 9236SOL    HW139344   4.041   2.841   3.061  0.5072 -1.3864 -0.5005
 9236SOL    HW239345   4.158   2.767   2.999  0.2511  0.7415  0.7018
 9237SOL     OW39346   3.977   3.086   5.570  0.3029 -0.2027 -0.3591
 9237SOL    HW139347   3.931   3.069   5.488  0.6009 -2.3889 -0.0799
 9237SOL    HW239348   4.004   3.170   5.533 -0.3867  1.2549  2.4003
 9238SOL     OW39349   2.742   1.779   7.701  0.2615  0.0457 -0.2130
 9238SOL    HW139350   2.703   1.799   7.786  0.6168 -1.2753  0.2588
 9238SOL    HW239351   2.658   1.769   7.657 -0.6699 -0.5358  1.6991
 9239SOL     OW39352   2.629   4.387  16.159  0.0413  0.5711  0.2447
 9239SOL    HW139353   2.650   4.294  16.165 -0.6069  0.2577 -2.1275
 9239SOL    HW239354   2.714   4.426  16.140  1.5717 -1.1636  3.7103
 9240SOL     OW39355   4.730   4.684   6.879 -0.3096 -0.2456 -0.3385
 9240SOL    HW139356   4.658   4.709   6.822 -0.2879 -1.0730 -0.7211
 9240SOL    HW239357   4.685   4.700   6.962 -1.0190 -1.5602 -0.4772
 9241SOL     OW39358   1.410   1.575   1.101  0.5902  0.1542  0.3919
 9241SOL    HW139359   1.323   1.535   1.105 -0.0381  1.2701 -1.9438
 9241SOL    HW239360   1.465   1.512   1.053 -0.4040  0.1916 -0.7773
 9242SOL     OW39361   3.785   1.170   5.358  0.0212 -0.4090  0.1828
 9242SOL    HW139362   3.746   1.238   5.414 -0.1137 -0.4949  0.1945
 9242SOL    HW239363   3.711   1.149   5.300 -0.1656 -1.0236  0.6428
 9243SOL     OW39364   1.641   4.315   0.799 -0.3058 -0.1802 -0.0785
 9243SOL    HW139365   1.679   4.252   0.861  1.9271 -0.3871 -1.6439
 9243SOL    HW239366   1.629   4.251   0.729  2.9405  0.1510 -0.9411
 9244SOL     OW39367   0.300   3.098   3.873  0.0136 -0.4291  0.1005
 9244SOL    HW139368   0.355   3.135   3.804  1.5319 -2.2085  0.3663
 9244SOL    HW239369   0.306   3.005   3.852  1.8309 -0.3613  0.2792
 9245SOL     OW39370   3.020   0.950   0.697 -0.0872  0.8460  0.1948
 9245SOL    HW139371   2.925   0.936   0.694 -0.1934  1.3517  1.1585
 9245SOL    HW239372   3.043   0.874   0.751 -0.3355  0.9716  0.4831
 9246SOL     OW39373   2.524   4.246   1.485  0.5046 -0.3781  0.0856
 9246SOL    HW139374   2.527   4.288   1.399 -0.1448 -2.3855 -0.9037
 9246SOL    HW239375   2.576   4.309   1.535 -1.5025 -0.7594  2.7191
 9247SOL     OW39376   3.282   3.379   1.682 -0.5241 -0.1843  0.2972
 9247SOL    HW139377   3.295   3.416   1.595 -0.6415 -1.5387 -0.3030
 9247SOL    HW239378   3.331   3.442   1.735  0.1002 -0.5988  0.2017
 9248SOL     OW39379   0.961   0.197   7.803 -0.5905  0.1895  0.2355
 9248SOL    HW139380   0.983   0.151   7.722 -2.2300  1.3490 -0.8576
 9248SOL    HW239381   0.879   0.242   7.786 -0.6207 -0.4240 -1.1850
 9249SOL     OW39382   4.104   1.035   2.483 -0.0206  0.5959  0.5778
 9249SOL    HW139383   4.089   1.120   2.441 -0.4418 -0.4141 -1.3088
 9249SOL    HW239384   4.013   1.007   2.481  0.3333 -0.5826  0.7982
 9250SOL     OW39385   1.597   3.521   3.664  0.4844  0.3986  0.5499
 9250SOL    HW139386   1.628   3.590   3.605  1.6380 -0.3430  0.2876
 9250SOL    HW239387   1.658   3.533   3.737  4.0021  0.2256 -2.3143
 9251SOL     OW39388   3.672   4.264   9.252  0.5391  0.1120  0.3943
 9251SOL    HW139389   3.711   4.177   9.257 -0.9874 -0.7018 -1.9413
 9251SOL    HW239390   3.672   4.273   9.157  0.1726  0.3421  0.4153
 9252SOL     OW39391   1.968   2.467   7.754  0.4019 -0.1520 -0.8000
 9252SOL    HW139392   2.033   2.417   7.803  0.5280 -1.1574 -1.9892
 9252SOL    HW239393   1.931   2.404   7.693 -0.9260 -0.2908  0.1574
 9253SOL     OW39394   2.615   1.060  17.565 -0.2213  0.5885 -0.4161
 9253SOL    HW139395   2.638   0.968  17.547 -1.1540  0.8821 -3.0970
 9253SOL    HW239396   2.578   1.095  17.485  2.2352  1.4769 -1.1571
 9254SOL     OW39397   3.307   0.806   0.465  0.3250 -0.1312  0.3015
 9254SOL    HW139398   3.366   0.762   0.526  2.2040  0.8345 -0.8198
 9254SOL    HW239399   3.239   0.739   0.457 -0.7139  1.1805 -1.8178
 9255SOL     OW39400   3.617   3.767   2.932 -0.6370 -0.5799  0.6354
 9255SOL    HW139401   3.590   3.737   3.019 -1.2216  2.4642  1.5293
 9255SOL    HW239402   3.586   3.693   2.880 -1.1099  0.4716 -0.5859
 9256SOL     OW39403   2.963   2.784   5.120 -0.2668  0.3076  0.0776
 9256SOL    HW139404   2.877   2.742   5.127  1.1544 -2.4601  0.8491
 9256SOL    HW239405   3.021   2.709   5.108 -1.4297 -0.2724 -1.8857
 9257SOL     OW39406   4.320   0.327   4.126  0.1050 -0.0249 -0.4781
 9257SOL    HW139407   4.292   0.299   4.213  0.4600 -0.3282 -0.4642
 9257SOL    HW239408   4.330   0.241   4.086 -0.5552 -0.8944  1.2522
 9258SOL     OW39409   3.076   3.182  11.839 -0.2377  0.4310 -0.7208
 9258SOL    HW139410   2.997   3.234  11.827 -0.1872  0.9381  1.2561
 9258SOL    HW239411   3.075   3.147  11.750  1.2043 -0.3544 -0.4268
 9259SOL     OW39412   0.488   1.132   3.280 -0.6534 -0.0735  0.1036
 9259SOL    HW139413   0.539   1.124   3.199 -1.9845 -0.2751 -0.7061
 9259SOL    HW239414   0.526   1.062   3.333 -0.6935  0.3339  0.6662
 9260SOL     OW39415   0.333   4.087  12.513  0.1644  0.4607  0.8298
 9260SOL    HW139416   0.414   4.051  12.477 -0.4559 -1.6598  1.5437
 9260SOL    HW239417   0.276   4.070  12.438 -2.5445 -0.0789  2.9877
 9261SOL     OW39418   1.115   0.075   5.960  0.2131 -0.2883  0.3496
 9261SOL    HW139419   1.128   0.050   5.869 -2.4736  0.8661 -0.3327
 9261SOL    HW239420   1.182   0.016   5.995 -0.5560 -0.4536  1.5221
 9262SOL     OW39421   2.143   3.045  15.669  0.0206  0.0620 -0.0305
 9262SOL    HW139422   2.205   2.976  15.644  1.1373  1.8770 -2.1753
 9262SOL    HW239423   2.150   3.105  15.595 -2.5672  1.3437  0.7734
 9263SOL     OW39424   1.009   1.935   6.754 -0.3463  0.7106  0.0024
 9263SOL    HW139425   0.991   1.852   6.711 -0.6049  1.3933 -1.1983
 9263SOL    HW239426   1.102   1.938   6.731 -0.9344 -0.1072 -2.4097
 9264SOL     OW39427   4.454   4.709   5.065  0.1020 -0.1541  0.0970
 9264SOL    HW139428   4.433   4.687   4.975 -0.8816 -0.8103  0.4909
 9264SOL    HW239429   4.523   4.646   5.087  0.7612 -0.0147 -1.5796
 9265SOL     OW39430   4.330   1.869   6.070 -0.5469  0.1227 -0.0477
 9265SOL    HW139431   4.349   1.935   6.137 -0.5914 -0.7366  0.8031
 9265SOL    HW239432   4.398   1.885   6.005  0.4834 -0.2261  0.9496
 9266SOL     OW39433   4.423   4.019   4.921  0.1036 -1.0945  0.5220
 9266SOL    HW139434   4.371   3.962   4.864  0.5600 -0.7485 -0.2417
 9266SOL    HW239435   4.502   3.965   4.915  1.7367  1.2771  0.7705
 9267SOL     OW39436   1.728   1.102   6.675  0.3774 -0.0094 -0.2137
 9267SOL    HW139437   1.713   1.063   6.589  0.5677 -1.8004  0.5800
 9267SOL    HW239438   1.656   1.165   6.686 -0.4679 -0.6431 -2.2152
 9268SOL     OW39439   4.128   3.388  15.942 -0.0701 -0.4116 -0.8076
 9268SOL    HW139440   4.189   3.424  15.878  1.1614 -2.1579 -0.6221
 9268SOL    HW239441   4.146   3.294  15.939 -0.7623 -0.6258  1.5629
 9269SOL     OW39442   2.091   2.762  13.553  0.0353 -0.8120 -0.1461
 9269SOL    HW139443   2.136   2.846  13.548 -2.3067  0.3517 -1.5547
 9269SOL    HW239444   2.152   2.698  13.517  3.0877  2.6074 -0.9720
 9270SOL     OW39445   3.051   3.731   4.535  0.3266 -0.1102 -0.2042
 9270SOL    HW139446   3.135   3.729   4.580  0.7317 -1.8703 -1.0669
 9270SOL    HW239447   3.011   3.661   4.586  1.4177  0.2340  1.1520
 9271SOL     OW39448   4.733   1.900  12.436  0.1217 -0.1988 -0.3263
 9271SOL    HW139449   4.671   1.853  12.379 -0.7943  1.7975 -0.9755
 9271SOL    HW239450   0.033   1.831  12.491 -0.8755 -0.4596 -0.0057
 9272SOL     OW39451   4.081   0.664   3.345 -0.7451 -0.3511 -0.2695
 9272SOL    HW139452   4.149   0.660   3.278 -0.7274  0.9261 -0.3353
 9272SOL    HW239453   4.004   0.691   3.296 -0.2082 -1.2540 -1.6006
 9273SOL     OW39454   0.794   0.505   7.197  0.2812  0.2161 -0.4272
 9273SOL    HW139455   0.730   0.534   7.263  0.7016 -0.1625  0.1500
 9273SOL    HW239456   0.833   0.430   7.242  1.0365  0.8906  0.0381
 9274SOL     OW39457   3.331   2.019  14.569 -0.6653 -0.2708 -0.2256
 9274SOL    HW139458   3.396   2.000  14.637  0.8859  0.5426 -1.4869
 9274SOL    HW239459   3.352   2.112  14.564  0.1737 -0.5033 -1.1733
 9275SOL     OW39460   1.267   2.421  11.320  0.0180  0.3221  0.0877
 9275SOL    HW139461   1.298   2.331  11.307  0.4586  0.8347 -2.3735
 9275SOL    HW239462   1.333   2.452  11.382  0.5466  0.2981 -0.4676
 9276SOL     OW39463   3.995   3.173  10.280 -0.3821  0.0465 -0.1622
 9276SOL    HW139464   3.900   3.163  10.283 -0.2413 -0.8339  1.4073
 9276SOL    HW239465   4.009   3.264  10.303  0.1902 -0.9599  3.4458
 9277SOL     OW39466   2.929   3.827   6.097 -0.3090 -0.6540 -0.5792
 9277SOL    HW139467   2.860   3.764   6.074 -2.1681  1.4538 -0.7263
 9277SOL    HW239468   2.999   3.762   6.103 -0.6845 -0.9470  0.8212
 9278SOL     OW39469   0.607   3.283   8.625 -0.1365 -0.3978 -0.2151
 9278SOL    HW139470   0.644   3.196   8.611  3.1564  0.9262  0.2202
 9278SOL    HW239471   0.521   3.255   8.657 -0.1332  0.0764  0.2106
 9279SOL     OW39472   4.109   2.554   3.501  0.3042 -0.3851 -0.5616
 9279SOL    HW139473   4.183   2.494   3.510 -1.0721 -1.9114  0.6465
 9279SOL    HW239474   4.152   2.627   3.547  1.5593 -1.1035 -0.5924
 9280SOL     OW39475   3.819   2.241   6.008 -0.1403  0.1407 -0.0883
 9280SOL    HW139476   3.779   2.270   6.090 -1.6835  0.6829 -1.0489
 9280SOL    HW239477   3.781   2.299   5.942 -1.1013 -0.2917  0.0955
 9281SOL     OW39478   1.058   0.248  15.379  0.0722 -0.0724 -0.1528
 9281SOL    HW139479   1.080   0.304  15.454  2.2265 -1.4515  0.2336
 9281SOL    HW239480   1.145   0.248  15.339  0.2055  1.0529  0.1223
 9282SOL     OW39481   2.007   0.237   0.635 -0.2438  0.5104 -0.3596
 9282SOL    HW139482   2.038   0.326   0.620 -3.6151  1.3014 -2.6031
 9282SOL    HW239483   2.077   0.179   0.606 -1.7915 -1.1588 -0.8124
 9283SOL     OW39484   2.216   0.185   1.698 -0.0758  0.1837 -0.4991
 9283SOL    HW139485   2.207   0.267   1.649 -0.3316  0.9577  0.8546
 9283SOL    HW239486   2.277   0.137   1.642 -1.4958 -0.3866 -1.5938
 9284SOL     OW39487   1.902   4.340   8.292 -0.4753  0.0722 -0.2918
 9284SOL    HW139488   1.824   4.285   8.289  1.1299 -2.2098  0.3315
 9284SOL    HW239489   1.889   4.398   8.367  0.3858  0.3136 -0.3388
 9285SOL     OW39490   3.430   0.805  14.437  0.0545 -0.1450 -0.4811
 9285SOL    HW139491   3.422   0.884  14.384  1.0066 -0.5574 -1.2220
 9285SOL    HW239492   3.390   0.737  14.383 -0.5151  0.6267 -1.0390
 9286SOL     OW39493   0.664   3.087   7.596  0.0370 -0.0948  0.1114
 9286SOL    HW139494   0.589   3.030   7.606 -0.4248  0.1200 -2.0095
 9286SOL    HW239495   0.719   3.039   7.534 -0.9013  0.0334 -0.8254
 9287SOL     OW39496   4.423   3.649   1.648 -0.2771  0.4664 -0.3473
 9287SOL    HW139497   4.331   3.634   1.630  0.2647 -0.4558 -2.3624
 9287SOL    HW239498   4.458   3.640   1.559  1.9196 -0.6589  0.6214
 9288SOL     OW39499   0.257   1.400  13.432 -0.1972 -0.2417  0.1279
 9288SOL    HW139500   0.227   1.456  13.504  1.9571  1.2810 -0.1640
 9288SOL    HW239501   0.184   1.428  13.377 -1.7126  0.6451  2.5923
 9289SOL     OW39502   4.307   1.957   7.612  0.0219  0.2605  0.5410
 9289SOL    HW139503   4.375   2.021   7.592  0.4995  0.4764  2.9523
 9289SOL    HW239504   4.255   2.014   7.669 -0.3436 -0.1660  0.6380
 9290SOL     OW39505   3.212   0.926  11.199 -0.2368 -0.3657  0.1476
 9290SOL    HW139506   3.244   0.914  11.288 -0.5087 -0.0362  0.2904
 9290SOL    HW239507   3.116   0.932  11.205 -0.2447 -0.4401  0.0950
 9291SOL     OW39508   2.221   2.255  15.800  0.8242  0.0069  0.0707
 9291SOL    HW139509   2.173   2.195  15.742  0.7249 -0.7519  0.9321
 9291SOL    HW239510   2.215   2.199  15.878 -0.3009 -0.3462 -0.2719
 9292SOL     OW39511   0.851   3.502   4.890  0.0114 -0.1741 -0.0003
 9292SOL    HW139512   0.781   3.565   4.908 -0.0275 -0.7472  1.8507
 9292SOL    HW239513   0.925   3.562   4.876 -0.4680  0.7753  1.5688
 9293SOL     OW39514   3.093   1.082   1.863  0.4909 -0.3914 -0.3025
 9293SOL    HW139515   3.185   1.079   1.837  1.0729  0.2473  1.6767
 9293SOL    HW239516   3.098   1.153   1.928  1.6968 -0.6252 -0.1428
 9294SOL     OW39517   1.108   0.630   8.450 -0.0381 -0.2758 -0.5695
 9294SOL    HW139518   1.038   0.617   8.386 -0.5039 -0.5912  0.0096
 9294SOL    HW239519   1.053   0.646   8.526  2.1295 -1.7752  1.3098
 9295SOL     OW39520   3.964   2.441  14.141 -0.1996 -0.5335  0.2438
 9295SOL    HW139521   3.987   2.400  14.058 -0.2633 -2.1919  1.0570
 9295SOL    HW239522   3.886   2.491  14.118 -0.2926 -0.9195 -0.2731
 9296SOL     OW39523   3.228   2.912  10.604 -0.2206 -0.6742  0.2670
 9296SOL    HW139524   3.244   2.998  10.642 -0.7212 -1.5740  2.5470
 9296SOL    HW239525   3.312   2.867  10.619 -1.0175 -2.0557  0.6189
 9297SOL     OW39526   2.027   0.775  13.095  0.2404  0.4350 -0.0261
 9297SOL    HW139527   2.011   0.754  13.187  0.0645 -0.5476 -0.2839
 9297SOL    HW239528   1.990   0.691  13.068  0.7734  0.0916  0.3311
 9298SOL     OW39529   2.247   0.758   7.139  0.2486  0.6038 -0.3362
 9298SOL    HW139530   2.298   0.763   7.220 -0.3283  0.7411  0.0169
 9298SOL    HW239531   2.171   0.809   7.166 -0.0746  0.2436 -0.5696
 9299SOL     OW39532   1.380   1.333   0.707  0.3030  0.4487 -0.1738
 9299SOL    HW139533   1.380   1.278   0.785 -1.1220 -2.0179 -1.8998
 9299SOL    HW239534   1.424   1.406   0.750 -1.4618  1.7631 -0.6137
 9300SOL     OW39535   4.067   2.933   9.374 -0.3343 -0.3042 -0.2754
 9300SOL    HW139536   4.048   2.905   9.285  0.4382 -2.7056  0.3098
 9300SOL    HW239537   4.081   2.848   9.416  0.1566  0.2359  0.6613
 9301SOL     OW39538   4.428   4.076   2.652  0.2604 -0.8024  1.2237
 9301SOL    HW139539   4.468   4.004   2.700 -0.9796 -1.7153  0.8966
 9301SOL    HW239540   4.354   4.027   2.615  1.5264 -1.6985 -0.1217
 9302SOL     OW39541   0.522   0.068  11.200 -0.4788 -0.3962  0.0088
 9302SOL    HW139542   0.568   0.076  11.284  1.2037  0.3420 -1.0036
 9302SOL    HW239543   0.600   0.045  11.150 -0.6133  0.6808 -0.7051
 9303SOL     OW39544   0.368   2.052   4.846 -0.3253  0.2620 -0.1538
 9303SOL    HW139545   0.305   2.008   4.904  0.3171 -1.2718 -0.6148
 9303SOL    HW239546   0.400   1.976   4.798  1.6455  1.0720 -0.1106
 9304SOL     OW39547   3.663   4.383   4.300  0.1436  0.4235  0.7650
 9304SOL    HW139548   3.659   4.419   4.389 -0.6232 -0.7628  1.2039
 9304SOL    HW239549   3.603   4.444   4.256  0.8371 -0.1438 -0.9576
 9305SOL     OW39550   1.294   0.791   2.448  0.5682 -0.3490  0.3366
 9305SOL    HW139551   1.244   0.713   2.425  1.5346 -1.2107  1.1330
 9305SOL    HW239552   1.351   0.791   2.371 -1.8003 -1.4255 -1.3910
 9306SOL     OW39553   2.669   1.161   1.346 -0.4565  0.4428 -0.4939
 9306SOL    HW139554   2.575   1.148   1.338 -0.9323  1.6835  3.1835
 9306SOL    HW239555   2.670   1.211   1.427  1.6119 -0.4493  0.0504
 9307SOL     OW39556   4.146   1.930   4.486  0.3950 -0.2917  0.5616
 9307SOL    HW139557   4.191   1.879   4.553  0.4748  0.4141  1.0522
 9307SOL    HW239558   4.088   1.989   4.535  0.9993  2.2961 -1.8135
 9308SOL     OW39559   1.017   3.966   4.809  0.6331 -0.5066  0.4092
 9308SOL    HW139560   0.992   4.013   4.730  0.9384 -0.0214  0.5975
 9308SOL    HW239561   0.944   3.994   4.864  0.3207 -0.1110 -0.2101
 9309SOL     OW39562   4.091   3.829   5.478  0.0856  0.8275 -0.1295
 9309SOL    HW139563   4.152   3.829   5.404 -1.5127  0.0683 -1.4411
 9309SOL    HW239564   4.158   3.815   5.545  1.3114 -1.3412 -1.8030
 9310SOL     OW39565   1.832   1.200  15.936 -0.2124  0.2054  0.5298
 9310SOL    HW139566   1.921   1.226  15.958  0.5607 -2.0321  0.0955
 9310SOL    HW239567   1.845   1.117  15.982  1.1783 -0.3504 -0.8467
 9311SOL     OW39568   4.170   2.914   4.057 -0.7205  0.1088 -0.1540
 9311SOL    HW139569   4.195   2.823   4.071  3.1882  1.0345 -1.2277
 9311SOL    HW239570   4.183   2.906   3.962 -2.6340 -0.7692 -0.3556
 9312SOL     OW39571   2.872   0.363   6.829 -0.3882  0.1319  0.2798
 9312SOL    HW139572   2.859   0.308   6.906 -0.6948 -3.1224 -2.1160
 9312SOL    HW239573   2.874   0.298   6.759  0.3868  0.3562  0.0988
 9313SOL     OW39574   0.676   3.722   4.906 -0.2312  0.2911 -0.1906
 9313SOL    HW139575   0.623   3.792   4.946  0.8330  1.2603 -0.4792
 9313SOL    HW239576   0.748   3.778   4.877  1.5151 -1.8648  0.0607
 9314SOL     OW39577   3.364   4.423   1.794  0.3047  0.3549  0.7092
 9314SOL    HW139578   3.299   4.492   1.781  1.8551  1.6715 -0.1882
 9314SOL    HW239579   3.368   4.361   1.722  0.0689 -1.1104  1.9669
 9315SOL     OW39580   3.773   3.678   4.539  0.1161  0.8603 -0.0416
 9315SOL    HW139581   3.735   3.725   4.613  0.9534 -0.2441  1.0815
 9315SOL    HW239582   3.694   3.639   4.501 -0.9639  1.9615  1.0839
 9316SOL     OW39583   0.514   3.655   7.081  0.1728  0.0365 -0.5214
 9316SOL    HW139584   0.462   3.650   7.000 -1.3695 -1.5339  0.5638
 9316SOL    HW239585   0.508   3.750   7.092 -1.3607  0.2266 -2.8714
 9317SOL     OW39586   0.364   3.750   0.840 -0.2031 -0.1774 -0.0280
 9317SOL    HW139587   0.329   3.690   0.774 -1.3087  0.6211 -0.1479
 9317SOL    HW239588   0.369   3.692   0.917  0.9909  0.5135  0.4244
 9318SOL     OW39589   2.677   1.788  13.788  0.3137  0.2804  0.0102
 9318SOL    HW139590   2.667   1.879  13.818  0.6392  0.0382  0.8444
 9318SOL    HW239591   2.624   1.740  13.851 -0.3617  0.2251 -0.5990
 9319SOL     OW39592   0.140   1.156   2.885  0.1899 -0.5001  0.0727
 9319SOL    HW139593   0.166   1.232   2.937 -1.4215 -1.5648  2.4406
 9319SOL    HW239594   0.098   1.100   2.951 -1.9745 -0.2151 -1.0576
 9320SOL     OW39595   0.784   0.069   7.000  0.4514 -0.4315  0.0803
 9320SOL    HW139596   0.701   0.067   7.048 -0.4217  2.1636 -1.2933
 9320SOL    HW239597   0.838   0.010   7.054  1.1168  0.9804  0.9792
 9321SOL     OW39598   4.300   0.152   5.923 -0.8193  0.0844  0.5106
 9321SOL    HW139599   4.283   0.070   5.969 -0.8089 -1.7821 -2.7788
 9321SOL    HW239600   4.225   0.157   5.864  0.2568  0.8153 -0.7962
 9322SOL     OW39601   2.387   3.708  11.697  0.0136  0.4805 -0.0167
 9322SOL    HW139602   2.456   3.674  11.754  0.4170  0.6414 -0.4092
 9322SOL    HW239603   2.424   3.714  11.609 -2.3086  1.3669 -0.9154
 9323SOL     OW39604   3.900   2.128   3.515  0.2799 -0.1946  0.0304
 9323SOL    HW139605   3.841   2.184   3.466 -0.7631 -0.9929  0.3599
 9323SOL    HW239606   3.954   2.095   3.443 -1.6648 -0.4566 -1.3061
 9324SOL     OW39607   4.658   1.328   5.849  0.5880 -0.4776  0.4333
 9324SOL    HW139608   4.644   1.280   5.768  0.8055 -2.0927  1.3540
 9324SOL    HW239609   4.570   1.332   5.887  0.6011 -2.1032  0.6221
 9325SOL     OW39610   4.358   3.651   7.642 -0.0381  0.0057  0.5031
 9325SOL    HW139611   4.432   3.686   7.692  0.2286 -1.1274  0.8954
 9325SOL    HW239612   4.416   3.626   7.570 -3.1154 -0.0910 -1.9145
 9326SOL     OW39613   1.112   3.656   8.649  0.5609  0.7703 -0.2987
 9326SOL    HW139614   1.172   3.687   8.581  0.1896  0.0865 -0.9423
 9326SOL    HW239615   1.170   3.586   8.681 -0.1096  0.1729 -0.4030
 9327SOL     OW39616   0.082   2.987   4.587 -0.4751 -0.0706  0.0716
 9327SOL    HW139617   0.102   3.039   4.509  1.7862 -0.7640  0.2076
 9327SOL    HW239618   0.058   2.904   4.545  0.1620 -0.1665 -0.0897
 9328SOL     OW39619   0.827   1.568   4.245  0.0345 -0.1523  0.1096
 9328SOL    HW139620   0.922   1.576   4.237  0.1750 -1.2829  0.7571
 9328SOL    HW239621   0.814   1.474   4.250 -1.7500  0.1259  0.8001
 9329SOL     OW39622   2.988   3.651   2.269  0.5895  0.2644  0.3938
 9329SOL    HW139623   2.993   3.589   2.196  0.9506  2.1461 -1.1739
 9329SOL    HW239624   2.931   3.608   2.333 -0.1097 -0.3113 -0.6212
 9330SOL     OW39625   0.179   3.537   6.689 -0.4681 -0.1495  0.1559
 9330SOL    HW139626   0.099   3.486   6.687 -0.1539 -0.6611  0.6052
 9330SOL    HW239627   0.134   3.621   6.677 -1.1567 -0.3983  1.0337
 9331SOL     OW39628   2.129   1.489   3.517  0.5712 -0.0965  0.0840
 9331SOL    HW139629   2.124   1.577   3.553 -0.3180  0.6161 -1.7828
 9331SOL    HW239630   2.123   1.436   3.596  0.5550 -0.1072  0.0758
 9332SOL     OW39631   4.203   1.121   3.584 -0.0690  0.2951  0.6328
 9332SOL    HW139632   4.143   1.193   3.606  0.8741  2.2115 -2.8902
 9332SOL    HW239633   4.242   1.104   3.669  2.3309  0.8498 -0.3614
 9333SOL     OW39634   3.710   1.415   2.488 -0.0934 -0.0533 -0.1244
 9333SOL    HW139635   3.690   1.449   2.401  0.9933  0.2508 -0.2593
 9333SOL    HW239636   3.619   1.411   2.517 -1.0147  2.6687 -2.6926
 9334SOL     OW39637   0.360   1.862   8.200 -0.3390  0.1204  0.4492
 9334SOL    HW139638   0.336   1.851   8.108 -0.9074 -0.3759  0.6532
 9334SOL    HW239639   0.400   1.778   8.224 -1.0704 -0.4392 -0.3224
 9335SOL     OW39640   4.340   3.939  17.115  0.3923  0.1440 -0.3849
 9335SOL    HW139641   4.343   3.848  17.088 -3.4085  0.4356 -1.7803
 9335SOL    HW239642   4.249   3.939  17.143  0.1779 -1.4508 -1.1224
 9336SOL     OW39643   0.712   3.647   6.840  0.3574  0.4393  0.1988
 9336SOL    HW139644   0.701   3.605   6.755 -0.4031  0.3497  0.3487
 9336SOL    HW239645   0.650   3.719   6.833 -1.9849 -1.5541  0.2353
 9337SOL     OW39646   0.285   2.736   4.521  0.4632 -0.0707 -0.0850
 9337SOL    HW139647   0.276   2.651   4.565  1.2492 -0.4377 -0.6294
 9337SOL    HW239648   0.216   2.726   4.455  1.1116 -0.3298 -0.7229
 9338SOL     OW39649   3.721   1.473   6.884  0.4491 -0.3675  0.1179
 9338SOL    HW139650   3.812   1.496   6.898  0.7131  0.8696 -3.4893
 9338SOL    HW239651   3.712   1.437   6.796  1.4605 -1.0852  0.3163
 9339SOL     OW39652   2.370   4.361   0.033  0.2080  0.0897 -0.0517
 9339SOL    HW139653   2.438   4.389  17.716  2.1173 -0.2418  1.8958
 9339SOL    HW239654   2.335   4.287  17.729  0.7639 -0.3198  0.1739
 9340SOL     OW39655   4.165   1.498   8.702 -0.2981 -0.2947 -0.1552
 9340SOL    HW139656   4.212   1.578   8.680 -2.0906  0.7396 -0.1247
 9340SOL    HW239657   4.111   1.489   8.623 -1.3393 -0.8353  0.6164
 9341SOL     OW39658   2.758   1.493   1.456 -0.2510 -0.0094 -0.4047
 9341SOL    HW139659   2.713   1.432   1.514 -0.5127  0.7428  0.1955
 9341SOL    HW239660   2.847   1.463   1.436 -0.4311 -1.0259  0.2968
 9342SOL     OW39661   3.659   0.575   6.989  0.6443 -0.8187 -0.3451
 9342SOL    HW139662   3.607   0.546   6.915  1.6325  0.3254 -1.4872
 9342SOL    HW239663   3.606   0.639   7.037 -0.2001 -0.5893 -1.6011
 9343SOL     OW39664   2.734   0.020   0.390 -0.1724 -0.3627  0.0497
 9343SOL    HW139665   2.805   0.063   0.437  0.4791  0.2685 -1.5467
 9343SOL    HW239666   2.678   4.725   0.461 -0.7033  0.6649  0.0825
 9344SOL     OW39667   1.212   3.497   3.044  0.9263  0.2581  0.0261
 9344SOL    HW139668   1.127   3.480   3.004  0.7121 -1.2002  1.1223
 9344SOL    HW239669   1.280   3.450   2.995  0.8693 -0.7675  0.9374
 9345SOL     OW39670   3.517   3.332   8.509 -0.0230 -0.0077 -0.6294
 9345SOL    HW139671   3.558   3.418   8.509 -1.3212  0.6242 -1.1087
 9345SOL    HW239672   3.581   3.280   8.557  0.3987 -0.0494 -1.2413
 9346SOL     OW39673   3.452   4.448  13.281 -0.0516 -0.0806  0.6455
 9346SOL    HW139674   3.401   4.526  13.305 -4.0113 -2.8913  1.2891
 9346SOL    HW239675   3.496   4.471  13.199 -1.5595 -3.1642 -1.0103
 9347SOL     OW39676   3.300   4.265   8.251 -0.0612  0.6218 -0.0081
 9347SOL    HW139677   3.263   4.179   8.230  0.3384  0.8907 -1.8146
 9347SOL    HW239678   3.276   4.282   8.342 -1.2309 -0.3383 -0.1328
 9348SOL     OW39679   4.167   0.482   4.785 -0.4539 -0.2867 -0.7328
 9348SOL    HW139680   4.234   0.420   4.814 -0.1246  0.3172 -0.2229
 9348SOL    HW239681   4.135   0.501   4.873  2.4471 -2.0387  0.7132
 9349SOL     OW39682   1.248   2.810  12.194  0.2617 -0.0415  0.3222
 9349SOL    HW139683   1.316   2.851  12.247  2.4627  1.2455 -3.5043
 9349SOL    HW239684   1.180   2.876  12.183  0.3436  0.1785  1.0885
 9350SOL     OW39685   3.456   2.694   4.710  0.1198 -0.4661 -0.6023
 9350SOL    HW139686   3.365   2.710   4.733 -0.2302 -0.3520 -2.1257
 9350SOL    HW239687   3.465   2.757   4.638  0.8361  1.0102  0.7657
 9351SOL     OW39688   1.409   2.803  11.113 -0.2830 -0.0441 -0.2476
 9351SOL    HW139689   1.485   2.756  11.149  0.0868  0.4868 -0.3339
 9351SOL    HW239690   1.410   2.892  11.150 -0.6149 -1.4754  3.1635
 9352SOL     OW39691   0.276   1.201   4.413  0.0287  0.0914  0.4207
 9352SOL    HW139692   0.341   1.205   4.343 -0.3748 -3.0509 -0.1022
 9352SOL    HW239693   0.192   1.202   4.366  0.2095  0.9843  0.1181
 9353SOL     OW39694   4.320   0.543   8.969  0.1891 -0.5583  0.3699
 9353SOL    HW139695   4.264   0.466   8.970 -0.0490 -0.3821  0.6781
 9353SOL    HW239696   4.328   0.561   8.875 -1.4922  0.0971  0.3513
 9354SOL     OW39697   1.849   2.454   1.915  0.4936  0.8239 -0.3999
 9354SOL    HW139698   1.908   2.457   1.990  0.1021  2.8697 -0.1637
 9354SOL    HW239699   1.921   2.488   1.861  0.9201  0.2299 -0.1997
 9355SOL     OW39700   1.227   1.852  16.506  0.0669 -0.0137  0.3338
 9355SOL    HW139701   1.135   1.876  16.496  0.6241  1.2143 -1.9612
 9355SOL    HW239702   1.253   1.843  16.414  1.6213  0.7582  0.6968
 9356SOL     OW39703   3.516   3.948  14.875  0.1809  0.3675  0.4752
 9356SOL    HW139704   3.592   3.982  14.828 -2.3935 -0.8599 -4.5534
 9356SOL    HW239705   3.561   3.936  14.959  2.3917 -4.8102 -1.5010
 9357SOL     OW39706   0.781   4.233   2.393 -0.0436  0.5445  0.1580
 9357SOL    HW139707   0.850   4.291   2.363 -0.3178  0.7672 -0.0451
 9357SOL    HW239708   0.708   4.295   2.383  0.4652  1.0912 -0.1769
 9358SOL     OW39709   0.184   0.195  16.602  0.1991  0.0426  0.0415
 9358SOL    HW139710   0.184   0.155  16.689 -1.3045  1.8699  0.8923
 9358SOL    HW239711   0.186   0.117  16.547  0.0678 -0.1990  0.3733
 9359SOL     OW39712   4.476   0.146  13.914 -0.0307  0.3522  0.2469
 9359SOL    HW139713   4.396   0.182  13.875 -0.3187 -0.8093 -0.2376
 9359SOL    HW239714   4.520   0.121  13.833 -0.4183 -0.5991  0.3281
 9360SOL     OW39715   4.089   1.469   0.217  0.1503  0.1505 -0.1131
 9360SOL    HW139716   4.174   1.512   0.206 -0.0831  0.7064  0.2978
 9360SOL    HW239717   4.073   1.480   0.311 -0.2746  1.2622 -0.3127
 9361SOL     OW39718   1.320   3.444  13.855  0.0812 -0.1543 -0.3032
 9361SOL    HW139719   1.381   3.389  13.806  2.0314 -0.0358  1.9851
 9361SOL    HW239720   1.240   3.392  13.848  0.0048 -0.0514 -0.1961
 9362SOL     OW39721   0.293   2.195   5.476  0.1642 -0.0177 -0.1225
 9362SOL    HW139722   0.274   2.277   5.521  3.3342  1.7457 -1.9475
 9362SOL    HW239723   0.301   2.228   5.386 -2.9215  3.0550  0.7277
 9363SOL     OW39724   1.485   2.507   2.905 -0.1625 -0.0728  0.4319
 9363SOL    HW139725   1.417   2.548   2.959  1.7088  0.2767  2.5586
 9363SOL    HW239726   1.516   2.589   2.865 -0.8270 -0.8574 -1.6379
 9364SOL     OW39727   3.109   1.650   8.059  0.3578  0.2241 -0.4952
 9364SOL    HW139728   3.156   1.732   8.044  0.6333 -0.2177 -2.0153
 9364SOL    HW239729   3.038   1.647   7.995 -0.6752  0.4370  0.6302
 9365SOL     OW39730   0.580   0.041   7.775 -0.0531  0.2654  0.3284
 9365SOL    HW139731   0.629   4.700   7.747 -2.7856 -1.0017 -0.9401
 9365SOL    HW239732   0.541   0.066   7.691 -0.2010  0.6827  0.5251
 9366SOL     OW39733   4.601   0.841  17.513 -0.4979 -0.2100 -0.5653
 9366SOL    HW139734   4.628   0.784  17.442 -2.1835 -1.9480  0.1767
 9366SOL    HW239735   4.649   0.805  17.588  0.1437 -0.3688 -1.0514
 9367SOL     OW39736   0.575   0.919   0.049  0.3707  0.0071 -0.1245
 9367SOL    HW139737   0.624   0.840   0.024 -0.2618 -0.5838  0.5270
 9367SOL    HW239738   0.617   0.977  17.729 -0.6751  1.4637  0.5224
 9368SOL     OW39739   2.548   1.712   6.290  0.1071  0.1921 -0.1004
 9368SOL    HW139740   2.454   1.726   6.278 -0.1100 -1.4925 -0.4529
 9368SOL    HW239741   2.578   1.772   6.357 -1.3742  0.4677  0.3248
 9369SOL     OW39742   2.042   3.203   8.448 -0.0847 -0.0704 -0.3372
 9369SOL    HW139743   2.033   3.166   8.536 -0.6764 -0.4026 -0.5389
 9369SOL    HW239744   2.000   3.139   8.391  0.8897 -1.7693  0.8609
 9370SOL     OW39745   0.451   1.906   3.179  0.5006 -0.5628  0.0796
 9370SOL    HW139746   0.509   1.968   3.224 -0.9915  0.0560  1.1496
 9370SOL    HW239747   0.403   1.882   3.258 -1.4569 -3.0111 -1.8835
 9371SOL     OW39748   3.784   1.858  14.902  0.2005  0.2301 -0.0246
 9371SOL    HW139749   3.756   1.948  14.919 -0.8523 -0.1464  0.2846
 9371SOL    HW239750   3.745   1.838  14.817  0.7874 -0.7165 -0.0639
 9372SOL     OW39751   3.309   0.734   9.227 -0.1017 -0.4860  0.1254
 9372SOL    HW139752   3.267   0.759   9.145  0.2190  1.3571  0.5239
 9372SOL    HW239753   3.379   0.799   9.216 -2.1669  1.5784 -0.7473
 9373SOL     OW39754   2.728   3.868   1.172  0.2294  0.5429  0.9102
 9373SOL    HW139755   2.668   3.916   1.116 -0.5229  2.0910  3.0263
 9373SOL    HW239756   2.730   3.927   1.247 -1.6764  0.1627  1.2619
 9374SOL     OW39757   4.490   0.314   3.690 -0.3954 -0.0023  0.2121
 9374SOL    HW139758   4.491   0.319   3.594  1.1082 -2.9401  0.0761
 9374SOL    HW239759   4.448   0.397   3.710 -2.3223 -0.7709 -0.6896
 9375SOL     OW39760   2.136   1.324   4.496 -0.2447 -0.2321  0.4929
 9375SOL    HW139761   2.160   1.281   4.578 -0.4041  1.9694  1.7109
 9375SOL    HW239762   2.074   1.392   4.522 -1.3976 -2.1883  2.8109
 9376SOL     OW39763   4.066   1.093   8.609  0.6539 -0.8594  0.2831
 9376SOL    HW139764   3.998   1.160   8.619  0.3291 -1.2651  0.7751
 9376SOL    HW239765   4.127   1.132   8.547  0.8508 -1.0961  0.3291
 9377SOL     OW39766   1.037   2.083  12.772  0.2691  0.6600  0.0375
 9377SOL    HW139767   1.084   1.999  12.773  1.5377  1.3717  0.0846
 9377SOL    HW239768   1.095   2.140  12.722 -0.2693  1.4802  0.3552
 9378SOL     OW39769   3.431   4.045   4.611 -0.4048 -0.0723 -0.1803
 9378SOL    HW139770   3.399   3.962   4.577 -0.8208 -0.8438  2.0782
 9378SOL    HW239771   3.377   4.107   4.561  1.0169  1.2906 -0.0427
 9379SOL     OW39772   0.878   0.708   4.938 -0.4137  0.0319 -0.6816
 9379SOL    HW139773   0.943   0.776   4.951  0.4639 -0.8146 -0.6405
 9379SOL    HW239774   0.808   0.741   4.995  1.7725 -1.2698  2.7426
 9380SOL     OW39775   2.872   0.281  13.365 -0.5454  0.5194  0.2068
 9380SOL    HW139776   2.835   0.202  13.405 -2.0316  1.8792  1.5491
 9380SOL    HW239777   2.955   0.293  13.412  0.9764  0.4009 -2.4328
 9381SOL     OW39778   3.910   3.891   4.414 -0.0698 -1.2154 -0.3887
 9381SOL    HW139779   3.830   3.931   4.378  0.9636  0.0602 -1.2600
 9381SOL    HW239780   3.863   3.833   4.475  3.1246 -1.0921  2.2051
 9382SOL     OW39781   3.246   4.733  14.465 -0.2884 -0.1945 -0.3621
 9382SOL    HW139782   3.283   4.653  14.501 -1.2827 -0.7641 -0.6270
 9382SOL    HW239783   3.299   0.000  14.385  1.0631 -1.8347  0.4630
 9383SOL     OW39784   0.258   0.381   2.526  0.1914 -0.0970 -0.3814
 9383SOL    HW139785   0.345   0.358   2.559  0.4958 -1.4422 -2.1327
 9383SOL    HW239786   0.267   0.447   2.458  3.3099  1.1538  1.2245
 9384SOL     OW39787   3.734   3.216   6.908  0.3174 -0.5163 -0.0457
 9384SOL    HW139788   3.788   3.243   6.834  0.1796 -1.5418 -0.5193
 9384SOL    HW239789   3.800   3.190   6.972  0.7323  2.1855  0.6312
 9385SOL     OW39790   4.530   1.100  17.554 -0.0502  0.5011  0.8652
 9385SOL    HW139791   4.569   1.016  17.530 -0.2969  0.0306  2.0876
 9385SOL    HW239792   4.605   1.159  17.552 -0.9286  1.5147 -2.0728
 9386SOL     OW39793   3.141   3.321  12.071  0.6031 -0.5643  0.3449
 9386SOL    HW139794   3.120   3.255  12.004 -1.4579 -1.0215  1.4284
 9386SOL    HW239795   3.183   3.378  12.007 -1.4819  0.9050  0.3020
 9387SOL     OW39796   4.224   2.445  16.876 -0.8113 -0.5449 -0.1929
 9387SOL    HW139797   4.184   2.533  16.877 -1.0048 -0.6374  0.1685
 9387SOL    HW239798   4.218   2.426  16.782 -0.9453  0.9132 -0.4943
 9388SOL     OW39799   1.755   0.655   1.662  0.1336  0.1246  0.1452
 9388SOL    HW139800   1.824   0.719   1.684  2.0060 -2.1111  0.7590
 9388SOL    HW239801   1.716   0.645   1.749 -0.0565 -0.7855 -0.0513
 9389SOL     OW39802   2.187   2.131   1.373 -0.2818  0.2010  0.1663
 9389SOL    HW139803   2.283   2.138   1.375 -0.2444 -0.1131 -0.3775
 9389SOL    HW239804   2.179   2.044   1.333  1.1708  0.1159  0.0485
 9390SOL     OW39805   2.961   2.796  10.700  0.1445  0.0502  0.0180
 9390SOL    HW139806   2.982   2.765  10.787 -0.5215 -1.6608 -0.4334
 9390SOL    HW239807   3.043   2.842  10.686 -0.8006  2.7324  3.3784
 9391SOL     OW39808   0.994   0.974   1.700  0.5835  0.4408 -0.3126
 9391SOL    HW139809   1.006   0.880   1.713  1.1117  0.6413  0.6423
 9391SOL    HW239810   1.081   1.013   1.712  0.2099  0.0067  3.7813
 9392SOL     OW39811   3.034   4.553  14.766  0.2287  0.2349 -0.2866
 9392SOL    HW139812   2.940   4.535  14.766 -0.0808  1.7789  0.0591
 9392SOL    HW239813   3.057   4.635  14.811  1.0999  0.3099 -0.8754
 9393SOL     OW39814   0.455   1.119  11.388  0.1153 -0.4682  0.0465
 9393SOL    HW139815   0.417   1.114  11.476  0.1085  0.7730  0.1112
 9393SOL    HW239816   0.385   1.087  11.332  0.0754  0.7010 -0.5822
 9394SOL     OW39817   3.179   4.030   3.172  0.6497 -0.1892 -0.1611
 9394SOL    HW139818   3.238   4.009   3.244  1.2277 -0.0210 -0.5882
 9394SOL    HW239819   3.240   4.054   3.102  3.1049 -4.0866  0.6843
 9395SOL     OW39820   4.407   0.808   4.942  0.6830 -0.0024 -0.3381
 9395SOL    HW139821   4.344   0.808   4.870  0.6396 -0.8686 -0.2928
 9395SOL    HW239822   4.493   0.800   4.899  0.7696  2.2868 -0.5922
 9396SOL     OW39823   0.907   0.651   0.886  0.0685 -0.0763  0.3428
 9396SOL    HW139824   0.985   0.604   0.855 -0.9101 -1.0610 -0.6056
 9396SOL    HW239825   0.862   0.666   0.803 -1.1505 -1.0210  0.8362
 9397SOL     OW39826   2.183   4.483   8.360  0.2799 -0.2522  0.6168
 9397SOL    HW139827   2.173   4.388   8.354 -0.9976  0.0360 -1.8216
 9397SOL    HW239828   2.227   4.492   8.275  1.5367  1.2897  1.4282
 9398SOL     OW39829   4.453   2.491   5.071 -0.5959  0.2684 -0.6678
 9398SOL    HW139830   4.420   2.431   5.138 -1.1060 -0.5904 -1.6865
 9398SOL    HW239831   4.544   2.496   5.100 -1.6699  3.0689  2.1645
 9399SOL     OW39832   1.886   2.232   4.597  0.2502 -0.1113 -0.6265
 9399SOL    HW139833   1.894   2.315   4.550 -0.3935 -0.9314 -2.1826
 9399SOL    HW239834   1.828   2.269   4.663  1.6297 -0.5610  0.8545
 9400SOL     OW39835   0.781   2.940  12.268  0.2864 -0.5543 -0.0597
 9400SOL    HW139836   0.698   2.928  12.313  0.5898 -0.2648  0.5814
 9400SOL    HW239837   0.827   2.884  12.330  0.6338 -0.9599 -0.6874
 9401SOL     OW39838   0.411   3.656   6.819  0.6460 -0.1932 -0.0522
 9401SOL    HW139839   0.400   3.749   6.796 -0.7912 -0.0636  1.2380
 9401SOL    HW239840   0.327   3.623   6.787  1.6934 -1.7983 -1.1747
 9402SOL     OW39841   1.470   2.039   8.530  0.2421 -0.0001  0.1138
 9402SOL    HW139842   1.548   2.027   8.476  0.0726  1.8348 -0.5176
 9402SOL    HW239843   1.484   2.122   8.576 -1.7209 -1.4176  3.3317
 9403SOL     OW39844   4.564   3.488   8.315 -0.0695 -0.3725  0.2230
 9403SOL    HW139845   4.526   3.427   8.377 -2.2515  0.0880 -0.6698
 9403SOL    HW239846   4.636   3.511   8.374  1.6614 -2.1396 -1.2272
 9404SOL     OW39847   4.591   1.375   3.877  0.0613 -0.0414 -0.0363
 9404SOL    HW139848   4.595   1.380   3.781 -1.1959 -1.7792 -0.1873
 9404SOL    HW239849   4.676   1.411   3.903  0.0135  1.3495 -1.7944
 9405SOL     OW39850   3.947   4.115   9.553 -0.4033 -0.5036 -0.2193
 9405SOL    HW139851   3.997   4.033   9.563 -0.8363 -0.6464  0.7956
 9405SOL    HW239852   3.884   4.103   9.624 -2.6967 -0.6234 -2.2857
 9406SOL     OW39853   3.989   4.684  16.487  0.0975 -0.1870 -0.3008
 9406SOL    HW139854   3.900   4.718  16.477  0.7262  0.3590 -4.0229
 9406SOL    HW239855   4.040   0.019  16.448 -1.2555  1.0708  0.1973
 9407SOL     OW39856   1.069   2.855   4.926  0.2253 -0.2038 -0.4359
 9407SOL    HW139857   1.030   2.916   4.863  0.7403 -0.5111 -1.0510
 9407SOL    HW239858   1.061   2.897   5.011  0.1576 -0.9305 -0.0790
 9408SOL     OW39859   3.051   1.211   8.197 -0.4735 -0.1133  0.2132
 9408SOL    HW139860   3.142   1.182   8.203 -0.6656 -0.7377  0.0484
 9408SOL    HW239861   3.027   1.152   8.125  0.6102 -0.6266  0.2723
 9409SOL     OW39862   4.237   0.909   4.728  0.1745 -0.0533 -0.5811
 9409SOL    HW139863   4.172   0.887   4.662  1.1182 -0.1443 -1.4935
 9409SOL    HW239864   4.305   0.955   4.677  0.7513 -0.6725 -0.3640
 9410SOL     OW39865   3.022   3.943  15.872  0.2211  0.0611  0.3213
 9410SOL    HW139866   3.033   3.866  15.817 -0.9515  0.6004 -0.6555
 9410SOL    HW239867   3.060   4.004  15.809  3.3891 -0.1102  2.0833
 9411SOL     OW39868   1.831   2.710   4.753  0.8355 -0.5872 -0.0715
 9411SOL    HW139869   1.911   2.669   4.720  1.8496 -0.4343  2.2301
 9411SOL    HW239870   1.867   2.786   4.798  0.8119 -0.7183  0.1655
 9412SOL     OW39871   2.717   2.685   5.158  0.5363 -0.0473 -0.8370
 9412SOL    HW139872   2.627   2.654   5.163 -0.4997  3.2902  1.4216
 9412SOL    HW239873   2.759   2.620   5.214  3.1856 -0.7518 -3.6231
 9413SOL     OW39874   3.402   3.121   8.809 -0.5783 -0.0580 -0.2706
 9413SOL    HW139875   3.432   3.048   8.863  1.9474  0.6820 -0.6582
 9413SOL    HW239876   3.425   3.090   8.722  1.1273 -0.9823  0.4956
 9414SOL     OW39877   1.971   2.326  16.895 -0.0787  0.0584 -0.3071
 9414SOL    HW139878   1.910   2.254  16.913  0.6318 -0.1445  1.2214
 9414SOL    HW239879   1.916   2.380  16.837 -1.7364  0.3942  1.5803
 9415SOL     OW39880   3.308   4.714  15.637 -0.8430 -0.4282  0.2335
 9415SOL    HW139881   3.261   4.635  15.662 -0.6572 -0.5460  0.2165
 9415SOL    HW239882   3.260   0.012  15.562 -1.5382 -0.0884  0.8457
 9416SOL     OW39883   1.342   4.438   5.350 -0.0082  0.0840 -0.1684
 9416SOL    HW139884   1.400   4.397   5.415 -1.2647 -2.2002 -0.4996
 9416SOL    HW239885   1.325   4.524   5.387 -0.7046 -0.1167 -0.0238
 9417SOL     OW39886   0.127   0.773   2.431  0.5819 -0.2570 -0.2164
 9417SOL    HW139887   0.178   0.854   2.434  1.6673 -0.9629  0.1324
 9417SOL    HW239888   0.184   0.714   2.381  0.2007 -1.1788  0.4483
 9418SOL     OW39889   0.855   4.206   8.693  0.3486  0.4045  0.1308
 9418SOL    HW139890   0.860   4.273   8.762 -1.8887 -1.0057  1.6910
 9418SOL    HW239891   0.874   4.252   8.612  1.9407 -1.0454 -0.3357
 9419SOL     OW39892   1.945   1.259   8.939  0.6680  0.0112  0.0713
 9419SOL    HW139893   1.965   1.270   8.846 -1.2453  0.1323 -0.3333
 9419SOL    HW239894   2.020   1.292   8.988  1.1836  0.3994 -0.9864
 9420SOL     OW39895   4.456   2.754  13.506  0.4401 -0.3963 -0.2117
 9420SOL    HW139896   4.541   2.721  13.478  0.2529 -0.2491 -0.9497
 9420SOL    HW239897   4.463   2.778  13.599 -0.5052  0.6304 -0.4047
 9421SOL     OW39898   3.310   1.049  14.255  0.6600 -0.1265  0.2125
 9421SOL    HW139899   3.256   1.099  14.194  0.5108 -1.2300 -0.5720
 9421SOL    HW239900   3.244   0.990  14.290  1.5029 -0.7696  0.7116
 9422SOL     OW39901   3.082   1.783   1.955 -0.2512  0.1553  0.2777
 9422SOL    HW139902   3.164   1.738   1.977 -0.0998  0.4261  0.2613
 9422SOL    HW239903   3.087   1.780   1.859 -3.5062 -0.6307  0.1280
 9423SOL     OW39904   2.164   0.727   2.474 -0.2328  0.5909  0.2853
 9423SOL    HW139905   2.146   0.723   2.568 -0.3423  0.1546  0.2431
 9423SOL    HW239906   2.150   0.639   2.441 -2.3680  1.6612 -1.6589
 9424SOL     OW39907   1.081   1.186   6.278  0.1847  0.4591 -0.0767
 9424SOL    HW139908   1.139   1.156   6.208 -0.8672  0.8435 -1.1294
 9424SOL    HW239909   0.999   1.174   6.229 -0.6259  0.4726  1.2823
 9425SOL     OW39910   1.301   2.306   7.929 -0.7105 -0.3375  0.2029
 9425SOL    HW139911   1.331   2.322   8.019 -0.7658 -0.5877  0.2663
 9425SOL    HW239912   1.233   2.373   7.927  0.7737  1.1954  0.7303
 9426SOL     OW39913   1.707   0.337   0.186  0.2885 -0.3199 -0.5018
 9426SOL    HW139914   1.690   0.260   0.132  1.8990  0.4687 -2.1453
 9426SOL    HW239915   1.729   0.296   0.269  0.2891  1.4763  0.3738
 9427SOL     OW39916   4.020   3.227   6.429  0.1813 -0.2098  0.3157
 9427SOL    HW139917   3.930   3.201   6.451  0.4185  0.0005  1.5672
 9427SOL    HW239918   4.045   3.278   6.506  1.7625  2.5128 -2.0166
 9428SOL     OW39919   3.976   1.803   5.423  0.2661 -0.2766  0.6863
 9428SOL    HW139920   3.960   1.747   5.498 -1.0919  0.7680  1.1839
 9428SOL    HW239921   3.922   1.880   5.441  1.1676  0.4668  0.2383
 9429SOL     OW39922   0.088   2.927   4.110 -0.6596  0.5768 -0.3542
 9429SOL    HW139923   0.003   2.928   4.155 -0.6530 -1.1918 -0.3240
 9429SOL    HW239924   0.096   3.019   4.082  0.8297  0.3201 -0.7379
 9430SOL     OW39925   1.213   0.602   6.043  0.1155 -0.1659  0.1626
 9430SOL    HW139926   1.190   0.514   6.014  0.1866  0.1361 -0.8328
 9430SOL    HW239927   1.308   0.595   6.055  0.0161  0.2950  1.2297
 9431SOL     OW39928   0.741   4.165   5.381  0.3458  0.5604  0.1136
 9431SOL    HW139929   0.751   4.245   5.329 -0.5337  2.1815  2.4739
 9431SOL    HW239930   0.833   4.143   5.396 -0.2669 -1.5218  0.8299
 9432SOL     OW39931   1.603   2.832   4.604 -0.0640  0.0518  0.1133
 9432SOL    HW139932   1.656   2.789   4.670 -2.4297 -1.6300  0.9061
 9432SOL    HW239933   1.518   2.803   4.636  0.7954 -0.9488  1.4717
 9433SOL     OW39934   4.410   2.682   3.446  0.3669  0.2881  0.0758
 9433SOL    HW139935   4.372   2.609   3.495  1.9588  0.1226  1.0786
 9433SOL    HW239936   4.417   2.742   3.520  1.7355  2.9369 -2.2027
 9434SOL     OW39937   3.108   2.059   8.779  0.1633 -0.0949 -0.3537
 9434SOL    HW139938   3.161   2.077   8.701  0.6399  0.5043  0.0988
 9434SOL    HW239939   3.041   2.005   8.739 -0.2330 -1.2630  1.9013
 9435SOL     OW39940   2.418   2.644   7.531  0.2904  0.6117 -0.1005
 9435SOL    HW139941   2.418   2.718   7.469 -2.2124  0.5442 -0.1690
 9435SOL    HW239942   2.508   2.633   7.562 -0.3946 -0.5728  1.4654
 9436SOL     OW39943   2.793   3.011  12.321  0.0759  0.1471  0.2569
 9436SOL    HW139944   2.857   3.021  12.391  0.4495 -1.1975  0.1131
 9436SOL    HW239945   2.797   3.099  12.284  0.3197  0.6024  1.3696
 9437SOL     OW39946   3.451   0.212  14.010 -0.1177  0.2953  0.5412
 9437SOL    HW139947   3.498   0.233  13.930  0.1614  0.5363  0.7662
 9437SOL    HW239948   3.461   0.294  14.058  0.2971  1.2540 -1.1914
 9438SOL     OW39949   2.762   0.541  15.779 -0.4048  0.0960  0.3502
 9438SOL    HW139950   2.692   0.605  15.765 -2.3054 -1.6396  1.9400
 9438SOL    HW239951   2.841   0.588  15.753 -0.1411 -0.5113  0.0482
 9439SOL     OW39952   2.193   2.001  16.749  0.3090 -0.3789  0.3825
 9439SOL    HW139953   2.264   1.941  16.773 -1.3536 -1.9181  1.4017
 9439SOL    HW239954   2.139   1.945  16.693  0.2497  1.3316 -1.2785
 9440SOL     OW39955   2.899   1.630   7.016  0.2955 -0.0071 -0.1511
 9440SOL    HW139956   2.846   1.612   6.938  1.4408 -1.3497 -0.5986
 9440SOL    HW239957   2.957   1.696   6.978  0.3284  0.2274  0.3016
 9441SOL     OW39958   0.256   4.295   5.323 -0.1813 -0.2728 -0.1120
 9441SOL    HW139959   0.205   4.368   5.359 -2.4241 -2.2706  0.7184
 9441SOL    HW239960   0.312   4.290   5.400  0.7281 -1.2824 -0.8377
 9442SOL     OW39961   4.687   2.650   8.275  0.0565 -0.5715 -0.3919
 9442SOL    HW139962   0.040   2.679   8.293  0.0134 -0.6867  0.0119
 9442SOL    HW239963   4.683   2.572   8.330 -0.0743  0.1424  0.6003
 9443SOL     OW39964   1.411   2.644   6.652 -0.2679 -0.1405 -0.2153
 9443SOL    HW139965   1.446   2.732   6.667  2.7598 -1.0502 -1.9215
 9443SOL    HW239966   1.482   2.609   6.598  0.5279 -0.3388  0.9283
 9444SOL     OW39967   4.106   4.460   5.830 -0.2158 -0.3773 -0.2407
 9444SOL    HW139968   4.070   4.384   5.877  0.5603 -0.4504  0.2305
 9444SOL    HW239969   4.171   4.407   5.783 -1.3894 -0.6432 -1.5991
 9445SOL     OW39970   3.645   4.611   5.781 -0.1524  0.1145  0.6121
 9445SOL    HW139971   3.578   4.580   5.842  0.2982 -1.5015  0.2921
 9445SOL    HW239972   3.720   4.614   5.841  0.3341  0.3041 -0.0049
 9446SOL     OW39973   4.257   2.332  14.261  0.5074  0.0305  0.3329
 9446SOL    HW139974   4.205   2.379  14.327 -0.0523  1.1470 -0.8918
 9446SOL    HW239975   4.197   2.330  14.187 -0.5380  1.2591  1.1347
 9447SOL     OW39976   1.206   1.099   8.022 -0.4615 -0.5428  0.3458
 9447SOL    HW139977   1.237   1.182   7.987 -1.7336 -0.3747 -0.3665
 9447SOL    HW239978   1.192   1.110   8.116 -1.2479  1.5862 -0.0227
 9448SOL     OW39979   3.039   1.075   8.902  0.0914 -0.6623  0.1850
 9448SOL    HW139980   3.121   1.077   8.853 -0.7041  0.1030 -1.0948
 9448SOL    HW239981   2.994   1.136   8.844 -2.6111 -1.4342  1.4424
 9449SOL     OW39982   0.988   1.841   3.787  0.2267  0.5176 -0.6555
 9449SOL    HW139983   0.912   1.786   3.803 -0.2927  0.8212 -2.0647
 9449SOL    HW239984   1.013   1.861   3.877 -1.0677  1.2416 -0.4526
 9450SOL     OW39985   1.901   4.246  12.285 -0.3138 -0.4337  0.3783
 9450SOL    HW139986   1.862   4.269  12.201  1.6209  2.9417  0.4216
 9450SOL    HW239987   1.945   4.165  12.259  0.1619  0.1483 -0.6519
 9451SOL     OW39988   3.491   0.799   5.613  0.1129 -0.3026  0.4973
 9451SOL    HW139989   3.582   0.830   5.612 -0.0051  0.0452  0.7064
 9451SOL    HW239990   3.451   0.880   5.643 -1.1677 -1.9522  3.1500
 9452SOL     OW39991   0.741   4.600   1.153 -0.0436 -0.3297 -0.3485
 9452SOL    HW139992   0.751   4.547   1.232  0.7075 -0.4924 -0.5581
 9452SOL    HW239993   0.812   4.577   1.093  0.6836  0.2885  0.2748
 9453SOL     OW39994   1.105   4.331   3.310 -0.2624 -0.4879  1.0724
 9453SOL    HW139995   1.109   4.274   3.233 -0.8301  0.7787  0.1004
 9453SOL    HW239996   1.010   4.340   3.310 -0.2124  0.0703 -0.0683
 9454SOL     OW39997   2.734   3.767   5.907  0.5675 -0.1929  0.4220
 9454SOL    HW139998   2.764   3.722   5.828  3.4425  1.4708  0.5599
 9454SOL    HW239999   2.768   3.857   5.903  1.2250 -0.4027  1.2678
 9455SOL     OW40000   1.674   0.748   0.649 -0.0886 -0.0043  0.1399
 9455SOL    HW140001   1.691   0.842   0.635  2.7773 -0.3759  1.1483
 9455SOL    HW240002   1.701   0.734   0.740 -0.4790 -1.0293  0.0985
 9456SOL     OW40003   1.265   0.332  12.966  0.2329  0.3447 -0.0864
 9456SOL    HW140004   1.244   0.425  12.968  0.8077  0.4171  2.0449
 9456SOL    HW240005   1.201   0.308  12.898  0.7180  0.3048 -0.5307
 9457SOL     OW40006   3.171   2.084  12.428  0.5864  0.0550  0.0843
 9457SOL    HW140007   3.153   2.178  12.426  0.5412  0.0413 -0.2047
 9457SOL    HW240008   3.262   2.079  12.400 -0.6018  3.0780 -4.4048
 9458SOL     OW40009   2.208   4.027   7.874 -0.2987 -0.1560 -0.5234
 9458SOL    HW140010   2.128   4.031   7.927 -0.2932  2.8971 -0.7555
 9458SOL    HW240011   2.204   3.932   7.863 -0.0723 -0.2172 -0.0355
 9459SOL     OW40012   2.088   3.039   3.121 -0.5809 -0.4949  0.4427
 9459SOL    HW140013   2.013   3.059   3.177 -0.7906 -1.4676  0.5092
 9459SOL    HW240014   2.164   3.069   3.171 -0.4287  2.6189 -1.6640
 9460SOL     OW40015   0.357   1.759  10.269 -0.3020  0.2770 -0.6135
 9460SOL    HW140016   0.280   1.728  10.317 -0.2601  2.0516  0.5926
 9460SOL    HW240017   0.422   1.691  10.283  0.4193  0.8690 -1.0576
 9461SOL     OW40018   3.796   3.890   2.630 -0.3900  0.3770  0.3767
 9461SOL    HW140019   3.760   3.890   2.719 -0.9397  2.1023  0.1519
 9461SOL    HW240020   3.721   3.911   2.575  0.8117 -0.9446 -1.7646
 9462SOL     OW40021   4.654   1.683   5.361  0.2836  0.5402 -0.0926
 9462SOL    HW140022   4.714   1.645   5.426 -1.3181  1.0014  1.6781
 9462SOL    HW240023   4.594   1.612   5.338  2.7569 -2.7798  3.6759
 9463SOL     OW40024   2.661   0.364  13.956  0.1708  0.5597 -0.7676
 9463SOL    HW140025   2.582   0.366  13.902 -1.0691  0.3320  1.0736
 9463SOL    HW240026   2.727   0.357  13.886  0.1499 -4.5712 -0.3175
 9464SOL     OW40027   1.394   4.705  15.165  0.0443  0.0276 -0.5659
 9464SOL    HW140028   1.418   4.717  15.073  0.2732  0.7062 -0.4180
 9464SOL    HW240029   1.425   4.620  15.197 -0.9885 -0.6510 -1.3491
 9465SOL     OW40030   1.562   2.694   4.903 -0.1563  0.0489 -0.1761
 9465SOL    HW140031   1.656   2.679   4.903 -0.3748 -1.3011 -2.1755
 9465SOL    HW240032   1.527   2.609   4.930  1.8572 -0.6883  0.1225
 9466SOL     OW40033   1.922   2.150   5.815 -0.5774  0.2794 -0.4072
 9466SOL    HW140034   1.984   2.140   5.742  0.4092  0.1899  0.4337
 9466SOL    HW240035   1.944   2.231   5.862 -0.1838  1.1365 -2.0818
 9467SOL     OW40036   3.430   1.291   1.675  0.3038 -0.6274  0.3209
 9467SOL    HW140037   3.482   1.363   1.711 -0.0853  0.5943 -1.6099
 9467SOL    HW240038   3.461   1.298   1.585  0.6154  0.0054  0.4770
 9468SOL     OW40039   4.324   1.269   3.200 -0.0100  0.2544 -0.2105
 9468SOL    HW140040   4.276   1.199   3.156 -0.0668 -1.3180  2.3811
 9468SOL    HW240041   4.314   1.349   3.148 -1.3212  0.6229  0.6078
 9469SOL     OW40042   1.337   4.251   3.106  0.3264  0.4106  0.2353
 9469SOL    HW140043   1.397   4.235   3.032 -0.9402 -2.4674 -0.1849
 9469SOL    HW240044   1.254   4.214   3.075 -0.2735  0.1765  2.1521
 9470SOL     OW40045   0.754   3.516  16.535 -0.1846  0.1243  0.1287
 9470SOL    HW140046   0.668   3.514  16.493 -0.0388 -0.5102 -0.1335
 9470SOL    HW240047   0.736   3.488  16.625  0.7045  1.2934  0.6756
 9471SOL     OW40048   2.077   0.496   9.783  0.3475  0.6783 -0.1746
 9471SOL    HW140049   2.002   0.439   9.798 -0.1995  1.7452  1.1135
 9471SOL    HW240050   2.139   0.430   9.752  1.4585  2.8562 -2.7012
 9472SOL     OW40051   0.838   4.386   3.298  0.0921 -0.4481 -0.0183
 9472SOL    HW140052   0.767   4.354   3.243 -1.5809  2.5120  0.3719
 9472SOL    HW240053   0.790   4.365   3.379 -0.9782  2.7081  0.1912
 9473SOL     OW40054   4.471   1.047   7.605  0.5330  0.4812 -0.2981
 9473SOL    HW140055   4.382   1.081   7.617  0.1026 -0.5816 -0.4210
 9473SOL    HW240056   4.470   1.025   7.511 -0.5981 -0.6353 -0.0275
 9474SOL     OW40057   0.002   0.130   8.010  0.0598 -0.3425 -0.1714
 9474SOL    HW140058   0.048   0.189   8.070  1.4580  1.1791 -2.7625
 9474SOL    HW240059   0.048   0.047   8.016 -0.6473 -0.8306 -1.6545
 9475SOL     OW40060   0.387   2.458   3.161  0.0276  0.1614 -0.5569
 9475SOL    HW140061   0.330   2.426   3.092  1.5580 -0.1325 -1.7017
 9475SOL    HW240062   0.329   2.463   3.237  0.0807  1.4709 -0.5942
 9476SOL     OW40063   4.134   3.644   9.470  0.0837  0.5101  0.2111
 9476SOL    HW140064   4.060   3.647   9.530 -1.0877  0.5690 -1.2455
 9476SOL    HW240065   4.144   3.551   9.454  2.0826  0.7684 -0.0120
 9477SOL     OW40066   0.502   0.366   1.836  0.7157  0.0926  0.3084
 9477SOL    HW140067   0.518   0.415   1.756  0.7295 -0.9614 -0.3377
 9477SOL    HW240068   0.562   0.416   1.891  2.0453 -0.3513 -0.7364
 9478SOL     OW40069   3.930   1.092   5.139 -0.1452  0.3427 -0.0508
 9478SOL    HW140070   3.894   1.137   5.216 -1.1607 -0.2348 -0.1993
 9478SOL    HW240071   4.001   1.035   5.169 -2.6877 -2.0110  1.4262
 9479SOL     OW40072   3.811   1.904  17.688 -0.2395 -0.2269  0.2506
 9479SOL    HW140073   3.796   1.814  17.660  1.9440 -1.0870  1.9016
 9479SOL    HW240074   3.846   1.896   0.031  0.3674  2.3351  0.2374
 9480SOL     OW40075   1.133   2.382   6.073  0.4506 -0.5296 -0.4803
 9480SOL    HW140076   1.123   2.395   6.167 -2.0601  0.4555 -0.8823
 9480SOL    HW240077   1.113   2.289   6.062 -0.5998 -0.3107 -0.4204
 9481SOL     OW40078   4.360   3.162   3.668  0.7424  0.1533 -0.2570
 9481SOL    HW140079   4.409   3.222   3.725  0.8976 -1.1702  1.0159
 9481SOL    HW240080   4.286   3.216   3.642  0.7694  0.9230  1.2629
 9482SOL     OW40081   0.667   3.814  16.416 -0.4290  0.0494 -0.3779
 9482SOL    HW140082   0.606   3.745  16.444  1.3403 -2.2250 -2.0868
 9482SOL    HW240083   0.678   3.782  16.326 -0.7972 -0.3618 -0.2765
 9483SOL     OW40084   1.221   4.215   8.164 -0.6019 -0.3554 -0.1965
 9483SOL    HW140085   1.181   4.134   8.132 -0.6584 -0.9971  1.4757
 9483SOL    HW240086   1.198   4.222   8.257 -2.0409 -2.3561 -0.3963
 9484SOL     OW40087   2.585   0.934  16.849 -0.2927  0.4689  0.5776
 9484SOL    HW140088   2.544   0.904  16.768  2.9973 -0.4790 -0.7409
 9484SOL    HW240089   2.643   0.864  16.877  0.4762  1.0173  0.3533
 9485SOL     OW40090   4.309   1.307   6.702 -0.4257 -0.2507 -0.1788
 9485SOL    HW140091   4.270   1.268   6.780  2.0741  0.0008  1.2066
 9485SOL    HW240092   4.269   1.394   6.710 -0.6678 -0.2186 -1.7594
 9486SOL     OW40093   4.675   1.916  11.717 -0.0482  0.0583  0.3202
 9486SOL    HW140094   4.704   1.874  11.798 -1.2964 -1.2340  0.1030
 9486SOL    HW240095   4.705   1.856  11.648  1.7733  0.9159  0.3728
 9487SOL     OW40096   3.112   3.341   6.895  0.7048 -0.3108  0.0250
 9487SOL    HW140097   3.122   3.331   6.990 -2.7421  3.8683  0.8225
 9487SOL    HW240098   3.019   3.322   6.884  0.2924  0.9435  1.4066
 9488SOL     OW40099   2.561   3.379   8.626 -0.2048  0.7144  0.4159
 9488SOL    HW140100   2.637   3.341   8.671 -0.5544  0.0756  0.4747
 9488SOL    HW240101   2.499   3.406   8.693 -0.7872 -0.4709  0.3639
 9489SOL     OW40102   1.596   3.814  13.793  0.6984 -0.0727  0.4071
 9489SOL    HW140103   1.591   3.787  13.701  2.1448 -0.1667  0.3696
 9489SOL    HW240104   1.679   3.773  13.816  0.0724 -1.1433  0.7924
 9490SOL     OW40105   4.224   0.059   7.119 -0.1423 -0.2820  0.3294
 9490SOL    HW140106   4.257   0.102   7.040  0.3440  0.6305  1.0242
 9490SOL    HW240107   4.285   0.109   7.175  0.4053 -0.0844 -0.4416
 9491SOL     OW40108   2.106   0.527   1.759  0.3352  0.2929  0.2188
 9491SOL    HW140109   2.143   0.610   1.789  0.4191  1.7940 -4.1408
 9491SOL    HW240110   2.044   0.505   1.829 -1.0497 -1.0715 -1.4270
 9492SOL     OW40111   1.852   4.307   4.646  0.2889 -0.3020  0.0753
 9492SOL    HW140112   1.883   4.398   4.652 -0.6879 -0.0704  1.5766
 9492SOL    HW240113   1.916   4.261   4.701 -0.7585  0.4222  1.8785
 9493SOL     OW40114   1.069   3.005   4.037 -0.8177 -0.1650  1.1565
 9493SOL    HW140115   1.139   2.954   3.996 -0.9081  0.3817  0.3157
 9493SOL    HW240116   1.037   2.936   4.095 -1.0886 -1.1210 -0.1456
 9494SOL     OW40117   1.231   4.077   2.831  0.0189 -0.4058  0.5548
 9494SOL    HW140118   1.218   4.163   2.791 -0.6457 -0.9338 -0.3717
 9494SOL    HW240119   1.141   4.057   2.857 -0.8407  1.1828 -1.1767
 9495SOL     OW40120   1.172   2.921   8.142 -0.7381 -0.3051 -0.4322
 9495SOL    HW140121   1.262   2.938   8.114  0.3905 -1.6882  2.3616
 9495SOL    HW240122   1.158   2.827   8.131 -0.3278 -0.0162 -3.4918
 9496SOL     OW40123   4.439   2.222  13.146  0.3407 -0.1929  0.5643
 9496SOL    HW140124   4.427   2.298  13.204 -1.9721  0.3398 -0.6019
 9496SOL    HW240125   4.413   2.259  13.062 -0.0101 -0.0991  0.7126
 9497SOL     OW40126   3.768   1.595   7.897  0.3147 -0.6485  0.0911
 9497SOL    HW140127   3.766   1.681   7.855 -1.3993 -1.1820 -0.9315
 9497SOL    HW240128   3.800   1.625   7.982  1.0627  1.7789 -1.0512
 9498SOL     OW40129   1.464   3.451   7.048  0.1022  0.2586 -0.1196
 9498SOL    HW140130   1.534   3.495   7.097 -0.9082 -0.5198  2.0554
 9498SOL    HW240131   1.509   3.387   6.993  3.5793  0.5812  2.3438
 9499SOL     OW40132   0.509   0.766   8.351  0.2228 -0.3579  0.3354
 9499SOL    HW140133   0.603   0.779   8.338  0.5017 -0.8685  1.8949
 9499SOL    HW240134   0.481   0.798   8.265  1.0036 -0.7488 -0.0676
 9500SOL     OW40135   2.946   3.870   3.229 -0.0063 -0.1842 -0.1156
 9500SOL    HW140136   2.966   3.803   3.295  0.7019 -1.0070 -1.1670
 9500SOL    HW240137   3.029   3.911   3.208 -0.2838  0.7800  0.6563
 9501SOL     OW40138   0.171   2.885   8.890 -0.1404  0.4291 -0.1323
 9501SOL    HW140139   0.250   2.846   8.852 -1.1209  0.9974 -2.7341
 9501SOL    HW240140   0.103   2.817   8.892 -0.2634  0.5436 -0.5202
 9502SOL     OW40141   0.675   3.164  12.911  0.1638 -0.5076  0.2608
 9502SOL    HW140142   0.589   3.200  12.934  1.0712  2.2198 -0.7007
 9502SOL    HW240143   0.658   3.075  12.942 -1.5829 -0.1988  0.2146
 9503SOL     OW40144   3.367   0.181   0.325 -0.0726  0.0078  0.6378
 9503SOL    HW140145   3.272   0.180   0.320 -0.1615  1.8256  1.8486
 9503SOL    HW240146   3.386   0.271   0.296 -0.3339  0.5072  1.9874
 9504SOL     OW40147   2.041   0.854   6.474 -0.2250  0.4715 -0.1326
 9504SOL    HW140148   2.126   0.880   6.439  0.5600 -0.4074  1.1532
 9504SOL    HW240149   2.003   0.938   6.501  1.1263  1.1913 -0.4633
 9505SOL     OW40150   1.306   1.099   2.791 -0.1376  0.4800 -0.0982
 9505SOL    HW140151   1.319   1.189   2.759 -1.5951  1.0514  0.9241
 9505SOL    HW240152   1.282   1.057   2.709  1.0547  0.0140 -0.2105
 9506SOL     OW40153   0.935   3.195  16.621  0.2823 -0.2328  0.4571
 9506SOL    HW140154   0.853   3.235  16.593 -0.2772 -0.9960  1.0187
 9506SOL    HW240155   0.954   3.164  16.533  1.9905 -1.7456  1.3505
 9507SOL     OW40156   1.795   3.801  13.475  0.3950  0.2580  0.1180
 9507SOL    HW140157   1.839   3.716  13.463 -2.0781 -1.0659  0.4533
 9507SOL    HW240158   1.712   3.772  13.512 -1.3909  0.5369 -3.6819
 9508SOL     OW40159   2.140   3.372  11.595 -0.4474 -0.3830  0.0790
 9508SOL    HW140160   2.047   3.364  11.618  0.0630  0.3881  2.3096
 9508SOL    HW240161   2.169   3.446  11.648 -0.2932 -0.4572  0.0988
 9509SOL     OW40162   1.276   2.093   4.228  0.7546  0.1090  0.7013
 9509SOL    HW140163   1.319   2.072   4.145  1.6817  1.5288  0.8205
 9509SOL    HW240164   1.184   2.088   4.202  0.5895  0.0985  1.2927
 9510SOL     OW40165   4.512   2.574  10.819  0.0878  0.7112 -0.3925
 9510SOL    HW140166   4.588   2.538  10.774 -0.3805 -2.1524  1.0631
 9510SOL    HW240167   4.455   2.602  10.748 -1.7582  1.1159  1.2422
 9511SOL     OW40168   0.858   0.029   8.413  0.0212 -0.1354  0.2127
 9511SOL    HW140169   0.847   0.118   8.447 -0.0922 -0.2212  0.4007
 9511SOL    HW240170   0.903   4.727   8.488 -0.0681 -0.9891 -0.1813
 9512SOL     OW40171   1.734   2.084   9.261  0.4431 -0.0929 -0.3887
 9512SOL    HW140172   1.735   2.120   9.172  0.5629  1.8271  0.3928
 9512SOL    HW240173   1.780   2.001   9.247  0.2986 -0.0657 -1.0053
 9513SOL     OW40174   0.635   1.578  14.630  0.2105 -0.6564  0.3091
 9513SOL    HW140175   0.692   1.505  14.607 -3.0358 -3.3109  0.6452
 9513SOL    HW240176   0.649   1.571  14.725  0.0455  1.7882  0.5134
 9514SOL     OW40177   3.057   1.513   8.349  0.0291 -0.1054 -0.0920
 9514SOL    HW140178   3.004   1.436   8.370 -0.0307 -0.0525 -0.0478
 9514SOL    HW240179   3.121   1.469   8.294 -1.6686 -1.4498 -1.0047
 9515SOL     OW40180   3.743   1.163   6.876 -0.1394  0.2435 -0.9126
 9515SOL    HW140181   3.800   1.225   6.922 -0.4307  0.5547 -0.9706
 9515SOL    HW240182   3.680   1.223   6.837 -0.3281  2.9060  3.4745
 9516SOL     OW40183   1.028   2.965  15.819 -0.2487  0.5980  0.1884
 9516SOL    HW140184   0.954   2.949  15.877  1.2922 -1.8600  1.4897
 9516SOL    HW240185   0.987   3.031  15.763  0.7853  0.2426 -0.9890
 9517SOL     OW40186   3.110   0.878   7.093  0.4190  0.0627  0.8367
 9517SOL    HW140187   3.065   0.879   7.177 -0.5706  2.5035  0.2882
 9517SOL    HW240188   3.184   0.939   7.101 -0.4486  1.3956 -1.3851
 9518SOL     OW40189   0.055   1.508   5.610  0.5804  0.2618 -0.3309
 9518SOL    HW140190   0.029   1.600   5.609 -0.0296  0.1014  0.9677
 9518SOL    HW240191   0.024   1.476   5.694 -2.1665 -0.3793 -1.6062
 9519SOL     OW40192   0.403   1.819   7.518  0.3408  0.4260  0.7395
 9519SOL    HW140193   0.408   1.724   7.516 -1.9703  0.3139  0.5870
 9519SOL    HW240194   0.330   1.823   7.580 -1.3724 -0.4633 -1.2224
 9520SOL     OW40195   1.172   2.477   7.007  0.2784  0.0709 -0.0247
 9520SOL    HW140196   1.106   2.469   6.938 -0.4524 -1.7884  0.8710
 9520SOL    HW240197   1.251   2.482   6.953  0.9465 -1.2157  0.8340
 9521SOL     OW40198   0.888   1.841   1.793  0.1507  0.2935 -0.2042
 9521SOL    HW140199   0.953   1.793   1.845  1.1134  1.1870 -0.5832
 9521SOL    HW240200   0.815   1.779   1.793  0.7695 -0.4430 -0.0928
 9522SOL     OW40201   0.563   4.042   1.889 -0.2443  0.3929 -0.1633
 9522SOL    HW140202   0.606   3.991   1.821  0.5169 -0.2964  0.8439
 9522SOL    HW240203   0.475   4.046   1.851 -0.4124  1.2519  0.3170
 9523SOL     OW40204   4.077   2.364   4.999 -0.4399 -0.4863 -0.7433
 9523SOL    HW140205   4.002   2.320   5.038 -0.2927 -1.6055 -1.7143
 9523SOL    HW240206   4.078   2.319   4.914 -0.6560 -0.7873 -0.5872
 9524SOL     OW40207   2.439   3.638   5.677  0.2097 -0.5595 -0.2896
 9524SOL    HW140208   2.358   3.591   5.659 -0.5807  0.1608  1.3955
 9524SOL    HW240209   2.509   3.573   5.663  0.9572  0.2396 -0.2660
 9525SOL     OW40210   3.060   2.444   6.247  0.4672 -0.1992  0.2574
 9525SOL    HW140211   3.044   2.449   6.342 -0.0188  0.2823  0.1494
 9525SOL    HW240212   3.016   2.360   6.233 -1.1003  0.7914 -0.7322
 9526SOL     OW40213   2.514   3.327   2.340  0.2315  0.0119  0.0424
 9526SOL    HW140214   2.479   3.273   2.270  0.8617 -0.1538 -0.1390
 9526SOL    HW240215   2.478   3.415   2.325 -0.4544 -0.5566 -1.6395
 9527SOL     OW40216   2.318   0.175  11.870  0.0660 -0.4508  0.0095
 9527SOL    HW140217   2.389   0.170  11.934 -0.3972 -0.1219  0.5483
 9527SOL    HW240218   2.367   0.228  11.808  1.0552 -2.8559 -1.2943
 9528SOL     OW40219   3.629   1.120   4.975  0.1879 -0.8248 -0.1820
 9528SOL    HW140220   3.624   1.115   5.070  0.0021 -1.4076 -0.2229
 9528SOL    HW240221   3.613   1.212   4.954 -1.9677 -1.4184 -1.1071
 9529SOL     OW40222   1.192   2.553   5.135 -0.0061  0.2349 -0.7183
 9529SOL    HW140223   1.184   2.536   5.229 -4.0265  0.4990 -1.0416
 9529SOL    HW240224   1.127   2.621   5.120  0.0494  0.3786 -0.3054
 9530SOL     OW40225   4.253   0.998  12.665  0.2965  0.3949  0.2888
 9530SOL    HW140226   4.334   0.967  12.624 -0.2464 -0.7375  0.0900
 9530SOL    HW240227   4.272   0.955  12.748 -0.9076 -2.5434 -0.9645
 9531SOL     OW40228   1.518   2.370   5.198  0.5622 -0.2945 -0.2466
 9531SOL    HW140229   1.531   2.277   5.216 -1.8160  0.0704  3.2088
 9531SOL    HW240230   1.555   2.416   5.273 -0.3771 -0.4729  0.3295
 9532SOL     OW40231   3.837   2.480  13.308 -0.2745  0.1077 -0.4742
 9532SOL    HW140232   3.913   2.491  13.365 -0.1827 -0.1680 -0.5415
 9532SOL    HW240233   3.842   2.388  13.280 -1.3843 -0.9897  2.8718
 9533SOL     OW40234   4.289   0.054   2.305 -0.3751  0.4120  0.2630
 9533SOL    HW140235   4.237   0.060   2.385  1.0478  0.2968  1.2127
 9533SOL    HW240236   4.233   0.108   2.250  2.2617  0.9203 -1.9537
 9534SOL     OW40237   0.961   3.848   6.041  0.0641  0.0417  0.1470
 9534SOL    HW140238   1.030   3.900   6.002  0.7804 -0.3160  0.9379
 9534SOL    HW240239   0.987   3.862   6.132  1.4595  3.6335 -0.8451
 9535SOL     OW40240   1.299   1.330   7.906 -0.0433 -0.0294 -0.2957
 9535SOL    HW140241   1.323   1.388   7.833  0.0015  1.8314  1.2021
 9535SOL    HW240242   1.324   1.393   7.973 -0.6947 -0.3073  0.2119
 9536SOL     OW40243   1.317   3.951   5.021 -0.7093 -0.0598 -0.3260
 9536SOL    HW140244   1.281   3.915   5.102  1.9919 -0.2943  0.7530
 9536SOL    HW240245   1.355   3.874   4.979 -0.8937 -0.1065 -0.4110
 9537SOL     OW40246   0.582   3.163  15.692  0.1719 -0.3839 -0.3916
 9537SOL    HW140247   0.494   3.149  15.727  0.6611  0.6798  1.2603
 9537SOL    HW240248   0.554   3.187  15.603  0.2674 -2.4366 -0.9792
 9538SOL     OW40249   3.406   1.927  15.711 -0.4292  0.7619  0.0177
 9538SOL    HW140250   3.311   1.927  15.702 -0.5250  1.3852  1.0144
 9538SOL    HW240251   3.429   1.998  15.771  1.1399  0.1288  0.1794
 9539SOL     OW40252   3.948   1.310   9.272 -0.3938 -1.0035  0.1991
 9539SOL    HW140253   3.985   1.394   9.300  1.2508 -1.3859 -0.8202
 9539SOL    HW240254   3.870   1.334   9.222  1.0846  0.6138 -1.3510
 9540SOL     OW40255   0.302   0.156   1.498 -0.2586  0.4603 -1.1415
 9540SOL    HW140256   0.329   0.121   1.583  0.2636 -0.1063 -1.5451
 9540SOL    HW240257   0.374   0.122   1.446 -1.1894  0.9158 -2.7044
 9541SOL     OW40258   0.893   3.756   8.781 -0.6218 -0.4234 -0.1124
 9541SOL    HW140259   0.965   3.716   8.732  1.3288  2.1424  0.6680
 9541SOL    HW240260   0.909   3.705   8.861  0.3370  1.3578  0.8318
 9542SOL     OW40261   4.479   1.989   5.665 -0.2441  0.0913 -0.0629
 9542SOL    HW140262   4.475   1.958   5.574  0.4532 -2.1339  0.6684
 9542SOL    HW240263   4.533   2.067   5.650  0.3036 -0.4833 -1.1296
 9543SOL     OW40264   1.106   0.067   9.042  0.0623 -0.2724  0.1038
 9543SOL    HW140265   1.114   0.157   9.075 -2.3797 -1.5057  4.0392
 9543SOL    HW240266   1.118   0.021   9.125  0.0809  1.1027  0.8598
 9544SOL     OW40267   1.409   4.551   3.677 -0.1431  0.0767 -0.0898
 9544SOL    HW140268   1.341   4.523   3.616 -1.7166 -0.8381  2.0825
 9544SOL    HW240269   1.488   4.517   3.636 -2.3115 -1.7681 -2.6958
 9545SOL     OW40270   2.999   0.172  13.757 -0.0019  0.2603  0.2662
 9545SOL    HW140271   3.094   0.156  13.760 -0.1114 -0.7691 -1.8033
 9545SOL    HW240272   2.976   0.090  13.714  1.1779  0.1699 -0.2004
 9546SOL     OW40273   2.527   3.221   8.401 -0.0944  0.0513 -0.0906
 9546SOL    HW140274   2.562   3.255   8.484 -3.2842  0.9919  0.8801
 9546SOL    HW240275   2.438   3.253   8.416 -0.8714 -2.4529  0.5388
 9547SOL     OW40276   3.790   0.478   5.979  0.0117  0.3346  0.1068
 9547SOL    HW140277   3.754   0.451   6.063 -1.4345  1.3298 -0.2125
 9547SOL    HW240278   3.716   0.522   5.938 -0.4506 -0.8760 -0.3830
 9548SOL     OW40279   4.172   1.560   6.753 -0.8172  0.5205 -0.4942
 9548SOL    HW140280   4.211   1.619   6.688 -2.5669  0.6292 -1.4481
 9548SOL    HW240281   4.212   1.584   6.836 -0.8868  0.4775 -0.4483
 9549SOL     OW40282   2.759   2.178  12.161 -0.2429  0.3805 -0.4428
 9549SOL    HW140283   2.781   2.118  12.089 -0.9470 -0.6942  0.2313
 9549SOL    HW240284   2.790   2.124  12.234 -1.2223  0.0147 -0.2962
 9550SOL     OW40285   2.453   3.798   1.463  0.3688 -0.1808  0.0297
 9550SOL    HW140286   2.373   3.777   1.511 -0.4430 -0.8193 -1.6050
 9550SOL    HW240287   2.466   3.886   1.499 -2.5741  0.1608  0.2164
 9551SOL     OW40288   3.275   1.547   8.930  0.0202  0.4491 -0.0720
 9551SOL    HW140289   3.356   1.586   8.898 -0.3552  1.8308  0.6344
 9551SOL    HW240290   3.249   1.493   8.855  0.7662  2.0282 -1.4676
 9552SOL     OW40291   4.432   2.864   2.220 -0.1684  0.0605 -0.4749
 9552SOL    HW140292   4.408   2.841   2.309 -2.0211  1.5171 -0.5857
 9552SOL    HW240293   4.363   2.930   2.207 -0.3529 -0.0963 -0.2852
 9553SOL     OW40294   2.057   2.138   1.902  0.4006 -0.2352  0.2844
 9553SOL    HW140295   2.059   2.104   1.813  1.5391  0.7240 -0.0621
 9553SOL    HW240296   2.089   2.228   1.890  0.8279 -0.5115 -0.6651
 9554SOL     OW40297   0.888   4.396   0.781 -0.2904 -0.0696  0.2957
 9554SOL    HW140298   0.912   4.315   0.735  0.1843 -0.1456  0.6811
 9554SOL    HW240299   0.860   4.454   0.710  3.0523 -0.5263 -1.4037
 9555SOL     OW40300   3.381   3.710  10.275  0.0362 -0.5569 -0.1005
 9555SOL    HW140301   3.336   3.695  10.191 -0.3572 -2.5747  0.4701
 9555SOL    HW240302   3.352   3.635  10.327  1.2415 -2.4222 -2.0971
 9556SOL     OW40303   2.169   0.656   7.570 -0.6740 -0.3175 -0.1626
 9556SOL    HW140304   2.243   0.716   7.559 -0.5878 -0.4988 -0.5515
 9556SOL    HW240305   2.101   0.703   7.522 -1.2773 -1.6098 -0.5499
 9557SOL     OW40306   0.734   0.344   6.671  0.0295 -0.6828  0.4101
 9557SOL    HW140307   0.786   0.370   6.747 -0.7151  0.4294  0.5337
 9557SOL    HW240308   0.706   0.429   6.637 -0.2667 -0.4383  1.2506
 9558SOL     OW40309   3.956   1.058  11.502 -0.0573  0.8128  0.0984
 9558SOL    HW140310   3.967   1.147  11.468 -0.7692  1.2355  0.9583
 9558SOL    HW240311   4.047   1.032  11.509 -0.1449 -0.0858 -1.9670
 9559SOL     OW40312   3.966   4.003   5.257  0.2583 -0.3563  0.3295
 9559SOL    HW140313   4.055   3.984   5.286  0.9518  1.7208 -0.4583
 9559SOL    HW240314   3.969   4.097   5.242 -2.5406 -0.7092 -2.3379
 9560SOL     OW40315   3.775   0.081   5.013 -0.3709  0.1614  0.3179
 9560SOL    HW140316   3.838   0.036   4.957 -0.2904  1.5653 -0.7065
 9560SOL    HW240317   3.829   0.117   5.084 -1.7766  1.9196  0.4896
 9561SOL     OW40318   1.187   3.253   6.571  0.1993  0.0478 -0.1025
 9561SOL    HW140319   1.156   3.283   6.656  0.8652  0.2113  0.0817
 9561SOL    HW240320   1.124   3.294   6.512 -0.0797  1.4992  1.2119
 9562SOL     OW40321   1.430   0.821   3.705  0.4144 -0.4188  0.1903
 9562SOL    HW140322   1.352   0.870   3.729  0.8173  1.1059 -1.6539
 9562SOL    HW240323   1.459   0.802   3.794  2.7975  0.9584 -0.2919
 9563SOL     OW40324   0.490   3.205  10.981  0.6707 -0.2060  0.0002
 9563SOL    HW140325   0.489   3.141  11.052 -0.6135 -1.5437 -1.1932
 9563SOL    HW240326   0.440   3.161  10.912 -0.9684  0.0171  1.0471
 9564SOL     OW40327   1.653   1.879   3.062  0.5301 -1.1055  0.0037
 9564SOL    HW140328   1.722   1.817   3.085 -0.1343 -1.6185  0.5868
 9564SOL    HW240329   1.691   1.964   3.087  2.4926 -1.9536 -0.0545
 9565SOL     OW40330   4.563   3.110   7.392 -0.0161  0.0952  0.2367
 9565SOL    HW140331   4.582   3.180   7.455 -1.7616  0.3023  0.5279
 9565SOL    HW240332   4.620   3.047   7.437 -1.4486 -1.1534  0.3067
 9566SOL     OW40333   2.181   0.825   2.749 -0.0438  0.0254  0.4527
 9566SOL    HW140334   2.168   0.797   2.840  2.2766  1.3028  1.1845
 9566SOL    HW240335   2.209   0.916   2.760  2.0576 -0.6046  0.3505
 9567SOL     OW40336   3.012   4.301   3.582 -0.0808  0.1709 -0.0057
 9567SOL    HW140337   2.993   4.251   3.661  1.8767  1.2615  1.1820
 9567SOL    HW240338   3.005   4.390   3.617 -1.3185  1.0568 -2.5681
 9568SOL     OW40339   3.278   0.063  14.194 -0.1186 -0.9881  0.0142
 9568SOL    HW140340   3.346   0.089  14.132 -0.5114  1.0088  0.4195
 9568SOL    HW240341   3.229   0.146  14.197 -0.4183 -1.1536 -0.3121
 9569SOL     OW40342   1.735   0.350  10.498  0.1062  0.3286  0.3575
 9569SOL    HW140343   1.807   0.410  10.481  0.3119 -0.3476 -1.2095
 9569SOL    HW240344   1.725   0.371  10.591 -0.0775 -0.3001  0.4784
   4.73651   4.73651  17.74454
